 Entering Gaussian System, Link 0=/apps/gaussian/g09e01/g09/g09
 AtFile(1): /home/507/hio507/Basis/6-31pGd.gbs
 Initial command:
 /apps/gaussian/g09e01/g09/l1.exe "/jobfs/local/1827396.r-man2/Gau-24529.inp" -scrdir="/jobfs/local/1827396.r-man2/"
 Entering Link 1 = /apps/gaussian/g09e01/g09/l1.exe PID=     24530.
  
 Copyright (c) 1988,1990,1992,1993,1995,1998,2003,2009,2015,
            Gaussian, Inc.  All Rights Reserved.
  
 This is part of the Gaussian(R) 09 program.  It is based on
 the Gaussian(R) 03 system (copyright 2003, Gaussian, Inc.),
 the Gaussian(R) 98 system (copyright 1998, Gaussian, Inc.),
 the Gaussian(R) 94 system (copyright 1995, Gaussian, Inc.),
 the Gaussian 92(TM) system (copyright 1992, Gaussian, Inc.),
 the Gaussian 90(TM) system (copyright 1990, Gaussian, Inc.),
 the Gaussian 88(TM) system (copyright 1988, Gaussian, Inc.),
 the Gaussian 86(TM) system (copyright 1986, Carnegie Mellon
 University), and the Gaussian 82(TM) system (copyright 1983,
 Carnegie Mellon University). Gaussian is a federally registered
 trademark of Gaussian, Inc.
  
 This software contains proprietary and confidential information,
 including trade secrets, belonging to Gaussian, Inc.
  
 This software is provided under written license and may be
 used, copied, transmitted, or stored only in accord with that
 written license.
  
 The following legend is applicable only to US Government
 contracts under FAR:
  
                    RESTRICTED RIGHTS LEGEND
  
 Use, reproduction and disclosure by the US Government is
 subject to restrictions as set forth in subparagraphs (a)
 and (c) of the Commercial Computer Software - Restricted
 Rights clause in FAR 52.227-19.
  
 Gaussian, Inc.
 340 Quinnipiac St., Bldg. 40, Wallingford CT 06492
  
  
 ---------------------------------------------------------------
 Warning -- This program may not be used in any manner that
 competes with the business of Gaussian, Inc. or will provide
 assistance to any competitor of Gaussian, Inc.  The licensee
 of this program is prohibited from giving any competitor of
 Gaussian, Inc. access to this program.  By using this program,
 the user acknowledges that Gaussian, Inc. is engaged in the
 business of creating and licensing software in the field of
 computational chemistry and represents and warrants to the
 licensee that it is not a competitor of Gaussian, Inc. and that
 it will not use this program in any manner prohibited above.
 ---------------------------------------------------------------
  

 Cite this work as:
 Gaussian 09, Revision E.01,
 M. J. Frisch, G. W. Trucks, H. B. Schlegel, G. E. Scuseria, 
 M. A. Robb, J. R. Cheeseman, G. Scalmani, V. Barone, B. Mennucci, 
 G. A. Petersson, H. Nakatsuji, M. Caricato, X. Li, H. P. Hratchian, 
 A. F. Izmaylov, J. Bloino, G. Zheng, J. L. Sonnenberg, M. Hada, 
 M. Ehara, K. Toyota, R. Fukuda, J. Hasegawa, M. Ishida, T. Nakajima, 
 Y. Honda, O. Kitao, H. Nakai, T. Vreven, J. A. Montgomery, Jr., 
 J. E. Peralta, F. Ogliaro, M. Bearpark, J. J. Heyd, E. Brothers, 
 K. N. Kudin, V. N. Staroverov, T. Keith, R. Kobayashi, J. Normand, 
 K. Raghavachari, A. Rendell, J. C. Burant, S. S. Iyengar, J. Tomasi, 
 M. Cossi, N. Rega, J. M. Millam, M. Klene, J. E. Knox, J. B. Cross, 
 V. Bakken, C. Adamo, J. Jaramillo, R. Gomperts, R. E. Stratmann, 
 O. Yazyev, A. J. Austin, R. Cammi, C. Pomelli, J. W. Ochterski, 
 R. L. Martin, K. Morokuma, V. G. Zakrzewski, G. A. Voth, 
 P. Salvador, J. J. Dannenberg, S. Dapprich, A. D. Daniels, 
 O. Farkas, J. B. Foresman, J. V. Ortiz, J. Cioslowski, 
 and D. J. Fox, Gaussian, Inc., Wallingford CT, 2013.
 
 ******************************************
 Gaussian 09:  ES64L-G09RevE.01 30-Nov-2015
                30-Oct-2018 
 ******************************************
 %chk=3SF55Chloro.M062X_6-31pGd_opt_water.chk
 %mem=196608000
 %nproc=4
 Will use up to    4 processors via shared memory.
 ----------------------------------------------------------------------
 # M062X/Gen 6D SCF=Tight INT(grid=ultrafine) OPT IOP(2/17=4) SCRF=(SMD
 ,Solvent=h2o) maxdisk=2684354560
 ----------------------------------------------------------------------
 1/14=-1,18=20,19=15,26=4,38=1/1,3;
 2/9=110,12=2,17=4,18=5,40=1/2;
 3/5=7,8=2,11=2,16=1,25=1,30=1,70=32201,71=1,72=1,74=-55,75=-5/1,2,3;
 4//1;
 5/5=2,32=2,38=5,53=1/2;
 6/7=2,8=2,9=2,10=2,28=1/1;
 7//1,2,3,16;
 1/14=-1,18=20,19=15,26=4/3(2);
 2/9=110,17=4/2;
 99//99;
 2/9=110,17=4/2;
 3/5=7,6=1,8=2,11=2,16=1,25=1,30=1,70=32205,71=1,72=1,74=-55,75=-5,82=7/1,2,3;
 4/5=5,16=3,69=1/1;
 5/5=2,32=2,38=5,53=1/2;
 7//1,2,3,16;
 1/14=-1,18=20,19=15,26=4/3(-5);
 2/9=110,17=4/2;
 6/7=2,8=2,9=2,10=2,19=2,28=1/1;
 99/9=1/99;
 -----------------------------------
 3SF55Chloro.M062X_6-31pGd_opt_water
 -----------------------------------
 Symbolic Z-matrix:
 Charge =  0 Multiplicity = 1
 C                    -1.88082   1.54918  -0.05691 
 C                    -0.46324   0.9966   -0.01106 
 C                     0.56611   2.12808  -0.03556 
 N                     1.90912   1.59345   0.02031 
 C                     3.00314   2.40145   0.00608 
 O                     2.85403   3.61279  -0.04435 
 N                     4.24269   1.83297   0.04736 
 C                     5.52791   2.47375   0.03146 
 C                     5.73659   3.87336  -0.04977 
 C                     6.64805   1.63627   0.10643 
 C                     7.93351   2.15599   0.10625 
 C                     8.13287   3.53014   0.02668 
 C                     7.04424   4.42878  -0.0517 
 H                    -2.60422   0.70809  -0.03896 
 H                    -2.03193   2.13637  -0.98763 
 H                    -2.06667   2.20072   0.82351 
 H                    -0.30146   0.33326  -0.88905 
 H                    -0.33681   0.39799   0.91763 
 H                     0.4064    2.79995   0.83624 
 H                     0.44808   2.71353  -0.97419 
 H                     2.0411    0.56987   0.06725 
 H                     4.26      0.8026    0.09832 
 H                     4.89669   4.52826  -0.1095 
 H                     6.51892   0.56241   0.17098 
 H                     9.15787   3.85875   0.03209 
 S                     7.33219   6.26132  -0.14918 
 F                     5.65677   6.59451  -0.2319 
 F                     7.40151   6.15695  -1.85459 
 F                     7.27141   6.37243   1.5576 
 Cl                    9.31152   1.07568   0.21966 
 F                     7.59739   7.94775  -0.24628 
 F                     9.02871   6.07043  -0.06888 
 

 GradGradGradGradGradGradGradGradGradGradGradGradGradGradGradGradGradGrad
 Berny optimization.
 Initialization pass.
                           ----------------------------
                           !    Initial Parameters    !
                           ! (Angstroms and Degrees)  !
 --------------------------                            --------------------------
 ! Name  Definition              Value          Derivative Info.                !
 --------------------------------------------------------------------------------
 ! R1    R(1,2)                  1.5222         estimate D2E/DX2                !
 ! R2    R(1,14)                 1.1095         estimate D2E/DX2                !
 ! R3    R(1,15)                 1.1108         estimate D2E/DX2                !
 ! R4    R(1,16)                 1.1109         estimate D2E/DX2                !
 ! R5    R(2,3)                  1.5298         estimate D2E/DX2                !
 ! R6    R(2,17)                 1.1122         estimate D2E/DX2                !
 ! R7    R(2,18)                 1.1121         estimate D2E/DX2                !
 ! R8    R(3,4)                  1.4466         estimate D2E/DX2                !
 ! R9    R(3,19)                 1.1122         estimate D2E/DX2                !
 ! R10   R(3,20)                 1.1125         estimate D2E/DX2                !
 ! R11   R(4,5)                  1.3601         estimate D2E/DX2                !
 ! R12   R(4,21)                 1.0331         estimate D2E/DX2                !
 ! R13   R(5,6)                  1.2215         estimate D2E/DX2                !
 ! R14   R(5,7)                  1.3643         estimate D2E/DX2                !
 ! R15   R(7,8)                  1.4362         estimate D2E/DX2                !
 ! R16   R(7,22)                 1.0318         estimate D2E/DX2                !
 ! R17   R(8,9)                  1.4174         estimate D2E/DX2                !
 ! R18   R(8,10)                 1.4006         estimate D2E/DX2                !
 ! R19   R(9,13)                 1.4207         estimate D2E/DX2                !
 ! R20   R(9,23)                 1.0667         estimate D2E/DX2                !
 ! R21   R(10,11)                1.3865         estimate D2E/DX2                !
 ! R22   R(10,24)                1.0835         estimate D2E/DX2                !
 ! R23   R(11,12)                1.3908         estimate D2E/DX2                !
 ! R24   R(11,30)                1.7547         estimate D2E/DX2                !
 ! R25   R(12,13)                1.4138         estimate D2E/DX2                !
 ! R26   R(12,25)                1.0764         estimate D2E/DX2                !
 ! R27   R(13,26)                1.8576         estimate D2E/DX2                !
 ! R28   R(26,27)                1.7102         estimate D2E/DX2                !
 ! R29   R(26,28)                1.71           estimate D2E/DX2                !
 ! R30   R(26,29)                1.7115         estimate D2E/DX2                !
 ! R31   R(26,31)                1.7099         estimate D2E/DX2                !
 ! R32   R(26,32)                1.7091         estimate D2E/DX2                !
 ! A1    A(2,1,14)             109.3605         estimate D2E/DX2                !
 ! A2    A(2,1,15)             110.1105         estimate D2E/DX2                !
 ! A3    A(2,1,16)             110.1714         estimate D2E/DX2                !
 ! A4    A(14,1,15)            109.0011         estimate D2E/DX2                !
 ! A5    A(14,1,16)            108.8258         estimate D2E/DX2                !
 ! A6    A(15,1,16)            109.3443         estimate D2E/DX2                !
 ! A7    A(1,2,3)              110.9555         estimate D2E/DX2                !
 ! A8    A(1,2,17)             109.1591         estimate D2E/DX2                !
 ! A9    A(1,2,18)             109.0523         estimate D2E/DX2                !
 ! A10   A(3,2,17)             109.3048         estimate D2E/DX2                !
 ! A11   A(3,2,18)             109.5717         estimate D2E/DX2                !
 ! A12   A(17,2,18)            108.7622         estimate D2E/DX2                !
 ! A13   A(2,3,4)              110.5306         estimate D2E/DX2                !
 ! A14   A(2,3,19)             109.7321         estimate D2E/DX2                !
 ! A15   A(2,3,20)             109.3499         estimate D2E/DX2                !
 ! A16   A(4,3,19)             109.0448         estimate D2E/DX2                !
 ! A17   A(4,3,20)             108.9999         estimate D2E/DX2                !
 ! A18   A(19,3,20)            109.16           estimate D2E/DX2                !
 ! A19   A(3,4,5)              121.7895         estimate D2E/DX2                !
 ! A20   A(3,4,21)             119.1123         estimate D2E/DX2                !
 ! A21   A(5,4,21)             119.0974         estimate D2E/DX2                !
 ! A22   A(4,5,6)              119.4297         estimate D2E/DX2                !
 ! A23   A(4,5,7)              118.8779         estimate D2E/DX2                !
 ! A24   A(6,5,7)              121.6924         estimate D2E/DX2                !
 ! A25   A(5,7,8)              128.8146         estimate D2E/DX2                !
 ! A26   A(5,7,22)             115.6484         estimate D2E/DX2                !
 ! A27   A(8,7,22)             115.5369         estimate D2E/DX2                !
 ! A28   A(7,8,9)              124.956          estimate D2E/DX2                !
 ! A29   A(7,8,10)             116.6353         estimate D2E/DX2                !
 ! A30   A(9,8,10)             118.4084         estimate D2E/DX2                !
 ! A31   A(8,9,13)             121.441          estimate D2E/DX2                !
 ! A32   A(8,9,23)             119.5719         estimate D2E/DX2                !
 ! A33   A(13,9,23)            118.9871         estimate D2E/DX2                !
 ! A34   A(8,10,11)            121.1521         estimate D2E/DX2                !
 ! A35   A(8,10,24)            120.0322         estimate D2E/DX2                !
 ! A36   A(11,10,24)           118.815          estimate D2E/DX2                !
 ! A37   A(10,11,12)           120.2144         estimate D2E/DX2                !
 ! A38   A(10,11,30)           119.8216         estimate D2E/DX2                !
 ! A39   A(12,11,30)           119.9622         estimate D2E/DX2                !
 ! A40   A(11,12,13)           121.3863         estimate D2E/DX2                !
 ! A41   A(11,12,25)           115.9659         estimate D2E/DX2                !
 ! A42   A(13,12,25)           122.6475         estimate D2E/DX2                !
 ! A43   A(9,13,12)            117.3972         estimate D2E/DX2                !
 ! A44   A(9,13,26)            121.8987         estimate D2E/DX2                !
 ! A45   A(12,13,26)           120.7039         estimate D2E/DX2                !
 ! A46   A(13,26,27)            92.4573         estimate D2E/DX2                !
 ! A47   A(13,26,28)            89.9088         estimate D2E/DX2                !
 ! A48   A(13,26,29)            90.3557         estimate D2E/DX2                !
 ! A49   A(13,26,32)            92.3625         estimate D2E/DX2                !
 ! A50   A(27,26,28)            90.1929         estimate D2E/DX2                !
 ! A51   A(27,26,29)            90.0456         estimate D2E/DX2                !
 ! A52   A(27,26,31)            87.5382         estimate D2E/DX2                !
 ! A53   A(28,26,31)            89.8439         estimate D2E/DX2                !
 ! A54   A(28,26,32)            89.9886         estimate D2E/DX2                !
 ! A55   A(29,26,31)            89.8917         estimate D2E/DX2                !
 ! A56   A(29,26,32)            89.7506         estimate D2E/DX2                !
 ! A57   A(31,26,32)            87.6428         estimate D2E/DX2                !
 ! A58   L(13,26,31,27,-1)     179.9955         estimate D2E/DX2                !
 ! A59   L(27,26,32,13,-1)     184.8198         estimate D2E/DX2                !
 ! A60   L(28,26,29,13,-1)     180.2644         estimate D2E/DX2                !
 ! A61   L(13,26,31,27,-2)     180.2476         estimate D2E/DX2                !
 ! A62   L(27,26,32,13,-2)     180.1739         estimate D2E/DX2                !
 ! A63   L(28,26,29,13,-2)     179.7499         estimate D2E/DX2                !
 ! D1    D(14,1,2,3)           179.9454         estimate D2E/DX2                !
 ! D2    D(14,1,2,17)           59.4263         estimate D2E/DX2                !
 ! D3    D(14,1,2,18)          -59.2735         estimate D2E/DX2                !
 ! D4    D(15,1,2,3)            60.1986         estimate D2E/DX2                !
 ! D5    D(15,1,2,17)          -60.3205         estimate D2E/DX2                !
 ! D6    D(15,1,2,18)         -179.0203         estimate D2E/DX2                !
 ! D7    D(16,1,2,3)           -60.486          estimate D2E/DX2                !
 ! D8    D(16,1,2,17)          178.995          estimate D2E/DX2                !
 ! D9    D(16,1,2,18)           60.2951         estimate D2E/DX2                !
 ! D10   D(1,2,3,4)            179.4924         estimate D2E/DX2                !
 ! D11   D(1,2,3,19)            59.1943         estimate D2E/DX2                !
 ! D12   D(1,2,3,20)           -60.5095         estimate D2E/DX2                !
 ! D13   D(17,2,3,4)           -60.075          estimate D2E/DX2                !
 ! D14   D(17,2,3,19)          179.627          estimate D2E/DX2                !
 ! D15   D(17,2,3,20)           59.9232         estimate D2E/DX2                !
 ! D16   D(18,2,3,4)            59.0187         estimate D2E/DX2                !
 ! D17   D(18,2,3,19)          -61.2794         estimate D2E/DX2                !
 ! D18   D(18,2,3,20)          179.0169         estimate D2E/DX2                !
 ! D19   D(2,3,4,5)            179.7315         estimate D2E/DX2                !
 ! D20   D(2,3,4,21)             0.0612         estimate D2E/DX2                !
 ! D21   D(19,3,4,5)           -59.5599         estimate D2E/DX2                !
 ! D22   D(19,3,4,21)          120.7698         estimate D2E/DX2                !
 ! D23   D(20,3,4,5)            59.5234         estimate D2E/DX2                !
 ! D24   D(20,3,4,21)         -120.1469         estimate D2E/DX2                !
 ! D25   D(3,4,5,6)              0.5979         estimate D2E/DX2                !
 ! D26   D(3,4,5,7)           -179.3347         estimate D2E/DX2                !
 ! D27   D(21,4,5,6)          -179.7318         estimate D2E/DX2                !
 ! D28   D(21,4,5,7)             0.3356         estimate D2E/DX2                !
 ! D29   D(4,5,7,8)            179.4314         estimate D2E/DX2                !
 ! D30   D(4,5,7,22)            -0.6668         estimate D2E/DX2                !
 ! D31   D(6,5,7,8)             -0.4996         estimate D2E/DX2                !
 ! D32   D(6,5,7,22)           179.4022         estimate D2E/DX2                !
 ! D33   D(5,7,8,9)             -0.829          estimate D2E/DX2                !
 ! D34   D(5,7,8,10)           178.9844         estimate D2E/DX2                !
 ! D35   D(22,7,8,9)           179.2691         estimate D2E/DX2                !
 ! D36   D(22,7,8,10)           -0.9175         estimate D2E/DX2                !
 ! D37   D(7,8,9,13)           179.6044         estimate D2E/DX2                !
 ! D38   D(7,8,9,23)            -0.3047         estimate D2E/DX2                !
 ! D39   D(10,8,9,13)           -0.206          estimate D2E/DX2                !
 ! D40   D(10,8,9,23)          179.8849         estimate D2E/DX2                !
 ! D41   D(7,8,10,11)         -179.614          estimate D2E/DX2                !
 ! D42   D(7,8,10,24)            0.0782         estimate D2E/DX2                !
 ! D43   D(9,8,10,11)            0.2122         estimate D2E/DX2                !
 ! D44   D(9,8,10,24)          179.9043         estimate D2E/DX2                !
 ! D45   D(8,9,13,12)            0.1833         estimate D2E/DX2                !
 ! D46   D(8,9,13,26)         -179.6914         estimate D2E/DX2                !
 ! D47   D(23,9,13,12)        -179.9071         estimate D2E/DX2                !
 ! D48   D(23,9,13,26)           0.2181         estimate D2E/DX2                !
 ! D49   D(8,10,11,12)          -0.2012         estimate D2E/DX2                !
 ! D50   D(8,10,11,30)         179.3138         estimate D2E/DX2                !
 ! D51   D(24,10,11,12)       -179.8971         estimate D2E/DX2                !
 ! D52   D(24,10,11,30)         -0.3821         estimate D2E/DX2                !
 ! D53   D(10,11,12,13)          0.1796         estimate D2E/DX2                !
 ! D54   D(10,11,12,25)        179.9836         estimate D2E/DX2                !
 ! D55   D(30,11,12,13)       -179.3347         estimate D2E/DX2                !
 ! D56   D(30,11,12,25)          0.4693         estimate D2E/DX2                !
 ! D57   D(11,12,13,9)          -0.1683         estimate D2E/DX2                !
 ! D58   D(11,12,13,26)        179.708          estimate D2E/DX2                !
 ! D59   D(25,12,13,9)        -179.9591         estimate D2E/DX2                !
 ! D60   D(25,12,13,26)         -0.0827         estimate D2E/DX2                !
 ! D61   D(9,13,26,27)          -0.8669         estimate D2E/DX2                !
 ! D62   D(9,13,26,28)         -91.056          estimate D2E/DX2                !
 ! D63   D(9,13,26,29)          89.1941         estimate D2E/DX2                !
 ! D64   D(9,13,26,32)         178.9592         estimate D2E/DX2                !
 ! D65   D(12,13,26,27)        179.2624         estimate D2E/DX2                !
 ! D66   D(12,13,26,28)         89.0733         estimate D2E/DX2                !
 ! D67   D(12,13,26,29)        -90.6766         estimate D2E/DX2                !
 ! D68   D(12,13,26,32)         -0.9115         estimate D2E/DX2                !
 --------------------------------------------------------------------------------
 Trust Radius=3.00D-01 FncErr=1.00D-07 GrdErr=1.00D-06
 Number of steps in this run=    173 maximum allowed number of steps=    192.
 GradGradGradGradGradGradGradGradGradGradGradGradGradGradGradGradGradGrad

                          Input orientation:                          
 ---------------------------------------------------------------------
 Center     Atomic      Atomic             Coordinates (Angstroms)
 Number     Number       Type             X           Y           Z
 ---------------------------------------------------------------------
      1          6           0       -1.880820    1.549180   -0.056910
      2          6           0       -0.463240    0.996600   -0.011060
      3          6           0        0.566110    2.128080   -0.035560
      4          7           0        1.909120    1.593450    0.020310
      5          6           0        3.003140    2.401450    0.006080
      6          8           0        2.854030    3.612790   -0.044350
      7          7           0        4.242690    1.832970    0.047360
      8          6           0        5.527910    2.473750    0.031460
      9          6           0        5.736590    3.873360   -0.049770
     10          6           0        6.648050    1.636270    0.106430
     11          6           0        7.933510    2.155990    0.106250
     12          6           0        8.132870    3.530140    0.026680
     13          6           0        7.044240    4.428780   -0.051700
     14          1           0       -2.604220    0.708090   -0.038960
     15          1           0       -2.031930    2.136370   -0.987630
     16          1           0       -2.066670    2.200720    0.823510
     17          1           0       -0.301460    0.333260   -0.889050
     18          1           0       -0.336810    0.397990    0.917630
     19          1           0        0.406400    2.799950    0.836240
     20          1           0        0.448080    2.713530   -0.974190
     21          1           0        2.041100    0.569870    0.067250
     22          1           0        4.260000    0.802600    0.098320
     23          1           0        4.896690    4.528260   -0.109500
     24          1           0        6.518920    0.562410    0.170980
     25          1           0        9.157870    3.858750    0.032090
     26         16           0        7.332190    6.261320   -0.149180
     27          9           0        5.656770    6.594510   -0.231900
     28          9           0        7.401510    6.156950   -1.854590
     29          9           0        7.271410    6.372430    1.557600
     30         17           0        9.311520    1.075680    0.219660
     31          9           0        7.597390    7.947750   -0.246280
     32          9           0        9.028710    6.070430   -0.068880
 ---------------------------------------------------------------------
                    Distance matrix (angstroms):
                    1          2          3          4          5
     1  C    0.000000
     2  C    1.522163   0.000000
     3  C    2.514567   1.529839   0.000000
     4  N    3.790985   2.446488   1.446591   0.000000
     5  C    4.958165   3.740279   2.452668   1.360127   0.000000
     6  O    5.165022   4.224907   2.727457   2.230419   1.221524
     7  N    6.130969   4.780032   3.689337   2.345986   1.364316
     8  C    7.466721   6.170710   4.974278   3.724338   2.525932
     9  C    7.964094   6.834847   5.457112   4.455606   3.105058
    10  C    8.530879   7.140968   6.103444   4.739906   3.725713
    11  C    9.834425   8.477226   7.368818   6.051207   4.937493
    12  C   10.208094   8.961772   7.695811   6.518119   5.252475
    13  C    9.378103   8.254924   6.874565   5.866322   4.521493
    14  H    1.109532   2.160512   3.473813   4.599741   5.857643
    15  H    1.110795   2.171072   2.767005   4.103971   5.139033
    16  H    1.110938   2.171958   2.770344   4.101318   5.139208
    17  H    2.159930   1.112232   2.168525   2.702162   3.999881
    18  H    2.158456   1.112108   2.171876   2.697871   4.000005
    19  H    2.755634   2.173997   1.112183   2.092738   2.755182
    20  H    2.760596   2.169325   1.112524   2.092426   2.754388
    21  H    4.044245   2.541643   2.148065   1.033121   2.069770
    22  H    6.187984   4.728488   3.926786   2.481565   2.035811
    23  H    7.403535   6.419592   4.951793   4.189933   2.849949
    24  H    8.460572   6.998015   6.158728   4.726098   3.971142
    25  H   11.278063  10.037904   8.764596   7.594478   6.324959
    26  S   10.348542   9.407714   7.929465   7.157334   5.802015
    27  F    9.072003   8.296981   6.775128   6.254526   4.967911
    28  F   10.517835   9.585516   8.140231   7.382894   6.075486
    29  F   10.470611   9.549087   8.094054   7.345479   6.032746
    30  Cl  11.205765   9.777802   8.812201   7.423163   6.449724
    31  F   11.437396  10.646482   9.129724   8.532562   7.206404
    32  F   11.809305  10.763095   9.335889   8.410700   7.055106
                    6          7          8          9         10
     6  O    0.000000
     7  N    2.259324   0.000000
     8  C    2.907369   1.436190   0.000000
     9  C    2.894318   2.530684   1.417411   0.000000
    10  C    4.280649   2.414112   1.400609   2.420688   0.000000
    11  C    5.286404   3.705396   2.427648   2.792877   1.386548
    12  C    5.279965   4.244327   2.811014   2.421942   2.407861
    13  C    4.268929   3.820566   2.475543   1.420719   2.824904
    14  H    6.183025   6.939235   8.321902   8.921220   9.299847
    15  H    5.190587   6.366641   7.635676   8.015399   8.762940
    16  H    5.192342   6.367548   7.640650   8.028151   8.762371
    17  H    4.628818   4.875991   6.277785   7.049450   7.140343
    18  H    4.630530   4.877331   6.284029   7.064011   7.140004
    19  H    2.725260   4.034167   5.194607   5.508915   6.391007
    20  H    2.731642   4.027160   5.183966   5.492549   6.384971
    21  H    3.151614   2.538270   3.972894   4.958164   4.728925
    22  H    3.145517   1.031775   2.098764   3.410545   2.529398
    23  H    2.239373   2.777933   2.153908   1.066721   3.387845
    24  H    4.773113   2.609756   2.157496   3.409276   1.083520
    25  H    6.309100   5.316297   3.885207   3.422290   3.353228
    26  S    5.203808   5.403140   4.199255   2.873704   4.682357
    27  F    4.096484   4.974924   4.131177   2.728406   5.067667
    28  F    5.516275   5.682637   4.542414   3.353225   4.984962
    29  F    5.449321   5.662214   4.535262   3.344348   4.992563
    30  Cl   6.943040   5.127983   4.038035   4.547497   2.724180
    31  F    6.429006   6.980743   5.858717   4.483508   6.392216
    32  F    6.645846   6.393400   5.020137   3.957971   5.035876
                   11         12         13         14         15
    11  C    0.000000
    12  C    1.390814   0.000000
    13  C    2.445674   1.413794   0.000000
    14  H   10.637728  11.101954  10.341009   0.000000
    15  H   10.025316  10.309926   9.407867   1.807616   0.000000
    16  H   10.025969  10.316633   9.420134   1.805757   1.812616
    17  H    8.492803   9.066230   8.451849   2.483114   2.501090
    18  H    8.493945   9.074119   8.465623   2.480398   3.086327
    19  H    7.589793   7.803006   6.892202   3.769043   3.116455
    20  H    7.583526   7.792598   6.877674   3.770011   2.546320
    21  H    6.102278   6.773072   6.319553   4.648589   4.489573
    22  H    3.914895   4.737481   4.574241   6.866243   6.522776
    23  H    3.859597   3.389344   2.150630   8.417976   7.382278
    24  H    2.131842   3.381284   3.908243   9.126718   8.771360
    25  H    2.098559   1.076401   2.190750  12.176965  11.367412
    26  S    4.156990   2.851554   1.857585  11.383442  10.266691
    27  F    4.999835   3.948202   2.578358  10.145498   8.919767
    28  F    4.487271   3.312732   2.522821  11.536950  10.291087
    29  F    4.508122   3.341323   2.533620  11.496165  10.534445
    30  Cl   1.754663   2.729621   4.056781  11.924213  11.456722
    31  F    5.812206   4.458310   3.567490  12.511135  11.271448
    32  F    4.068535   2.695317   2.575545  12.809397  11.775342
                   16         17         18         19         20
    16  H    0.000000
    17  H    3.088079   0.000000
    18  H    2.500222   1.808185   0.000000
    19  H    2.544664   3.092289   2.515631   0.000000
    20  H    3.133475   2.496947   3.091401   1.812971   0.000000
    21  H    4.483902   2.541276   2.531234   2.869991   2.866634
    22  H    6.519769   4.690639   4.686752   4.402745   4.396893
    23  H    7.401103   6.725064   6.745639   4.903487   4.881707
    24  H    8.764828   6.906067   6.898228   6.543092   6.541699
    25  H   11.373905  10.136888  10.144456   8.851889   8.842204
    26  S   10.284608   9.693395   9.712378   7.805043   7.788352
    27  F    8.948229   8.668080   8.697200   6.565516   6.537848
    28  F   10.605207   9.704812  10.036554   8.212282   7.809125
    29  F   10.253867   9.990297   9.694767   7.772473   8.145879
    30  Cl  11.449609   9.705143   9.697252   9.091449   9.092216
    31  F   11.294550  10.990243  11.013859   8.909659   8.890419
    32  F   11.784671  10.983618  10.993759   9.266041   9.258271
                   21         22         23         24         25
    21  H    0.000000
    22  H    2.231288   0.000000
    23  H    4.884105   3.785381   0.000000
    24  H    4.479028   2.272815   4.293980   0.000000
    25  H    7.840050   5.773523   4.315779   4.224832   0.000000
    26  S    7.774000   6.268750   2.989437   5.765543   3.022964
    27  F    7.032698   5.967096   2.205015   6.106705   4.451042
    28  F    7.977652   6.507842   3.460071   6.015046   3.453416
    29  F    7.952798   6.497776   3.437947   6.020406   3.493494
    30  Cl   7.289587   5.060351   5.614212   2.839794   2.793612
    31  F    9.241416   7.893674   4.359518   7.475323   4.385488
    32  F    8.893896   7.107643   4.410615   6.057628   2.217748
                   26         27         28         29         30
    26  S    0.000000
    27  F    1.710231   0.000000
    28  F    1.710006   2.422540   0.000000
    29  F    1.711472   2.420474   3.421461   0.000000
    30  Cl   5.562792   6.634651   5.811192   5.831612   0.000000
    31  F    1.709914   2.365898   2.414952   2.416998   7.097935
    32  F    1.709113   3.416316   2.417442   2.413451   5.011064
                   31         32
    31  F    0.000000
    32  F    2.367378   0.000000
 Stoichiometry    C10H12ClF5N2OS
 Framework group  C1[X(C10H12ClF5N2OS)]
 Deg. of freedom    90
 Full point group                 C1      NOp   1
 Largest Abelian subgroup         C1      NOp   1
 Largest concise Abelian subgroup C1      NOp   1
                         Standard orientation:                         
 ---------------------------------------------------------------------
 Center     Atomic      Atomic             Coordinates (Angstroms)
 Number     Number       Type             X           Y           Z
 ---------------------------------------------------------------------
      1          6           0       -7.620794   -1.159984   -0.000851
      2          6           0       -6.571883   -0.057052    0.016693
      3          6           0       -5.159590   -0.644716   -0.005409
      4          7           0       -4.170653    0.411033   -0.000524
      5          6           0       -2.837105    0.143701   -0.011984
      6          8           0       -2.457880   -1.017176   -0.037924
      7          7           0       -1.956119    1.185262    0.007319
      8          6           0       -0.520370    1.149939    0.011659
      9          6           0        0.262915   -0.031381    0.012650
     10          6           0        0.138144    2.386089    0.011055
     11          6           0        1.522648    2.461249    0.007019
     12          6           0        2.286681    1.299089    0.007693
     13          6           0        1.682670    0.020816    0.008674
     14          1           0       -8.632801   -0.705456    0.016723
     15          1           0       -7.502464   -1.813776    0.889329
     16          1           0       -7.518381   -1.771416   -0.922722
     17          1           0       -6.701114    0.554996    0.936342
     18          1           0       -6.717392    0.596470   -0.871293
     19          1           0       -5.024825   -1.263988   -0.919353
     20          1           0       -5.011992   -1.283421    0.893468
     21          1           0       -4.485708    1.394783    0.017203
     22          1           0       -2.377917    2.126808    0.019023
     23          1           0       -0.219396   -0.982834    0.014985
     24          1           0       -0.434798    3.305735    0.008728
     25          1           0        3.354218    1.436900    0.004112
     26         16           0        2.721515   -1.519109    0.001425
     27          9           0        1.346286   -2.535429    0.028471
     28          9           0        2.751079   -1.503929    1.711108
     29          9           0        2.702535   -1.536673   -1.709852
     30         17           0        2.311396    4.028528   -0.011841
     31          9           0        3.677769   -2.936637    0.002135
     32          9           0        4.176237   -0.622574   -0.031351
 ---------------------------------------------------------------------
 Rotational constants (GHZ):      0.3593401      0.1278110      0.0985507
 General basis read from cards:  (6D, 7F)
 There are   412 symmetry adapted cartesian basis functions of A   symmetry.
 There are   412 symmetry adapted basis functions of A   symmetry.
   412 basis functions,   736 primitive gaussians,   412 cartesian basis functions
    86 alpha electrons       86 beta electrons
       nuclear repulsion energy      1967.3186838234 Hartrees.
 NAtoms=   32 NActive=   32 NUniq=   32 SFac= 1.00D+00 NAtFMM=   60 NAOKFM=F Big=F
 Integral buffers will be    131072 words long.
 Raffenetti 2 integral format.
 Two-electron integral symmetry is turned on.
 ------------------------------------------------------------------------------
 Polarizable Continuum Model (PCM)
 =================================
 Model                : PCM (using non-symmetric T matrix).
 Atomic radii         : SMD-Coulomb.
 Polarization charges : Total charges.
 Charge compensation  : None.
 Solution method      : On-the-fly selection.
 Cavity type          : VdW (van der Waals Surface) (Alpha=1.000).
 Cavity algorithm     : GePol (No added spheres)
                        Default sphere list used, NSphG=   32.
                        Lebedev-Laikov grids with approx.  5.0 points / Ang**2.
                        Smoothing algorithm: York/Karplus (Gamma=1.0000).
                        Polarization charges: spherical gaussians, with
                                              point-specific exponents (IZeta= 3).
                        Self-potential: point-specific (ISelfS= 7).
                        Self-field    : sphere-specific E.n sum rule (ISelfD= 2).
 1st derivatives      : Analytical E(r).r(x)/FMM algorithm (CHGder, D1EAlg=3).
                        Cavity 1st derivative terms included.
 Solvent              : Water, Eps=  78.355300 Eps(inf)=   1.777849
 ------------------------------------------------------------------------------
 ------------------------------------------------------------------------------
 Atomic radii for non-electrostatic terms: SMD-CDS.
 ------------------------------------------------------------------------------
 Nuclear repulsion after PCM non-electrostatic terms =     1967.3319782667 Hartrees.
 One-electron integrals computed using PRISM.
 NBasis=   412 RedAO= T EigKep=  1.04D-06  NBF=   412
 NBsUse=   411 1.00D-06 EigRej=  5.89D-07 NBFU=   411
 ExpMin= 4.05D-02 ExpMax= 2.52D+04 ExpMxC= 3.78D+03 IAcc=3 IRadAn=         5 AccDes= 0.00D+00
 Harris functional with IExCor= 1009 and IRadAn=       5 diagonalized for initial guess.
 HarFok:  IExCor= 1009 AccDes= 0.00D+00 IRadAn=         5 IDoV= 1 UseB2=F ITyADJ=14
 ICtDFT=  3500011 ScaDFX=  1.000000  1.000000  1.000000  1.000000
 FoFCou: FMM=F IPFlag=           0 FMFlag=      100000 FMFlg1=           0
         NFxFlg=           0 DoJE=T BraDBF=F KetDBF=T FulRan=T
         wScrn=  0.000000 ICntrl=     500 IOpCl=  0 I1Cent=   200000004 NGrid=           0
         NMat0=    1 NMatS0=      1 NMatT0=    0 NMatD0=    1 NMtDS0=    0 NMtDT0=    0
 Petite list used in FoFCou.
 Requested convergence on RMS density matrix=1.00D-08 within 128 cycles.
 Requested convergence on MAX density matrix=1.00D-06.
 Requested convergence on             energy=1.00D-06.
 No special actions if energy rises.
 Inv3:  Mode=1 IEnd=    20687628.
 Iteration    1 A*A^-1 deviation from unit magnitude is 7.33D-15 for    618.
 Iteration    1 A*A^-1 deviation from orthogonality  is 3.21D-15 for   2618   1007.
 Iteration    1 A^-1*A deviation from unit magnitude is 6.44D-15 for   2625.
 Iteration    1 A^-1*A deviation from orthogonality  is 1.01D-11 for   2106   2083.
 Error on total polarization charges =  0.04200
 SCF Done:  E(RM062X) =  -1930.06871827     A.U. after   15 cycles
            NFock= 15  Conv=0.41D-08     -V/T= 2.0065
 SMD-CDS (non-electrostatic) energy       (kcal/mol) =       8.34
 (included in total energy above)

 **********************************************************************

            Population analysis using the SCF density.

 **********************************************************************

 Orbital symmetries:
       Occupied  (A) (A) (A) (A) (A) (A) (A) (A) (A) (A) (A) (A)
                 (A) (A) (A) (A) (A) (A) (A) (A) (A) (A) (A) (A)
                 (A) (A) (A) (A) (A) (A) (A) (A) (A) (A) (A) (A)
                 (A) (A) (A) (A) (A) (A) (A) (A) (A) (A) (A) (A)
                 (A) (A) (A) (A) (A) (A) (A) (A) (A) (A) (A) (A)
                 (A) (A) (A) (A) (A) (A) (A) (A) (A) (A) (A) (A)
                 (A) (A) (A) (A) (A) (A) (A) (A) (A) (A) (A) (A)
                 (A) (A)
       Virtual   (A) (A) (A) (A) (A) (A) (A) (A) (A) (A) (A) (A)
                 (A) (A) (A) (A) (A) (A) (A) (A) (A) (A) (A) (A)
                 (A) (A) (A) (A) (A) (A) (A) (A) (A) (A) (A) (A)
                 (A) (A) (A) (A) (A) (A) (A) (A) (A) (A) (A) (A)
                 (A) (A) (A) (A) (A) (A) (A) (A) (A) (A) (A) (A)
                 (A) (A) (A) (A) (A) (A) (A) (A) (A) (A) (A) (A)
                 (A) (A) (A) (A) (A) (A) (A) (A) (A) (A) (A) (A)
                 (A) (A) (A) (A) (A) (A) (A) (A) (A) (A) (A) (A)
                 (A) (A) (A) (A) (A) (A) (A) (A) (A) (A) (A) (A)
                 (A) (A) (A) (A) (A) (A) (A) (A) (A) (A) (A) (A)
                 (A) (A) (A) (A) (A) (A) (A) (A) (A) (A) (A) (A)
                 (A) (A) (A) (A) (A) (A) (A) (A) (A) (A) (A) (A)
                 (A) (A) (A) (A) (A) (A) (A) (A) (A) (A) (A) (A)
                 (A) (A) (A) (A) (A) (A) (A) (A) (A) (A) (A) (A)
                 (A) (A) (A) (A) (A) (A) (A) (A) (A) (A) (A) (A)
                 (A) (A) (A) (A) (A) (A) (A) (A) (A) (A) (A) (A)
                 (A) (A) (A) (A) (A) (A) (A) (A) (A) (A) (A) (A)
                 (A) (A) (A) (A) (A) (A) (A) (A) (A) (A) (A) (A)
                 (A) (A) (A) (A) (A) (A) (A) (A) (A) (A) (A) (A)
                 (A) (A) (A) (A) (A) (A) (A) (A) (A) (A) (A) (A)
                 (A) (A) (A) (A) (A) (A) (A) (A) (A) (A) (A) (A)
                 (A) (A) (A) (A) (A) (A) (A) (A) (A) (A) (A) (A)
                 (A) (A) (A) (A) (A) (A) (A) (A) (A) (A) (A) (A)
                 (A) (A) (A) (A) (A) (A) (A) (A) (A) (A) (A) (A)
                 (A) (A) (A) (A) (A) (A) (A) (A) (A) (A) (A) (A)
                 (A) (A) (A) (A) (A) (A) (A) (A) (A) (A) (A) (A)
                 (A) (A) (A) (A) (A) (A) (A) (A) (A) (A) (A) (A)
                 (A)
 The electronic state is 1-A.
 Alpha  occ. eigenvalues -- -102.69047 -90.34971 -25.33389 -25.32179 -25.32166
 Alpha  occ. eigenvalues --  -25.31868 -25.31848 -19.62110 -14.81502 -14.78736
 Alpha  occ. eigenvalues --  -10.69357 -10.64551 -10.64288 -10.64263 -10.59467
 Alpha  occ. eigenvalues --  -10.59359 -10.58728 -10.58040 -10.54527 -10.53412
 Alpha  occ. eigenvalues --   -9.83661  -8.63554  -7.56076  -7.55395  -7.55379
 Alpha  occ. eigenvalues --   -6.55899  -6.55885  -6.55510  -1.45216  -1.38063
 Alpha  occ. eigenvalues --   -1.37648  -1.36660  -1.34876  -1.19439  -1.06406
 Alpha  occ. eigenvalues --   -1.03272  -1.01307  -0.97640  -0.93768  -0.88378
 Alpha  occ. eigenvalues --   -0.86709  -0.85292  -0.78052  -0.75334  -0.73167
 Alpha  occ. eigenvalues --   -0.71743  -0.71672  -0.68267  -0.67701  -0.66854
 Alpha  occ. eigenvalues --   -0.63702  -0.61555  -0.60995  -0.60676  -0.60476
 Alpha  occ. eigenvalues --   -0.59335  -0.57012  -0.56020  -0.55832  -0.55418
 Alpha  occ. eigenvalues --   -0.55141  -0.55119  -0.54847  -0.53814  -0.53770
 Alpha  occ. eigenvalues --   -0.53551  -0.52604  -0.52232  -0.51631  -0.51060
 Alpha  occ. eigenvalues --   -0.49634  -0.49151  -0.46253  -0.46021  -0.45934
 Alpha  occ. eigenvalues --   -0.44980  -0.42781  -0.41706  -0.39740  -0.39514
 Alpha  occ. eigenvalues --   -0.39470  -0.38805  -0.36035  -0.33064  -0.32634
 Alpha  occ. eigenvalues --   -0.29097
 Alpha virt. eigenvalues --   -0.10837  -0.03062  -0.00547   0.01008   0.01788
 Alpha virt. eigenvalues --    0.02430   0.03135   0.03326   0.03708   0.03923
 Alpha virt. eigenvalues --    0.04288   0.04461   0.04926   0.05704   0.06175
 Alpha virt. eigenvalues --    0.06223   0.07134   0.07619   0.07812   0.08178
 Alpha virt. eigenvalues --    0.08202   0.08948   0.09247   0.09639   0.10472
 Alpha virt. eigenvalues --    0.10552   0.10743   0.11143   0.11934   0.12144
 Alpha virt. eigenvalues --    0.12198   0.12954   0.13698   0.13810   0.13944
 Alpha virt. eigenvalues --    0.14550   0.15232   0.15526   0.16757   0.17527
 Alpha virt. eigenvalues --    0.17825   0.18276   0.18532   0.19558   0.19760
 Alpha virt. eigenvalues --    0.20174   0.20281   0.20791   0.21797   0.21872
 Alpha virt. eigenvalues --    0.22004   0.22794   0.23701   0.23903   0.24110
 Alpha virt. eigenvalues --    0.24420   0.24728   0.25064   0.25618   0.25645
 Alpha virt. eigenvalues --    0.27103   0.27555   0.27944   0.28055   0.28685
 Alpha virt. eigenvalues --    0.28829   0.28976   0.29272   0.29922   0.30247
 Alpha virt. eigenvalues --    0.30635   0.30944   0.31273   0.31812   0.32213
 Alpha virt. eigenvalues --    0.32730   0.33012   0.33144   0.33253   0.33745
 Alpha virt. eigenvalues --    0.33902   0.34869   0.35843   0.35868   0.36516
 Alpha virt. eigenvalues --    0.36888   0.37073   0.37428   0.37780   0.38921
 Alpha virt. eigenvalues --    0.39541   0.39642   0.40250   0.40938   0.42228
 Alpha virt. eigenvalues --    0.42861   0.43063   0.43991   0.45304   0.46615
 Alpha virt. eigenvalues --    0.47151   0.47889   0.49326   0.50066   0.51322
 Alpha virt. eigenvalues --    0.52675   0.54000   0.54261   0.54960   0.56714
 Alpha virt. eigenvalues --    0.56923   0.57766   0.58085   0.60351   0.62000
 Alpha virt. eigenvalues --    0.64344   0.64412   0.67069   0.69001   0.69379
 Alpha virt. eigenvalues --    0.69636   0.70373   0.70929   0.72072   0.72916
 Alpha virt. eigenvalues --    0.74438   0.75228   0.75746   0.75842   0.75931
 Alpha virt. eigenvalues --    0.76279   0.78086   0.78765   0.79017   0.80024
 Alpha virt. eigenvalues --    0.81073   0.82967   0.83440   0.85975   0.87422
 Alpha virt. eigenvalues --    0.87887   0.88273   0.89672   0.89987   0.90315
 Alpha virt. eigenvalues --    0.92450   0.92717   0.94938   0.97228   0.98292
 Alpha virt. eigenvalues --    0.98968   0.99212   1.00532   1.00624   1.01157
 Alpha virt. eigenvalues --    1.03206   1.03683   1.04000   1.05507   1.05944
 Alpha virt. eigenvalues --    1.07508   1.09253   1.11053   1.11506   1.12446
 Alpha virt. eigenvalues --    1.13663   1.14860   1.15705   1.16956   1.17426
 Alpha virt. eigenvalues --    1.19046   1.20782   1.21071   1.23426   1.24568
 Alpha virt. eigenvalues --    1.25228   1.27814   1.29785   1.30387   1.32588
 Alpha virt. eigenvalues --    1.33891   1.37872   1.38455   1.38939   1.40560
 Alpha virt. eigenvalues --    1.42939   1.43991   1.44674   1.45189   1.47254
 Alpha virt. eigenvalues --    1.47627   1.48978   1.49855   1.50152   1.50459
 Alpha virt. eigenvalues --    1.54890   1.55698   1.56192   1.57068   1.57724
 Alpha virt. eigenvalues --    1.59113   1.59789   1.60486   1.61274   1.66285
 Alpha virt. eigenvalues --    1.69434   1.70040   1.71539   1.73790   1.74773
 Alpha virt. eigenvalues --    1.75528   1.75715   1.76418   1.79110   1.79298
 Alpha virt. eigenvalues --    1.80707   1.81608   1.82496   1.83266   1.83423
 Alpha virt. eigenvalues --    1.84137   1.84283   1.85367   1.85899   1.86375
 Alpha virt. eigenvalues --    1.87012   1.87498   1.87978   1.88865   1.89136
 Alpha virt. eigenvalues --    1.90750   1.91833   1.91869   1.92902   1.93433
 Alpha virt. eigenvalues --    1.96644   1.96667   1.96731   1.96875   1.96936
 Alpha virt. eigenvalues --    1.98171   1.98789   1.99032   2.00320   2.01008
 Alpha virt. eigenvalues --    2.01952   2.02575   2.02893   2.03490   2.03722
 Alpha virt. eigenvalues --    2.05247   2.06068   2.06282   2.08144   2.12181
 Alpha virt. eigenvalues --    2.12958   2.15495   2.15818   2.16524   2.17777
 Alpha virt. eigenvalues --    2.20858   2.21582   2.21862   2.22551   2.23208
 Alpha virt. eigenvalues --    2.25277   2.25599   2.26672   2.28089   2.30216
 Alpha virt. eigenvalues --    2.30532   2.36480   2.37354   2.37882   2.39632
 Alpha virt. eigenvalues --    2.40752   2.41477   2.42149   2.46775   2.51700
 Alpha virt. eigenvalues --    2.55468   2.60593   2.62585   2.64369   2.66271
 Alpha virt. eigenvalues --    2.67369   2.70854   2.71816   2.73417   2.74970
 Alpha virt. eigenvalues --    2.78403   2.79218   2.80480   2.80868   2.82260
 Alpha virt. eigenvalues --    2.84014   2.84711   2.92792   2.97821   3.05331
 Alpha virt. eigenvalues --    3.12221   3.18334   3.26270   3.32461   3.37548
 Alpha virt. eigenvalues --    4.16009   4.19394   4.26624   4.27116   4.34848
 Alpha virt. eigenvalues --    4.35648   4.37967   4.42441   4.43778   4.47411
 Alpha virt. eigenvalues --    4.48985   4.52356   4.59383   4.67950   4.75375
 Alpha virt. eigenvalues --    5.85007   5.85861   6.06331   6.37480   8.08183
          Condensed to atoms (all electrons):
               1          2          3          4          5          6
     1  C    5.651676  -0.056303   0.020425  -0.003373  -0.043497  -0.003614
     2  C   -0.056303   6.142356  -0.351985  -0.083027   0.118894   0.015473
     3  C    0.020425  -0.351985   6.706037   0.298067  -0.475759  -0.077470
     4  N   -0.003373  -0.083027   0.298067   7.573958   0.494187  -0.207751
     5  C   -0.043497   0.118894  -0.475759   0.494187   6.233704   0.621642
     6  O   -0.003614   0.015473  -0.077470  -0.207751   0.621642   8.488899
     7  N   -0.003177   0.011296  -0.111816  -0.341220   0.089809  -0.088512
     8  C   -0.011669   0.009439  -0.519948  -0.204753  -1.790762  -0.407866
     9  C    0.003152  -0.000067   0.068101   0.040549   0.816432   0.429658
    10  C   -0.001741   0.005537  -0.111109  -0.125737  -2.004846  -0.114249
    11  C   -0.000080   0.000048  -0.002241   0.018633  -0.140569   0.010796
    12  C    0.000425  -0.000638   0.059123   0.033749   1.171097  -0.020435
    13  C    0.000837  -0.000271   0.027729   0.023676   0.094944   0.081141
    14  H    0.413528  -0.089005   0.027840   0.000530  -0.002030   0.000007
    15  H    0.414464  -0.062631  -0.010022   0.000678   0.001314  -0.000056
    16  H    0.416347  -0.063040  -0.009964   0.000506   0.000156  -0.000057
    17  H   -0.036939   0.429689  -0.079805   0.006320  -0.003370  -0.000200
    18  H   -0.036372   0.428487  -0.078086   0.006468  -0.004739  -0.000188
    19  H    0.004545  -0.044048   0.434087  -0.053731  -0.030067   0.004029
    20  H    0.002349  -0.043433   0.428585  -0.054798  -0.023978   0.004012
    21  H   -0.003475  -0.000126  -0.059065   0.248769   0.014719   0.008944
    22  H   -0.000093   0.000567  -0.003994   0.008401  -0.019293   0.006863
    23  H   -0.000001   0.000039   0.001543  -0.000668   0.000018   0.005248
    24  H   -0.000002   0.000029  -0.000614   0.000465  -0.010569   0.000006
    25  H    0.000000   0.000000   0.000006   0.000001   0.001041   0.000004
    26  S   -0.000013   0.000191  -0.003935  -0.000323  -0.058782   0.000076
    27  F    0.000001   0.000014  -0.000221   0.000014  -0.009074  -0.000449
    28  F   -0.000000   0.000000  -0.000029  -0.000015  -0.001402   0.000090
    29  F   -0.000000   0.000000  -0.000008  -0.000014  -0.000359   0.000070
    30  Cl  -0.000001   0.000002  -0.000377  -0.000078  -0.013846  -0.000027
    31  F   -0.000000   0.000000  -0.000005  -0.000001  -0.000597  -0.000005
    32  F    0.000000  -0.000000   0.000017   0.000002   0.001255  -0.000002
               7          8          9         10         11         12
     1  C   -0.003177  -0.011669   0.003152  -0.001741  -0.000080   0.000425
     2  C    0.011296   0.009439  -0.000067   0.005537   0.000048  -0.000638
     3  C   -0.111816  -0.519948   0.068101  -0.111109  -0.002241   0.059123
     4  N   -0.341220  -0.204753   0.040549  -0.125737   0.018633   0.033749
     5  C    0.089809  -1.790762   0.816432  -2.004846  -0.140569   1.171097
     6  O   -0.088512  -0.407866   0.429658  -0.114249   0.010796  -0.020435
     7  N    7.730807  -0.192493  -0.187909   0.302488   0.040234   0.102630
     8  C   -0.192493  22.183004  -4.838519   1.085424   2.143007  -6.575953
     9  C   -0.187909  -4.838519  17.881270  -8.711712   0.625926  -5.037992
    10  C    0.302488   1.085424  -8.711712  25.572658  -0.551725  -7.274671
    11  C    0.040234   2.143007   0.625926  -0.551725  10.836705 -10.022069
    12  C    0.102630  -6.575953  -5.037992  -7.274671 -10.022069  51.396378
    13  C    0.056761  -4.520754   4.105925  -0.744084   2.832097 -18.771556
    14  H    0.000010  -0.000042   0.000005  -0.000002  -0.000000   0.000000
    15  H    0.000027   0.000050  -0.000030   0.000005   0.000000   0.000000
    16  H    0.000020   0.000005  -0.000018   0.000003   0.000000   0.000000
    17  H    0.000160  -0.000754   0.000059   0.000109  -0.000008   0.000004
    18  H    0.000129  -0.000605  -0.000148   0.000162  -0.000006   0.000003
    19  H   -0.000383  -0.007718   0.004539  -0.001255  -0.000037   0.000025
    20  H   -0.000121  -0.005339   0.003037  -0.000801  -0.000030   0.000023
    21  H    0.017126   0.019466  -0.000923  -0.001761   0.000072  -0.000231
    22  H    0.245936  -0.003007   0.053681  -0.104576   0.037830   0.006125
    23  H   -0.018894   0.229917   0.241495   0.083646  -0.009603  -0.064167
    24  H   -0.012726   0.032035   0.049532   0.186411  -0.029863   0.066567
    25  H    0.000238  -0.016203   0.013492   0.094895   0.082395   0.181143
    26  S    0.002492  -0.739937  -0.636706   0.257825  -0.424150   1.494153
    27  F   -0.001303   0.105865   0.222601   0.022770   0.039424  -0.428055
    28  F   -0.000050   0.052884   0.106318   0.030850   0.046798  -0.217132
    29  F   -0.000032   0.050261   0.099765   0.028642   0.052584  -0.222092
    30  Cl  -0.001567   0.032549   0.012590   0.024616  -0.076243  -0.205593
    31  F   -0.000043   0.008973   0.059594   0.007330   0.010924  -0.011754
    32  F    0.000154  -0.060169  -0.185607   0.022849  -0.075279   0.642517
              13         14         15         16         17         18
     1  C    0.000837   0.413528   0.414464   0.416347  -0.036939  -0.036372
     2  C   -0.000271  -0.089005  -0.062631  -0.063040   0.429689   0.428487
     3  C    0.027729   0.027840  -0.010022  -0.009964  -0.079805  -0.078086
     4  N    0.023676   0.000530   0.000678   0.000506   0.006320   0.006468
     5  C    0.094944  -0.002030   0.001314   0.000156  -0.003370  -0.004739
     6  O    0.081141   0.000007  -0.000056  -0.000057  -0.000200  -0.000188
     7  N    0.056761   0.000010   0.000027   0.000020   0.000160   0.000129
     8  C   -4.520754  -0.000042   0.000050   0.000005  -0.000754  -0.000605
     9  C    4.105925   0.000005  -0.000030  -0.000018   0.000059  -0.000148
    10  C   -0.744084  -0.000002   0.000005   0.000003   0.000109   0.000162
    11  C    2.832097  -0.000000   0.000000   0.000000  -0.000008  -0.000006
    12  C  -18.771556   0.000000   0.000000   0.000000   0.000004   0.000003
    13  C   24.319533   0.000000  -0.000000   0.000001   0.000005  -0.000003
    14  H    0.000000   0.481026  -0.023497  -0.023687  -0.003019  -0.003038
    15  H   -0.000000  -0.023497   0.486775  -0.028264  -0.004629   0.003806
    16  H    0.000001  -0.023687  -0.028264   0.486648   0.003783  -0.004616
    17  H    0.000005  -0.003019  -0.004629   0.003783   0.488477  -0.030662
    18  H   -0.000003  -0.003038   0.003806  -0.004616  -0.030662   0.488622
    19  H    0.000299  -0.000051  -0.000343   0.002608   0.003620  -0.005133
    20  H    0.000188  -0.000059   0.002622  -0.000310  -0.005421   0.003629
    21  H   -0.000076  -0.000004   0.000001   0.000000   0.000606   0.000634
    22  H    0.005844  -0.000000  -0.000000  -0.000000   0.000001   0.000000
    23  H   -0.182514  -0.000000  -0.000000  -0.000000  -0.000000  -0.000000
    24  H    0.012935   0.000000  -0.000000  -0.000000  -0.000000  -0.000000
    25  H   -0.055960   0.000000  -0.000000  -0.000000  -0.000000  -0.000000
    26  S   -0.470470  -0.000000  -0.000000  -0.000000  -0.000000  -0.000000
    27  F    0.063946  -0.000000   0.000000   0.000000   0.000000   0.000000
    28  F   -0.047683  -0.000000  -0.000000  -0.000000   0.000000  -0.000000
    29  F   -0.031825  -0.000000  -0.000000  -0.000000  -0.000000  -0.000000
    30  Cl   0.062564  -0.000000   0.000000  -0.000000   0.000000   0.000000
    31  F   -0.206787  -0.000000   0.000000  -0.000000   0.000000   0.000000
    32  F   -0.419452  -0.000000   0.000000   0.000000   0.000000   0.000000
              19         20         21         22         23         24
     1  C    0.004545   0.002349  -0.003475  -0.000093  -0.000001  -0.000002
     2  C   -0.044048  -0.043433  -0.000126   0.000567   0.000039   0.000029
     3  C    0.434087   0.428585  -0.059065  -0.003994   0.001543  -0.000614
     4  N   -0.053731  -0.054798   0.248769   0.008401  -0.000668   0.000465
     5  C   -0.030067  -0.023978   0.014719  -0.019293   0.000018  -0.010569
     6  O    0.004029   0.004012   0.008944   0.006863   0.005248   0.000006
     7  N   -0.000383  -0.000121   0.017126   0.245936  -0.018894  -0.012726
     8  C   -0.007718  -0.005339   0.019466  -0.003007   0.229917   0.032035
     9  C    0.004539   0.003037  -0.000923   0.053681   0.241495   0.049532
    10  C   -0.001255  -0.000801  -0.001761  -0.104576   0.083646   0.186411
    11  C   -0.000037  -0.000030   0.000072   0.037830  -0.009603  -0.029863
    12  C    0.000025   0.000023  -0.000231   0.006125  -0.064167   0.066567
    13  C    0.000299   0.000188  -0.000076   0.005844  -0.182514   0.012935
    14  H   -0.000051  -0.000059  -0.000004  -0.000000  -0.000000   0.000000
    15  H   -0.000343   0.002622   0.000001  -0.000000  -0.000000  -0.000000
    16  H    0.002608  -0.000310   0.000000  -0.000000  -0.000000  -0.000000
    17  H    0.003620  -0.005421   0.000606   0.000001  -0.000000  -0.000000
    18  H   -0.005133   0.003629   0.000634   0.000000  -0.000000  -0.000000
    19  H    0.492263  -0.038166   0.002106   0.000006   0.000000   0.000000
    20  H   -0.038166   0.493061   0.002093   0.000005   0.000000   0.000000
    21  H    0.002106   0.002093   0.264247   0.002357  -0.000001   0.000005
    22  H    0.000006   0.000005   0.002357   0.251505  -0.000111   0.004860
    23  H    0.000000   0.000000  -0.000001  -0.000111   0.396057  -0.000082
    24  H    0.000000   0.000000   0.000005   0.004860  -0.000082   0.407791
    25  H    0.000000   0.000000  -0.000000  -0.000000  -0.000108  -0.000126
    26  S   -0.000005  -0.000006   0.000002   0.000321  -0.002012   0.002187
    27  F   -0.000000  -0.000000   0.000000  -0.000000   0.002480  -0.000001
    28  F   -0.000000   0.000000   0.000000   0.000000   0.000216   0.000001
    29  F    0.000000  -0.000000   0.000000   0.000000   0.000234   0.000001
    30  Cl  -0.000000  -0.000000   0.000002  -0.000320   0.000038   0.001922
    31  F   -0.000000  -0.000000   0.000000   0.000000   0.000176   0.000000
    32  F   -0.000000  -0.000000  -0.000000  -0.000000   0.000044   0.000002
              25         26         27         28         29         30
     1  C    0.000000  -0.000013   0.000001  -0.000000  -0.000000  -0.000001
     2  C    0.000000   0.000191   0.000014   0.000000   0.000000   0.000002
     3  C    0.000006  -0.003935  -0.000221  -0.000029  -0.000008  -0.000377
     4  N    0.000001  -0.000323   0.000014  -0.000015  -0.000014  -0.000078
     5  C    0.001041  -0.058782  -0.009074  -0.001402  -0.000359  -0.013846
     6  O    0.000004   0.000076  -0.000449   0.000090   0.000070  -0.000027
     7  N    0.000238   0.002492  -0.001303  -0.000050  -0.000032  -0.001567
     8  C   -0.016203  -0.739937   0.105865   0.052884   0.050261   0.032549
     9  C    0.013492  -0.636706   0.222601   0.106318   0.099765   0.012590
    10  C    0.094895   0.257825   0.022770   0.030850   0.028642   0.024616
    11  C    0.082395  -0.424150   0.039424   0.046798   0.052584  -0.076243
    12  C    0.181143   1.494153  -0.428055  -0.217132  -0.222092  -0.205593
    13  C   -0.055960  -0.470470   0.063946  -0.047683  -0.031825   0.062564
    14  H    0.000000  -0.000000  -0.000000  -0.000000  -0.000000  -0.000000
    15  H   -0.000000  -0.000000   0.000000  -0.000000  -0.000000   0.000000
    16  H   -0.000000  -0.000000   0.000000  -0.000000  -0.000000  -0.000000
    17  H   -0.000000  -0.000000   0.000000   0.000000  -0.000000   0.000000
    18  H   -0.000000  -0.000000   0.000000  -0.000000  -0.000000   0.000000
    19  H    0.000000  -0.000005  -0.000000  -0.000000   0.000000  -0.000000
    20  H    0.000000  -0.000006  -0.000000   0.000000  -0.000000  -0.000000
    21  H   -0.000000   0.000002   0.000000   0.000000   0.000000   0.000002
    22  H   -0.000000   0.000321  -0.000000   0.000000   0.000000  -0.000320
    23  H   -0.000108  -0.002012   0.002480   0.000216   0.000234   0.000038
    24  H   -0.000126   0.002187  -0.000001   0.000001   0.000001   0.001922
    25  H    0.396970  -0.000276   0.000165   0.000145   0.000148   0.000422
    26  S   -0.000276  14.120333  -0.015843   0.015028   0.014352  -0.002057
    27  F    0.000165  -0.015843   9.582363  -0.015525  -0.017239  -0.000334
    28  F    0.000145   0.015028  -0.015525   9.496924  -0.014800  -0.000435
    29  F    0.000148   0.014352  -0.017239  -0.014800   9.492604  -0.000514
    30  Cl   0.000422  -0.002057  -0.000334  -0.000435  -0.000514  16.949336
    31  F    0.000163   0.201470  -0.026053  -0.011880  -0.012208  -0.000014
    32  F    0.001679   0.074158  -0.042320  -0.014973  -0.014492   0.000366
              31         32
     1  C   -0.000000   0.000000
     2  C    0.000000  -0.000000
     3  C   -0.000005   0.000017
     4  N   -0.000001   0.000002
     5  C   -0.000597   0.001255
     6  O   -0.000005  -0.000002
     7  N   -0.000043   0.000154
     8  C    0.008973  -0.060169
     9  C    0.059594  -0.185607
    10  C    0.007330   0.022849
    11  C    0.010924  -0.075279
    12  C   -0.011754   0.642517
    13  C   -0.206787  -0.419452
    14  H   -0.000000  -0.000000
    15  H    0.000000   0.000000
    16  H   -0.000000   0.000000
    17  H    0.000000   0.000000
    18  H    0.000000   0.000000
    19  H   -0.000000  -0.000000
    20  H   -0.000000  -0.000000
    21  H    0.000000  -0.000000
    22  H    0.000000  -0.000000
    23  H    0.000176   0.000044
    24  H    0.000000   0.000002
    25  H    0.000163   0.001679
    26  S    0.201470   0.074158
    27  F   -0.026053  -0.042320
    28  F   -0.011880  -0.014973
    29  F   -0.012208  -0.014492
    30  Cl  -0.000014   0.000366
    31  F    9.437331  -0.029730
    32  F   -0.029730   9.587491
 Mulliken charges:
               1
     1  C   -0.727399
     2  C   -0.367488
     3  C   -0.175108
     4  N   -0.679484
     5  C    0.974327
     6  O   -0.756078
     7  N   -0.640070
     8  C   -0.056386
     9  C    0.761911
    10  C   -1.977951
    11  C    0.554430
    12  C   -0.301623
    13  C   -0.236987
    14  H    0.221489
    15  H    0.219729
    16  H    0.219881
    17  H    0.231976
    18  H    0.231656
    19  H    0.232809
    20  H    0.232856
    21  H    0.484510
    22  H    0.507094
    23  H    0.317008
    24  H    0.289233
    25  H    0.299767
    26  S    2.171926
    27  F   -0.483222
    28  F   -0.425330
    29  F   -0.425078
    30  Cl   0.216998
    31  F   -0.426886
    32  F   -0.488510
 Sum of Mulliken charges =  -0.00000
 Mulliken charges with hydrogens summed into heavy atoms:
               1
     1  C   -0.066300
     2  C    0.096144
     3  C    0.290558
     4  N   -0.194974
     5  C    0.974327
     6  O   -0.756078
     7  N   -0.132977
     8  C   -0.056386
     9  C    1.078919
    10  C   -1.688718
    11  C    0.554430
    12  C   -0.001856
    13  C   -0.236987
    26  S    2.171926
    27  F   -0.483222
    28  F   -0.425330
    29  F   -0.425078
    30  Cl   0.216998
    31  F   -0.426886
    32  F   -0.488510
 Electronic spatial extent (au):  <R**2>=          10208.4524
 Charge=             -0.0000 electrons
 Dipole moment (field-independent basis, Debye):
    X=             -8.3688    Y=              8.6996    Z=              0.1661  Tot=             12.0726
 Quadrupole moment (field-independent basis, Debye-Ang):
   XX=           -107.2370   YY=           -130.3656   ZZ=           -135.5844
   XY=            -11.2637   XZ=             -0.3770   YZ=             -0.0537
 Traceless Quadrupole moment (field-independent basis, Debye-Ang):
   XX=             17.1587   YY=             -5.9699   ZZ=            -11.1888
   XY=            -11.2637   XZ=             -0.3770   YZ=             -0.0537
 Octapole moment (field-independent basis, Debye-Ang**2):
  XXX=           -142.4823  YYY=             -8.8281  ZZZ=             -0.1995  XYY=            -14.2356
  XXY=             57.5899  XXZ=              1.2496  XZZ=             17.1876  YZZ=            -17.2487
  YYZ=              0.3879  XYZ=              0.0130
 Hexadecapole moment (field-independent basis, Debye-Ang**3):
 XXXX=          -8693.3217 YYYY=          -2891.9975 ZZZZ=           -341.7309 XXXY=           -247.3368
 XXXZ=             -4.3222 YYYX=           -219.1034 YYYZ=             -0.4932 ZZZX=             -0.1134
 ZZZY=             -0.2628 XXYY=          -2093.6844 XXZZ=          -1687.1501 YYZZ=           -557.3414
 XXYZ=             -0.1395 YYXZ=             -1.5621 ZZXY=            -33.8388
 N-N= 1.967331978267D+03 E-N=-8.488746946734D+03  KE= 1.917634526672D+03
 D1PCM: PCM CHGder 1st derivatives, ID1Alg=3 FixD1E=F DoIter=F DoCFld=F I1PDM=0.
 Calling FoFJK, ICntrl=      2127 FMM=F ISym2X=0 I1Cent= 0 IOpClX= 0 NMat=1 NMatS=1 NMatT=0.
 ***** Axes restored to original set *****
 -------------------------------------------------------------------
 Center     Atomic                   Forces (Hartrees/Bohr)
 Number     Number              X              Y              Z
 -------------------------------------------------------------------
      1        6          -0.005952842    0.001077444   -0.000081810
      2        6           0.005121274   -0.005279365    0.000443763
      3        6          -0.007497542    0.006811980   -0.000765010
      4        7           0.024197310   -0.028825477    0.001809010
      5        6          -0.016858341   -0.006100411   -0.000289997
      6        8          -0.000222845    0.035926719   -0.001646415
      7        7           0.026568732   -0.016466883    0.000814832
      8        6          -0.009147366    0.003921066   -0.000042424
      9        6           0.009562967    0.011089231   -0.000198458
     10        6           0.000083798   -0.008532281    0.000802616
     11        6          -0.014100102    0.006197858   -0.000540925
     12        6           0.009880909    0.020964157   -0.000738584
     13        6          -0.007027015   -0.046448642    0.002942038
     14        1           0.004120434    0.009776170   -0.000459735
     15        1          -0.001132509   -0.004495439    0.009324352
     16        1          -0.000507030   -0.005128484   -0.009093564
     17        1           0.000365164    0.004319163    0.009260406
     18        1           0.001023638    0.003759707   -0.009370765
     19        1           0.000089003   -0.004056723   -0.009608022
     20        1          -0.000140194   -0.002810649    0.010222279
     21        1          -0.003514760    0.014861899   -0.000836184
     22        1           0.004459509    0.012784822   -0.000653903
     23        1          -0.009700638    0.003217095   -0.000303926
     24        1          -0.002235826   -0.002605349    0.000125737
     25        1           0.003504930    0.005978395   -0.000222142
     26       16           0.000027187    0.003913797    0.000165781
     27        9           0.054053901   -0.001832562    0.001941831
     28        9          -0.000151690    0.016066572    0.048414544
     29        9           0.003341951    0.009232504   -0.050614061
     30       17          -0.007238272    0.006888964   -0.001006877
     31        9          -0.009297847   -0.059339093    0.003487467
     32        9          -0.051675886    0.015133816   -0.003281854
 -------------------------------------------------------------------
 Cartesian Forces:  Max     0.059339093 RMS     0.015732427

 GradGradGradGradGradGradGradGradGradGradGradGradGradGradGradGradGradGrad
 Berny optimization.
 FormGI is forming the generalized inverse of G from B-inverse, IUseBI=4.
 GSVD:  received Info=                   1 from GESDD.
 Internal  Forces:  Max     0.060169026 RMS     0.012280903
 Search for a local minimum.
 Step number   1 out of a maximum of  173
 All quantities printed in internal units (Hartrees-Bohrs-Radians)
 Mixed Optimization -- RFO/linear search
 Second derivative matrix not updated -- first step.
 ITU=  0
     Eigenvalues ---    0.00230   0.00371   0.00473   0.01075   0.01075
     Eigenvalues ---    0.01213   0.01533   0.01689   0.01725   0.01836
     Eigenvalues ---    0.01870   0.01998   0.02044   0.02164   0.02167
     Eigenvalues ---    0.02189   0.02191   0.02219   0.02240   0.03816
     Eigenvalues ---    0.04528   0.04973   0.05568   0.05744   0.05852
     Eigenvalues ---    0.08012   0.08676   0.08693   0.09170   0.11954
     Eigenvalues ---    0.12632   0.12937   0.12948   0.12963   0.12968
     Eigenvalues ---    0.16000   0.16000   0.16000   0.16000   0.16000
     Eigenvalues ---    0.16000   0.16000   0.16000   0.16733   0.21957
     Eigenvalues ---    0.21998   0.22000   0.22000   0.22059   0.23435
     Eigenvalues ---    0.23478   0.23501   0.24999   0.25000   0.25000
     Eigenvalues ---    0.25000   0.25000   0.25000   0.25000   0.29438
     Eigenvalues ---    0.30040   0.30159   0.32334   0.32365   0.32370
     Eigenvalues ---    0.32378   0.32501   0.32516   0.32650   0.34544
     Eigenvalues ---    0.34687   0.34712   0.34723   0.34815   0.35572
     Eigenvalues ---    0.36433   0.37648   0.38695   0.40113   0.40184
     Eigenvalues ---    0.40524   0.42309   0.42511   0.42905   0.44813
     Eigenvalues ---    0.46040   0.47320   0.52085   0.52922   0.94711
 RFO step:  Lambda=-6.38704931D-02 EMin= 2.30000000D-03
 Linear search not attempted -- first point.
 Maximum step size (   0.300) exceeded in Quadratic search.
    -- Step size scaled by   0.705
 Iteration  1 RMS(Cart)=  0.04857861 RMS(Int)=  0.00055070
 Iteration  2 RMS(Cart)=  0.00092379 RMS(Int)=  0.00016555
 Iteration  3 RMS(Cart)=  0.00000058 RMS(Int)=  0.00016555
 Variable       Old X    -DE/DX   Delta X   Delta X   Delta X     New X
                                 (Linear)    (Quad)   (Total)
    R1        2.87647   0.00371   0.00000   0.00716   0.00716   2.88363
    R2        2.09671  -0.01011   0.00000  -0.01826  -0.01826   2.07846
    R3        2.09910  -0.01003   0.00000  -0.01817  -0.01817   2.08093
    R4        2.09937  -0.01012   0.00000  -0.01835  -0.01835   2.08102
    R5        2.89098  -0.00506   0.00000  -0.00995  -0.00995   2.88103
    R6        2.10181  -0.00984   0.00000  -0.01789  -0.01789   2.08392
    R7        2.10158  -0.00974   0.00000  -0.01771  -0.01771   2.08387
    R8        2.73366   0.00571   0.00000   0.00893   0.00893   2.74259
    R9        2.10172  -0.00999   0.00000  -0.01817  -0.01817   2.08355
   R10        2.10237  -0.01009   0.00000  -0.01836  -0.01836   2.08401
   R11        2.57027  -0.00709   0.00000  -0.00843  -0.00843   2.56184
   R12        1.95231  -0.01522   0.00000  -0.02202  -0.02202   1.93029
   R13        2.30835   0.03572   0.00000   0.02491   0.02491   2.33325
   R14        2.57818   0.00919   0.00000   0.01108   0.01108   2.58926
   R15        2.71401  -0.03418   0.00000  -0.05181  -0.05181   2.66220
   R16        1.94977  -0.01272   0.00000  -0.01834  -0.01834   1.93143
   R17        2.67852  -0.01892   0.00000  -0.02780  -0.02781   2.65071
   R18        2.64677  -0.00372   0.00000  -0.00456  -0.00470   2.64207
   R19        2.68477  -0.02496   0.00000  -0.03731  -0.03718   2.64759
   R20        2.01581   0.00963   0.00000   0.01541   0.01541   2.03122
   R21        2.62020  -0.00147   0.00000  -0.00083  -0.00096   2.61924
   R22        2.04756   0.00286   0.00000   0.00481   0.00481   2.05236
   R23        2.62826  -0.00266   0.00000  -0.00286  -0.00285   2.62541
   R24        3.31583  -0.00999   0.00000  -0.01933  -0.01933   3.29651
   R25        2.67168  -0.02282   0.00000  -0.03276  -0.03262   2.63907
   R26        2.03410   0.00516   0.00000   0.00849   0.00849   2.04260
   R27        3.51033  -0.01721   0.00000  -0.04263  -0.04263   3.46769
   R28        3.23187  -0.05341   0.00000  -0.09165  -0.09165   3.14022
   R29        3.23144  -0.04927   0.00000  -0.08450  -0.08450   3.14694
   R30        3.23421  -0.04999   0.00000  -0.08608  -0.08608   3.14813
   R31        3.23127  -0.06017   0.00000  -0.10316  -0.10316   3.12811
   R32        3.22976  -0.05313   0.00000  -0.09089  -0.09089   3.13886
    A1        1.90870   0.00384   0.00000   0.01256   0.01250   1.92120
    A2        1.92179   0.00268   0.00000   0.00816   0.00812   1.92991
    A3        1.92285   0.00234   0.00000   0.00716   0.00713   1.92998
    A4        1.90243  -0.00311   0.00000  -0.00942  -0.00948   1.89295
    A5        1.89937  -0.00285   0.00000  -0.00841  -0.00846   1.89091
    A6        1.90842  -0.00303   0.00000  -0.01044  -0.01046   1.89796
    A7        1.93654  -0.00035   0.00000   0.00047   0.00047   1.93701
    A8        1.90519   0.00120   0.00000   0.00579   0.00579   1.91097
    A9        1.90332   0.00148   0.00000   0.00679   0.00679   1.91011
   A10        1.90773  -0.00034   0.00000  -0.00209  -0.00211   1.90562
   A11        1.91239  -0.00066   0.00000  -0.00338  -0.00339   1.90900
   A12        1.89826  -0.00135   0.00000  -0.00771  -0.00774   1.89052
   A13        1.92912  -0.00178   0.00000  -0.00287  -0.00287   1.92626
   A14        1.91519   0.00036   0.00000   0.00027   0.00027   1.91545
   A15        1.90851   0.00082   0.00000   0.00230   0.00230   1.91082
   A16        1.90319   0.00140   0.00000   0.00531   0.00531   1.90850
   A17        1.90241   0.00126   0.00000   0.00519   0.00519   1.90760
   A18        1.90520  -0.00206   0.00000  -0.01030  -0.01030   1.89490
   A19        2.12563  -0.00312   0.00000  -0.00775  -0.00775   2.11788
   A20        2.07890   0.00001   0.00000  -0.00101  -0.00101   2.07789
   A21        2.07864   0.00311   0.00000   0.00876   0.00876   2.08740
   A22        2.08444   0.01619   0.00000   0.03636   0.03636   2.12080
   A23        2.07481  -0.02276   0.00000  -0.05111  -0.05111   2.02370
   A24        2.12393   0.00657   0.00000   0.01476   0.01476   2.13869
   A25        2.24824  -0.00790   0.00000  -0.01961  -0.01961   2.22863
   A26        2.01845   0.00850   0.00000   0.02414   0.02414   2.04258
   A27        2.01650  -0.00060   0.00000  -0.00453  -0.00453   2.01197
   A28        2.18089  -0.00883   0.00000  -0.02042  -0.02034   2.16055
   A29        2.03567   0.00157   0.00000   0.00292   0.00300   2.03867
   A30        2.06662   0.00726   0.00000   0.01750   0.01735   2.08396
   A31        2.11954  -0.01172   0.00000  -0.03078  -0.03067   2.08888
   A32        2.08692   0.00240   0.00000   0.00450   0.00444   2.09136
   A33        2.07672   0.00932   0.00000   0.02629   0.02623   2.10295
   A34        2.11450  -0.00932   0.00000  -0.01851  -0.01877   2.09573
   A35        2.09496   0.00270   0.00000   0.00309   0.00323   2.09818
   A36        2.07371   0.00662   0.00000   0.01542   0.01555   2.08927
   A37        2.09814   0.00664   0.00000   0.01945   0.01934   2.11747
   A38        2.09128  -0.00173   0.00000  -0.00615  -0.00610   2.08519
   A39        2.09374  -0.00491   0.00000  -0.01328  -0.01323   2.08051
   A40        2.11859  -0.01908   0.00000  -0.04531  -0.04515   2.07344
   A41        2.02399   0.01424   0.00000   0.03745   0.03737   2.06136
   A42        2.14060   0.00484   0.00000   0.00786   0.00778   2.14838
   A43        2.04897   0.02622   0.00000   0.05765   0.05791   2.10688
   A44        2.12753  -0.01578   0.00000  -0.03481  -0.03495   2.09259
   A45        2.10668  -0.01044   0.00000  -0.02283  -0.02297   2.08371
   A46        1.61368   0.00669   0.00000   0.02494   0.02492   1.63861
   A47        1.56920   0.01120   0.00000   0.04009   0.04005   1.60926
   A48        1.57700   0.00963   0.00000   0.03581   0.03578   1.61279
   A49        1.61203   0.00788   0.00000   0.02817   0.02815   1.64018
   A50        1.57416  -0.00067   0.00000  -0.00273  -0.00373   1.57043
   A51        1.57159  -0.00056   0.00000  -0.00207  -0.00300   1.56860
   A52        1.52783  -0.00706   0.00000  -0.02632  -0.02630   1.50153
   A53        1.56807  -0.01060   0.00000  -0.03797  -0.03793   1.53014
   A54        1.57060  -0.00049   0.00000  -0.00168  -0.00276   1.56783
   A55        1.56891  -0.01022   0.00000  -0.03793  -0.03789   1.53101
   A56        1.56644  -0.00009   0.00000  -0.00014  -0.00114   1.56530
   A57        1.52966  -0.00752   0.00000  -0.02680  -0.02678   1.50287
   A58        3.14151  -0.00036   0.00000  -0.00138  -0.00138   3.14014
   A59        3.22571   0.01458   0.00000   0.05311   0.05307   3.27878
   A60        3.14621   0.02082   0.00000   0.07590   0.07583   3.22204
   A61        3.14591  -0.00059   0.00000  -0.00211  -0.00211   3.14380
   A62        3.14463  -0.00024   0.00000  -0.00113  -0.00109   3.14354
   A63        3.13723   0.00031   0.00000   0.00143   0.00147   3.13870
    D1        3.14064   0.00003   0.00000   0.00003   0.00003   3.14067
    D2        1.03718  -0.00011   0.00000  -0.00142  -0.00142   1.03576
    D3       -1.03452  -0.00005   0.00000   0.00055   0.00055  -1.03397
    D4        1.05066  -0.00019   0.00000  -0.00122  -0.00124   1.04943
    D5       -1.05279  -0.00033   0.00000  -0.00268  -0.00269  -1.05548
    D6       -3.12449  -0.00026   0.00000  -0.00070  -0.00072  -3.12521
    D7       -1.05568   0.00035   0.00000   0.00190   0.00191  -1.05377
    D8        3.12405   0.00021   0.00000   0.00044   0.00045   3.12451
    D9        1.05235   0.00028   0.00000   0.00242   0.00243   1.05477
   D10        3.13273   0.00003   0.00000  -0.00002  -0.00002   3.13271
   D11        1.03314  -0.00081   0.00000  -0.00496  -0.00496   1.02817
   D12       -1.05609   0.00099   0.00000   0.00607   0.00607  -1.05002
   D13       -1.04851   0.00108   0.00000   0.00611   0.00610  -1.04241
   D14        3.13508   0.00024   0.00000   0.00117   0.00116   3.13624
   D15        1.04586   0.00204   0.00000   0.01220   0.01219   1.05805
   D16        1.03007  -0.00116   0.00000  -0.00657  -0.00656   1.02351
   D17       -1.06953  -0.00200   0.00000  -0.01151  -0.01150  -1.08103
   D18        3.12443  -0.00020   0.00000  -0.00048  -0.00047   3.12396
   D19        3.13691   0.00015   0.00000   0.00074   0.00074   3.13765
   D20        0.00107   0.00011   0.00000   0.00038   0.00038   0.00145
   D21       -1.03952   0.00038   0.00000   0.00268   0.00268  -1.03684
   D22        2.10783   0.00034   0.00000   0.00232   0.00232   2.11015
   D23        1.03888  -0.00055   0.00000  -0.00362  -0.00361   1.03526
   D24       -2.09696  -0.00060   0.00000  -0.00397  -0.00397  -2.10093
   D25        0.01044  -0.00016   0.00000  -0.00136  -0.00135   0.00908
   D26       -3.12998  -0.00026   0.00000  -0.00215  -0.00215  -3.13214
   D27       -3.13691  -0.00013   0.00000  -0.00103  -0.00103  -3.13794
   D28        0.00586  -0.00023   0.00000  -0.00182  -0.00183   0.00403
   D29        3.13167   0.00019   0.00000   0.00154   0.00154   3.13321
   D30       -0.01164   0.00016   0.00000   0.00134   0.00134  -0.01030
   D31       -0.00872   0.00009   0.00000   0.00072   0.00072  -0.00800
   D32        3.13116   0.00006   0.00000   0.00051   0.00052   3.13167
   D33       -0.01447  -0.00004   0.00000  -0.00035  -0.00034  -0.01481
   D34        3.12387   0.00010   0.00000   0.00085   0.00084   3.12471
   D35        3.12884  -0.00003   0.00000  -0.00017  -0.00017   3.12867
   D36       -0.01601   0.00012   0.00000   0.00102   0.00102  -0.01499
   D37        3.13469   0.00025   0.00000   0.00203   0.00201   3.13670
   D38       -0.00532   0.00014   0.00000   0.00118   0.00118  -0.00414
   D39       -0.00360   0.00012   0.00000   0.00084   0.00082  -0.00277
   D40        3.13958   0.00001   0.00000  -0.00000  -0.00001   3.13958
   D41       -3.13486  -0.00018   0.00000  -0.00166  -0.00168  -3.13653
   D42        0.00136  -0.00003   0.00000  -0.00033  -0.00034   0.00102
   D43        0.00370  -0.00007   0.00000  -0.00062  -0.00062   0.00308
   D44        3.13992   0.00008   0.00000   0.00071   0.00072   3.14064
   D45        0.00320  -0.00012   0.00000  -0.00097  -0.00097   0.00223
   D46       -3.13621  -0.00015   0.00000  -0.00139  -0.00139  -3.13760
   D47       -3.13997  -0.00002   0.00000  -0.00015  -0.00015  -3.14013
   D48        0.00381  -0.00005   0.00000  -0.00057  -0.00058   0.00323
   D49       -0.00351   0.00007   0.00000   0.00064   0.00065  -0.00286
   D50        3.12962   0.00029   0.00000   0.00252   0.00254   3.13215
   D51       -3.13980  -0.00006   0.00000  -0.00063  -0.00064  -3.14044
   D52       -0.00667   0.00015   0.00000   0.00124   0.00125  -0.00542
   D53        0.00313  -0.00012   0.00000  -0.00089  -0.00088   0.00225
   D54        3.14131   0.00002   0.00000   0.00034   0.00035  -3.14153
   D55       -3.12998  -0.00035   0.00000  -0.00281  -0.00280  -3.13278
   D56        0.00819  -0.00020   0.00000  -0.00158  -0.00156   0.00663
   D57       -0.00294   0.00013   0.00000   0.00100   0.00100  -0.00194
   D58        3.13650   0.00015   0.00000   0.00140   0.00141   3.13790
   D59       -3.14088  -0.00004   0.00000  -0.00036  -0.00035  -3.14123
   D60       -0.00144  -0.00002   0.00000   0.00004   0.00006  -0.00139
   D61       -0.01513  -0.00009   0.00000  -0.00063  -0.00062  -0.01575
   D62       -1.58923   0.00012   0.00000   0.00042   0.00044  -1.58879
[...]
 .00192653,0.00243659,-0.00008435,-0.00014711,-0.00589044,0.00253134,0.
 00091622,-0.00107253,-0.00003542,-0.00057735,-0.00070949,-0.00142362,-
 0.00455457,-0.00360475,0.00272911,0.02435658,-0.00703643,0.01531403,-0
 .00001173,0.00000198,-0.00000190,-0.00000113,0.00000059,-0.00000178,-0
 .00000133,0.00000181,0.00000102,0.00000026,-0.00000426,0.00000051,0.00
 000171,-0.00000321,0.00000272,-0.00003642,0.00001029,-0.00000098,-0.00
 005036,0.00001074,-0.00001760,0.00000349,0.00006257,-0.00003045,-0.000
 14845,0.00011454,-0.00002309,0.00085705,-0.00169103,0.00029004,0.00002
 312,-0.00006155,-0.00001607,-0.00003344,0.00023034,0.00047527,0.028355
 50,-0.07505830,0.02386162,-0.02092700,0.09395449,0.00000309,0.00001157
 ,-0.00000317,0.00001123,-0.00002514,0.00000977,-0.00007427,0.00005190,
 -0.00002112,0.00034488,0.00009962,-0.00003553,-0.00086305,0.00040553,-
 0.00007842,0.00036273,-0.00020716,0.00010983,0.00099090,0.00035512,-0.
 00005764,-0.00075535,-0.00051032,0.00023394,0.00058740,0.00251566,-0.0
 0003978,0.00020939,0.00038736,-0.00005471,-0.00085925,-0.00048333,0.00
 049040,0.00316731,0.00449062,-0.00107822,-0.01411901,-0.00458774,-0.00
 203399,0.00000573,-0.00000141,0.00000104,0.00000125,-0.00000024,0.0000
 0177,0.00000043,-0.00000044,-0.00000072,-0.00000022,0.00000297,-0.0000
 0040,-0.00000112,0.00000075,-0.00000008,0.00001871,-0.00000426,0.00000
 037,0.00002677,-0.00000582,0.00001172,-0.00000074,-0.00003371,0.000010
 24,0.00010137,-0.00005912,-0.00000042,-0.00044524,0.00090169,-0.000382
 54,0.00001575,0.00003984,-0.00002326,0.00010864,-0.00022901,-0.0002078
 5,-0.05937034,0.02626976,-0.10375602,0.09944631,-0.02007568,0.15555325
 ,-0.00000526,-0.00001664,0.00000468,-0.00001290,0.00003417,-0.00001238
 ,0.00009811,-0.00007134,0.00002453,-0.00045765,-0.00014466,0.00006006,
 0.00107281,-0.00037816,0.00008201,-0.00049266,0.00017084,-0.00011408,-
 0.00101438,-0.00066565,-0.00009920,-0.00003648,0.00040057,-0.00080352,
 0.00246403,-0.00421323,0.00098035,-0.00032740,-0.00049279,0.00023799,0
 .00021231,0.00061710,-0.00100248,-0.00219719,-0.00138843,0.00017491,-0
 .00839594,0.00499983,0.01470705,-0.00000884,0.00000086,-0.00000121,-0.
 00000063,0.00000105,-0.00000098,-0.00000008,0.00000105,0.00000002,0.00
 000034,-0.00000410,-0.00000025,0.00000066,-0.00000216,0.00000230,-0.00
 002419,0.00000652,-0.00000313,-0.00003147,0.00000910,-0.00001161,0.000
 00141,0.00004837,-0.00001908,-0.00019206,0.00005816,-0.00004562,0.0007
 2640,0.00034581,0.00025315,0.00006937,-0.00004079,0.00008615,0.0006912
 1,0.00034516,0.00015095,-0.10941250,-0.00980726,0.06668893,-0.04414664
 ,0.00353216,0.01742419,0.15578647,-0.00000592,-0.00001988,0.00000563,-
 0.00001617,0.00004072,-0.00001535,0.00011713,-0.00008274,0.00001864,-0
 .00056639,-0.00014867,0.00008250,0.00138411,-0.00068773,0.00013240,-0.
 00049162,0.00035901,-0.00013251,-0.00171105,-0.00060275,-0.00006890,0.
 00068073,-0.00084648,-0.00118170,0.00347086,-0.00322078,0.00136747,-0.
 00168032,-0.00067709,0.00030368,-0.00039329,0.00224185,0.00041471,-0.0
 0031388,-0.00527114,0.00211247,-0.01866440,-0.00266896,0.01801266,-0.0
 0001004,0.00000144,-0.00000157,-0.00000098,0.00000057,-0.00000133,-0.0
 0000081,0.00000159,0.00000070,0.00000079,-0.00000356,0.00000012,0.0000
 0111,-0.00000278,0.00000246,-0.00003153,0.00000753,-0.00000269,-0.0000
 4074,0.00000991,-0.00001525,0.00000537,0.00005574,-0.00002449,-0.00016
 971,0.00008870,-0.00003077,0.00025491,0.00008571,0.00035754,-0.0000589
 9,-0.00001712,-0.00006244,-0.00066069,-0.00159160,0.00057415,-0.008146
 26,-0.06419507,0.01035728,0.01125627,0.00560012,-0.00304574,-0.0076132
 9,0.09017631,0.00000519,0.00001838,-0.00000443,0.00001536,-0.00003705,
 0.00001280,-0.00010778,0.00007412,-0.00003611,0.00051699,0.00014813,-0
 .00006296,-0.00123469,0.00050489,-0.00008862,0.00051701,-0.00023997,0.
 00013675,0.00120251,0.00089598,0.00008606,0.00065045,-0.00090546,0.000
 29942,-0.00251981,0.00623792,-0.00071943,0.00018850,0.00048762,-0.0001
 5005,0.00017935,-0.00066527,0.00047481,0.00098979,0.00288823,0.0001819
 5,0.01348028,-0.01002927,-0.00917401,0.00000947,-0.00000133,0.00000136
 ,0.00000117,-0.00000093,0.00000170,0.00000020,-0.00000087,-0.00000033,
 -0.00000063,0.00000461,0.00000035,-0.00000101,0.00000171,-0.00000151,0
 .00002763,-0.00000707,0.00000380,0.00003659,-0.00000983,0.00001455,-0.
 00000504,-0.00005179,0.00002024,0.00024258,-0.00006384,0.00005587,-0.0
 0062278,-0.00027233,-0.00017549,-0.00002840,0.00005296,-0.00004468,-0.
 00015760,0.00087073,-0.00073022,0.06572126,0.01339660,-0.13981840,-0.0
 0301434,0.00102864,0.00518087,-0.10121835,0.00801032,0.21316301,0.0000
 0181,0.00000724,-0.00000169,0.00000720,-0.00001602,0.00000511,-0.00004
 530,0.00003493,-0.00000156,0.00021102,0.00004503,-0.00002757,-0.000530
 53,0.00032136,-0.00007343,0.00013159,-0.00016594,0.00003103,0.00055530
 ,0.00036339,-0.00003110,0.00040666,-0.00034986,-0.00108940,-0.00208431
 ,0.00043967,-0.00055320,0.00015062,0.00022310,0.00018692,-0.00033705,-
 0.00033191,-0.00061901,0.00239043,0.00261673,0.00070095,-0.00428750,-0
 .00497867,0.00875845,0.00000326,-0.00000109,0.00000075,0.00000022,0.00
 000038,0.,0.00000117,-0.00000088,-0.00000059,-0.00000116,-0.00000026,-
 0.00000060,-0.00000045,0.00000190,-0.00000128,0.00001255,-0.00000492,-
 0.00000051,0.00001657,-0.00000270,0.00000526,-0.00000399,-0.00002114,0
 .00001485,0.00008951,-0.00002767,0.00004258,0.00111561,-0.00097724,-0.
 00001761,0.00009505,-0.00000622,0.00007781,0.00033573,-0.00047012,0.00
 010845,-0.10156666,0.01845057,0.06258753,0.00538254,0.00016901,-0.0170
 3570,-0.00059722,-0.00061763,0.00595623,0.15567989,-0.00000625,-0.0000
 2189,0.00000616,-0.00001767,0.00004545,-0.00001756,0.00013599,-0.00009
 451,0.00001680,-0.00062232,-0.00019486,0.00009917,0.00151312,-0.000648
 38,0.00006540,-0.00061161,0.00029531,-0.00012984,-0.00178826,-0.000597
 19,0.00008456,0.00162901,0.00237031,-0.00012768,-0.00088428,-0.0049990
 8,-0.00237100,0.00100130,-0.00102883,-0.00031858,-0.00041377,-0.000966
 81,0.00136084,-0.00486287,-0.00278142,-0.00181410,0.01831971,-0.006162
 93,-0.02110107,-0.00001121,0.00000166,-0.00000177,-0.00000106,0.000000
 48,-0.00000134,-0.00000119,0.00000191,0.00000083,0.00000093,-0.0000035
 6,0.00000046,0.00000132,-0.00000336,0.00000299,-0.00003504,0.00000861,
 -0.00000164,-0.00004486,0.00001145,-0.00001629,0.00000025,0.00006136,-
 0.00002662,-0.00014017,0.00011501,0.00000723,0.00062885,-0.00208945,-0
 .00090170,0.00002928,-0.00005552,0.00002748,-0.00011916,0.00023060,-0.
 00038617,0.01674092,-0.07115925,-0.02629269,0.00051247,0.00738217,0.00
 646762,0.00282302,0.00760673,-0.00290986,-0.00766710,0.09127042,-0.000
 00483,-0.00001691,0.00000413,-0.00001306,0.00003506,-0.00001397,0.0001
 0053,-0.00007326,0.00000707,-0.00047203,-0.00014303,0.00008171,0.00114
 390,-0.00050511,0.00005174,-0.00045951,0.00024787,-0.00006888,-0.00131
 524,-0.00055208,0.00009166,0.00080762,0.00087236,0.00044831,-0.0000593
 4,-0.00319782,-0.00002937,-0.00014562,-0.00053756,-0.00016388,0.001019
 16,0.00043568,0.00054202,-0.00461621,-0.00550741,-0.00106763,0.0164878
 4,0.00588086,-0.00964452,-0.00000821,0.00000129,-0.00000145,0.00000003
 ,0.00000024,0.00000016,-0.00000157,0.00000206,0.00000038,-0.00000001,-
 0.00000166,0.00000054,0.00000019,-0.00000402,0.00000378,-0.00002807,0.
 00000875,-0.00000114,-0.00003246,0.00000809,-0.00000951,-0.00000031,0.
 00004544,-0.00002908,-0.00014425,0.00007835,-0.00004087,-0.00004428,-0
 .00110270,-0.00088836,-0.00004609,-0.00004211,-0.00002902,-0.00024575,
 0.00039669,-0.00019048,0.06064253,-0.02903222,-0.14261733,0.00260510,-
 0.00195729,-0.04666948,0.00669870,0.00154829,-0.00442138,-0.10080229,0
 .01653218,0.21460834,-0.00001214,-0.00003924,0.00001163,-0.00003797,0.
 00007886,-0.00003255,0.00018323,-0.00018453,0.00003295,-0.00099444,-0.
 00010300,0.00003330,0.00190836,-0.00149474,0.00050783,-0.00068452,0.00
 062096,-0.00018563,-0.00342187,0.00174582,0.00008274,0.00106717,-0.006
 69069,0.00003427,-0.00091093,0.00248608,0.00002060,-0.03627751,0.03059
 974,0.00605406,-0.11725903,0.06276183,0.01355925,-0.00767962,0.0099333
 5,0.00175115,0.00134715,0.00017760,0.00057715,-0.00001903,0.00000285,-
 0.00000278,-0.00000108,0.00000160,-0.00000195,-0.00000082,0.00000261,0
 .00000054,0.00000157,-0.00000743,-0.00000077,0.00000164,-0.00000473,0.
 00000553,-0.00004594,0.00001333,-0.00000321,-0.00006535,0.00001821,-0.
 00002400,0.00001182,0.00009257,-0.00002697,0.00002306,0.00021970,-0.00
 011537,0.00035999,0.00008134,-0.00009591,0.00065101,0.00100371,-0.0004
 2441,0.00084965,-0.00069341,-0.00058451,-0.00094454,-0.00308973,0.0000
 2465,-0.00046713,0.00090383,-0.00051404,0.00051112,0.00058397,-0.00056
 488,-0.00032160,0.00087410,0.00071058,0.16147714,0.00000620,0.00001974
 ,-0.00000577,0.00001617,-0.00004005,0.00001553,-0.00010938,0.00008853,
 -0.00001715,0.00052243,0.00013873,-0.00005546,-0.00116674,0.00052985,-
 0.00014017,0.00049183,-0.00023425,0.00008153,0.00136031,-0.00009158,-0
 .00003867,-0.00232522,-0.00002668,0.00020832,0.00232076,-0.00016967,-0
 .00022578,0.00431388,0.00058266,-0.00054878,0.06339393,-0.09012425,-0.
 01061201,0.03556178,-0.02776188,-0.00531591,-0.00527951,-0.00302905,0.
 00026519,0.00000993,-0.00000133,0.00000141,0.00000071,-0.00000090,0.00
 000104,0.00000035,-0.00000121,-0.00000018,-0.00000026,0.00000419,0.000
 00038,-0.00000073,0.00000258,-0.00000285,0.00002555,-0.00000737,0.0000
 0276,0.00003711,-0.00001010,0.00001332,-0.00000112,-0.00004992,0.00001
 894,0.00003876,-0.00011099,0.00003693,-0.00020011,0.00013602,0.0000349
 6,-0.00080449,0.00092922,0.00039868,0.00133560,0.00109281,-0.00003041,
 0.00149208,0.00296847,-0.00007605,0.00084777,-0.00123183,0.00085708,-0
 .00068485,-0.00059859,0.00069023,0.00057884,-0.00113323,-0.00114552,-0
 .10082850,0.11911249,0.00000323,0.00000614,-0.00000352,0.00000362,-0.0
 0001283,0.00000627,-0.00002660,0.00002812,0.00001359,0.00015366,0.0000
 2233,-0.00002439,-0.00031513,0.00015269,-0.00020808,0.00012513,-0.0000
 7900,0.00005513,0.00053187,-0.00020559,-0.00003200,0.00027252,0.000506
 71,0.00527853,0.00015239,-0.00017738,-0.00104544,0.00494724,-0.0037045
 0,0.00332789,0.01350018,-0.01054616,-0.02530210,0.00262200,-0.00213926
 ,0.00384954,0.00027017,-0.00034847,0.00438856,0.00000281,-0.00000068,0
 .00000040,0.,-0.00000019,0.00000025,0.,-0.00000035,-0.00000002,0.00000
 020,0.00000171,-0.00000014,-0.00000004,0.00000126,-0.00000095,0.000005
 45,-0.00000193,-0.00000070,0.00001383,-0.00000185,0.00000392,-0.000003
 82,-0.00001759,0.00000367,0.00000504,-0.00002432,0.00005213,-0.0000923
 8,0.00001450,-0.00043056,-0.00059120,0.00016017,-0.00264383,-0.0004387
 0,0.00030175,-0.00252800,0.00018734,0.00047134,0.00018095,0.00015360,-
 0.00029458,0.00016277,-0.00010847,-0.00009401,0.00009401,-0.00000352,0
 .00001133,-0.00000309,-0.02128235,0.01611024,0.01488552,-0.00000092,-0
 .00000216,0.00000078,-0.00000065,0.00000417,-0.00000143,0.00001240,-0.
 00000728,0.00000102,-0.00005675,-0.00002983,0.00001219,0.00011150,0.00
 001258,-0.00000346,-0.00007533,-0.00002157,-0.00001007,-0.00010675,-0.
 00003211,-0.00000631,0.00028580,0.00035780,-0.00001054,-0.00025812,0.0
 0042878,0.00009139,0.00019132,-0.00007344,-0.00004311,0.00002204,-0.00
 028947,-0.00000034,-0.00051672,-0.00050984,0.00004634,0.00285398,-0.00
 071113,-0.00011512,-0.00000143,-0.00000022,-0.00000008,0.00000007,0.00
 000035,0.00000002,0.00000029,0.00000014,-0.00000023,-0.00000014,-0.000
 00090,-0.00000028,-0.00000006,-0.00000036,0.00000058,-0.00000239,0.000
 00041,-0.00000098,-0.00000361,0.00000147,-0.00000087,-0.00000105,0.000
 00526,-0.00000299,-0.00000735,0.00000734,0.00000192,0.00034144,0.00008
 301,-0.00003036,0.00002258,-0.00000985,-0.00000254,0.00016679,-0.00009
 970,-0.00002818,-0.05947013,-0.01776646,-0.00040904,-0.02500613,-0.037
 15515,-0.02229685,0.00036393,0.02350539,0.01639859,-0.01254979,-0.0309
 7249,0.02146161,0.00009374,-0.00010459,-0.00001930,0.10190327,-0.00000
 330,-0.00001188,0.00000313,-0.00000831,0.00002387,-0.00000940,0.000072
 60,-0.00004851,0.00001184,-0.00033123,-0.00010907,0.00005203,0.0007957
 4,-0.00031259,0.00003127,-0.00032794,0.00014559,-0.00006965,-0.0009732
 2,-0.00031228,0.00006506,0.00071797,0.00027903,-0.00006905,0.00036766,
 -0.00073759,-0.00003719,-0.00024810,-0.00038755,0.00000446,-0.00028018
 ,0.00041462,0.00002021,-0.00040729,-0.00048604,0.00002757,-0.00076758,
 -0.00174268,-0.00005550,-0.00000631,0.00000066,-0.00000090,-0.00000042
 ,0.00000045,-0.00000084,-0.00000046,0.00000112,0.00000051,0.00000007,-
 0.00000221,0.00000001,0.00000057,-0.00000177,0.00000165,-0.00001799,0.
 00000460,-0.00000108,-0.00002368,0.00000606,-0.00000857,-0.00000005,0.
 00003180,-0.00001432,-0.00008525,0.00005520,-0.00000020,0.00049575,0.0
 0014948,-0.00003792,-0.00000729,-0.00002925,0.00000274,-0.00034699,0.0
 0032073,0.00006623,-0.01779686,-0.17719231,-0.00256461,-0.02066601,-0.
 01971494,-0.01303044,0.01102895,-0.03295960,-0.02354159,-0.01842047,-0
 .02308644,0.01761834,0.00039001,-0.00043784,-0.00005706,0.02901188,0.2
 9399261,-0.00000016,-0.00000038,0.00000011,0.00000005,0.00000047,-0.00
 000056,0.00000066,-0.00000145,-0.00000482,-0.00000694,-0.00000213,0.00
 000254,0.00001611,-0.00000461,-0.00000360,-0.00000324,0.00000363,0.000
 01110,-0.00002822,-0.00000249,0.00000643,-0.00000480,-0.00004031,-0.00
 002050,0.00008669,-0.00009991,0.00011873,-0.00005020,-0.00000143,-0.00
 006667,-0.00000521,0.00006041,0.00000140,0.00006286,0.00002357,0.00009
 070,-0.00012049,-0.00007457,0.00226891,-0.00000018,-0.00000008,-0.0000
 0004,0.00000024,-0.00000009,0.00000048,-0.00000024,0.00000030,-0.00000
 004,0.00000010,0.00000046,0.00000006,-0.00000006,-0.00000062,0.0000007
 6,-0.00000093,0.00000062,-0.00000010,0.00000021,0.00000021,0.00000118,
 0.,0.00000080,-0.00000304,-0.00000050,0.00000025,-0.00000616,-0.000037
 57,-0.00001477,-0.00003185,-0.00000441,0.00000067,-0.00000696,-0.00002
 548,0.00002389,-0.00003165,-0.00031346,-0.00247940,-0.05595379,-0.0237
 4413,-0.02519912,-0.00653278,0.01371813,-0.03961333,-0.01734742,0.0239
 9374,0.03370351,-0.01516630,0.00000248,-0.00000160,-0.00001467,0.00089
 687,0.00382591,0.09720312,-0.00000750,-0.00002214,0.00000690,-0.000015
 54,0.00004308,-0.00001761,0.00012397,-0.00008952,0.00001741,-0.0005856
 9,-0.00018415,0.00008637,0.00138874,-0.00048528,0.00010199,-0.00060157
 ,0.00021122,-0.00013304,-0.00117509,-0.00101222,0.00018815,-0.00008024
 ,0.00062439,0.00115299,0.00254678,-0.00567272,-0.00226198,-0.00037492,
 -0.00059053,-0.00019870,0.00038365,0.00062500,0.00091271,-0.00260653,-
 0.00215884,0.00009461,-0.01572413,0.00885526,-0.01248700,-0.00001139,0
 .00000099,-0.00000160,-0.00000052,0.00000105,-0.00000075,-0.00000040,0
 .00000165,0.00000002,0.00000041,-0.00000464,-0.00000031,0.00000057,-0.
 00000341,0.00000379,-0.00003067,0.00000835,-0.00000382,-0.00004055,0.0
 0001198,-0.00001399,0.00000134,0.00006219,-0.00002529,-0.00029087,0.00
 008553,-0.00002171,0.00080656,0.00045702,-0.00048603,0.00005850,-0.000
 05076,-0.00009531,0.00105026,-0.00043416,-0.00068422,-0.14601380,-0.00
 717690,-0.06659430,-0.00409349,0.00416783,-0.00649090,0.00535529,-0.00
 006691,0.00333616,-0.04426118,0.00398904,-0.00323867,0.00065688,-0.000
 84849,-0.00006879,-0.00831182,0.01783774,-0.01443194,0.21185294,-0.000
 00563,-0.00001852,0.00000577,-0.00001459,0.00003843,-0.00001528,0.0001
 1010,-0.00007881,0.00001115,-0.00052340,-0.00013703,0.00007956,0.00131
 049,-0.00063366,0.00008337,-0.00045307,0.00032995,-0.00011147,-0.00151
 437,-0.00065896,0.00025099,0.00089090,-0.00093232,0.00084423,0.0026757
 0,-0.00271067,-0.00226612,-0.00168594,-0.00062136,0.00004119,-0.000502
 93,0.00216069,-0.00019657,-0.00086058,-0.00504843,-0.00260723,-0.02155
 387,-0.00200679,-0.01216621,-0.00000939,0.00000130,-0.00000146,-0.0000
 0077,0.00000054,-0.00000117,-0.00000085,0.00000158,0.00000066,0.000000
 58,-0.00000326,0.00000023,0.00000083,-0.00000303,0.00000263,-0.0000292
 0,0.00000733,-0.00000201,-0.00003788,0.00000965,-0.00001385,0.00000443
 ,0.00005164,-0.00002213,-0.00018852,0.00009734,0.00001913,0.00013914,0
 .00009544,-0.00038449,-0.00004532,-0.00002733,0.00008289,-0.00141387,-
 0.00136721,-0.00037066,-0.00456251,-0.06361299,-0.00365985,-0.00036809
 ,0.00744945,-0.00055753,0.00110064,0.00731862,0.00342540,0.01080770,0.
 00562524,0.00010711,0.00054395,-0.00054458,-0.00008255,0.03436794,-0.0
 3785329,0.02989158,-0.01818164,0.09307104,-0.00000480,-0.00001544,0.00
 000424,-0.00001081,0.00002983,-0.00001167,0.00008452,-0.00005991,0.000
 01047,-0.00041802,-0.00011927,0.00007311,0.00100049,-0.00039434,0.0000
 4714,-0.00039352,0.00019092,-0.00008474,-0.00090459,-0.00079674,0.0001
 5026,-0.00056176,0.00071452,0.00049062,0.00175869,-0.00509422,-0.00135
 406,-0.00019196,-0.00040285,-0.00006908,-0.00027328,0.00057005,0.00016
 055,-0.00055571,-0.00296944,-0.00024183,-0.01333957,0.00858109,-0.0022
 9696,-0.00000778,0.00000086,-0.00000122,-0.00000013,0.00000058,-0.0000
 0007,-0.00000065,0.00000142,0.00000003,0.00000036,-0.00000234,-0.00000
 017,-0.00000003,-0.00000311,0.00000326,-0.00002278,0.00000687,-0.00000
 203,-0.00002821,0.00000805,-0.00000951,0.00000412,0.00004220,-0.000022
 12,-0.00021793,0.00006030,-0.00001084,0.00038840,0.00018656,-0.0002318
 0,0.00000308,-0.00004224,-0.00000623,-0.00059314,-0.00079227,-0.000592
 53,-0.06545257,-0.00639058,-0.10556968,-0.00607435,0.00280925,-0.00078
 984,-0.01785374,0.00098907,-0.04695249,0.01778940,-0.00196863,0.005215
 90,0.00045063,-0.00052021,-0.00006564,-0.01592924,0.01776734,-0.004514
 57,0.10135486,-0.01238731,0.15667149\\-0.00000225,0.00000724,-0.000004
 25,-0.00000110,0.00000589,-0.00000020,0.00000004,0.00000343,-0.0000068
 4,-0.00000287,0.00000155,0.00000896,-0.00000251,0.00000942,-0.00000235
 ,0.00000185,-0.00000468,-0.00000444,0.00000206,-0.00000081,0.00000125,
 -0.00000374,-0.00000508,0.00000597,0.00000455,0.00000067,-0.00000125,-
 0.00000313,-0.00000230,0.00001047,0.00000283,-0.00000400,0.00000992,0.
 00000238,-0.00000846,0.00000383,-0.00000352,-0.00000394,0.00000074,-0.
 00000296,0.00000860,-0.00000237,0.00000051,0.00000325,-0.00000519,-0.0
 0000176,0.00000948,-0.00000809,-0.00000321,0.00000328,0.00000415,-0.00
 000513,0.00001046,0.00000098,-0.00000191,0.00000640,-0.00000527,0.0000
 0128,0.00000103,-0.00000286,-0.00000261,0.00000369,0.00000508,-0.00000
 471,0.00000103,0.00000903,0.00000134,0.00000091,-0.00000479,-0.0000025
 2,-0.00000406,0.00001352,0.00000175,-0.00000705,0.00000544,0.00000648,
 -0.00000451,-0.00000994,0.00000832,-0.00000572,-0.00000603,0.00000512,
 -0.00001201,-0.00000535,0.00000315,0.00000287,-0.00001317,-0.00000245,
 -0.00000827,0.00001659,0.00000185,-0.00000703,-0.00001137,0.00000287,-
 0.00000129,-0.00000217\\\@


 THERE IS SOMETHING FASCINATING ABOUT SCIENCE.
 ONE GETS SUCH WHOLESALE CONJECTURE OUT OF SUCH TRIFLING INVESTMENTS.

                                                       -- MARK TWAIN
 Job cpu time:       0 days  4 hours  0 minutes  5.1 seconds.
 File lengths (MBytes):  RWF=    752 Int=      0 D2E=      0 Chk=     24 Scr=      1
 Normal termination of Gaussian 09 at Tue Oct 30 15:04:00 2018.
WARNING: pbs_rusage is deprecated and values produced may not be accurate


=============================================================================
                                     Resource usage:
                                       CPU time:              21:06:49
   JobId:    1827396.r-man2            Elapsed time:          05:18:52
   Project:             q95            Requested time:        40:00:00
   Service Units:     21.26 
                                       Max physical memory:      834MB
                                       Max virtual memory:      1938MB
                                       Requested memory:           0MB

                                       Number of cpus:               4

                                       Max jobfs disk use:       0.7GB
                                       Requested jobfs:         20.0GB
=============================================================================

