 Entering Gaussian System, Link 0=/apps/gaussian/g09e01/g09/g09
 AtFile(1): /home/507/hio507/Basis/6-31pGd.gbs
 Initial command:
 /apps/gaussian/g09e01/g09/l1.exe "/jobfs/local/1873233.r-man2/Gau-51560.inp" -scrdir="/jobfs/local/1873233.r-man2/"
 Entering Link 1 = /apps/gaussian/g09e01/g09/l1.exe PID=     51564.
  
 Copyright (c) 1988,1990,1992,1993,1995,1998,2003,2009,2015,
            Gaussian, Inc.  All Rights Reserved.
  
 This is part of the Gaussian(R) 09 program.  It is based on
 the Gaussian(R) 03 system (copyright 2003, Gaussian, Inc.),
 the Gaussian(R) 98 system (copyright 1998, Gaussian, Inc.),
 the Gaussian(R) 94 system (copyright 1995, Gaussian, Inc.),
 the Gaussian 92(TM) system (copyright 1992, Gaussian, Inc.),
 the Gaussian 90(TM) system (copyright 1990, Gaussian, Inc.),
 the Gaussian 88(TM) system (copyright 1988, Gaussian, Inc.),
 the Gaussian 86(TM) system (copyright 1986, Carnegie Mellon
 University), and the Gaussian 82(TM) system (copyright 1983,
 Carnegie Mellon University). Gaussian is a federally registered
 trademark of Gaussian, Inc.
  
 This software contains proprietary and confidential information,
 including trade secrets, belonging to Gaussian, Inc.
  
 This software is provided under written license and may be
 used, copied, transmitted, or stored only in accord with that
 written license.
  
 The following legend is applicable only to US Government
 contracts under FAR:
  
                    RESTRICTED RIGHTS LEGEND
  
 Use, reproduction and disclosure by the US Government is
 subject to restrictions as set forth in subparagraphs (a)
 and (c) of the Commercial Computer Software - Restricted
 Rights clause in FAR 52.227-19.
  
 Gaussian, Inc.
 340 Quinnipiac St., Bldg. 40, Wallingford CT 06492
  
  
 ---------------------------------------------------------------
 Warning -- This program may not be used in any manner that
 competes with the business of Gaussian, Inc. or will provide
 assistance to any competitor of Gaussian, Inc.  The licensee
 of this program is prohibited from giving any competitor of
 Gaussian, Inc. access to this program.  By using this program,
 the user acknowledges that Gaussian, Inc. is engaged in the
 business of creating and licensing software in the field of
 computational chemistry and represents and warrants to the
 licensee that it is not a competitor of Gaussian, Inc. and that
 it will not use this program in any manner prohibited above.
 ---------------------------------------------------------------
  

 Cite this work as:
 Gaussian 09, Revision E.01,
 M. J. Frisch, G. W. Trucks, H. B. Schlegel, G. E. Scuseria, 
 M. A. Robb, J. R. Cheeseman, G. Scalmani, V. Barone, B. Mennucci, 
 G. A. Petersson, H. Nakatsuji, M. Caricato, X. Li, H. P. Hratchian, 
 A. F. Izmaylov, J. Bloino, G. Zheng, J. L. Sonnenberg, M. Hada, 
 M. Ehara, K. Toyota, R. Fukuda, J. Hasegawa, M. Ishida, T. Nakajima, 
 Y. Honda, O. Kitao, H. Nakai, T. Vreven, J. A. Montgomery, Jr., 
 J. E. Peralta, F. Ogliaro, M. Bearpark, J. J. Heyd, E. Brothers, 
 K. N. Kudin, V. N. Staroverov, T. Keith, R. Kobayashi, J. Normand, 
 K. Raghavachari, A. Rendell, J. C. Burant, S. S. Iyengar, J. Tomasi, 
 M. Cossi, N. Rega, J. M. Millam, M. Klene, J. E. Knox, J. B. Cross, 
 V. Bakken, C. Adamo, J. Jaramillo, R. Gomperts, R. E. Stratmann, 
 O. Yazyev, A. J. Austin, R. Cammi, C. Pomelli, J. W. Ochterski, 
 R. L. Martin, K. Morokuma, V. G. Zakrzewski, G. A. Voth, 
 P. Salvador, J. J. Dannenberg, S. Dapprich, A. D. Daniels, 
 O. Farkas, J. B. Foresman, J. V. Ortiz, J. Cioslowski, 
 and D. J. Fox, Gaussian, Inc., Wallingford CT, 2013.
 
 ******************************************
 Gaussian 09:  ES64L-G09RevE.01 30-Nov-2015
                31-Oct-2018 
 ******************************************
 %chk=3SF55Chloro.M062X_6-31pGd_opt.chk
 %mem=196608000
 %nproc=4
 Will use up to    4 processors via shared memory.
 ----------------------------------------------------------------------
 # M062X/Gen 6D SCF=Tight INT(grid=ultrafine) OPT IOP(2/17=4) maxdisk=2
 684354560
 ----------------------------------------------------------------------
 1/14=-1,18=20,19=15,26=4,38=1/1,3;
 2/9=110,12=2,17=4,18=5,40=1/2;
 3/5=7,8=2,11=2,16=1,25=1,30=1,71=1,74=-55,75=-5/1,2,3;
 4//1;
 5/5=2,32=2,38=5/2;
 6/7=2,8=2,9=2,10=2,28=1/1;
 7//1,2,3,16;
 1/14=-1,18=20,19=15,26=4/3(2);
 2/9=110,17=4/2;
 99//99;
 2/9=110,17=4/2;
 3/5=7,6=1,8=2,11=2,16=1,25=1,30=1,71=1,74=-55,75=-5,82=7/1,2,3;
 4/5=5,16=3,69=1/1;
 5/5=2,32=2,38=5/2;
 7//1,2,3,16;
 1/14=-1,18=20,19=15,26=4/3(-5);
 2/9=110,17=4/2;
 6/7=2,8=2,9=2,10=2,19=2,28=1/1;
 99/9=1/99;
 -----------------------------
 3SF55Chloro.M062X_6-31pGd_opt
 -----------------------------
 Symbolic Z-matrix:
 Charge =  0 Multiplicity = 1
 C                    -1.82096   1.50552  -0.0993 
 C                    -0.39956   1.04436   0.20638 
 C                     0.60601   2.14968  -0.07713 
 N                     1.96146   1.68842   0.2024 
 C                     3.01858   2.5089    0.02897 
 O                     2.89161   3.70872  -0.25374 
 N                     4.25213   1.90735   0.20719 
 C                     5.50506   2.49732   0.04984 
 C                     5.71532   3.88229   0.08517 
 C                     6.59978   1.63609  -0.11424 
 C                     7.87496   2.16078  -0.24541 
 C                     8.12367   3.52976  -0.23109 
 C                     7.01449   4.34621  -0.06362 
 H                    -2.544     0.71138   0.10879 
 H                    -1.92298   1.78732  -1.15305 
 H                    -2.08987   2.37532   0.51016 
 H                    -0.15227   0.16551  -0.4021 
 H                    -0.31941   0.74379   1.25795 
 H                     0.39248   3.02259   0.54869 
 H                     0.53182   2.46824  -1.12457 
 H                     2.11357   0.69238   0.32359 
 H                     4.25904   0.897     0.31174 
 H                     4.88578   4.55859   0.23128 
 H                     6.44342   0.56155  -0.13941 
 H                     9.12895   3.91887  -0.34328 
 S                     7.27776   6.1406   -0.02528 
 F                     6.01942   6.4312   -0.99381 
 F                     8.25487   6.1062   -1.31095 
 F                     6.32606   6.33718   1.26425 
 Cl                    9.21865   1.06813  -0.44638 
 F                     7.51449   7.73882   0.0087 
 F                     8.56132   6.0136    0.94659 
 

 GradGradGradGradGradGradGradGradGradGradGradGradGradGradGradGradGradGrad
 Berny optimization.
 Initialization pass.
                           ----------------------------
                           !    Initial Parameters    !
                           ! (Angstroms and Degrees)  !
 --------------------------                            --------------------------
 ! Name  Definition              Value          Derivative Info.                !
 --------------------------------------------------------------------------------
 ! R1    R(1,2)                  1.5253         estimate D2E/DX2                !
 ! R2    R(1,14)                 1.094          estimate D2E/DX2                !
 ! R3    R(1,15)                 1.0955         estimate D2E/DX2                !
 ! R4    R(1,16)                 1.0956         estimate D2E/DX2                !
 ! R5    R(2,3)                  1.521          estimate D2E/DX2                !
 ! R6    R(2,17)                 1.0972         estimate D2E/DX2                !
 ! R7    R(2,18)                 1.0966         estimate D2E/DX2                !
 ! R8    R(3,4)                  1.4588         estimate D2E/DX2                !
 ! R9    R(3,19)                 1.0951         estimate D2E/DX2                !
 ! R10   R(3,20)                 1.0973         estimate D2E/DX2                !
 ! R11   R(4,5)                  1.3494         estimate D2E/DX2                !
 ! R12   R(4,21)                 1.0148         estimate D2E/DX2                !
 ! R13   R(5,6)                  1.2392         estimate D2E/DX2                !
 ! R14   R(5,7)                  1.3839         estimate D2E/DX2                !
 ! R15   R(7,8)                  1.3938         estimate D2E/DX2                !
 ! R16   R(7,22)                 1.0158         estimate D2E/DX2                !
 ! R17   R(8,9)                  1.4013         estimate D2E/DX2                !
 ! R18   R(8,10)                 1.4025         estimate D2E/DX2                !
 ! R19   R(9,13)                 1.3875         estimate D2E/DX2                !
 ! R20   R(9,23)                 1.0802         estimate D2E/DX2                !
 ! R21   R(10,11)                1.3851         estimate D2E/DX2                !
 ! R22   R(10,24)                1.0861         estimate D2E/DX2                !
 ! R23   R(11,12)                1.3915         estimate D2E/DX2                !
 ! R24   R(11,30)                1.7435         estimate D2E/DX2                !
 ! R25   R(12,13)                1.3874         estimate D2E/DX2                !
 ! R26   R(12,25)                1.0838         estimate D2E/DX2                !
 ! R27   R(13,26)                1.814          estimate D2E/DX2                !
 ! R28   R(26,27)                1.6143         estimate D2E/DX2                !
 ! R29   R(26,28)                1.6152         estimate D2E/DX2                !
 ! R30   R(26,29)                1.6147         estimate D2E/DX2                !
 ! R31   R(26,31)                1.616          estimate D2E/DX2                !
 ! R32   R(26,32)                1.615          estimate D2E/DX2                !
 ! A1    A(2,1,14)             110.9974         estimate D2E/DX2                !
 ! A2    A(2,1,15)             110.9355         estimate D2E/DX2                !
 ! A3    A(2,1,16)             110.9336         estimate D2E/DX2                !
 ! A4    A(14,1,15)            107.9465         estimate D2E/DX2                !
 ! A5    A(14,1,16)            107.9561         estimate D2E/DX2                !
 ! A6    A(15,1,16)            107.9384         estimate D2E/DX2                !
 ! A7    A(1,2,3)              111.0413         estimate D2E/DX2                !
 ! A8    A(1,2,17)             109.9429         estimate D2E/DX2                !
 ! A9    A(1,2,18)             110.069          estimate D2E/DX2                !
 ! A10   A(3,2,17)             109.2527         estimate D2E/DX2                !
 ! A11   A(3,2,18)             109.2453         estimate D2E/DX2                !
 ! A12   A(17,2,18)            107.2042         estimate D2E/DX2                !
 ! A13   A(2,3,4)              110.4137         estimate D2E/DX2                !
 ! A14   A(2,3,19)             110.1109         estimate D2E/DX2                !
 ! A15   A(2,3,20)             110.133          estimate D2E/DX2                !
 ! A16   A(4,3,19)             108.8875         estimate D2E/DX2                !
 ! A17   A(4,3,20)             109.726          estimate D2E/DX2                !
 ! A18   A(19,3,20)            107.5126         estimate D2E/DX2                !
 ! A19   A(3,4,5)              120.7319         estimate D2E/DX2                !
 ! A20   A(3,4,21)             118.1948         estimate D2E/DX2                !
 ! A21   A(5,4,21)             119.651          estimate D2E/DX2                !
 ! A22   A(4,5,6)              122.533          estimate D2E/DX2                !
 ! A23   A(4,5,7)              114.6732         estimate D2E/DX2                !
 ! A24   A(6,5,7)              122.7898         estimate D2E/DX2                !
 ! A25   A(5,7,8)              127.0655         estimate D2E/DX2                !
 ! A26   A(5,7,22)             116.8503         estimate D2E/DX2                !
 ! A27   A(8,7,22)             115.2481         estimate D2E/DX2                !
 ! A28   A(7,8,9)              123.3943         estimate D2E/DX2                !
 ! A29   A(7,8,10)             117.061          estimate D2E/DX2                !
 ! A30   A(9,8,10)             119.5208         estimate D2E/DX2                !
 ! A31   A(8,9,13)             117.9211         estimate D2E/DX2                !
 ! A32   A(8,9,23)             120.4623         estimate D2E/DX2                !
 ! A33   A(13,9,23)            121.6152         estimate D2E/DX2                !
 ! A34   A(8,10,11)            119.8055         estimate D2E/DX2                !
 ! A35   A(8,10,24)            119.8575         estimate D2E/DX2                !
 ! A36   A(11,10,24)           120.3369         estimate D2E/DX2                !
 ! A37   A(10,11,12)           122.4289         estimate D2E/DX2                !
 ! A38   A(10,11,30)           118.8837         estimate D2E/DX2                !
 ! A39   A(12,11,30)           118.6862         estimate D2E/DX2                !
 ! A40   A(11,12,13)           115.9322         estimate D2E/DX2                !
 ! A41   A(11,12,25)           121.1951         estimate D2E/DX2                !
 ! A42   A(13,12,25)           122.8726         estimate D2E/DX2                !
 ! A43   A(9,13,12)            124.3843         estimate D2E/DX2                !
 ! A44   A(9,13,26)            117.6689         estimate D2E/DX2                !
 ! A45   A(12,13,26)           117.9455         estimate D2E/DX2                !
 ! A46   A(13,26,27)            92.9956         estimate D2E/DX2                !
 ! A47   A(13,26,28)            92.8604         estimate D2E/DX2                !
 ! A48   A(13,26,29)            92.9674         estimate D2E/DX2                !
 ! A49   A(13,26,32)            92.8818         estimate D2E/DX2                !
 ! A50   A(27,26,28)            89.8751         estimate D2E/DX2                !
 ! A51   A(27,26,29)            89.8742         estimate D2E/DX2                !
 ! A52   A(27,26,31)            87.0635         estimate D2E/DX2                !
 ! A53   A(28,26,31)            87.0867         estimate D2E/DX2                !
 ! A54   A(28,26,32)            89.8012         estimate D2E/DX2                !
 ! A55   A(29,26,31)            87.0854         estimate D2E/DX2                !
 ! A56   A(29,26,32)            89.8522         estimate D2E/DX2                !
 ! A57   A(31,26,32)            87.059          estimate D2E/DX2                !
 ! A58   L(13,26,31,27,-1)     180.0591         estimate D2E/DX2                !
 ! A59   L(27,26,32,13,-1)     185.8774         estimate D2E/DX2                !
 ! A60   L(28,26,29,13,-1)     185.8278         estimate D2E/DX2                !
 ! A61   L(13,26,31,27,-2)     180.0529         estimate D2E/DX2                !
 ! A62   L(27,26,32,13,-2)     179.9694         estimate D2E/DX2                !
 ! A63   L(28,26,29,13,-2)     179.9461         estimate D2E/DX2                !
 ! D1    D(14,1,2,3)          -179.7655         estimate D2E/DX2                !
 ! D2    D(14,1,2,17)           59.2096         estimate D2E/DX2                !
 ! D3    D(14,1,2,18)          -58.6655         estimate D2E/DX2                !
 ! D4    D(15,1,2,3)            60.2206         estimate D2E/DX2                !
 ! D5    D(15,1,2,17)          -60.8043         estimate D2E/DX2                !
 ! D6    D(15,1,2,18)         -178.6794         estimate D2E/DX2                !
 ! D7    D(16,1,2,3)           -59.7407         estimate D2E/DX2                !
 ! D8    D(16,1,2,17)          179.2343         estimate D2E/DX2                !
 ! D9    D(16,1,2,18)           61.3592         estimate D2E/DX2                !
 ! D10   D(1,2,3,4)           -179.2335         estimate D2E/DX2                !
 ! D11   D(1,2,3,19)            60.4946         estimate D2E/DX2                !
 ! D12   D(1,2,3,20)           -57.9003         estimate D2E/DX2                !
 ! D13   D(17,2,3,4)           -57.8032         estimate D2E/DX2                !
 ! D14   D(17,2,3,19)         -178.0752         estimate D2E/DX2                !
 ! D15   D(17,2,3,20)           63.53           estimate D2E/DX2                !
 ! D16   D(18,2,3,4)            59.1834         estimate D2E/DX2                !
 ! D17   D(18,2,3,19)          -61.0886         estimate D2E/DX2                !
 ! D18   D(18,2,3,20)         -179.4834         estimate D2E/DX2                !
 ! D19   D(2,3,4,5)           -179.5898         estimate D2E/DX2                !
 ! D20   D(2,3,4,21)            14.0669         estimate D2E/DX2                !
 ! D21   D(19,3,4,5)           -58.5865         estimate D2E/DX2                !
 ! D22   D(19,3,4,21)          135.0702         estimate D2E/DX2                !
 ! D23   D(20,3,4,5)            58.8357         estimate D2E/DX2                !
 ! D24   D(20,3,4,21)         -107.5076         estimate D2E/DX2                !
 ! D25   D(3,4,5,6)              6.6036         estimate D2E/DX2                !
 ! D26   D(3,4,5,7)           -174.1112         estimate D2E/DX2                !
 ! D27   D(21,4,5,6)           172.75           estimate D2E/DX2                !
 ! D28   D(21,4,5,7)            -7.9649         estimate D2E/DX2                !
 ! D29   D(4,5,7,8)            177.7396         estimate D2E/DX2                !
 ! D30   D(4,5,7,22)             8.7701         estimate D2E/DX2                !
 ! D31   D(6,5,7,8)             -2.9773         estimate D2E/DX2                !
 ! D32   D(6,5,7,22)          -171.9469         estimate D2E/DX2                !
 ! D33   D(5,7,8,9)             20.4172         estimate D2E/DX2                !
 ! D34   D(5,7,8,10)          -161.3727         estimate D2E/DX2                !
 ! D35   D(22,7,8,9)          -170.4616         estimate D2E/DX2                !
 ! D36   D(22,7,8,10)            7.7484         estimate D2E/DX2                !
 ! D37   D(7,8,9,13)           179.0091         estimate D2E/DX2                !
 ! D38   D(7,8,9,23)            -0.5642         estimate D2E/DX2                !
 ! D39   D(10,8,9,13)            0.8408         estimate D2E/DX2                !
 ! D40   D(10,8,9,23)         -178.7324         estimate D2E/DX2                !
 ! D41   D(7,8,10,11)         -178.5623         estimate D2E/DX2                !
 ! D42   D(7,8,10,24)            1.5349         estimate D2E/DX2                !
 ! D43   D(9,8,10,11)           -0.2797         estimate D2E/DX2                !
 ! D44   D(9,8,10,24)          179.8176         estimate D2E/DX2                !
 ! D45   D(8,9,13,12)           -0.7218         estimate D2E/DX2                !
 ! D46   D(8,9,13,26)          179.6954         estimate D2E/DX2                !
 ! D47   D(23,9,13,12)         178.8463         estimate D2E/DX2                !
 ! D48   D(23,9,13,26)          -0.7366         estimate D2E/DX2                !
 ! D49   D(8,10,11,12)          -0.4742         estimate D2E/DX2                !
 ! D50   D(8,10,11,30)         179.9319         estimate D2E/DX2                !
 ! D51   D(24,10,11,12)        179.428          estimate D2E/DX2                !
 ! D52   D(24,10,11,30)         -0.1659         estimate D2E/DX2                !
 ! D53   D(10,11,12,13)          0.6046         estimate D2E/DX2                !
 ! D54   D(10,11,12,25)       -179.5083         estimate D2E/DX2                !
 ! D55   D(30,11,12,13)       -179.8007         estimate D2E/DX2                !
 ! D56   D(30,11,12,25)          0.0864         estimate D2E/DX2                !
 ! D57   D(11,12,13,9)           0.0057         estimate D2E/DX2                !
 ! D58   D(11,12,13,26)        179.5875         estimate D2E/DX2                !
 ! D59   D(25,12,13,9)        -179.8793         estimate D2E/DX2                !
 ! D60   D(25,12,13,26)         -0.2976         estimate D2E/DX2                !
 ! D61   D(9,13,26,27)         -44.6125         estimate D2E/DX2                !
 ! D62   D(9,13,26,28)        -134.6371         estimate D2E/DX2                !
 ! D63   D(9,13,26,29)          45.4168         estimate D2E/DX2                !
 ! D64   D(9,13,26,32)         135.4181         estimate D2E/DX2                !
 ! D65   D(12,13,26,27)        135.7772         estimate D2E/DX2                !
 ! D66   D(12,13,26,28)         45.7526         estimate D2E/DX2                !
 ! D67   D(12,13,26,29)       -134.1935         estimate D2E/DX2                !
 ! D68   D(12,13,26,32)        -44.1922         estimate D2E/DX2                !
 --------------------------------------------------------------------------------
 Trust Radius=3.00D-01 FncErr=1.00D-07 GrdErr=1.00D-06
 Number of steps in this run=    173 maximum allowed number of steps=    192.
 GradGradGradGradGradGradGradGradGradGradGradGradGradGradGradGradGradGrad

                          Input orientation:                          
 ---------------------------------------------------------------------
 Center     Atomic      Atomic             Coordinates (Angstroms)
 Number     Number       Type             X           Y           Z
 ---------------------------------------------------------------------
      1          6           0       -1.820957    1.505521   -0.099295
      2          6           0       -0.399559    1.044362    0.206377
      3          6           0        0.606015    2.149685   -0.077131
      4          7           0        1.961462    1.688420    0.202404
      5          6           0        3.018576    2.508900    0.028974
      6          8           0        2.891609    3.708720   -0.253742
      7          7           0        4.252134    1.907346    0.207188
      8          6           0        5.505059    2.497318    0.049842
      9          6           0        5.715321    3.882286    0.085169
     10          6           0        6.599777    1.636091   -0.114241
     11          6           0        7.874964    2.160776   -0.245414
     12          6           0        8.123674    3.529763   -0.231086
     13          6           0        7.014491    4.346211   -0.063622
     14          1           0       -2.543999    0.711381    0.108787
     15          1           0       -1.922985    1.787322   -1.153051
     16          1           0       -2.089867    2.375320    0.510164
     17          1           0       -0.152267    0.165505   -0.402096
     18          1           0       -0.319410    0.743791    1.257947
     19          1           0        0.392478    3.022587    0.548692
     20          1           0        0.531821    2.468243   -1.124570
     21          1           0        2.113565    0.692382    0.323594
     22          1           0        4.259037    0.897004    0.311740
     23          1           0        4.885781    4.558588    0.231283
     24          1           0        6.443419    0.561550   -0.139414
     25          1           0        9.128952    3.918870   -0.343280
     26         16           0        7.277756    6.140604   -0.025278
     27          9           0        6.019425    6.431200   -0.993809
     28          9           0        8.254870    6.106205   -1.310950
     29          9           0        6.326063    6.337178    1.264248
     30         17           0        9.218648    1.068126   -0.446381
     31          9           0        7.514491    7.738821    0.008696
     32          9           0        8.561323    6.013601    0.946595
 ---------------------------------------------------------------------
                    Distance matrix (angstroms):
                    1          2          3          4          5
     1  C    0.000000
     2  C    1.525279   0.000000
     3  C    2.511102   1.520952   0.000000
     4  N    3.798838   2.447294   1.458816   0.000000
     5  C    4.944118   3.722901   2.441464   1.349354   0.000000
     6  O    5.204443   4.259378   2.772314   2.270431   1.239201
     7  N    6.094081   4.731066   3.665208   2.301114   1.383940
     8  C    7.394350   6.082770   4.913003   3.637948   2.486597
     9  C    7.904336   6.742422   5.397523   4.349511   3.026843
    10  C    8.421760   7.031618   6.015841   4.649405   3.688808
    11  C    9.719136   8.361712   7.270905   5.949215   4.876575
    12  C   10.149415   8.888987   7.644836   6.446031   5.212659
    13  C    9.280945   8.120545   6.774473   5.715569   4.399048
    14  H    1.093959   2.172332   3.467834   4.611134   5.846340
    15  H    1.095547   2.172754   2.772138   4.115334   5.131947
    16  H    1.095584   2.172758   2.768322   4.120658   5.132795
    17  H    2.161448   1.097170   2.148851   2.674423   3.966304
    18  H    2.162634   1.096616   2.148344   2.684934   3.970911
    19  H    2.760557   2.158211   1.095085   2.088452   2.725871
    20  H    2.741093   2.160169   1.097321   2.100681   2.741581
    21  H    4.039863   2.540359   2.134718   1.014846   2.050752
    22  H    6.124179   4.662117   3.881366   2.432518   2.053511
    23  H    7.376370   6.347064   4.920806   4.097602   2.780037
    24  H    8.318209   6.868699   6.049904   4.634070   3.943358
    25  H   11.215359   9.967820   8.708691   7.526326   6.281980
    26  S   10.211565   9.217728   7.774462   6.938066   5.597574
    27  F    9.302368   8.465331   6.962519   6.355466   5.043374
    28  F   11.142562  10.140201   8.699503   7.836712   6.492671
    29  F    9.569645   8.623630   7.214801   6.464380   5.207791
    30  Cl  11.053717   9.640361   8.688127   7.312484   6.382999
    31  F   11.225698  10.367596   8.886667   8.214683   6.896792
    32  F   11.366988  10.273201   8.903078   7.925855   6.621707
                    6          7          8          9         10
     6  O    0.000000
     7  N    2.304003   0.000000
     8  C    2.896511   1.393788   0.000000
     9  C    2.849269   2.460933   1.401283   0.000000
    10  C    4.250384   2.385021   1.402514   2.422276   0.000000
    11  C    5.218240   3.659778   2.411823   2.781536   1.385136
    12  C    5.235174   4.220562   2.828782   2.454477   2.433497
    13  C    4.176206   3.694864   2.389491   1.387519   2.742135
    14  H    6.217822   6.901264   8.245022   8.847122   9.193121
    15  H    5.261259   6.324298   7.558232   8.016594   8.587169
    16  H    5.213120   6.366457   7.609841   7.960687   8.743356
    17  H    4.673496   4.775351   6.135710   6.962792   6.916327
    18  H    4.624571   4.832905   6.201517   6.902430   7.110151
    19  H    2.712994   4.032038   5.163646   5.411709   6.394718
    20  H    2.804590   3.991104   5.110106   5.507418   6.207522
    21  H    3.168117   2.462349   3.851618   4.817155   4.605256
    22  H    3.177322   1.015761   2.045034   3.329265   2.491340
    23  H    2.221316   2.726018   2.159921   1.080218   3.405608
    24  H    4.746905   2.594808   2.159522   3.407030   1.086149
    25  H    6.241524   5.304017   3.912538   3.440608   3.414712
    26  S    5.020412   5.208541   4.052361   2.748345   4.556118
    27  F    4.212223   5.003095   4.102342   2.784535   4.909534
    28  F    5.969103   5.996420   4.736801   3.652981   4.914607
    29  F    4.583510   5.004195   4.110152   2.791008   4.906666
    30  Cl   6.858663   5.079144   4.009934   4.524969   2.700256
    31  F    6.138536   6.684944   5.613632   4.256257   6.172126
    32  F    6.236902   5.998096   4.744382   3.658454   4.912803
                   11         12         13         14         15
    11  C    0.000000
    12  C    1.391469   0.000000
    13  C    2.355757   1.387415   0.000000
    14  H   10.525255  11.038933  10.227730   0.000000
    15  H    9.846983  10.238236   9.360195   1.770747   0.000000
    16  H    9.995739  10.305272   9.332898   1.770885   1.771969
    17  H    8.272973   8.935249   8.303932   2.505866   2.515883
    18  H    8.450781   9.014684   8.277082   2.504080   3.077876
    19  H    7.573699   7.786955   6.780706   3.762724   3.127807
    20  H    7.401972   7.717601   6.832085   3.750788   2.547653
    21  H    5.972744   6.669319   6.125315   4.662554   4.435438
    22  H    3.870719   4.707600   4.430627   6.808594   6.415269
    23  H    3.861601   3.428735   2.159509   8.367655   7.480347
    24  H    2.148972   3.412030   3.828254   8.992093   8.516260
    25  H    2.161702   1.083778   2.175264  12.114047  11.284703
    26  S    4.030403   2.752168   1.814008  11.223249  10.240926
    27  F    4.715893   3.664417   2.490499  10.356847   9.201784
    28  F    4.104400   2.796672   2.488362  12.154644  11.057414
    29  F    4.703244   3.653629   2.490205  10.567057   9.725807
    30  Cl   1.743490   2.702772   3.968709  11.781143  11.187162
    31  F    5.595454   4.259668   3.430019  12.270622  11.217663
    32  F    4.090994   2.783508   2.488657  12.334652  11.497420
                   16         17         18         19         20
    16  H    0.000000
    17  H    3.077303   0.000000
    18  H    2.521029   1.765812   0.000000
    19  H    2.565634   3.060010   2.490530   0.000000
    20  H    3.090994   2.508495   3.061816   1.768197   0.000000
    21  H    4.531659   2.436846   2.606727   2.905626   2.784381
    22  H    6.521762   4.528162   4.677709   4.418657   4.292309
    23  H    7.314650   6.714333   6.534580   4.759183   5.016457
    24  H    8.748068   6.612785   6.908088   6.568415   6.289117
    25  H   11.356620  10.011604  10.095374   8.827508   8.753592
    26  S   10.110214   9.541962   9.406869   7.580140   7.759015
    27  F    9.190904   8.814694   8.808964   6.757254   6.770223
    28  F   11.146728  10.334306  10.434222   8.647784   8.539027
    29  F    9.332355   9.101374   8.686100   6.834177   7.365348
    30  Cl  11.423933   9.414389   9.694558   9.094578   8.825034
    31  F   11.011917  10.784389  10.576440   8.559061   8.821619
    32  F   11.263899  10.580446  10.331276   8.708302   9.018436
                   21         22         23         24         25
    21  H    0.000000
    22  H    2.155240   0.000000
    23  H    4.758283   3.715707   0.000000
    24  H    4.356504   2.255569   4.305806   0.000000
    25  H    7.750522   5.768604   4.329418   4.304096   0.000000
    26  S    7.514899   6.059834   2.879261   5.642250   2.909322
    27  F    7.065785   5.952373   2.508520   5.946642   4.050204
    28  F    8.348463   6.762808   4.015515   5.949542   2.546535
    29  F    7.105892   5.897064   2.510938   5.944907   4.035907
    30  Cl   7.156552   5.020136   5.605024   2.837735   2.854017
    31  F    8.883776   7.582894   4.132014   7.258261   4.162019
    32  F    8.383143   6.715078   4.017256   5.948932   2.524654
                   26         27         28         29         30
    26  S    0.000000
    27  F    1.614279   0.000000
    28  F    1.615205   2.281100   0.000000
    29  F    1.614694   2.280720   3.225723   0.000000
    30  Cl   5.447423   6.268754   5.201787   6.249496   0.000000
    31  F    1.616012   2.224885   2.225997   2.225618   6.899958
    32  F    1.614995   3.225028   2.280131   2.280788   5.179785
                   31         32
    31  F    0.000000
    32  F    2.225286   0.000000
 Stoichiometry    C10H12ClF5N2OS
 Framework group  C1[X(C10H12ClF5N2OS)]
 Deg. of freedom    90
 Full point group                 C1      NOp   1
 Largest Abelian subgroup         C1      NOp   1
 Largest concise Abelian subgroup C1      NOp   1
                         Standard orientation:                         
 ---------------------------------------------------------------------
 Center     Atomic      Atomic             Coordinates (Angstroms)
 Number     Number       Type             X           Y           Z
 ---------------------------------------------------------------------
      1          6           0       -7.565027   -1.008176    0.222928
      2          6           0       -6.467654   -0.017666   -0.152757
      3          6           0       -5.089904   -0.593650    0.135934
      4          7           0       -4.052137    0.371063   -0.211214
      5          6           0       -2.747331    0.069842   -0.045380
      6          8           0       -2.361245   -1.059475    0.288085
      7          7           0       -1.876780    1.116969   -0.292274
      8          6           0       -0.489458    1.105380   -0.158672
      9          6           0        0.274570   -0.069245   -0.148103
     10          6           0        0.153293    2.348689   -0.068677
     11          6           0        1.533389    2.404340    0.035439
     12          6           0        2.326166    1.261177    0.064934
     13          6           0        1.651655    0.052454   -0.029635
     14          1           0       -8.555492   -0.594806    0.011150
     15          1           0       -7.522614   -1.253298    1.289858
     16          1           0       -7.460505   -1.941023   -0.342028
     17          1           0       -6.595618    0.914448    0.411664
     18          1           0       -6.537710    0.235609   -1.217421
     19          1           0       -4.933989   -1.507297   -0.447291
     20          1           0       -5.007055   -0.861035    1.196950
     21          1           0       -4.328139    1.333581   -0.376425
     22          1           0       -2.290559    2.033421   -0.436051
     23          1           0       -0.203062   -1.034032   -0.237126
     24          1           0       -0.433358    3.262716   -0.079360
     25          1           0        3.404152    1.327796    0.154836
     26         16           0        2.633343   -1.472817   -0.008187
     27          9           0        1.625497   -2.207401    1.016766
     28          9           0        3.531135   -0.973321    1.238153
     29          9           0        1.825750   -2.109512   -1.253036
     30         17           0        2.307591    3.962725    0.144091
     31          9           0        3.509760   -2.830396    0.011010
     32          9           0        3.731814   -0.876773   -1.031077
 ---------------------------------------------------------------------
 Rotational constants (GHZ):      0.3765610      0.1328969      0.1026179
 General basis read from cards:  (6D, 7F)
 There are   412 symmetry adapted cartesian basis functions of A   symmetry.
 There are   412 symmetry adapted basis functions of A   symmetry.
   412 basis functions,   736 primitive gaussians,   412 cartesian basis functions
    86 alpha electrons       86 beta electrons
       nuclear repulsion energy      2017.8204073047 Hartrees.
 NAtoms=   32 NActive=   32 NUniq=   32 SFac= 1.00D+00 NAtFMM=   60 NAOKFM=F Big=F
 Integral buffers will be    131072 words long.
 Raffenetti 2 integral format.
 Two-electron integral symmetry is turned on.
 One-electron integrals computed using PRISM.
 NBasis=   412 RedAO= T EigKep=  1.32D-06  NBF=   412
 NBsUse=   411 1.00D-06 EigRej=  5.36D-07 NBFU=   411
 ExpMin= 4.05D-02 ExpMax= 2.52D+04 ExpMxC= 3.78D+03 IAcc=3 IRadAn=         5 AccDes= 0.00D+00
 Harris functional with IExCor= 1009 and IRadAn=       5 diagonalized for initial guess.
 HarFok:  IExCor= 1009 AccDes= 0.00D+00 IRadAn=         5 IDoV= 1 UseB2=F ITyADJ=14
 ICtDFT=  3500011 ScaDFX=  1.000000  1.000000  1.000000  1.000000
 FoFCou: FMM=F IPFlag=           0 FMFlag=      100000 FMFlg1=           0
         NFxFlg=           0 DoJE=T BraDBF=F KetDBF=T FulRan=T
         wScrn=  0.000000 ICntrl=     500 IOpCl=  0 I1Cent=   200000004 NGrid=           0
         NMat0=    1 NMatS0=      1 NMatT0=    0 NMatD0=    1 NMtDS0=    0 NMtDT0=    0
 Petite list used in FoFCou.
 Requested convergence on RMS density matrix=1.00D-08 within 128 cycles.
 Requested convergence on MAX density matrix=1.00D-06.
 Requested convergence on             energy=1.00D-06.
 No special actions if energy rises.
 SCF Done:  E(RM062X) =  -1930.09422029     A.U. after   15 cycles
            NFock= 15  Conv=0.64D-08     -V/T= 2.0058

 **********************************************************************

            Population analysis using the SCF density.

 **********************************************************************

 Orbital symmetries:
       Occupied  (A) (A) (A) (A) (A) (A) (A) (A) (A) (A) (A) (A)
                 (A) (A) (A) (A) (A) (A) (A) (A) (A) (A) (A) (A)
                 (A) (A) (A) (A) (A) (A) (A) (A) (A) (A) (A) (A)
                 (A) (A) (A) (A) (A) (A) (A) (A) (A) (A) (A) (A)
                 (A) (A) (A) (A) (A) (A) (A) (A) (A) (A) (A) (A)
                 (A) (A) (A) (A) (A) (A) (A) (A) (A) (A) (A) (A)
                 (A) (A) (A) (A) (A) (A) (A) (A) (A) (A) (A) (A)
                 (A) (A)
       Virtual   (A) (A) (A) (A) (A) (A) (A) (A) (A) (A) (A) (A)
                 (A) (A) (A) (A) (A) (A) (A) (A) (A) (A) (A) (A)
                 (A) (A) (A) (A) (A) (A) (A) (A) (A) (A) (A) (A)
                 (A) (A) (A) (A) (A) (A) (A) (A) (A) (A) (A) (A)
                 (A) (A) (A) (A) (A) (A) (A) (A) (A) (A) (A) (A)
                 (A) (A) (A) (A) (A) (A) (A) (A) (A) (A) (A) (A)
                 (A) (A) (A) (A) (A) (A) (A) (A) (A) (A) (A) (A)
                 (A) (A) (A) (A) (A) (A) (A) (A) (A) (A) (A) (A)
                 (A) (A) (A) (A) (A) (A) (A) (A) (A) (A) (A) (A)
                 (A) (A) (A) (A) (A) (A) (A) (A) (A) (A) (A) (A)
                 (A) (A) (A) (A) (A) (A) (A) (A) (A) (A) (A) (A)
                 (A) (A) (A) (A) (A) (A) (A) (A) (A) (A) (A) (A)
                 (A) (A) (A) (A) (A) (A) (A) (A) (A) (A) (A) (A)
                 (A) (A) (A) (A) (A) (A) (A) (A) (A) (A) (A) (A)
                 (A) (A) (A) (A) (A) (A) (A) (A) (A) (A) (A) (A)
                 (A) (A) (A) (A) (A) (A) (A) (A) (A) (A) (A) (A)
                 (A) (A) (A) (A) (A) (A) (A) (A) (A) (A) (A) (A)
                 (A) (A) (A) (A) (A) (A) (A) (A) (A) (A) (A) (A)
                 (A) (A) (A) (A) (A) (A) (A) (A) (A) (A) (A) (A)
                 (A) (A) (A) (A) (A) (A) (A) (A) (A) (A) (A) (A)
                 (A) (A) (A) (A) (A) (A) (A) (A) (A) (A) (A) (A)
                 (A) (A) (A) (A) (A) (A) (A) (A) (A) (A) (A) (A)
                 (A) (A) (A) (A) (A) (A) (A) (A) (A) (A) (A) (A)
                 (A) (A) (A) (A) (A) (A) (A) (A) (A) (A) (A) (A)
                 (A) (A) (A) (A) (A) (A) (A) (A) (A) (A) (A) (A)
                 (A) (A) (A) (A) (A) (A) (A) (A) (A) (A) (A) (A)
                 (A) (A) (A) (A) (A) (A) (A) (A) (A) (A) (A) (A)
                 (A)
 The electronic state is 1-A.
 Alpha  occ. eigenvalues -- -102.68999 -90.32369 -25.30185 -25.30136 -25.30007
 Alpha  occ. eigenvalues --  -25.29876 -25.29260 -19.62556 -14.83108 -14.81159
 Alpha  occ. eigenvalues --  -10.70538 -10.64700 -10.64300 -10.62537 -10.60011
 Alpha  occ. eigenvalues --  -10.59658 -10.59553 -10.58792 -10.57147 -10.55631
 Alpha  occ. eigenvalues --   -9.83659  -8.60988  -7.56068  -7.55391  -7.55378
 Alpha  occ. eigenvalues --   -6.53424  -6.53414  -6.52993  -1.48674  -1.39029
 Alpha  occ. eigenvalues --   -1.38963  -1.35437  -1.34550  -1.19151  -1.08536
 Alpha  occ. eigenvalues --   -1.05675  -1.02309  -0.97472  -0.93024  -0.90673
 Alpha  occ. eigenvalues --   -0.87458  -0.85893  -0.80538  -0.76107  -0.74735
 Alpha  occ. eigenvalues --   -0.72490  -0.72444  -0.71129  -0.69230  -0.68703
 Alpha  occ. eigenvalues --   -0.65456  -0.63186  -0.61849  -0.60998  -0.60859
 Alpha  occ. eigenvalues --   -0.60335  -0.58041  -0.57200  -0.56258  -0.55772
 Alpha  occ. eigenvalues --   -0.54448  -0.54353  -0.54295  -0.54150  -0.53968
 Alpha  occ. eigenvalues --   -0.52642  -0.51418  -0.51172  -0.50301  -0.50267
 Alpha  occ. eigenvalues --   -0.49990  -0.49900  -0.48872  -0.47733  -0.47386
 Alpha  occ. eigenvalues --   -0.44772  -0.44670  -0.43440  -0.42542  -0.41931
 Alpha  occ. eigenvalues --   -0.39773  -0.39512  -0.36097  -0.34127  -0.33227
 Alpha  occ. eigenvalues --   -0.30052
 Alpha virt. eigenvalues --   -0.02559  -0.01951  -0.00993  -0.00655   0.01267
 Alpha virt. eigenvalues --    0.01839   0.02635   0.02881   0.03072   0.04381
 Alpha virt. eigenvalues --    0.04689   0.04903   0.05163   0.05863   0.06066
 Alpha virt. eigenvalues --    0.06368   0.06709   0.07027   0.07359   0.07690
 Alpha virt. eigenvalues --    0.08597   0.08787   0.09019   0.09522   0.09886
 Alpha virt. eigenvalues --    0.11368   0.11556   0.11911   0.12234   0.12414
 Alpha virt. eigenvalues --    0.12656   0.13270   0.13373   0.13726   0.14284
 Alpha virt. eigenvalues --    0.14391   0.14990   0.15936   0.16494   0.16986
 Alpha virt. eigenvalues --    0.17386   0.18162   0.18310   0.18922   0.19115
 Alpha virt. eigenvalues --    0.19357   0.19981   0.20287   0.20642   0.21218
 Alpha virt. eigenvalues --    0.21694   0.21836   0.22204   0.22859   0.23132
 Alpha virt. eigenvalues --    0.23484   0.23898   0.24496   0.24901   0.26110
 Alpha virt. eigenvalues --    0.26465   0.26583   0.27111   0.27410   0.27657
 Alpha virt. eigenvalues --    0.28366   0.28622   0.29071   0.29352   0.29946
 Alpha virt. eigenvalues --    0.30992   0.31017   0.31372   0.31756   0.32252
 Alpha virt. eigenvalues --    0.32847   0.32961   0.33456   0.33979   0.34227
 Alpha virt. eigenvalues --    0.34805   0.35439   0.35687   0.35821   0.36028
 Alpha virt. eigenvalues --    0.36504   0.36950   0.37752   0.37952   0.38717
 Alpha virt. eigenvalues --    0.39849   0.40307   0.40331   0.40842   0.41901
 Alpha virt. eigenvalues --    0.42445   0.43137   0.43978   0.44668   0.46036
 Alpha virt. eigenvalues --    0.46141   0.47885   0.49384   0.50905   0.51135
 Alpha virt. eigenvalues --    0.51518   0.52614   0.54038   0.55739   0.57194
 Alpha virt. eigenvalues --    0.57484   0.57586   0.58508   0.59315   0.60552
 Alpha virt. eigenvalues --    0.62853   0.64089   0.64472   0.67013   0.67397
 Alpha virt. eigenvalues --    0.68428   0.70012   0.71322   0.71706   0.72292
 Alpha virt. eigenvalues --    0.72929   0.73922   0.74799   0.76308   0.77103
 Alpha virt. eigenvalues --    0.77626   0.78854   0.79878   0.80447   0.81383
 Alpha virt. eigenvalues --    0.81883   0.83270   0.83659   0.85620   0.86256
 Alpha virt. eigenvalues --    0.87711   0.88806   0.89870   0.90971   0.91875
 Alpha virt. eigenvalues --    0.92843   0.94967   0.96069   0.96919   0.97299
 Alpha virt. eigenvalues --    0.98104   0.98681   0.99167   1.00625   1.01158
 Alpha virt. eigenvalues --    1.02078   1.02306   1.02969   1.03513   1.04285
 Alpha virt. eigenvalues --    1.05113   1.05668   1.06743   1.08268   1.10647
 Alpha virt. eigenvalues --    1.11171   1.12010   1.12977   1.14862   1.15783
 Alpha virt. eigenvalues --    1.17884   1.18196   1.19718   1.20504   1.23147
 Alpha virt. eigenvalues --    1.23993   1.25824   1.27640   1.29376   1.32297
 Alpha virt. eigenvalues --    1.34866   1.35828   1.37657   1.39620   1.40027
 Alpha virt. eigenvalues --    1.40526   1.41633   1.42205   1.43290   1.47105
 Alpha virt. eigenvalues --    1.47759   1.48122   1.48712   1.49067   1.50748
 Alpha virt. eigenvalues --    1.53705   1.54949   1.55584   1.55980   1.56941
 Alpha virt. eigenvalues --    1.59634   1.60684   1.61970   1.62147   1.64785
 Alpha virt. eigenvalues --    1.66200   1.68183   1.73243   1.73728   1.74318
 Alpha virt. eigenvalues --    1.74830   1.78608   1.79146   1.79639   1.80467
 Alpha virt. eigenvalues --    1.81373   1.81467   1.82552   1.84182   1.84251
 Alpha virt. eigenvalues --    1.85102   1.86479   1.87449   1.88674   1.89122
 Alpha virt. eigenvalues --    1.89540   1.89766   1.90436   1.91139   1.91459
 Alpha virt. eigenvalues --    1.91951   1.92915   1.94101   1.94936   1.95470
 Alpha virt. eigenvalues --    1.96797   1.98936   1.99748   2.00544   2.01169
 Alpha virt. eigenvalues --    2.02567   2.03136   2.03209   2.03681   2.04567
 Alpha virt. eigenvalues --    2.04785   2.07165   2.07285   2.07358   2.08259
 Alpha virt. eigenvalues --    2.08827   2.10642   2.11848   2.13654   2.15061
 Alpha virt. eigenvalues --    2.15313   2.16102   2.17603   2.18891   2.20370
 Alpha virt. eigenvalues --    2.20771   2.22304   2.23123   2.24277   2.27393
 Alpha virt. eigenvalues --    2.28107   2.28725   2.29811   2.31088   2.34395
 Alpha virt. eigenvalues --    2.35672   2.38871   2.39861   2.40307   2.41801
 Alpha virt. eigenvalues --    2.42973   2.43345   2.44854   2.50702   2.54339
 Alpha virt. eigenvalues --    2.55872   2.61330   2.63194   2.63417   2.65678
 Alpha virt. eigenvalues --    2.68699   2.70957   2.73429   2.74564   2.76850
 Alpha virt. eigenvalues --    2.79480   2.83551   2.84116   2.85074   2.90172
 Alpha virt. eigenvalues --    2.95712   2.96299   2.97875   3.07137   3.09381
 Alpha virt. eigenvalues --    3.10279   3.25358   3.30423   3.36291   3.44574
 Alpha virt. eigenvalues --    4.14738   4.24441   4.25560   4.30568   4.31888
 Alpha virt. eigenvalues --    4.35987   4.37317   4.40428   4.42660   4.46573
 Alpha virt. eigenvalues --    4.47460   4.52564   4.56882   4.65145   4.76161
 Alpha virt. eigenvalues --    5.97950   6.02011   6.13602   7.22542   8.94660
          Condensed to atoms (all electrons):
               1          2          3          4          5          6
     1  C    5.552217   0.012968  -0.008928  -0.005745  -0.030882  -0.001083
     2  C    0.012968   6.102393  -0.363478  -0.072783   0.120843   0.015738
     3  C   -0.008928  -0.363478   6.824011   0.374603  -0.613191  -0.082707
     4  N   -0.005745  -0.072783   0.374603   7.718549   0.269872  -0.180932
     5  C   -0.030882   0.120843  -0.613191   0.269872   6.427144   0.624556
     6  O   -0.001083   0.015738  -0.082707  -0.180932   0.624556   8.314541
     7  N   -0.000117   0.011838  -0.170688  -0.482478   0.166284  -0.101429
     8  C   -0.005107   0.004877  -0.265149  -0.086493  -0.774249  -0.114456
     9  C    0.000057   0.009672  -0.114909   0.004965   0.115508   0.176838
    10  C   -0.001228  -0.001920  -0.080421  -0.140250  -0.997933  -0.112708
    11  C   -0.000183   0.000788  -0.006111   0.018858  -0.103402   0.023182
    12  C    0.000238  -0.000451   0.037594  -0.009585   0.755522  -0.000678
    13  C    0.000262   0.001003  -0.021912   0.055159  -0.438990   0.021119
    14  H    0.410063  -0.078442   0.024325   0.000686  -0.001864   0.000006
    15  H    0.411289  -0.064911  -0.005317   0.000801   0.005210  -0.000038
    16  H    0.419448  -0.060060  -0.010956   0.000816  -0.001725  -0.000057
    17  H   -0.021425   0.416067  -0.078122   0.007561  -0.010308  -0.000266
    18  H   -0.038571   0.422538  -0.087204   0.008127   0.010295  -0.000120
    19  H    0.006924  -0.040173   0.416849  -0.036046  -0.022308  -0.001428
    20  H    0.002775  -0.067902   0.423039  -0.073334   0.013529   0.002371
    21  H   -0.000123   0.002874  -0.094384   0.239683   0.037105   0.006299
    22  H   -0.000131   0.000197  -0.003945   0.015270  -0.029221   0.005621
    23  H    0.000011  -0.000069   0.002661   0.000125   0.029325  -0.008366
    24  H   -0.000000   0.000017   0.000486   0.001738   0.009341   0.000003
    25  H    0.000000   0.000000   0.000003  -0.000001   0.000570   0.000004
    26  S    0.000004   0.000345  -0.001945   0.002054  -0.042078  -0.006491
    27  F    0.000001   0.000002   0.000205   0.000113   0.004239  -0.000917
    28  F    0.000000  -0.000001   0.000076   0.000009   0.004414  -0.000043
    29  F   -0.000001   0.000005  -0.000617  -0.000007  -0.012714  -0.000655
    30  Cl  -0.000001   0.000014  -0.000444  -0.000200  -0.011178  -0.000205
    31  F   -0.000000   0.000000  -0.000017  -0.000004  -0.001114  -0.000014
    32  F    0.000000   0.000000   0.000019   0.000013   0.000859   0.000008
               7          8          9         10         11         12
     1  C   -0.000117  -0.005107   0.000057  -0.001228  -0.000183   0.000238
     2  C    0.011838   0.004877   0.009672  -0.001920   0.000788  -0.000451
     3  C   -0.170688  -0.265149  -0.114909  -0.080421  -0.006111   0.037594
     4  N   -0.482478  -0.086493   0.004965  -0.140250   0.018858  -0.009585
     5  C    0.166284  -0.774249   0.115508  -0.997933  -0.103402   0.755522
     6  O   -0.101429  -0.114456   0.176838  -0.112708   0.023182  -0.000678
     7  N    7.920386  -0.329145  -0.083648   0.331715  -0.008566   0.079389
     8  C   -0.329145  20.076733  -4.117989  -1.908878   0.944830  -0.313792
     9  C   -0.083648  -4.117989  13.006645  -4.787226  -1.409813   0.869302
    10  C    0.331715  -1.908878  -4.787226  20.466151  -1.940309  -4.009403
    11  C   -0.008566   0.944830  -1.409813  -1.940309  10.932623  -3.536046
    12  C    0.079389  -0.313792   0.869302  -4.009403  -3.536046  22.616842
    13  C    0.041211  -6.239166   1.674572  -0.387030   1.253261 -10.615578
    14  H    0.000016  -0.000040   0.000002  -0.000001  -0.000000   0.000000
    15  H    0.000059   0.000133   0.000011  -0.000003   0.000000  -0.000000
    16  H   -0.000009  -0.000035  -0.000080   0.000012   0.000000   0.000000
    17  H   -0.000562  -0.001469  -0.000710   0.000280   0.000029   0.000016
    18  H    0.000980   0.000318   0.000430  -0.000026  -0.000014  -0.000004
    19  H   -0.003092  -0.008134   0.006666  -0.001518  -0.000003   0.000024
    20  H    0.005568   0.002482  -0.001832   0.000196   0.000077   0.000008
    21  H    0.032960   0.015329   0.012996  -0.006810  -0.000091  -0.000023
    22  H    0.240883  -0.020848   0.082151  -0.126705   0.059347  -0.001496
    23  H   -0.007112  -0.195956   0.409343   0.035105  -0.034318   0.035038
    24  H   -0.014359   0.022632   0.028579   0.056874   0.099193   0.062452
    25  H    0.000106  -0.019805   0.000129   0.067664  -0.069556   0.378610
    26  S    0.012045  -1.172095  -0.020462   0.439663  -0.657274   0.728117
    27  F   -0.000423  -0.046947  -0.063028   0.002089   0.033850  -0.072451
    28  F    0.000646   0.009433   0.067826   0.013812  -0.006402  -0.015337
    29  F   -0.000425  -0.027649  -0.051756   0.020428   0.037871  -0.125212
    30  Cl  -0.002318   0.089002   0.040282  -0.042494  -0.212008  -0.130937
    31  F   -0.000050  -0.003596   0.001286   0.005291  -0.020433   0.118833
    32  F    0.000633   0.005045   0.087721   0.029148  -0.006928  -0.057515
              13         14         15         16         17         18
     1  C    0.000262   0.410063   0.411289   0.419448  -0.021425  -0.038571
     2  C    0.001003  -0.078442  -0.064911  -0.060060   0.416067   0.422538
     3  C   -0.021912   0.024325  -0.005317  -0.010956  -0.078122  -0.087204
     4  N    0.055159   0.000686   0.000801   0.000816   0.007561   0.008127
     5  C   -0.438990  -0.001864   0.005210  -0.001725  -0.010308   0.010295
     6  O    0.021119   0.000006  -0.000038  -0.000057  -0.000266  -0.000120
     7  N    0.041211   0.000016   0.000059  -0.000009  -0.000562   0.000980
     8  C   -6.239166  -0.000040   0.000133  -0.000035  -0.001469   0.000318
     9  C    1.674572   0.000002   0.000011  -0.000080  -0.000710   0.000430
    10  C   -0.387030  -0.000001  -0.000003   0.000012   0.000280  -0.000026
    11  C    1.253261  -0.000000   0.000000   0.000000   0.000029  -0.000014
    12  C  -10.615578   0.000000  -0.000000   0.000000   0.000016  -0.000004
    13  C   21.316551  -0.000000   0.000001  -0.000002  -0.000040   0.000021
    14  H   -0.000000   0.484070  -0.024905  -0.024672  -0.002907  -0.002829
    15  H    0.000001  -0.024905   0.489585  -0.029829  -0.004836   0.003851
    16  H   -0.000002  -0.024672  -0.029829   0.488531   0.003988  -0.004769
    17  H   -0.000040  -0.002907  -0.004836   0.003988   0.518586  -0.037633
    18  H    0.000021  -0.002829   0.003851  -0.004769  -0.037633   0.500137
    19  H    0.000652  -0.000063  -0.000286   0.002572   0.004102  -0.005522
    20  H   -0.000412  -0.000051   0.002624  -0.000435  -0.005930   0.004135
    21  H    0.000287  -0.000003   0.000000   0.000003   0.002425   0.000157
    22  H    0.016021  -0.000000  -0.000000  -0.000000   0.000002   0.000003
    23  H   -0.004727  -0.000000   0.000000   0.000000  -0.000000  -0.000000
    24  H    0.024110   0.000000  -0.000000   0.000000   0.000000  -0.000000
    25  H   -0.089472  -0.000000   0.000000  -0.000000  -0.000000  -0.000000
    26  S   -0.276842  -0.000000   0.000000  -0.000000  -0.000001   0.000000
    27  F    0.075851  -0.000000   0.000000  -0.000000  -0.000000   0.000000
    28  F   -0.152361  -0.000000   0.000000   0.000000   0.000000  -0.000000
    29  F    0.088014  -0.000000   0.000000  -0.000000  -0.000000   0.000000
    30  Cl   0.088852  -0.000000   0.000000  -0.000000  -0.000000   0.000000
    31  F   -0.159923  -0.000000  -0.000000   0.000000   0.000000  -0.000000
    32  F   -0.145015  -0.000000   0.000000   0.000000   0.000000   0.000000
              19         20         21         22         23         24
     1  C    0.006924   0.002775  -0.000123  -0.000131   0.000011  -0.000000
     2  C   -0.040173  -0.067902   0.002874   0.000197  -0.000069   0.000017
     3  C    0.416849   0.423039  -0.094384  -0.003945   0.002661   0.000486
     4  N   -0.036046  -0.073334   0.239683   0.015270   0.000125   0.001738
     5  C   -0.022308   0.013529   0.037105  -0.029221   0.029325   0.009341
     6  O   -0.001428   0.002371   0.006299   0.005621  -0.008366   0.000003
     7  N   -0.003092   0.005568   0.032960   0.240883  -0.007112  -0.014359
     8  C   -0.008134   0.002482   0.015329  -0.020848  -0.195956   0.022632
     9  C    0.006666  -0.001832   0.012996   0.082151   0.409343   0.028579
    10  C   -0.001518   0.000196  -0.006810  -0.126705   0.035105   0.056874
    11  C   -0.000003   0.000077  -0.000091   0.059347  -0.034318   0.099193
    12  C    0.000024   0.000008  -0.000023  -0.001496   0.035038   0.062452
    13  C    0.000652  -0.000412   0.000287   0.016021  -0.004727   0.024110
    14  H   -0.000063  -0.000051  -0.000003  -0.000000  -0.000000   0.000000
    15  H   -0.000286   0.002624   0.000000  -0.000000   0.000000  -0.000000
    16  H    0.002572  -0.000435   0.000003  -0.000000   0.000000   0.000000
    17  H    0.004102  -0.005930   0.002425   0.000002  -0.000000   0.000000
    18  H   -0.005522   0.004135   0.000157   0.000003  -0.000000  -0.000000
    19  H    0.474727  -0.036876   0.003209   0.000005  -0.000001   0.000000
    20  H   -0.036876   0.498265   0.001978   0.000004  -0.000000   0.000000
    21  H    0.003209   0.001978   0.346081   0.003837  -0.000001   0.000006
    22  H    0.000005   0.000004   0.003837   0.347232  -0.000152   0.007685
    23  H   -0.000001  -0.000000  -0.000001  -0.000152   0.399831  -0.000085
    24  H    0.000000   0.000000   0.000006   0.007685  -0.000085   0.481239
    25  H   -0.000000  -0.000000  -0.000000  -0.000000  -0.000089  -0.000108
    26  S    0.000017  -0.000031   0.000008   0.000453   0.030063   0.002616
    27  F    0.000000  -0.000000   0.000000   0.000002   0.002202   0.000001
    28  F   -0.000000   0.000000  -0.000000  -0.000000   0.000338   0.000003
    29  F    0.000000  -0.000000   0.000000   0.000001   0.002725   0.000000
    30  Cl  -0.000000  -0.000000   0.000011  -0.000045   0.000376  -0.003443
    31  F   -0.000000   0.000000   0.000000   0.000000   0.000063  -0.000000
    32  F    0.000000  -0.000000   0.000000  -0.000000   0.000360   0.000003
              25         26         27         28         29         30
     1  C    0.000000   0.000004   0.000001   0.000000  -0.000001  -0.000001
     2  C    0.000000   0.000345   0.000002  -0.000001   0.000005   0.000014
     3  C    0.000003  -0.001945   0.000205   0.000076  -0.000617  -0.000444
     4  N   -0.000001   0.002054   0.000113   0.000009  -0.000007  -0.000200
     5  C    0.000570  -0.042078   0.004239   0.004414  -0.012714  -0.011178
     6  O    0.000004  -0.006491  -0.000917  -0.000043  -0.000655  -0.000205
     7  N    0.000106   0.012045  -0.000423   0.000646  -0.000425  -0.002318
     8  C   -0.019805  -1.172095  -0.046947   0.009433  -0.027649   0.089002
     9  C    0.000129  -0.020462  -0.063028   0.067826  -0.051756   0.040282
    10  C    0.067664   0.439663   0.002089   0.013812   0.020428  -0.042494
    11  C   -0.069556  -0.657274   0.033850  -0.006402   0.037871  -0.212008
    12  C    0.378610   0.728117  -0.072451  -0.015337  -0.125212  -0.130937
    13  C   -0.089472  -0.276842   0.075851  -0.152361   0.088014   0.088852
    14  H   -0.000000  -0.000000  -0.000000  -0.000000  -0.000000  -0.000000
    15  H    0.000000   0.000000   0.000000   0.000000   0.000000   0.000000
    16  H   -0.000000  -0.000000  -0.000000   0.000000  -0.000000  -0.000000
    17  H   -0.000000  -0.000001  -0.000000   0.000000  -0.000000  -0.000000
    18  H   -0.000000   0.000000   0.000000  -0.000000   0.000000   0.000000
    19  H   -0.000000   0.000017   0.000000  -0.000000   0.000000  -0.000000
    20  H   -0.000000  -0.000031  -0.000000   0.000000  -0.000000  -0.000000
    21  H   -0.000000   0.000008   0.000000  -0.000000   0.000000   0.000011
    22  H   -0.000000   0.000453   0.000002  -0.000000   0.000001  -0.000045
    23  H   -0.000089   0.030063   0.002202   0.000338   0.002725   0.000376
    24  H   -0.000108   0.002616   0.000001   0.000003   0.000000  -0.003443
    25  H    0.427554   0.027960   0.000366   0.002285   0.000381   0.001659
    26  S    0.027960  14.659186  -0.030575  -0.022597  -0.027637   0.000394
    27  F    0.000366  -0.030575   9.718688  -0.013403  -0.024513  -0.000186
    28  F    0.002285  -0.022597  -0.013403   9.728684  -0.068282  -0.001802
    29  F    0.000381  -0.027637  -0.024513  -0.068282   9.722360  -0.000134
    30  Cl   0.001659   0.000394  -0.000186  -0.001802  -0.000134  16.961619
    31  F    0.000017   0.073969  -0.028431  -0.027564  -0.029028   0.000098
    32  F    0.002242  -0.018831  -0.070139  -0.027278  -0.012184  -0.001468
              31         32
     1  C   -0.000000   0.000000
     2  C    0.000000   0.000000
     3  C   -0.000017   0.000019
     4  N   -0.000004   0.000013
     5  C   -0.001114   0.000859
     6  O   -0.000014   0.000008
     7  N   -0.000050   0.000633
     8  C   -0.003596   0.005045
     9  C    0.001286   0.087721
    10  C    0.005291   0.029148
    11  C   -0.020433  -0.006928
    12  C    0.118833  -0.057515
    13  C   -0.159923  -0.145015
    14  H   -0.000000  -0.000000
    15  H   -0.000000   0.000000
    16  H    0.000000   0.000000
    17  H    0.000000   0.000000
    18  H   -0.000000   0.000000
    19  H   -0.000000   0.000000
    20  H    0.000000  -0.000000
    21  H    0.000000   0.000000
    22  H    0.000000  -0.000000
    23  H    0.000063   0.000360
    24  H   -0.000000   0.000003
    25  H    0.000017   0.002242
    26  S    0.073969  -0.018831
    27  F   -0.028431  -0.070139
    28  F   -0.027564  -0.027278
    29  F   -0.029028  -0.012184
    30  Cl   0.000098  -0.001468
    31  F    9.591292  -0.027214
    32  F   -0.027214   9.733062
 Mulliken charges:
               1
     1  C   -0.702730
     2  C   -0.371989
     3  C   -0.093427
     4  N   -0.631144
     5  C    0.496539
     6  O   -0.577695
     7  N   -0.640295
     8  C    0.480185
     9  C    0.056474
    10  C   -0.923566
    11  C    0.607546
    12  C   -0.793478
    13  C   -0.125476
    14  H    0.216609
    15  H    0.216560
    16  H    0.217258
    17  H    0.211151
    18  H    0.225698
    19  H    0.239701
    20  H    0.229753
    21  H    0.396187
    22  H    0.403833
    23  H    0.303313
    24  H    0.221016
    25  H    0.269483
    26  S    2.299964
    27  F   -0.486595
    28  F   -0.492456
    29  F   -0.490970
    30  Cl   0.224557
    31  F   -0.493461
    32  F   -0.492543
 Sum of Mulliken charges =  -0.00000
 Mulliken charges with hydrogens summed into heavy atoms:
               1
     1  C   -0.052304
     2  C    0.064860
     3  C    0.376027
     4  N   -0.234956
     5  C    0.496539
     6  O   -0.577695
     7  N   -0.236462
     8  C    0.480185
     9  C    0.359787
    10  C   -0.702550
    11  C    0.607546
    12  C   -0.523995
    13  C   -0.125476
    26  S    2.299964
    27  F   -0.486595
    28  F   -0.492456
    29  F   -0.490970
    30  Cl   0.224557
    31  F   -0.493461
    32  F   -0.492543
 Electronic spatial extent (au):  <R**2>=           9826.2785
 Charge=             -0.0000 electrons
 Dipole moment (field-independent basis, Debye):
    X=             -6.9982    Y=              5.2470    Z=             -0.8161  Tot=              8.7847
 Quadrupole moment (field-independent basis, Debye-Ang):
   XX=           -108.2901   YY=           -132.3238   ZZ=           -133.7881
   XY=             -5.0317   XZ=              2.1842   YZ=             -0.1499
 Traceless Quadrupole moment (field-independent basis, Debye-Ang):
   XX=             16.5106   YY=             -7.5232   ZZ=             -8.9874
   XY=             -5.0317   XZ=              2.1842   YZ=             -0.1499
 Octapole moment (field-independent basis, Debye-Ang**2):
  XXX=           -106.6864  YYY=            -34.9873  ZZZ=              2.5662  XYY=             -9.1142
  XXY=             21.7614  XXZ=             -2.4073  XZZ=             22.7559  YZZ=            -19.7728
  YYZ=             -4.8199  XYZ=              1.4840
 Hexadecapole moment (field-independent basis, Debye-Ang**3):
 XXXX=          -8359.9055 YYYY=          -2782.9559 ZZZZ=           -326.0486 XXXY=            -92.0007
 XXXZ=             22.6803 YYYX=           -180.9632 YYYZ=             -1.4977 ZZZX=             -6.0954
 ZZZY=              0.0775 XXYY=          -2001.3746 XXZZ=          -1623.9759 YYZZ=           -530.8977
 XXYZ=             -1.8337 YYXZ=             18.1037 ZZXY=            -42.9527
 N-N= 2.017820407305D+03 E-N=-8.590367147192D+03  KE= 1.918939910168D+03
 Calling FoFJK, ICntrl=      2127 FMM=F ISym2X=0 I1Cent= 0 IOpClX= 0 NMat=1 NMatS=1 NMatT=0.
 ***** Axes restored to original set *****
 -------------------------------------------------------------------
 Center     Atomic                   Forces (Hartrees/Bohr)
 Number     Number              X              Y              Z
 -------------------------------------------------------------------
      1        6          -0.001206749   -0.000740405   -0.000149162
      2        6           0.000771182    0.000381528    0.000604072
      3        6           0.000732659   -0.000023274   -0.000135777
      4        7          -0.006969748   -0.010889129    0.001529115
      5        6           0.000022009    0.037286941   -0.008574128
      6        8           0.002501343   -0.024246982    0.006560855
      7        7           0.001553933   -0.009127767    0.001569534
      8        6           0.004234878    0.000522783   -0.000403498
      9        6          -0.000243789   -0.000659351    0.000563237
     10        6          -0.002760563    0.002473016    0.000455764
     11        6           0.004819785   -0.001787823   -0.000567914
     12        6          -0.002085032   -0.002237075    0.000062454
     13        6          -0.000173341    0.001533762    0.000206773
     14        1          -0.000004986    0.000506583   -0.000150452
     15        1          -0.000123195   -0.000004353    0.000464881
     16        1           0.000085194   -0.000401053   -0.000321845
     17        1          -0.000552707   -0.000941235   -0.000526193
     18        1          -0.000100526   -0.000309885    0.000434088
     19        1           0.001441152    0.000333681   -0.000544761
     20        1           0.000632753    0.000809777    0.000311662
     21        1          -0.002573907    0.002953495   -0.000181933
     22        1           0.001212058    0.003872952    0.000102363
     23        1          -0.000991062    0.000087421   -0.001182613
     24        1           0.001772520   -0.000181220   -0.000437781
     25        1          -0.000906771    0.000134661    0.000070131
     26       16          -0.001510081    0.016573299   -0.000620332
     27        9           0.001903546   -0.003543814    0.001680699
     28        9          -0.000483901   -0.003269809    0.001085308
     29        9           0.000762438   -0.003322103   -0.001339357
     30       17          -0.001072083    0.000394756    0.000154524
     31        9          -0.000022314   -0.003092840    0.000072449
     32        9          -0.000664694   -0.003086536   -0.000792163
 -------------------------------------------------------------------
 Cartesian Forces:  Max     0.037286941 RMS     0.005421868

 GradGradGradGradGradGradGradGradGradGradGradGradGradGradGradGradGradGrad
 Berny optimization.
 FormGI is forming the generalized inverse of G from B-inverse, IUseBI=4.
 GSVD:  received Info=                   1 from GESDD.
 Internal  Forces:  Max     0.025229166 RMS     0.002574509
 Search for a local minimum.
 Step number   1 out of a maximum of  173
 All quantities printed in internal units (Hartrees-Bohrs-Radians)
 Mixed Optimization -- RFO/linear search
 Second derivative matrix not updated -- first step.
 ITU=  0
     Eigenvalues ---    0.00230   0.00432   0.00489   0.00914   0.01360
     Eigenvalues ---    0.01598   0.01774   0.01903   0.01904   0.01986
     Eigenvalues ---    0.02088   0.02133   0.02156   0.02174   0.02221
     Eigenvalues ---    0.02229   0.02245   0.02254   0.02362   0.03774
     Eigenvalues ---    0.04474   0.04950   0.05548   0.05571   0.05579
     Eigenvalues ---    0.08105   0.09063   0.09065   0.09172   0.12018
     Eigenvalues ---    0.12648   0.13578   0.13584   0.13598   0.13609
     Eigenvalues ---    0.15694   0.15874   0.16000   0.16000   0.16000
     Eigenvalues ---    0.16000   0.16000   0.16000   0.16715   0.21894
     Eigenvalues ---    0.21925   0.22048   0.22066   0.23482   0.23512
     Eigenvalues ---    0.23523   0.24987   0.24999   0.24999   0.24999
     Eigenvalues ---    0.25000   0.25000   0.25000   0.25044   0.29864
     Eigenvalues ---    0.30275   0.31126   0.33980   0.33997   0.34059
     Eigenvalues ---    0.34175   0.34179   0.34232   0.34359   0.35262
     Eigenvalues ---    0.35542   0.35968   0.37113   0.42194   0.42778
     Eigenvalues ---    0.45021   0.45171   0.45951   0.46543   0.46666
     Eigenvalues ---    0.47600   0.48001   0.48242   0.48386   0.48389
     Eigenvalues ---    0.48424   0.48478   0.48553   0.55159   0.87358
 RFO step:  Lambda=-2.66319991D-03 EMin= 2.30000000D-03
 Linear search not attempted -- first point.
 Iteration  1 RMS(Cart)=  0.06064813 RMS(Int)=  0.00090460
 Iteration  2 RMS(Cart)=  0.00159359 RMS(Int)=  0.00005258
 Iteration  3 RMS(Cart)=  0.00000128 RMS(Int)=  0.00005257
 Iteration  4 RMS(Cart)=  0.00000000 RMS(Int)=  0.00005257
 Variable       Old X    -DE/DX   Delta X   Delta X   Delta X     New X
                                 (Linear)    (Quad)   (Total)
    R1        2.88236   0.00101   0.00000   0.00334   0.00334   2.88570
    R2        2.06728  -0.00039   0.00000  -0.00114  -0.00114   2.06614
    R3        2.07028  -0.00044   0.00000  -0.00126  -0.00126   2.06902
    R4        2.07035  -0.00052   0.00000  -0.00150  -0.00150   2.06885
    R5        2.87418   0.00190   0.00000   0.00623   0.00623   2.88041
    R6        2.07335   0.00092   0.00000   0.00268   0.00268   2.07603
    R7        2.07230   0.00049   0.00000   0.00144   0.00144   2.07374
    R8        2.75676  -0.00167   0.00000  -0.00445  -0.00445   2.75231
    R9        2.06941  -0.00033   0.00000  -0.00094  -0.00094   2.06847
   R10        2.07364  -0.00010   0.00000  -0.00030  -0.00030   2.07333
   R11        2.54991   0.01139   0.00000   0.02055   0.02055   2.57046
   R12        1.91778  -0.00331   0.00000  -0.00728  -0.00728   1.91050
   R13        2.34175  -0.02523   0.00000  -0.02879  -0.02879   2.31296
   R14        2.61527   0.00692   0.00000   0.01422   0.01422   2.62948
   R15        2.63388   0.00266   0.00000   0.00566   0.00566   2.63954
   R16        1.91951  -0.00383   0.00000  -0.00846  -0.00846   1.91104
   R17        2.64804  -0.00070   0.00000  -0.00146  -0.00146   2.64658
   R18        2.65037  -0.00014   0.00000  -0.00028  -0.00028   2.65009
   R19        2.62203  -0.00047   0.00000  -0.00095  -0.00095   2.62108
   R20        2.04132   0.00066   0.00000   0.00181   0.00181   2.04312
   R21        2.61753   0.00034   0.00000   0.00066   0.00065   2.61818
   R22        2.05252  -0.00006   0.00000  -0.00018  -0.00018   2.05234
   R23        2.62950  -0.00093   0.00000  -0.00204  -0.00204   2.62746
   R24        3.29472  -0.00109   0.00000  -0.00347  -0.00347   3.29124
   R25        2.62183   0.00069   0.00000   0.00140   0.00140   2.62323
   R26        2.04804  -0.00080   0.00000  -0.00224  -0.00224   2.04581
   R27        3.42798   0.00025   0.00000   0.00098   0.00098   3.42896
   R28        3.05055  -0.00313   0.00000  -0.00641  -0.00641   3.04414
   R29        3.05230  -0.00108   0.00000  -0.00223  -0.00223   3.05007
   R30        3.05133  -0.00193   0.00000  -0.00395  -0.00395   3.04738
   R31        3.05382  -0.00306   0.00000  -0.00631  -0.00631   3.04751
   R32        3.05190  -0.00076   0.00000  -0.00157  -0.00157   3.05033
    A1        1.93727   0.00048   0.00000   0.00335   0.00335   1.94062
    A2        1.93619   0.00018   0.00000   0.00109   0.00109   1.93728
    A3        1.93616  -0.00007   0.00000  -0.00085  -0.00085   1.93531
    A4        1.88402  -0.00026   0.00000  -0.00087  -0.00088   1.88314
    A5        1.88419  -0.00021   0.00000  -0.00131  -0.00131   1.88288
    A6        1.88388  -0.00014   0.00000  -0.00161  -0.00161   1.88228
    A7        1.93804   0.00110   0.00000   0.00565   0.00565   1.94369
    A8        1.91887  -0.00083   0.00000  -0.00645  -0.00646   1.91240
    A9        1.92107  -0.00036   0.00000  -0.00246  -0.00248   1.91859
   A10        1.90682   0.00019   0.00000   0.00409   0.00410   1.91092
   A11        1.90669  -0.00027   0.00000   0.00049   0.00049   1.90718
   A12        1.87107   0.00014   0.00000  -0.00150  -0.00152   1.86955
   A13        1.92708  -0.00010   0.00000   0.00028   0.00029   1.92737
   A14        1.92180   0.00106   0.00000   0.00868   0.00867   1.93047
   A15        1.92218   0.00073   0.00000   0.00955   0.00953   1.93171
   A16        1.90045  -0.00102   0.00000  -0.01208  -0.01208   1.88837
   A17        1.91508  -0.00020   0.00000  -0.00149  -0.00152   1.91356
   A18        1.87645  -0.00050   0.00000  -0.00533  -0.00542   1.87103
   A19        2.10717  -0.00272   0.00000  -0.01140  -0.01144   2.09573
   A20        2.06289  -0.00059   0.00000  -0.00501  -0.00505   2.05784
   A21        2.08830   0.00332   0.00000   0.01980   0.01978   2.10808
   A22        2.13860  -0.00068   0.00000  -0.00277  -0.00283   2.13577
   A23        2.00142   0.00122   0.00000   0.00475   0.00468   2.00611
   A24        2.14309  -0.00054   0.00000  -0.00221  -0.00228   2.14081
   A25        2.21771  -0.00351   0.00000  -0.01493  -0.01500   2.20271
   A26        2.03942   0.00307   0.00000   0.01736   0.01730   2.05672
   A27        2.01146   0.00048   0.00000   0.00131   0.00123   2.01268
   A28        2.15364  -0.00328   0.00000  -0.01298  -0.01298   2.14066
   A29        2.04310   0.00256   0.00000   0.01015   0.01015   2.05325
   A30        2.08603   0.00073   0.00000   0.00294   0.00293   2.08896
   A31        2.05811  -0.00051   0.00000  -0.00225  -0.00229   2.05582
   A32        2.10246  -0.00025   0.00000  -0.00194  -0.00198   2.10049
   A33        2.12259   0.00077   0.00000   0.00430   0.00426   2.12685
   A34        2.09100   0.00073   0.00000   0.00306   0.00305   2.09405
   A35        2.09191   0.00150   0.00000   0.00995   0.00995   2.10186
   A36        2.10027  -0.00223   0.00000  -0.01301  -0.01300   2.08727
   A37        2.13679  -0.00220   0.00000  -0.00910  -0.00911   2.12768
   A38        2.07491   0.00049   0.00000   0.00212   0.00212   2.07703
   A39        2.07146   0.00172   0.00000   0.00699   0.00699   2.07845
   A40        2.02340   0.00210   0.00000   0.00900   0.00900   2.03240
   A41        2.11525  -0.00059   0.00000  -0.00167  -0.00168   2.11358
   A42        2.14453  -0.00151   0.00000  -0.00732  -0.00732   2.13721
   A43        2.17092  -0.00084   0.00000  -0.00351  -0.00351   2.16741
   A44        2.05371   0.00129   0.00000   0.00519   0.00519   2.05890
   A45        2.05854  -0.00045   0.00000  -0.00168  -0.00168   2.05685
   A46        1.62308  -0.00189   0.00000  -0.01377  -0.01377   1.60931
   A47        1.62072  -0.00269   0.00000  -0.01914  -0.01914   1.60158
   A48        1.62259  -0.00214   0.00000  -0.01565  -0.01566   1.60693
   A49        1.62109  -0.00280   0.00000  -0.02006  -0.02007   1.60103
   A50        1.56862   0.00056   0.00000   0.00415   0.00388   1.57249
   A51        1.56860   0.00036   0.00000   0.00428   0.00405   1.57265
   A52        1.51955   0.00263   0.00000   0.01922   0.01923   1.53877
   A53        1.51995   0.00235   0.00000   0.01656   0.01656   1.53651
   A54        1.56733  -0.00032   0.00000  -0.00340  -0.00376   1.56357
   A55        1.51993   0.00248   0.00000   0.01821   0.01821   1.53813
   A56        1.56822   0.00037   0.00000   0.00197   0.00166   1.56988
   A57        1.51947   0.00206   0.00000   0.01460   0.01460   1.53407
   A58        3.14262   0.00073   0.00000   0.00546   0.00546   3.14808
   A59        3.24417  -0.00469   0.00000  -0.03383  -0.03384   3.21034
   A60        3.24331  -0.00483   0.00000  -0.03478  -0.03480   3.20851
   A61        3.14252   0.00034   0.00000   0.00257   0.00257   3.14509
   A62        3.14106  -0.00027   0.00000  -0.00291  -0.00288   3.13817
   A63        3.14065  -0.00048   0.00000  -0.00523  -0.00519   3.13546
    D1       -3.13750   0.00012   0.00000   0.00054   0.00054  -3.13696
    D2        1.03340  -0.00028   0.00000  -0.00399  -0.00398   1.02942
    D3       -1.02391   0.00026   0.00000   0.00323   0.00322  -1.02069
    D4        1.05105   0.00001   0.00000  -0.00131  -0.00131   1.04973
    D5       -1.06124  -0.00039   0.00000  -0.00584  -0.00583  -1.06707
    D6       -3.11854   0.00015   0.00000   0.00138   0.00137  -3.11718
    D7       -1.04267   0.00012   0.00000   0.00055   0.00054  -1.04213
    D8        3.12823  -0.00028   0.00000  -0.00399  -0.00397   3.12426
    D9        1.07092   0.00026   0.00000   0.00323   0.00323   1.07415
   D10       -3.12821  -0.00022   0.00000  -0.01039  -0.01041  -3.13862
   D11        1.05583   0.00043   0.00000  -0.00114  -0.00113   1.05470
   D12       -1.01055  -0.00006   0.00000  -0.00579  -0.00580  -1.01635
   D13       -1.00886  -0.00043   0.00000  -0.01210  -0.01210  -1.02096
   D14       -3.10800   0.00022   0.00000  -0.00284  -0.00282  -3.11082
   D15        1.10881  -0.00027   0.00000  -0.00749  -0.00749   1.10132
   D16        1.03295  -0.00031   0.00000  -0.01129  -0.01130   1.02165
   D17       -1.06620   0.00034   0.00000  -0.00204  -0.00202  -1.06822
   D18       -3.13258  -0.00015   0.00000  -0.00668  -0.00669  -3.13927
   D19       -3.13443   0.00035   0.00000   0.01770   0.01765  -3.11678
   D20        0.24551  -0.00015   0.00000  -0.00104  -0.00101   0.24450
   D21       -1.02253   0.00095   0.00000   0.02087   0.02082  -1.00171
   D22        2.35742   0.00045   0.00000   0.00214   0.00216   2.35958
   D23        1.02688  -0.00035   0.00000   0.00656   0.00655   1.03342
   D24       -1.87636  -0.00086   0.00000  -0.01218  -0.01212  -1.88848
   D25        0.11526   0.00012   0.00000  -0.00304  -0.00311   0.11215
   D26       -3.03881  -0.00037   0.00000  -0.02357  -0.02363  -3.06245
   D27        3.01506   0.00008   0.00000   0.01254   0.01259   3.02765
   D28       -0.13901  -0.00041   0.00000  -0.00800  -0.00793  -0.14695
   D29        3.10214  -0.00002   0.00000   0.00155   0.00160   3.10374
   D30        0.15307  -0.00041   0.00000  -0.02339  -0.02344   0.12963
   D31       -0.05196  -0.00051   0.00000  -0.01904  -0.01899  -0.07096
   D32       -3.00104  -0.00090   0.00000  -0.04399  -0.04404  -3.04508
   D33        0.35635  -0.00107   0.00000  -0.04917  -0.04912   0.30723
   D34       -2.81648  -0.00096   0.00000  -0.04515  -0.04512  -2.86160
   D35       -2.97512  -0.00043   0.00000  -0.02300  -0.02304  -2.99815
   D36        0.13524  -0.00032   0.00000  -0.01899  -0.01904   0.11620
   D37        3.12430  -0.00013   0.00000  -0.00754  -0.00757   3.11673
   D38       -0.00985  -0.00054   0.00000  -0.02380  -0.02379  -0.03363
   D39        0.01468  -0.00027   0.00000  -0.01176  -0.01176   0.00291
   D40       -3.11947  -0.00068   0.00000  -0.02802  -0.02798   3.13574
   D41       -3.11650   0.00022   0.00000   0.00743   0.00743  -3.10907
   D42        0.02679   0.00017   0.00000   0.00532   0.00530   0.03209
   D43       -0.00488   0.00025   0.00000   0.01098   0.01100   0.00612
   D44        3.13841   0.00019   0.00000   0.00886   0.00887  -3.13591
   D45       -0.01260   0.00012   0.00000   0.00490   0.00490  -0.00769
   D46        3.13628   0.00012   0.00000   0.00507   0.00507   3.14135
   D47        3.12146   0.00053   0.00000   0.02133   0.02135  -3.14038
   D48       -0.01286   0.00053   0.00000   0.02149   0.02152   0.00866
   D49       -0.00828  -0.00005   0.00000  -0.00287  -0.00287  -0.01114
   D50        3.14040  -0.00008   0.00000  -0.00335  -0.00334   3.13706
   D51        3.13161   0.00001   0.00000  -0.00072  -0.00073   3.13088
   D52       -0.00289  -0.00002   0.00000  -0.00120  -0.00121  -0.00410
   D53        0.01055  -0.00010   0.00000  -0.00399  -0.00399   0.00656
   D54       -3.13301  -0.00001   0.00000   0.00008   0.00009  -3.13292
   D55       -3.13811  -0.00008   0.00000  -0.00353  -0.00354   3.14153
   D56        0.00151   0.00002   0.00000   0.00054   0.00055   0.00205
   D57        0.00010   0.00006   0.00000   0.00293   0.00294   0.00304
   D58        3.13439   0.00006   0.00000   0.00279   0.00280   3.13719
   D59       -3.13949  -0.00004   0.00000  -0.00122  -0.00121  -3.14070
   D60       -0.00519  -0.00003   0.00000  -0.00136  -0.00135  -0.00655
   D61       -0.77863  -0.00005   0.00000  -0.00621  -0.00620  -0.78484
   D62       -2.34986  -0.00038   0.00000  -0.00868  -0.00866  -2.35852
   D63        0.79267   0.00010   0.00000  -0.00345  -0.00347   0.78920
   D64        2.36349   0.00022   0.00000  -0.00331  -0.00332   2.36017
   D65        2.36976  -0.00005   0.00000  -0.00604  -0.00604   2.36372
   D66        0.79853  -0.00038   0.00000  -0.00852  -0.00849   0.79004
   D67       -2.34212   0.00010   0.00000  -0.00329  -0.00330  -2.34542
   D68       -0.77130   0.00022   0.00000  -0.00314  -0.00315  -0.77445
         Item               Value     Threshold  Converged?
 Maximum Force            0.025229     0.000450     NO 
 RMS     Force            0.002575     0.000300     NO 
 Maximum Displacement     0.208632     0.001800     NO 
 RMS     Displacement     0.060665     0.001200     NO 
 Predicted change in Energy=-1.361876D-03
 GradGradGradGradGradGradGradGradGradGradGradGradGradGradGradGradGradGrad

                          Input orientation:                          
 ---------------------------------------------------------------------
 Center     Atomic      Atomic             Coordinates (Angstroms)
 Number     Number       Type             X           Y           Z
 ---------------------------------------------------------------------
      1          6           0       -1.824813    1.571718   -0.061832
      2          6           0       -0.406264    1.065510    0.189865
      3          6           0        0.627067    2.154171   -0.075427
      4          7           0        1.971456    1.648937    0.166705
      5          6           0        3.045551    2.469898    0.016485
      6          8           0        2.928732    3.667446   -0.207836
      7          7           0        4.282466    1.853345    0.177958
      8          6           0        5.532092    2.460582    0.034056
      9          6           0        5.703835    3.850354    0.055787
     10          6           0        6.649593    1.624713   -0.104304
     11          6           0        7.916648    2.174864   -0.211381
     12          6           0        8.124318    3.549606   -0.199446
     13          6           0        6.994093    4.344480   -0.066235
     14          1           0       -2.563872    0.790081    0.133783
     15          1           0       -1.946630    1.897725   -1.099925
     16          1           0       -2.056218    2.422980    0.586526
[...]
 291,-0.00094252,-0.00005675,-0.00092337,0.00066315,0.00005602,-0.00239
 020,-0.00026508,0.00001831,0.00181131,0.00275189,-0.00000494,-0.000860
 81,-0.00521765,0.00269005,0.00109375,-0.00089806,0.00019792,-0.0006877
 8,-0.00086577,-0.00131253,-0.00419942,-0.00256150,0.00190966,0.0201669
 4,-0.00718999,0.01943032,-0.00003748,-0.00000400,0.00000238,-0.0000025
 1,0.00001058,-0.00001468,0.00000120,0.00001216,0.00001125,0.00000141,-
 0.00000373,0.00001030,0.00001175,0.00000283,-0.00001108,-0.00001541,0.
 00001271,0.00000460,-0.00009749,0.00003744,-0.00004162,0.00005431,0.00
 009895,-0.00000611,-0.00002283,0.00004265,-0.00001210,0.00078863,-0.00
 187630,0.00050926,0.00000068,-0.00009094,-0.00003660,0.00001826,0.0000
 6130,0.00044271,0.02161524,-0.08031450,0.02704927,-0.01052340,0.092679
 10,-0.00000273,0.00002634,-0.00001591,0.00003544,-0.00004427,0.0000100
 6,-0.00021451,0.00014070,-0.00008580,0.00058805,0.00005160,0.00003425,
 -0.00151095,0.00094247,-0.00012755,0.00056824,-0.00066185,0.00039220,0
 .00155084,0.00024824,0.00014214,-0.00070069,-0.00074948,0.00025075,0.0
 0038170,0.00314719,0.00036866,0.00012749,0.00038966,-0.00010827,-0.000
 90459,-0.00029468,0.00046126,0.00368752,0.00483356,-0.00097386,-0.0163
 0735,-0.00413250,-0.00668240,0.00001304,-0.00000391,-0.00000026,0.0000
 0999,-0.00000712,0.00001759,-0.00000142,0.00000252,-0.00000295,-0.0000
 0273,0.00001173,-0.00000202,-0.00001022,-0.00001937,0.00001869,0.00000
 501,-0.00000155,-0.00000007,0.00008427,-0.00002580,0.00005496,-0.00003
 748,-0.00001550,-0.00007088,0.00003790,0.00000089,-0.00008096,-0.00011
 087,0.00115073,-0.00154672,0.00007063,0.00006104,-0.00004946,0.0001278
 0,-0.00032205,-0.00038987,-0.07315307,0.02539557,-0.15089454,0.1114425
 3,-0.01671182,0.20478555,-0.00000350,-0.00004421,0.00000583,-0.0000064
 6,0.00007023,-0.00000672,0.00025490,-0.00010035,-0.00003618,-0.0006955
 4,-0.00045525,0.00006153,0.00104645,0.00081474,0.00011024,-0.00055086,
 -0.00057231,0.00000506,-0.00019438,-0.00066217,-0.00012572,-0.00059128
 ,0.00039258,-0.00092563,0.00226847,-0.00446758,0.00147439,0.00004973,-
 0.00050409,0.00021626,0.00042894,0.00041152,-0.00094521,-0.00278027,-0
 .00197188,-0.00050568,-0.01294949,0.00661981,0.01362416,-0.00003567,-0
 .00001437,0.00000376,0.00000472,0.00001422,-0.00000291,0.00000778,0.00
 001100,-0.00000327,-0.00000234,-0.00001742,-0.00000532,0.00000465,-0.0
 0000476,0.00000206,0.00000915,0.00002015,-0.00001458,-0.00004625,0.000
 03557,-0.00000535,0.00000898,0.00007293,-0.00002343,-0.00015097,-0.000
 02455,0.00001027,0.00075609,0.00063763,0.00028292,0.00011160,-0.000042
 59,0.00010275,0.00109936,-0.00071735,0.00108309,-0.14912615,-0.0046151
 3,0.07655281,-0.04302744,0.00328693,0.00872973,0.19874183,0.00000039,-
 0.00005335,0.00000294,-0.00003070,0.00007824,-0.00001422,0.00032769,-0
 .00017142,-0.00003174,-0.00090923,-0.00024960,0.00009623,0.00216013,-0
 .00080515,-0.00006404,-0.00071780,0.00055739,0.00005557,-0.00208647,-0
 .00036001,-0.00012265,0.00104571,-0.00075259,-0.00094512,0.00262228,-0
 .00250504,0.00171411,-0.00167490,-0.00060186,0.00007473,-0.00073930,0.
 00248594,0.00027980,-0.00016298,-0.00522047,0.00295716,-0.02043392,-0.
 00320927,0.01469691,-0.00003452,-0.00000594,0.00000227,-0.00000052,0.0
 0001008,-0.00001088,0.00000220,0.00001199,0.00000851,0.00000072,-0.000
 00440,0.00000779,0.00000966,-0.00000004,-0.00000736,-0.00001366,0.0000
 1336,0.00000158,-0.00008097,0.00003360,-0.00003068,0.00005121,0.000090
 10,-0.00000828,-0.00006835,0.00002557,-0.00004078,0.00013890,-0.000130
 51,0.00041360,-0.00010507,-0.00006254,-0.00009223,-0.00115666,-0.00167
 129,0.00028537,-0.00622952,-0.07363388,0.00603947,0.01038399,0.0076013
 7,-0.00152864,-0.01531883,0.09447305,0.00000140,0.00003338,-0.00000938
 ,0.00001414,-0.00005460,0.00000333,-0.00021150,0.00009868,-0.00001045,
 0.00059312,0.00027597,-0.00001178,-0.00108494,-0.00017928,-0.00013054,
 0.00047179,0.00011908,0.00012243,0.00059630,0.00065459,0.00017554,0.00
 090604,-0.00058309,0.00034168,-0.00182029,0.00511715,-0.00092042,-0.00
 002790,0.00041457,-0.00010455,0.00036820,-0.00042522,0.00025395,0.0005
 1678,0.00309944,0.00027311,0.01434190,-0.00790654,-0.00459189,0.000024
 64,0.00000706,-0.00000283,0.00000052,-0.00001149,0.00000787,-0.0000053
 9,-0.00000421,0.00000227,0.00000046,0.00001614,0.00000451,-0.00000580,
 -0.00000477,0.00000552,-0.00000507,-0.00001188,0.00000957,0.00005397,-
 0.00003005,0.00002103,-0.00001635,-0.00004761,-0.00001366,0.00014688,0
 .00002393,-0.00003137,-0.00041632,-0.00022851,-0.00038008,-0.00000587,
 0.00005970,-0.00004358,0.00026318,0.00111321,-0.00147420,0.07498095,0.
 00512849,-0.13543833,-0.01342067,0.00114607,0.00876060,-0.10945406,0.0
 1202088,0.18388697,-0.00000402,0.00001026,0.00001022,0.00003511,-0.000
 00735,0.00000303,-0.00005440,0.00009236,0.00004883,0.00022518,-0.00040
 379,-0.00004043,-0.00152529,0.00241500,0.00040327,0.00031740,-0.001659
 70,-0.00046129,0.00168622,0.00000042,-0.00023807,0.00050123,-0.0006708
 2,-0.00081312,-0.00191056,0.00102739,-0.00140240,0.00027603,0.00019795
 ,0.00017470,-0.00044591,-0.00042756,-0.00068715,0.00262073,0.00321482,
 0.00086717,-0.00861400,-0.00447428,0.00939689,-0.00000431,-0.00001273,
 0.00000080,0.00000524,0.00000708,0.00000458,0.00001115,-0.00000221,-0.
 00001600,-0.00000675,-0.00002377,-0.00001888,-0.00000557,0.00000122,0.
 00000905,0.00004306,0.00001175,-0.00002599,0.00003062,0.00000572,0.000
 01590,-0.00006715,-0.00003169,-0.00002179,0.00004655,0.00001474,0.0000
 9444,0.00096461,0.00002237,0.00096892,0.00015660,0.00000592,0.00010952
 ,0.00032386,-0.00070438,0.00018166,-0.14412611,0.02752584,0.07508871,0
 .00834134,-0.00048602,-0.00870858,-0.00034337,-0.00029309,0.00481894,0
 .20193845,0.00000136,-0.00006220,-0.00000076,-0.00004078,0.00008827,-0
 .00001710,0.00037858,-0.00021171,-0.00005543,-0.00104739,-0.00024340,0
 .00012693,0.00261841,-0.00109098,-0.00015845,-0.00096382,0.00080282,0.
 00020875,-0.00252610,-0.00023280,0.00003621,0.00194802,0.00274628,-0.0
 0002382,-0.00080717,-0.00569157,-0.00248202,0.00102727,-0.00091707,-0.
 00007764,-0.00061796,-0.00070670,0.00136636,-0.00430534,-0.00314816,-0
 .00200386,0.02252822,-0.00790132,-0.01771671,-0.00003776,-0.00000361,0
 .00000240,-0.00000126,0.00000922,-0.00001236,-0.00000039,0.00001445,0.
 00001368,0.00000200,0.00000160,0.00001351,0.00001102,-0.00000205,-0.00
 000909,-0.00002324,0.00001017,0.00000747,-0.00009250,0.00003642,-0.000
 03614,0.00006481,0.00010608,-0.00001489,-0.00002572,0.00004336,-0.0000
 0696,0.00078301,-0.00237826,-0.00069740,-0.00000378,-0.00009569,0.0000
 2446,0.00003338,0.00005640,-0.00046716,0.02893970,-0.08382618,-0.02940
 396,-0.00012878,0.00926388,0.00260427,0.00318319,0.00902312,-0.0025092
 4,-0.01951166,0.09565621,0.00000067,-0.00002396,-0.00001441,-0.0000247
 0,0.00002847,-0.00000721,0.00010956,-0.00009445,-0.00009309,-0.0003809
 4,0.00011892,0.00009914,0.00145463,-0.00144781,-0.00038219,-0.00045688
 ,0.00101071,0.00059440,-0.00148361,-0.00006537,0.00019744,0.00063767,0
 .00056337,0.00018335,-0.00048007,-0.00259290,0.00056088,-0.00021047,-0
 .00031255,-0.00005586,0.00091884,0.00036832,0.00037843,-0.00319005,-0.
 00449820,-0.00065509,0.01468877,0.00402493,-0.00396741,-0.00000913,0.0
 0000402,0.00000017,0.00000116,-0.00000311,0.00000168,-0.00000785,0.000
 01002,0.00001319,0.00000343,0.00001917,0.00001698,0.00000325,-0.000012
 97,0.00000024,-0.00003430,0.00000057,0.00001405,-0.00002472,0.00000487
 ,0.00000307,0.00004902,0.00005764,-0.00002632,-0.00004815,0.00000244,-
 0.00009892,0.00022567,-0.00137210,-0.00147162,-0.00005541,-0.00005792,
 -0.00005601,-0.00008745,0.00024740,-0.00037591,0.07327615,-0.02808822,
 -0.13661102,0.01275302,-0.00624790,-0.04512160,0.00513754,0.00062627,0
 .00046464,-0.11169781,0.02288922,0.18610285,-0.00000924,-0.00007324,0.
 00000570,-0.00004040,0.00012810,-0.00001631,0.00036319,-0.00022995,-0.
 00006039,-0.00123761,-0.00034312,0.00016786,0.00205627,-0.00060976,-0.
 00015293,-0.00077488,0.00014380,0.00006304,-0.00269116,0.00199022,0.00
 006529,0.00037204,-0.00657031,0.00006975,-0.00053149,0.00244396,-0.000
 08739,-0.03666122,0.02945484,-0.00201417,-0.12690954,0.06742717,-0.004
 30536,-0.00768596,0.00958327,-0.00063127,0.00090217,0.00012942,-0.0001
 5973,-0.00005121,-0.00001264,0.00000374,0.00000570,0.00001479,-0.00000
 313,0.00000785,0.00001502,-0.00000067,-0.00000054,-0.00001749,-0.00000
 650,0.00000933,-0.00000729,0.00000672,-0.00000247,0.00002513,-0.000010
 58,-0.00008312,0.00004291,-0.00001575,0.00004443,0.00013532,-0.0000387
 7,0.00012349,0.00013006,0.00001268,0.00036987,0.00002725,0.00002134,0.
 00050137,0.00064681,0.00007001,0.00098032,-0.00055664,0.00014057,-0.00
 203215,-0.00312162,0.00004042,-0.00005299,0.00079982,-0.00042896,0.000
 77665,0.00055023,-0.00054977,-0.00007544,0.00081626,0.00035761,0.17136
 182,0.00000680,0.00004281,-0.00000277,0.00001386,-0.00007658,0.0000087
 4,-0.00023005,0.00010941,0.00004843,0.00072282,0.00041094,-0.00011627,
 -0.00128819,-0.00034319,-0.00004388,0.00055615,0.00025995,0.00000804,0
 .00094340,0.00000777,0.00002826,-0.00157867,-0.00072069,0.00007001,0.0
 0219930,0.00029547,0.00005275,0.00259236,0.00161034,0.00014359,0.06789
 171,-0.09308516,0.00434924,0.03628620,-0.02653686,0.00188235,-0.005260
 37,-0.00284419,0.00011933,0.00003221,0.00000916,-0.00000253,-0.0000049
 9,-0.00000908,-0.00000031,-0.00000627,-0.00000860,0.00000258,0.0000019
 0,0.00001366,0.00000814,-0.00000439,0.00000524,-0.00000784,-0.00000255
 ,-0.00001399,0.00000978,0.00004730,-0.00002696,0.00000596,-0.00000284,
 -0.00009378,0.00004674,0.00005208,-0.00009536,-0.00001080,-0.00019610,
 0.00020305,-0.00002344,-0.00068516,0.00110099,-0.00009408,0.00075088,0
 .00117678,-0.00010210,0.00193159,0.00289229,-0.00003551,0.00044395,-0.
 00099314,0.00084262,-0.00076016,-0.00051883,0.00054314,0.00049900,-0.0
 0104930,-0.00073169,-0.10406149,0.11937452,-0.00000176,-0.00000379,0.0
 0000123,-0.00000135,0.00000714,-0.00000241,0.00001297,-0.00000928,-0.0
 0000343,-0.00005142,-0.00002024,-0.00000636,0.00007598,0.00001639,-0.0
 0014009,-0.00003402,-0.00001026,0.00005901,-0.00008109,0.00004892,0.00
 014651,-0.00003563,-0.00000395,0.00507067,-0.00006617,0.00000382,-0.00
 108968,-0.00118526,0.00086173,0.00402566,-0.00437369,0.00436532,-0.023
 19684,-0.00137873,0.00111047,0.00436889,0.00003613,0.00023773,0.004652
 44,-0.00000265,-0.00000034,-0.00000019,0.00000069,-0.00000013,0.000000
 67,0.00000043,0.00000102,0.00000004,0.00000026,0.00000031,0.00000074,-
 0.00000025,-0.00000127,0.00000131,-0.00000087,0.00000081,-0.00000108,-
 0.00000222,0.00000114,-0.00000004,0.00000527,0.00001199,-0.00000909,0.
 00000019,0.00001231,-0.00000144,0.00001268,-0.00001787,-0.00046029,0.0
 0014242,-0.00007177,-0.00281785,0.00008760,-0.00013016,-0.00275889,-0.
 00012110,-0.00016849,-0.00001648,0.00003594,-0.00007620,0.00008198,-0.
 00000555,0.00003826,0.00001054,-0.00007267,0.00018323,0.00012702,0.006
 90306,-0.00644248,0.01187572,-0.00000220,-0.00001181,0.00000137,0.0000
 0825,0.00001949,-0.00000180,0.00006338,-0.00000371,-0.00001526,-0.0001
 5496,-0.00024149,0.00002804,-0.00004044,0.00080304,0.00009183,-0.00007
 124,-0.00056636,-0.00004639,0.00025370,-0.00009043,-0.00001986,0.00022
 962,0.00037182,-0.00001618,-0.00036233,0.00068087,-0.00002410,0.000328
 41,-0.00008520,0.00001332,-0.00002641,-0.00031100,-0.00000328,-0.00061
 222,-0.00066137,-0.00000239,0.00309139,-0.00077089,0.00004579,-0.00001
 271,-0.00000820,0.00000135,0.00000407,0.00000543,0.00000167,0.00000466
 ,0.00000451,-0.00000374,-0.00000256,-0.00000826,-0.00000473,-0.0000005
 3,-0.00000414,0.00000469,0.00001107,0.00000918,-0.00000904,-0.00000232
 ,0.00001029,0.00000678,-0.00001356,0.00002090,-0.00002646,0.00000314,0
 .00000891,0.00000888,0.00034069,0.00033519,0.00000879,0.00004891,-0.00
 001419,0.00000348,0.00021788,-0.00029733,0.00002795,-0.06920638,-0.019
 93287,0.00062652,-0.01412285,-0.03388417,-0.02000374,-0.00381566,0.031
 74187,0.01555341,-0.01727969,-0.03485469,0.02178796,0.00023704,-0.0001
 7468,0.00001338,0.10229601,0.00000056,-0.00006163,0.00000198,-0.000021
 49,0.00008599,-0.00001397,0.00037723,-0.00017185,-0.00004675,-0.000975
 97,-0.00044480,0.00011175,0.00195766,-0.00003086,0.00001680,-0.0007295
 8,0.00002655,0.00001996,-0.00182902,-0.00025118,-0.00001599,0.00137889
 ,0.00069143,0.00002323,0.00008740,-0.00059825,0.00002633,-0.00032902,-
 0.00033139,0.00001222,-0.00059778,0.00087443,-0.00003070,-0.00011353,-
 0.00036923,0.00002227,-0.00076980,-0.00237410,0.00013557,-0.00004301,-
 0.00001088,0.00000328,0.00000237,0.00001298,-0.00001229,0.00000531,0.0
 0001524,0.00000943,-0.00000208,-0.00000703,0.00000644,0.00000800,-0.00
 000201,-0.00000508,-0.00000105,0.00001661,-0.00000024,-0.00007718,0.00
 003851,-0.00002855,0.00003300,0.00010093,-0.00003565,-0.00001838,0.000
 04989,-0.00000494,0.00048752,0.00016271,-0.00001981,-0.00003767,-0.000
 07875,-0.00000398,-0.00031571,0.00032030,-0.00003402,-0.02038792,-0.21
 397355,0.00423022,-0.01786925,-0.02065331,-0.01406914,0.01454095,-0.03
 352537,-0.01760806,-0.01738261,-0.01790316,0.01334348,0.00051454,-0.00
 054059,0.00002766,0.02992355,0.31868169,-0.00000044,0.00000085,-0.0000
 0615,0.00000203,-0.00000366,-0.00000086,-0.00002314,0.00001026,-0.0000
 3655,0.00004657,0.00003482,0.00002274,-0.00002240,-0.00010592,-0.00009
 698,0.00002333,0.00007206,0.00018222,0.00002565,0.00003108,0.00007332,
 -0.00003270,0.00000406,-0.00004915,-0.00002260,0.00005688,0.00027399,0
 .00002411,0.00000486,-0.00010060,0.00001275,-0.00003831,0.00001168,-0.
 00001998,0.00000236,0.00024156,0.00003203,0.00013407,0.00276998,0.0000
 0112,0.00000014,-0.00000030,0.00000221,-0.00000245,0.00000428,-0.00000
 196,0.00000278,0.00000209,-0.00000003,0.00000664,0.00000346,-0.0000012
 4,-0.00000667,0.00000419,-0.00000564,0.00000028,0.00000271,0.00001180,
 -0.00000481,0.00001180,0.00000215,0.00000753,-0.00002039,-0.00000268,-
 0.00000093,-0.00003599,0.00001731,-0.00002315,-0.00033872,0.00000334,0
 .00000080,-0.00002696,0.00002496,-0.00002608,-0.00032659,0.00058679,0.
 00408994,-0.06624305,-0.02266041,-0.03112558,-0.00881800,0.01393225,-0
 .03323489,-0.00564421,0.02341432,0.02928581,-0.00847474,-0.00001002,0.
 00001070,0.00000500,-0.00106525,-0.00597786,0.09786739,-0.00000350,-0.
 00004214,0.00000140,-0.00000593,0.00006564,-0.00001501,0.00024221,-0.0
 0009295,-0.00005006,-0.00065414,-0.00044435,0.00008778,0.00096311,0.00
 078679,0.00006302,-0.00052643,-0.00055724,0.00001995,-0.00019125,-0.00
 057195,0.00018223,-0.00051213,0.00039087,0.00078303,0.00218324,-0.0041
 2791,-0.00105172,0.00006651,-0.00050662,-0.00020225,0.00035421,0.00043
 537,0.00098077,-0.00268643,-0.00177089,0.00042486,-0.01084134,0.005021
 46,-0.01433620,-0.00003436,-0.00001402,0.00000223,0.00000615,0.0000112
 7,0.00000029,0.00000650,0.00001374,-0.00000161,-0.00000293,-0.00001194
 ,-0.00000132,0.00000420,-0.00000895,0.00000585,0.00000727,0.00002210,-
 0.00001359,-0.00004106,0.00003024,-0.00000042,0.00001037,0.00007216,-0
 .00004002,-0.00013165,-0.00002190,-0.00001522,0.00069570,0.00061937,-0
 .00030538,0.00011083,-0.00004434,-0.00010100,0.00111194,-0.00074291,-0
 .00097262,-0.13747147,-0.00879881,-0.07631423,0.00038714,0.00266439,-0
 .00536231,0.00875034,0.00102150,0.01337129,-0.04306080,0.00265312,-0.0
 1321340,0.00072793,-0.00071560,0.00008745,-0.00141218,0.01218408,-0.01
 429420,0.18194794,0.00000020,-0.00005547,0.00000172,-0.00003090,0.0000
 8029,-0.00001314,0.00033368,-0.00017430,-0.00005079,-0.00093871,-0.000
 25205,0.00010789,0.00222431,-0.00084580,-0.00013036,-0.00074409,0.0005
 8593,0.00013073,-0.00214788,-0.00034101,0.00018754,0.00098089,-0.00066
 994,0.00114779,0.00286707,-0.00287672,-0.00151690,-0.00165382,-0.00063
 746,-0.00011988,-0.00071159,0.00248944,-0.00041427,-0.00014820,-0.0054
 0866,-0.00251164,-0.02016390,-0.00374910,-0.01638275,-0.00003586,-0.00
 000633,0.00000251,0.00000022,0.00001015,-0.00001004,0.00000186,0.00001
 319,0.00000913,0.00000088,-0.00000299,0.00000867,0.00000934,-0.0000020
 3,-0.00000639,-0.00001465,0.00001410,0.00000220,-0.00008172,0.00003416
 ,-0.00002817,0.00005388,0.00009483,-0.00001404,-0.00007222,0.00002729,
 -0.00000620,0.00016434,-0.00015142,-0.00047940,-0.00010437,-0.00005738
 ,0.00006805,-0.00107914,-0.00145690,-0.00022607,-0.01042637,-0.0741120
 3,-0.01079927,-0.00055547,0.00909892,-0.00126144,0.00018157,0.00907777
 ,-0.00026694,0.01103983,0.00760589,0.00222931,0.00058464,-0.00055611,0
 .00002797,0.02798574,-0.02974930,0.03679440,-0.00751957,0.09197306,-0.
 00000247,-0.00003512,-0.00000488,-0.00001123,0.00005116,-0.00001577,0.
 00018688,-0.00008426,-0.00007851,-0.00055388,-0.00025295,0.00011520,0.
 00110506,0.00001693,-0.00009895,-0.00047316,-0.00002619,0.00021399,-0.
 00060568,-0.00059789,0.00022405,-0.00096050,0.00066574,0.00021590,0.00
 185887,-0.00526307,-0.00055913,0.00010162,-0.00041293,-0.00009063,-0.0
 0028929,0.00036175,0.00034273,-0.00076111,-0.00291569,0.00060445,-0.01
 351132,0.00808615,-0.00605798,-0.00002533,-0.00000794,0.00000090,0.000
 00524,0.00000509,0.00000276,0.00000111,0.00001358,0.00000357,-0.000001
 06,0.00000043,0.00000610,0.00000366,-0.00001269,0.00000634,-0.00000772
 ,0.00001679,-0.00000469,-0.00003283,0.00001985,0.00000382,0.00002632,0
 .00006685,-0.00004362,-0.00015598,-0.00002464,-0.00004423,0.00047833,0
 .00023533,-0.00042433,0.00002145,-0.00006365,-0.00006114,-0.00002127,-
 0.00098515,-0.00145618,-0.07474257,-0.00959512,-0.14555840,-0.00481268
 ,0.00212737,-0.00040755,-0.00927502,-0.00318993,-0.04553629,0.00859325
 ,-0.00106933,0.00865386,0.00056394,-0.00056668,0.00007675,-0.01698302,
 0.01991640,-0.01125719,0.11028040,-0.00648019,0.20122906\\-0.00000064,
 0.00000485,0.00000142,-0.00000075,0.00000530,0.00000122,0.00000149,0.0
 0000337,0.00000344,-0.00000939,-0.00001131,-0.00000297,0.00000921,0.00
 001336,0.00000057,-0.00000016,-0.00000002,0.00000228,0.00000400,-0.000
 00043,-0.00000419,-0.00000855,0.00000074,-0.00000357,-0.00000101,-0.00
 000286,-0.00000095,0.00000056,-0.00000036,-0.00000580,0.00000336,-0.00
 001086,-0.00000451,-0.00000434,0.00000227,-0.00000383,0.00000955,-0.00
 000370,-0.00000132,-0.00000119,0.00000402,0.00000453,-0.00000137,0.000
 00493,0.00000438,0.00000038,0.00000427,0.00000501,-0.00000190,0.000004
 82,-0.00000025,-0.00000205,0.00000084,-0.00000063,-0.00000072,0.000000
 48,0.00000486,-0.00000266,0.00000557,0.00000347,-0.00000019,0.00000145
 ,-0.00000191,-0.00000460,-0.00000253,-0.00000165,0.00000165,-0.0000004
 8,0.00000302,-0.00000246,-0.00000268,-0.00000653,0.00000242,-0.0000030
 2,-0.00000358,0.00000827,0.00000068,0.00000648,0.00000297,0.00000129,0
 .00000070,-0.00000196,-0.00000097,0.00000205,0.00000016,-0.00000272,0.
 00000735,-0.00000476,-0.00000153,-0.00000910,0.00000175,-0.00000604,0.
 00000064,0.00000292,-0.00000874,-0.00000068\\\@


 K N O W I N G  IS A BARRIER WHICH PREVENTS LEARNING

                     -- TEACHING OF THE BENE GESSERIT
 Job cpu time:       0 days  4 hours 42 minutes 19.1 seconds.
 File lengths (MBytes):  RWF=    637 Int=      0 D2E=      0 Chk=     14 Scr=      1
 Normal termination of Gaussian 09 at Wed Oct 31 15:11:39 2018.
WARNING: pbs_rusage is deprecated and values produced may not be accurate


=============================================================================
                                     Resource usage:
                                       CPU time:              12:57:26
   JobId:    1873233.r-man2            Elapsed time:          03:16:30
   Project:             q95            Requested time:        40:00:00
   Service Units:     13.10 
                                       Max physical memory:      827MB
                                       Max virtual memory:      1383MB
                                       Requested memory:           0MB

                                       Number of cpus:               4

                                       Max jobfs disk use:       0.6GB
                                       Requested jobfs:         20.0GB
=============================================================================

