 Entering Gaussian System, Link 0=/apps/gaussian/g09e01/g09/g09
 AtFile(1): /home/507/hio507/Basis/6-31pGd.gbs
 Initial command:
 /apps/gaussian/g09e01/g09/l1.exe "/jobfs/local/6003243.r-man2/Gau-13516.inp" -scrdir="/jobfs/local/6003243.r-man2/"
 Entering Link 1 = /apps/gaussian/g09e01/g09/l1.exe PID=     13517.
  
 Copyright (c) 1988,1990,1992,1993,1995,1998,2003,2009,2015,
            Gaussian, Inc.  All Rights Reserved.
  
 This is part of the Gaussian(R) 09 program.  It is based on
 the Gaussian(R) 03 system (copyright 2003, Gaussian, Inc.),
 the Gaussian(R) 98 system (copyright 1998, Gaussian, Inc.),
 the Gaussian(R) 94 system (copyright 1995, Gaussian, Inc.),
 the Gaussian 92(TM) system (copyright 1992, Gaussian, Inc.),
 the Gaussian 90(TM) system (copyright 1990, Gaussian, Inc.),
 the Gaussian 88(TM) system (copyright 1988, Gaussian, Inc.),
 the Gaussian 86(TM) system (copyright 1986, Carnegie Mellon
 University), and the Gaussian 82(TM) system (copyright 1983,
 Carnegie Mellon University). Gaussian is a federally registered
 trademark of Gaussian, Inc.
  
 This software contains proprietary and confidential information,
 including trade secrets, belonging to Gaussian, Inc.
  
 This software is provided under written license and may be
 used, copied, transmitted, or stored only in accord with that
 written license.
  
 The following legend is applicable only to US Government
 contracts under FAR:
  
                    RESTRICTED RIGHTS LEGEND
  
 Use, reproduction and disclosure by the US Government is
 subject to restrictions as set forth in subparagraphs (a)
 and (c) of the Commercial Computer Software - Restricted
 Rights clause in FAR 52.227-19.
  
 Gaussian, Inc.
 340 Quinnipiac St., Bldg. 40, Wallingford CT 06492
  
  
 ---------------------------------------------------------------
 Warning -- This program may not be used in any manner that
 competes with the business of Gaussian, Inc. or will provide
 assistance to any competitor of Gaussian, Inc.  The licensee
 of this program is prohibited from giving any competitor of
 Gaussian, Inc. access to this program.  By using this program,
 the user acknowledges that Gaussian, Inc. is engaged in the
 business of creating and licensing software in the field of
 computational chemistry and represents and warrants to the
 licensee that it is not a competitor of Gaussian, Inc. and that
 it will not use this program in any manner prohibited above.
 ---------------------------------------------------------------
  

 Cite this work as:
 Gaussian 09, Revision E.01,
 M. J. Frisch, G. W. Trucks, H. B. Schlegel, G. E. Scuseria, 
 M. A. Robb, J. R. Cheeseman, G. Scalmani, V. Barone, B. Mennucci, 
 G. A. Petersson, H. Nakatsuji, M. Caricato, X. Li, H. P. Hratchian, 
 A. F. Izmaylov, J. Bloino, G. Zheng, J. L. Sonnenberg, M. Hada, 
 M. Ehara, K. Toyota, R. Fukuda, J. Hasegawa, M. Ishida, T. Nakajima, 
 Y. Honda, O. Kitao, H. Nakai, T. Vreven, J. A. Montgomery, Jr., 
 J. E. Peralta, F. Ogliaro, M. Bearpark, J. J. Heyd, E. Brothers, 
 K. N. Kudin, V. N. Staroverov, T. Keith, R. Kobayashi, J. Normand, 
 K. Raghavachari, A. Rendell, J. C. Burant, S. S. Iyengar, J. Tomasi, 
 M. Cossi, N. Rega, J. M. Millam, M. Klene, J. E. Knox, J. B. Cross, 
 V. Bakken, C. Adamo, J. Jaramillo, R. Gomperts, R. E. Stratmann, 
 O. Yazyev, A. J. Austin, R. Cammi, C. Pomelli, J. W. Ochterski, 
 R. L. Martin, K. Morokuma, V. G. Zakrzewski, G. A. Voth, 
 P. Salvador, J. J. Dannenberg, S. Dapprich, A. D. Daniels, 
 O. Farkas, J. B. Foresman, J. V. Ortiz, J. Cioslowski, 
 and D. J. Fox, Gaussian, Inc., Wallingford CT, 2013.
 
 ******************************************
 Gaussian 09:  ES64L-G09RevE.01 30-Nov-2015
                22-Feb-2019 
 ******************************************
 %chk=3Nitro.M062X_6-31pGd_opt_Pentadecane.chk
 %mem=196608000
 %nproc=4
 Will use up to    4 processors via shared memory.
 ----------------------------------------------------------------------
 # M062X/Gen 6D SCF=Tight INT(grid=ultrafine) OPT IOP(2/17=4) SCRF=(SMD
 ,Solvent=n-Pentadecane) maxdisk=2147483648
 ----------------------------------------------------------------------
 1/14=-1,18=20,19=15,26=4,38=1/1,3;
 2/9=110,12=2,17=4,18=5,40=1/2;
 3/5=7,8=2,11=2,16=1,25=1,30=1,70=32201,71=1,72=151,74=-55,75=-5/1,2,3;
 4//1;
 5/5=2,32=2,38=5,53=151/2;
 6/7=2,8=2,9=2,10=2,28=1/1;
 7//1,2,3,16;
 1/14=-1,18=20,19=15,26=4/3(2);
 2/9=110,17=4/2;
 99//99;
 2/9=110,17=4/2;
 3/5=7,6=1,8=2,11=2,16=1,25=1,30=1,70=32205,71=1,72=151,74=-55,75=-5,82=7/1,2,3;
 4/5=5,16=3,69=1/1;
 5/5=2,32=2,38=5,53=151/2;
 7//1,2,3,16;
 1/14=-1,18=20,19=15,26=4/3(-5);
 2/9=110,17=4/2;
 6/7=2,8=2,9=2,10=2,19=2,28=1/1;
 99/9=1/99;
 ------------------------------------
 3Nitro.M062X_6-31pGd_opt_Pentadecane
 ------------------------------------
 Symbolic Z-matrix:
 Charge =  0 Multiplicity = 1
 C                     11.97353   0.06998  -7.49641 
 C                     10.83008  -0.25856  -6.54596 
 C                     10.64751   0.85508  -5.51071 
 N                     9.55093   0.55191  -4.60726 
 C                     9.1949    1.39704  -3.59849 
 O                     9.81339   2.43842  -3.4477 
 N                     8.15231   1.06187  -2.77634 
 C                     7.62173   1.80675  -1.66366 
 C                     7.96558   3.14696  -1.35419 
 C                     6.69693   1.15408  -0.82704 
 C                     6.13409   1.80092   0.27198 
 C                     6.48078   3.11726   0.56408 
 C                     7.39918   3.80577  -0.24356 
 H                     12.07976  -0.7353   -8.25348 
 H                     12.92873   0.1694   -6.93796 
 H                     11.04765  -1.21964  -6.03103 
 H                     9.89579  -0.37028  -7.13739 
 H                     10.43453   1.81123  -6.0383 
 H                     11.58571   0.96659  -4.92319 
 H                     9.02679  -0.32841  -4.73335 
 H                     8.66277   3.70726  -1.9457 
 H                     6.40654   0.13011  -1.02734 
 H                     5.42483   1.27788   0.90068 
 N                     7.75184   5.15473   0.05953 
 H                     6.02894   3.59577   1.42336 
 O                     9.02262   5.56726  -0.04903 
 O                     6.82026   6.03252   0.45758 
 H                     11.7507   0.99748  -7.98117 
 H                     7.70988   0.204    -2.97019 
 

 GradGradGradGradGradGradGradGradGradGradGradGradGradGradGradGradGradGrad
 Berny optimization.
 Initialization pass.
                           ----------------------------
                           !    Initial Parameters    !
                           ! (Angstroms and Degrees)  !
 --------------------------                            --------------------------
 ! Name  Definition              Value          Derivative Info.                !
 --------------------------------------------------------------------------------
 ! R1    R(1,2)                  1.5228         estimate D2E/DX2                !
 ! R2    R(1,14)                 1.1104         estimate D2E/DX2                !
 ! R3    R(1,15)                 1.1109         estimate D2E/DX2                !
 ! R4    R(1,28)                 1.07           estimate D2E/DX2                !
 ! R5    R(2,3)                  1.5314         estimate D2E/DX2                !
 ! R6    R(2,16)                 1.1118         estimate D2E/DX2                !
 ! R7    R(2,17)                 1.1114         estimate D2E/DX2                !
 ! R8    R(3,4)                  1.4528         estimate D2E/DX2                !
 ! R9    R(3,18)                 1.1126         estimate D2E/DX2                !
 ! R10   R(3,19)                 1.1126         estimate D2E/DX2                !
 ! R11   R(4,5)                  1.3633         estimate D2E/DX2                !
 ! R12   R(4,20)                 1.0323         estimate D2E/DX2                !
 ! R13   R(5,6)                  1.2205         estimate D2E/DX2                !
 ! R14   R(5,7)                  1.3694         estimate D2E/DX2                !
 ! R15   R(7,8)                  1.4403         estimate D2E/DX2                !
 ! R16   R(7,29)                 0.9845         estimate D2E/DX2                !
 ! R17   R(8,9)                  1.4178         estimate D2E/DX2                !
 ! R18   R(8,10)                 1.4075         estimate D2E/DX2                !
 ! R19   R(9,13)                 1.4101         estimate D2E/DX2                !
 ! R20   R(9,21)                 1.0723         estimate D2E/DX2                !
 ! R21   R(10,11)                1.3939         estimate D2E/DX2                !
 ! R22   R(10,22)                1.083          estimate D2E/DX2                !
 ! R23   R(11,12)                1.3922         estimate D2E/DX2                !
 ! R24   R(11,23)                1.0825         estimate D2E/DX2                !
 ! R25   R(12,13)                1.4035         estimate D2E/DX2                !
 ! R26   R(12,25)                1.0824         estimate D2E/DX2                !
 ! R27   R(13,24)                1.4269         estimate D2E/DX2                !
 ! R28   R(24,26)                1.3405         estimate D2E/DX2                !
 ! R29   R(24,27)                1.3404         estimate D2E/DX2                !
 ! A1    A(2,1,14)             109.9339         estimate D2E/DX2                !
 ! A2    A(2,1,15)             110.5606         estimate D2E/DX2                !
 ! A3    A(2,1,28)             108.2653         estimate D2E/DX2                !
 ! A4    A(14,1,15)            108.989          estimate D2E/DX2                !
 ! A5    A(14,1,28)            109.8573         estimate D2E/DX2                !
 ! A6    A(15,1,28)            109.2219         estimate D2E/DX2                !
 ! A7    A(1,2,3)              110.7667         estimate D2E/DX2                !
 ! A8    A(1,2,16)             109.1858         estimate D2E/DX2                !
 ! A9    A(1,2,17)             108.7108         estimate D2E/DX2                !
 ! A10   A(3,2,16)             109.8062         estimate D2E/DX2                !
 ! A11   A(3,2,17)             109.4279         estimate D2E/DX2                !
 ! A12   A(16,2,17)            108.9094         estimate D2E/DX2                !
 ! A13   A(2,3,4)              111.0155         estimate D2E/DX2                !
 ! A14   A(2,3,18)             109.0984         estimate D2E/DX2                !
 ! A15   A(2,3,19)             109.2282         estimate D2E/DX2                !
 ! A16   A(4,3,18)             109.2522         estimate D2E/DX2                !
 ! A17   A(4,3,19)             109.2097         estimate D2E/DX2                !
 ! A18   A(18,3,19)            109.0074         estimate D2E/DX2                !
 ! A19   A(3,4,5)              121.8638         estimate D2E/DX2                !
 ! A20   A(3,4,20)             119.0293         estimate D2E/DX2                !
 ! A21   A(5,4,20)             119.1069         estimate D2E/DX2                !
 ! A22   A(4,5,6)              119.2087         estimate D2E/DX2                !
 ! A23   A(4,5,7)              119.4286         estimate D2E/DX2                !
 ! A24   A(6,5,7)              121.3627         estimate D2E/DX2                !
 ! A25   A(5,7,8)              128.1483         estimate D2E/DX2                !
 ! A26   A(5,7,29)             115.9254         estimate D2E/DX2                !
 ! A27   A(8,7,29)             115.9262         estimate D2E/DX2                !
 ! A28   A(7,8,9)              124.6217         estimate D2E/DX2                !
 ! A29   A(7,8,10)             117.4786         estimate D2E/DX2                !
 ! A30   A(9,8,10)             117.8997         estimate D2E/DX2                !
 ! A31   A(8,9,13)             121.0742         estimate D2E/DX2                !
 ! A32   A(8,9,21)             122.0857         estimate D2E/DX2                !
 ! A33   A(13,9,21)            116.8401         estimate D2E/DX2                !
 ! A34   A(8,10,11)            121.2488         estimate D2E/DX2                !
 ! A35   A(8,10,22)            120.308          estimate D2E/DX2                !
 ! A36   A(11,10,22)           118.4431         estimate D2E/DX2                !
 ! A37   A(10,11,12)           120.2399         estimate D2E/DX2                !
 ! A38   A(10,11,23)           119.8835         estimate D2E/DX2                !
 ! A39   A(12,11,23)           119.8766         estimate D2E/DX2                !
 ! A40   A(11,12,13)           120.401          estimate D2E/DX2                !
 ! A41   A(11,12,25)           118.7257         estimate D2E/DX2                !
 ! A42   A(13,12,25)           120.8733         estimate D2E/DX2                !
 ! A43   A(9,13,12)            119.1363         estimate D2E/DX2                !
 ! A44   A(9,13,24)            120.6462         estimate D2E/DX2                !
 ! A45   A(12,13,24)           120.2175         estimate D2E/DX2                !
 ! A46   A(13,24,26)           120.5344         estimate D2E/DX2                !
 ! A47   A(13,24,27)           120.6909         estimate D2E/DX2                !
 ! A48   A(26,24,27)           118.7747         estimate D2E/DX2                !
 ! D1    D(14,1,2,3)          -178.8076         estimate D2E/DX2                !
 ! D2    D(14,1,2,16)           60.1521         estimate D2E/DX2                !
 ! D3    D(14,1,2,17)          -58.5417         estimate D2E/DX2                !
 ! D4    D(15,1,2,3)            60.8144         estimate D2E/DX2                !
 ! D5    D(15,1,2,16)          -60.2259         estimate D2E/DX2                !
 ! D6    D(15,1,2,17)         -178.9197         estimate D2E/DX2                !
 ! D7    D(28,1,2,3)           -58.7946         estimate D2E/DX2                !
 ! D8    D(28,1,2,16)         -179.8349         estimate D2E/DX2                !
 ! D9    D(28,1,2,17)           61.4713         estimate D2E/DX2                !
 ! D10   D(1,2,3,4)            179.5593         estimate D2E/DX2                !
 ! D11   D(1,2,3,18)            59.1072         estimate D2E/DX2                !
 ! D12   D(1,2,3,19)           -59.9572         estimate D2E/DX2                !
 ! D13   D(16,2,3,4)           -59.7681         estimate D2E/DX2                !
 ! D14   D(16,2,3,18)          179.7799         estimate D2E/DX2                !
 ! D15   D(16,2,3,19)           60.7155         estimate D2E/DX2                !
 ! D16   D(17,2,3,4)            59.7219         estimate D2E/DX2                !
 ! D17   D(17,2,3,18)          -60.7302         estimate D2E/DX2                !
 ! D18   D(17,2,3,19)         -179.7946         estimate D2E/DX2                !
 ! D19   D(2,3,4,5)           -179.9468         estimate D2E/DX2                !
 ! D20   D(2,3,4,20)             0.0414         estimate D2E/DX2                !
 ! D21   D(18,3,4,5)           -59.5859         estimate D2E/DX2                !
 ! D22   D(18,3,4,20)          120.4023         estimate D2E/DX2                !
 ! D23   D(19,3,4,5)            59.5587         estimate D2E/DX2                !
 ! D24   D(19,3,4,20)         -120.453          estimate D2E/DX2                !
 ! D25   D(3,4,5,6)             -0.0129         estimate D2E/DX2                !
 ! D26   D(3,4,5,7)            179.9634         estimate D2E/DX2                !
 ! D27   D(20,4,5,6)           179.9988         estimate D2E/DX2                !
 ! D28   D(20,4,5,7)            -0.0248         estimate D2E/DX2                !
 ! D29   D(4,5,7,8)           -179.9922         estimate D2E/DX2                !
 ! D30   D(4,5,7,29)             0.0081         estimate D2E/DX2                !
 ! D31   D(6,5,7,8)             -0.0164         estimate D2E/DX2                !
 ! D32   D(6,5,7,29)           179.984          estimate D2E/DX2                !
 ! D33   D(5,7,8,9)             10.6979         estimate D2E/DX2                !
 ! D34   D(5,7,8,10)          -169.2975         estimate D2E/DX2                !
 ! D35   D(29,7,8,9)          -169.3025         estimate D2E/DX2                !
 ! D36   D(29,7,8,10)           10.7021         estimate D2E/DX2                !
 ! D37   D(7,8,9,13)           179.9978         estimate D2E/DX2                !
 ! D38   D(7,8,9,21)            -0.0175         estimate D2E/DX2                !
 ! D39   D(10,8,9,13)           -0.0068         estimate D2E/DX2                !
 ! D40   D(10,8,9,21)          179.978          estimate D2E/DX2                !
 ! D41   D(7,8,10,11)         -179.9918         estimate D2E/DX2                !
 ! D42   D(7,8,10,22)           -0.0019         estimate D2E/DX2                !
 ! D43   D(9,8,10,11)            0.0124         estimate D2E/DX2                !
 ! D44   D(9,8,10,22)         -179.9977         estimate D2E/DX2                !
 ! D45   D(8,9,13,12)           -0.0033         estimate D2E/DX2                !
 ! D46   D(8,9,13,24)          179.9958         estimate D2E/DX2                !
 ! D47   D(21,9,13,12)        -179.9888         estimate D2E/DX2                !
 ! D48   D(21,9,13,24)           0.0103         estimate D2E/DX2                !
 ! D49   D(8,10,11,12)          -0.0079         estimate D2E/DX2                !
 ! D50   D(8,10,11,23)         179.992          estimate D2E/DX2                !
 ! D51   D(22,10,11,12)       -179.998          estimate D2E/DX2                !
 ! D52   D(22,10,11,23)          0.0019         estimate D2E/DX2                !
 ! D53   D(10,11,12,13)         -0.0026         estimate D2E/DX2                !
 ! D54   D(10,11,12,25)       -179.9986         estimate D2E/DX2                !
 ! D55   D(23,11,12,13)        179.9975         estimate D2E/DX2                !
 ! D56   D(23,11,12,25)          0.0014         estimate D2E/DX2                !
 ! D57   D(11,12,13,9)           0.0081         estimate D2E/DX2                !
 ! D58   D(11,12,13,24)       -179.991          estimate D2E/DX2                !
 ! D59   D(25,12,13,9)        -179.996          estimate D2E/DX2                !
 ! D60   D(25,12,13,24)          0.0049         estimate D2E/DX2                !
 ! D61   D(9,13,24,26)         -40.9393         estimate D2E/DX2                !
 ! D62   D(9,13,24,27)         139.056          estimate D2E/DX2                !
 ! D63   D(12,13,24,26)        139.0598         estimate D2E/DX2                !
 ! D64   D(12,13,24,27)        -40.9449         estimate D2E/DX2                !
 --------------------------------------------------------------------------------
 Trust Radius=3.00D-01 FncErr=1.00D-07 GrdErr=1.00D-06
 Number of steps in this run=    151 maximum allowed number of steps=    174.
 GradGradGradGradGradGradGradGradGradGradGradGradGradGradGradGradGradGrad

                          Input orientation:                          
 ---------------------------------------------------------------------
 Center     Atomic      Atomic             Coordinates (Angstroms)
 Number     Number       Type             X           Y           Z
 ---------------------------------------------------------------------
      1          6           0       11.973530    0.069980   -7.496410
      2          6           0       10.830080   -0.258560   -6.545960
      3          6           0       10.647510    0.855080   -5.510710
      4          7           0        9.550930    0.551910   -4.607260
      5          6           0        9.194900    1.397040   -3.598490
      6          8           0        9.813390    2.438420   -3.447700
      7          7           0        8.152310    1.061870   -2.776340
      8          6           0        7.621730    1.806750   -1.663660
      9          6           0        7.965580    3.146960   -1.354190
     10          6           0        6.696930    1.154080   -0.827040
     11          6           0        6.134090    1.800920    0.271980
     12          6           0        6.480780    3.117260    0.564080
     13          6           0        7.399180    3.805770   -0.243560
     14          1           0       12.079760   -0.735300   -8.253480
     15          1           0       12.928730    0.169400   -6.937960
     16          1           0       11.047650   -1.219640   -6.031030
     17          1           0        9.895790   -0.370280   -7.137390
     18          1           0       10.434530    1.811230   -6.038300
     19          1           0       11.585710    0.966590   -4.923190
     20          1           0        9.026790   -0.328410   -4.733350
     21          1           0        8.662770    3.707260   -1.945700
     22          1           0        6.406540    0.130110   -1.027340
     23          1           0        5.424830    1.277880    0.900680
     24          7           0        7.751840    5.154730    0.059530
     25          1           0        6.028940    3.595770    1.423360
     26          8           0        9.022620    5.567260   -0.049030
     27          8           0        6.820260    6.032520    0.457580
     28          1           0       11.750700    0.997480   -7.981170
     29          1           0        7.709880    0.204000   -2.970190
 ---------------------------------------------------------------------
                    Distance matrix (angstroms):
                    1          2          3          4          5
     1  C    0.000000
     2  C    1.522751   0.000000
     3  C    2.513507   1.531427   0.000000
     4  N    3.801110   2.460009   1.452798   0.000000
     5  C    4.967459   3.755317   2.461784   1.363312   0.000000
     6  O    5.164084   4.231616   2.731068   2.229884   1.220549
     7  N    6.153424   4.808744   3.707501   2.359760   1.369403
     8  C    7.481678   6.196440   4.986062   3.736471   2.527112
     9  C    7.953511   6.837938   5.451800   4.453098   3.100053
    10  C    8.573114   7.196147   6.134594   4.774724   3.738960
    11  C    9.871327   8.531007   7.396288   6.086198   4.950981
    12  C   10.218988   8.992510   7.705983   6.538318   5.258573
    13  C    9.353322   8.246824   6.855734   5.853162   4.503570
    14  H    1.110367   2.169010   3.478999   4.620261   5.876923
    15  H    1.110927   2.177417   2.776898   4.121651   5.157581
    16  H    2.160489   1.111829   2.176076   2.721338   4.024543
    17  H    2.154003   1.111381   2.170870   2.714944   4.017273
    18  H    2.743457   2.167535   1.112625   2.101074   2.767835
    19  H    2.752413   2.169182   1.112580   2.100500   2.766964
    20  H    4.059125   2.557790   2.152132   1.032272   2.072039
    21  H    7.416287   6.448826   4.978295   4.222436   2.889982
    22  H    8.534861   7.083356   6.213857   4.783402   3.998859
    23  H   10.717071   9.328978   8.280161   6.920198   5.871129
    24  N   10.038405   9.078093   7.609170   6.797176   5.439096
    25  H   11.284132  10.070594   8.770627   7.618259   6.330616
    26  O    9.715525   8.911632   7.394245   6.797816   5.478967
    27  O   11.197055  10.232591   8.779192   7.946461   6.601386
    28  H    1.070001   2.117783   2.709332   4.052257   5.089169
    29  H    6.219593   4.768201   3.937997   2.488072   2.005839
                    6          7          8          9         10
     6  O    0.000000
     7  N    2.259381   0.000000
     8  C    2.895717   1.440284   0.000000
     9  C    2.880836   2.530806   1.417804   0.000000
    10  C    4.269627   2.434421   1.407539   2.420523   0.000000
    11  C    5.270643   3.729834   2.441272   2.794747   1.393928
    12  C    5.259419   4.263455   2.825248   2.425958   2.415784
    13  C    4.238463   3.809353   2.462173   1.410085   2.804472
    14  H    6.189059   6.975224   8.352352   8.921806   9.364648
    15  H    5.199587   6.397638   7.659204   8.042214   8.783409
    16  H    4.645255   4.917447   6.322174   7.102055   7.186433
    17  H    4.637823   4.910146   6.314470   7.038614   7.237188
    18  H    2.736858   4.050982   5.200898   5.460840   6.446606
    19  H    2.735776   4.050466   5.200341   5.531466   6.380734
    20  H    3.150712   2.554894   3.994509   4.962165   4.783856
    21  H    2.278132   2.819330   2.185234   1.072331   3.410961
    22  H    4.774208   2.641002   2.166267   3.411572   1.083033
    23  H    6.286074   4.583261   3.417881   3.877281   2.149088
    24  N    4.891727   4.995402   3.767663   2.464839   4.231317
    25  H    6.276045   5.344795   3.907335   3.415668   3.387087
    26  O    4.686781   5.337996   4.325617   2.945951   5.048791
    27  O    6.093242   6.077825   4.795742   3.594541   5.046250
    28  H    5.136324   6.327939   7.590405   7.928699   8.760519
    29  H    3.105705   0.984512   2.069686   3.367173   2.553784
                   11         12         13         14         15
    11  C    0.000000
    12  C    1.392217   0.000000
    13  C    2.426037   1.403491   0.000000
    14  H   10.698919  11.132842  10.328987   0.000000
    15  H   10.040529  10.322138   9.413506   1.808266   0.000000
    16  H    8.543699   9.119237   8.488868   2.497823   2.508070
    17  H    8.588554   9.117997   8.437852   2.479641   3.087030
    18  H    7.636329   7.805721   6.838900   3.754813   3.118658
    19  H    7.576679   7.797168   6.891075   3.772446   2.549218
    20  H    6.160770   6.813044   6.316548   4.677339   4.509241
    21  H    3.866065   3.377599   2.122179   8.438024   7.459057
    22  H    2.134026   3.385439   3.887174   9.227755   8.802042
    23  H    1.082536   2.147475   3.405521  11.495200  10.907865
    24  N    3.729650   2.453864   1.426859  11.069304  10.030881
    25  H    2.134999   1.082355   2.168013  12.207040  11.369203
    26  O    4.757307   3.583204   2.403382  10.788020   9.583942
    27  O    4.290887   2.936891   2.405236  12.220814  11.242046
    28  H   10.015304  10.260937   9.310898   1.784646   1.778133
    29  H    3.942706   4.742239   4.528111   6.920353   6.555974
                   16         17         18         19         20
    16  H    0.000000
    17  H    1.808930   0.000000
    18  H    3.092271   2.501445   0.000000
    19  H    2.509267   3.089617   1.811657   0.000000
    20  H    2.561667   2.556623   2.874489   2.874219   0.000000
    21  H    6.830221   6.715677   4.845971   4.992023   4.918347
    22  H    6.956913   7.053933   6.645343   6.534612   4.561848
    23  H    9.268350   9.344329   8.575022   8.483561   6.877251
    24  N    9.412220   9.322978   7.453814   7.554242   7.393377
    25  H   10.195271  10.196496   8.847043   8.835665   7.892488
    26  O    9.270765   9.287715   7.209203   7.175864   7.530059
    27  O   10.609746  10.398957   8.548608   8.793512   8.501527
    28  H    3.035284   2.454266   2.483795   3.062583   4.441397
    29  H    4.747231   4.740628   4.406836   4.406565   2.264166
                   21         22         23         24         25
    21  H    0.000000
    22  H    4.327812   0.000000
    23  H    4.948537   2.449161   0.000000
    24  N    2.635509   5.313937   4.599182   0.000000
    25  H    4.277856   4.261374   2.451685   2.694211   0.000000
    26  O    2.680755   6.112574   5.678452   1.340466   3.875155
    27  O    3.818040   6.100377   4.974954   1.340448   2.738005
    28  H    7.301035   8.812952  10.907911   9.895780  11.310828
    29  H    3.772322   2.340688   4.621505   5.804368   5.799392
                   26         27         28         29
    26  O    0.000000
    27  O    2.307273   0.000000
    28  H    9.552181  10.994242   0.000000
    29  H    6.246681   6.820020   6.485966   0.000000
 Stoichiometry    C10H13N3O3
 Framework group  C1[X(C10H13N3O3)]
 Deg. of freedom    81
 Full point group                 C1      NOp   1
 Largest Abelian subgroup         C1      NOp   1
 Largest concise Abelian subgroup C1      NOp   1
                         Standard orientation:                         
 ---------------------------------------------------------------------
 Center     Atomic      Atomic             Coordinates (Angstroms)
 Number     Number       Type             X           Y           Z
 ---------------------------------------------------------------------
      1          6           0        6.387181   -0.946986    0.025997
      2          6           0        5.308109    0.124306    0.107909
      3          6           0        3.914424   -0.498199   -0.016175
      4          7           0        2.880114    0.518222    0.071651
      5          6           0        1.555574    0.206205   -0.011167
      6          8           0        1.226595   -0.959240   -0.163647
      7          7           0        0.622305    1.204306    0.078646
      8          6           0       -0.812030    1.089377    0.016240
      9          6           0       -1.524737   -0.135433    0.061586
     10          6           0       -1.554593    2.279646   -0.097888
     11          6           0       -2.946797    2.259840   -0.164296
     12          6           0       -3.633783    1.049787   -0.118561
     13          6           0       -2.933001   -0.160946   -0.005349
     14          1           0        7.389934   -0.483683    0.138922
     15          1           0        6.340404   -1.473983   -0.950857
     16          1           0        5.464498    0.863554   -0.707700
     17          1           0        5.395112    0.643881    1.086500
     18          1           0        3.772044   -1.238184    0.802412
     19          1           0        3.832241   -1.020472   -0.995109
     20          1           0        3.156582    1.504388    0.200592
     21          1           0       -1.026896   -1.081308    0.147426
     22          1           0       -1.049928    3.237157   -0.135939
     23          1           0       -3.495869    3.188687   -0.251747
     24          7           0       -3.641037   -1.398873    0.040991
     25          1           0       -4.714738    1.062949   -0.172012
     26          8           0       -3.186215   -2.468950   -0.626033
     27          8           0       -4.771959   -1.514040    0.751310
     28          1           0        6.221248   -1.651090    0.814417
     29          1           0        0.976244    2.114775    0.201268
 ---------------------------------------------------------------------
 Rotational constants (GHZ):      1.1850056      0.1930392      0.1684170
 General basis read from cards:  (6D, 7F)
 There are   330 symmetry adapted cartesian basis functions of A   symmetry.
 There are   330 symmetry adapted basis functions of A   symmetry.
   330 basis functions,   564 primitive gaussians,   330 cartesian basis functions
    59 alpha electrons       59 beta electrons
       nuclear repulsion energy      1026.3068672858 Hartrees.
 NAtoms=   29 NActive=   29 NUniq=   29 SFac= 1.00D+00 NAtFMM=   60 NAOKFM=F Big=F
 Integral buffers will be    131072 words long.
 Raffenetti 2 integral format.
 Two-electron integral symmetry is turned on.
 ------------------------------------------------------------------------------
 Polarizable Continuum Model (PCM)
 =================================
 Model                : PCM (using non-symmetric T matrix).
 Atomic radii         : SMD-Coulomb.
 Polarization charges : Total charges.
 Charge compensation  : None.
 Solution method      : On-the-fly selection.
 Cavity type          : VdW (van der Waals Surface) (Alpha=1.000).
 Cavity algorithm     : GePol (No added spheres)
                        Default sphere list used, NSphG=   29.
                        Lebedev-Laikov grids with approx.  5.0 points / Ang**2.
                        Smoothing algorithm: York/Karplus (Gamma=1.0000).
                        Polarization charges: spherical gaussians, with
                                              point-specific exponents (IZeta= 3).
                        Self-potential: point-specific (ISelfS= 7).
                        Self-field    : sphere-specific E.n sum rule (ISelfD= 2).
 1st derivatives      : Analytical E(r).r(x)/FMM algorithm (CHGder, D1EAlg=3).
                        Cavity 1st derivative terms included.
 Solvent              : n-Pentadecane, Eps=   2.033300 Eps(inf)=   2.049192
 ------------------------------------------------------------------------------
 ------------------------------------------------------------------------------
 Atomic radii for non-electrostatic terms: SMD-CDS.
 ------------------------------------------------------------------------------
 Nuclear repulsion after PCM non-electrostatic terms =     1026.2978610238 Hartrees.
 One-electron integrals computed using PRISM.
 NBasis=   330 RedAO= T EigKep=  1.81D-06  NBF=   330
 NBsUse=   330 1.00D-06 EigRej= -1.00D+00 NBFU=   330
 ExpMin= 4.38D-02 ExpMax= 5.48D+03 ExpMxC= 8.25D+02 IAcc=3 IRadAn=         5 AccDes= 0.00D+00
 Harris functional with IExCor= 1009 and IRadAn=       5 diagonalized for initial guess.
 HarFok:  IExCor= 1009 AccDes= 0.00D+00 IRadAn=         5 IDoV= 1 UseB2=F ITyADJ=14
 ICtDFT=  3500011 ScaDFX=  1.000000  1.000000  1.000000  1.000000
 FoFCou: FMM=F IPFlag=           0 FMFlag=      100000 FMFlg1=           0
         NFxFlg=           0 DoJE=T BraDBF=F KetDBF=T FulRan=T
         wScrn=  0.000000 ICntrl=     500 IOpCl=  0 I1Cent=   200000004 NGrid=           0
         NMat0=    1 NMatS0=      1 NMatT0=    0 NMatD0=    1 NMtDS0=    0 NMtDT0=    0
 Petite list used in FoFCou.
 Requested convergence on RMS density matrix=1.00D-08 within 128 cycles.
 Requested convergence on MAX density matrix=1.00D-06.
 Requested convergence on             energy=1.00D-06.
 No special actions if energy rises.
 Inv3:  Mode=1 IEnd=    18780012.
 Iteration    1 A*A^-1 deviation from unit magnitude is 3.77D-15 for   2287.
 Iteration    1 A*A^-1 deviation from orthogonality  is 2.44D-15 for    644    474.
 Iteration    1 A^-1*A deviation from unit magnitude is 3.55D-15 for   2502.
 Iteration    1 A^-1*A deviation from orthogonality  is 3.69D-15 for   1495   1485.
 Error on total polarization charges =  0.02090
 SCF Done:  E(RM062X) =  -778.416817735     A.U. after   17 cycles
            NFock= 17  Conv=0.76D-08     -V/T= 2.0096
 SMD-CDS (non-electrostatic) energy       (kcal/mol) =      -5.65
 (included in total energy above)

 **********************************************************************

            Population analysis using the SCF density.

 **********************************************************************

 Orbital symmetries:
       Occupied  (A) (A) (A) (A) (A) (A) (A) (A) (A) (A) (A) (A)
                 (A) (A) (A) (A) (A) (A) (A) (A) (A) (A) (A) (A)
                 (A) (A) (A) (A) (A) (A) (A) (A) (A) (A) (A) (A)
                 (A) (A) (A) (A) (A) (A) (A) (A) (A) (A) (A) (A)
                 (A) (A) (A) (A) (A) (A) (A) (A) (A) (A) (A)
       Virtual   (A) (A) (A) (A) (A) (A) (A) (A) (A) (A) (A) (A)
                 (A) (A) (A) (A) (A) (A) (A) (A) (A) (A) (A) (A)
                 (A) (A) (A) (A) (A) (A) (A) (A) (A) (A) (A) (A)
                 (A) (A) (A) (A) (A) (A) (A) (A) (A) (A) (A) (A)
                 (A) (A) (A) (A) (A) (A) (A) (A) (A) (A) (A) (A)
                 (A) (A) (A) (A) (A) (A) (A) (A) (A) (A) (A) (A)
                 (A) (A) (A) (A) (A) (A) (A) (A) (A) (A) (A) (A)
                 (A) (A) (A) (A) (A) (A) (A) (A) (A) (A) (A) (A)
                 (A) (A) (A) (A) (A) (A) (A) (A) (A) (A) (A) (A)
                 (A) (A) (A) (A) (A) (A) (A) (A) (A) (A) (A) (A)
                 (A) (A) (A) (A) (A) (A) (A) (A) (A) (A) (A) (A)
                 (A) (A) (A) (A) (A) (A) (A) (A) (A) (A) (A) (A)
                 (A) (A) (A) (A) (A) (A) (A) (A) (A) (A) (A) (A)
                 (A) (A) (A) (A) (A) (A) (A) (A) (A) (A) (A) (A)
                 (A) (A) (A) (A) (A) (A) (A) (A) (A) (A) (A) (A)
                 (A) (A) (A) (A) (A) (A) (A) (A) (A) (A) (A) (A)
                 (A) (A) (A) (A) (A) (A) (A) (A) (A) (A) (A) (A)
                 (A) (A) (A) (A) (A) (A) (A) (A) (A) (A) (A) (A)
                 (A) (A) (A) (A) (A) (A) (A) (A) (A) (A) (A) (A)
                 (A) (A) (A) (A) (A) (A) (A) (A) (A) (A) (A) (A)
                 (A) (A) (A) (A) (A) (A) (A) (A) (A) (A) (A) (A)
                 (A) (A) (A) (A) (A) (A) (A) (A) (A) (A) (A) (A)
                 (A) (A) (A) (A) (A) (A) (A)
 The electronic state is 1-A.
 Alpha  occ. eigenvalues --  -19.69810 -19.69804 -19.60867 -15.01569 -14.81634
 Alpha  occ. eigenvalues --  -14.79451 -10.68918 -10.64027 -10.63596 -10.58948
 Alpha  occ. eigenvalues --  -10.58886 -10.58859 -10.58769 -10.58393 -10.55776
 Alpha  occ. eigenvalues --  -10.54131  -1.28291  -1.18549  -1.11567  -1.06550
 Alpha  occ. eigenvalues --   -1.03391  -0.99673  -0.92548  -0.89066  -0.86742
 Alpha  occ. eigenvalues --   -0.81800  -0.78580  -0.73504  -0.70175  -0.68726
 Alpha  occ. eigenvalues --   -0.68151  -0.64845  -0.63556  -0.59380  -0.58784
 Alpha  occ. eigenvalues --   -0.58401  -0.57948  -0.56431  -0.54217  -0.53251
 Alpha  occ. eigenvalues --   -0.52455  -0.52073  -0.50000  -0.47915  -0.47090
 Alpha  occ. eigenvalues --   -0.46213  -0.45664  -0.44544  -0.42712  -0.40798
 Alpha  occ. eigenvalues --   -0.40516  -0.40000  -0.39095  -0.37401  -0.36601
 Alpha  occ. eigenvalues --   -0.34747  -0.33626  -0.32407  -0.29373
 Alpha virt. eigenvalues --   -0.08770  -0.00252  -0.00014   0.00535   0.02091
 Alpha virt. eigenvalues --    0.03013   0.03344   0.03743   0.03975   0.04966
 Alpha virt. eigenvalues --    0.05261   0.05924   0.06319   0.07131   0.07642
 Alpha virt. eigenvalues --    0.07972   0.08068   0.08656   0.09651   0.10072
 Alpha virt. eigenvalues --    0.10273   0.10551   0.10800   0.10877   0.12339
 Alpha virt. eigenvalues --    0.13191   0.13621   0.13904   0.14296   0.14570
 Alpha virt. eigenvalues --    0.14799   0.15757   0.16003   0.16746   0.17089
 Alpha virt. eigenvalues --    0.17912   0.18333   0.18985   0.19356   0.19745
 Alpha virt. eigenvalues --    0.20172   0.20673   0.20796   0.21270   0.21781
 Alpha virt. eigenvalues --    0.22076   0.22387   0.22571   0.23432   0.23799
 Alpha virt. eigenvalues --    0.24181   0.24798   0.24916   0.25338   0.25648
 Alpha virt. eigenvalues --    0.26187   0.26839   0.26892   0.27495   0.27750
 Alpha virt. eigenvalues --    0.28595   0.28904   0.29490   0.30293   0.30695
 Alpha virt. eigenvalues --    0.31040   0.31264   0.31916   0.32196   0.32692
 Alpha virt. eigenvalues --    0.32919   0.33504   0.33848   0.34149   0.34577
 Alpha virt. eigenvalues --    0.34829   0.35296   0.36003   0.36566   0.36776
 Alpha virt. eigenvalues --    0.37645   0.38400   0.38836   0.39610   0.40817
 Alpha virt. eigenvalues --    0.41337   0.42581   0.43620   0.45525   0.46199
 Alpha virt. eigenvalues --    0.48314   0.49748   0.51250   0.53234   0.54193
 Alpha virt. eigenvalues --    0.58669   0.61952   0.64992   0.68027   0.68745
 Alpha virt. eigenvalues --    0.69311   0.70124   0.71901   0.73938   0.75069
 Alpha virt. eigenvalues --    0.75368   0.75757   0.77156   0.78287   0.78692
 Alpha virt. eigenvalues --    0.78862   0.79792   0.80724   0.82473   0.83814
 Alpha virt. eigenvalues --    0.85808   0.86382   0.88332   0.88561   0.89244
 Alpha virt. eigenvalues --    0.92174   0.94113   0.96451   0.97304   0.98464
 Alpha virt. eigenvalues --    0.99578   0.99770   1.00916   1.02899   1.03446
 Alpha virt. eigenvalues --    1.03640   1.04460   1.05525   1.06260   1.07142
 Alpha virt. eigenvalues --    1.09034   1.10293   1.10641   1.11198   1.11605
 Alpha virt. eigenvalues --    1.13636   1.14374   1.15892   1.16189   1.18311
 Alpha virt. eigenvalues --    1.18955   1.19962   1.21449   1.23133   1.24438
 Alpha virt. eigenvalues --    1.25422   1.27977   1.29784   1.30673   1.31036
 Alpha virt. eigenvalues --    1.32963   1.33976   1.35593   1.35942   1.36526
 Alpha virt. eigenvalues --    1.37243   1.38751   1.39577   1.39948   1.42608
 Alpha virt. eigenvalues --    1.43354   1.44632   1.45546   1.47036   1.48876
 Alpha virt. eigenvalues --    1.49811   1.50921   1.51278   1.51763   1.53998
 Alpha virt. eigenvalues --    1.55503   1.57437   1.58561   1.59556   1.64305
 Alpha virt. eigenvalues --    1.67685   1.76412   1.78096   1.79174   1.80790
 Alpha virt. eigenvalues --    1.82489   1.85310   1.85409   1.86923   1.87448
 Alpha virt. eigenvalues --    1.88512   1.89197   1.89661   1.90694   1.91435
 Alpha virt. eigenvalues --    1.92101   1.94248   1.95896   1.96706   1.98376
 Alpha virt. eigenvalues --    1.99463   2.01752   2.02417   2.03191   2.04620
 Alpha virt. eigenvalues --    2.06168   2.06685   2.08264   2.10958   2.11494
 Alpha virt. eigenvalues --    2.14527   2.15317   2.17801   2.19957   2.20451
 Alpha virt. eigenvalues --    2.21337   2.21929   2.25164   2.27514   2.29684
 Alpha virt. eigenvalues --    2.30680   2.35475   2.37085   2.37315   2.38708
 Alpha virt. eigenvalues --    2.40188   2.42166   2.43457   2.47660   2.51969
 Alpha virt. eigenvalues --    2.52583   2.55516   2.57452   2.62668   2.63567
 Alpha virt. eigenvalues --    2.65348   2.65657   2.69122   2.71314   2.73688
 Alpha virt. eigenvalues --    2.76185   2.77654   2.79814   2.80511   2.84451
 Alpha virt. eigenvalues --    2.90655   2.95018   2.96617   2.99364   3.00472
 Alpha virt. eigenvalues --    3.11447   3.13970   3.27414   3.33047   3.41121
 Alpha virt. eigenvalues --    4.09931   4.16207   4.25084   4.26329   4.27185
 Alpha virt. eigenvalues --    4.33154   4.35148   4.38733   4.41179   4.42538
 Alpha virt. eigenvalues --    4.48293   4.49937   4.57582   4.58332   4.66430
 Alpha virt. eigenvalues --    4.76513
          Condensed to atoms (all electrons):
               1          2          3          4          5          6
     1  C    5.579230  -0.011804  -0.004154  -0.000132  -0.039332  -0.002498
     2  C   -0.011804   6.160787  -0.407819  -0.090264   0.139779   0.020097
     3  C   -0.004154  -0.407819   6.669283   0.357173  -0.495820  -0.093809
     4  N   -0.000132  -0.090264   0.357173   7.718115   0.328402  -0.206989
     5  C   -0.039332   0.139779  -0.495820   0.328402   6.139740   0.631397
     6  O   -0.002498   0.020097  -0.093809  -0.206989   0.631397   8.347582
     7  N   -0.001978   0.018213  -0.121358  -0.422709   0.071791  -0.097456
     8  C   -0.004637   0.007571  -0.306601  -0.144094  -1.034107  -0.321465
     9  C   -0.000318  -0.005742   0.142208   0.083470   1.974501   0.306184
    10  C   -0.000825   0.005255  -0.069589  -0.099076  -0.821270  -0.128355
    11  C   -0.000046   0.000099  -0.010003  -0.005505  -0.211266   0.008821
    12  C    0.000043   0.000499   0.009225  -0.001998   0.190666  -0.009623
    13  C   -0.002233   0.005981  -0.162212  -0.006001  -1.596742   0.149274
    14  H    0.408171  -0.084299   0.029859   0.000547  -0.001228   0.000008
    15  H    0.414567  -0.060281  -0.010321   0.000692   0.002563  -0.000058
    16  H   -0.025389   0.405915  -0.060338   0.006727  -0.013416  -0.000246
    17  H   -0.039167   0.428094  -0.094853   0.007355   0.010527  -0.000212
    18  H    0.002952  -0.053065   0.424984  -0.056742  -0.010261   0.001508
    19  H    0.004435  -0.048340   0.412237  -0.056356  -0.003693   0.001674
    20  H   -0.002389   0.000138  -0.078343   0.237115   0.031664   0.008334
    21  H    0.000006   0.000002   0.002353  -0.000063   0.024245  -0.003415
    22  H    0.000000   0.000010   0.000157   0.000841   0.008137  -0.000008
    23  H    0.000000   0.000000   0.000012   0.000006   0.001705  -0.000001
    24  N    0.000001  -0.000019  -0.000048   0.000223  -0.011832   0.000414
    25  H    0.000000   0.000000   0.000004  -0.000001   0.000793   0.000004
    26  O    0.000002   0.000006   0.000522  -0.000125   0.010161  -0.000705
    27  O    0.000000  -0.000001   0.000135   0.000008   0.004767   0.000034
    28  H    0.423335  -0.073394  -0.006641   0.000638  -0.000454  -0.000065
    29  H   -0.000089   0.000399  -0.000832   0.013196  -0.013786   0.008297
               7          8          9         10         11         12
     1  C   -0.001978  -0.004637  -0.000318  -0.000825  -0.000046   0.000043
     2  C    0.018213   0.007571  -0.005742   0.005255   0.000099   0.000499
     3  C   -0.121358  -0.306601   0.142208  -0.069589  -0.010003   0.009225
     4  N   -0.422709  -0.144094   0.083470  -0.099076  -0.005505  -0.001998
     5  C    0.071791  -1.034107   1.974501  -0.821270  -0.211266   0.190666
     6  O   -0.097456  -0.321465   0.306184  -0.128355   0.008821  -0.009623
     7  N    7.849905  -0.017309  -0.171953   0.374440  -0.008021   0.038636
     8  C   -0.017309  13.289437  -2.760757   0.852511   0.160692  -0.168992
     9  C   -0.171953  -2.760757  37.813641  -3.024467  -2.444535  -3.960710
    10  C    0.374440   0.852511  -3.024467  14.737745  -0.384646  -0.607615
    11  C   -0.008021   0.160692  -2.444535  -0.384646   6.841980  -0.160986
    12  C    0.038636  -0.168992  -3.960710  -0.607615  -0.160986  10.932310
    13  C   -0.108955  -3.843236 -23.006753  -4.050084   2.183529  -0.652184
    14  H    0.000012  -0.000024   0.000004  -0.000001  -0.000000   0.000000
    15  H    0.000023   0.000064  -0.000030   0.000005  -0.000000   0.000000
    16  H   -0.000375  -0.000175  -0.000572   0.000182   0.000001   0.000003
    17  H    0.000574  -0.000113   0.000267   0.000034  -0.000002   0.000001
    18  H   -0.000164  -0.000900   0.000737   0.000093  -0.000007   0.000017
    19  H    0.000997  -0.004589   0.004722  -0.001553  -0.000015  -0.000000
    20  H    0.029281   0.017958   0.001456  -0.000681   0.000257  -0.000028
    21  H   -0.011595  -0.001969   0.289903   0.008980  -0.015070   0.012025
    22  H   -0.009604   0.073016   0.044240   0.155684   0.036876  -0.013427
    23  H    0.000200   0.003025   0.005364   0.015584   0.268248   0.039755
    24  N   -0.000439  -0.034904  -0.018610   0.076368   0.064414  -0.067397
    25  H    0.000009   0.009523   0.027100  -0.008174  -0.039114   0.357069
    26  O   -0.000203   0.073834  -0.171968  -0.036964  -0.004125   0.029115
    27  O   -0.000389   0.043604  -0.014340  -0.023062   0.042491  -0.196640
    28  H    0.000017   0.000028  -0.000061   0.000005  -0.000000   0.000000
    29  H    0.247246  -0.001453   0.031845  -0.090433   0.026908  -0.007180
              13         14         15         16         17         18
     1  C   -0.002233   0.408171   0.414567  -0.025389  -0.039167   0.002952
     2  C    0.005981  -0.084299  -0.060281   0.405915   0.428094  -0.053065
     3  C   -0.162212   0.029859  -0.010321  -0.060338  -0.094853   0.424984
     4  N   -0.006001   0.000547   0.000692   0.006727   0.007355  -0.056742
     5  C   -1.596742  -0.001228   0.002563  -0.013416   0.010527  -0.010261
     6  O    0.149274   0.000008  -0.000058  -0.000246  -0.000212   0.001508
     7  N   -0.108955   0.000012   0.000023  -0.000375   0.000574  -0.000164
     8  C   -3.843236  -0.000024   0.000064  -0.000175  -0.000113  -0.000900
     9  C  -23.006753   0.000004  -0.000030  -0.000572   0.000267   0.000737
    10  C   -4.050084  -0.000001   0.000005   0.000182   0.000034   0.000093
    11  C    2.183529  -0.000000  -0.000000   0.000001  -0.000002  -0.000007
    12  C   -0.652184   0.000000   0.000000   0.000003   0.000001   0.000017
    13  C   37.772494   0.000000  -0.000002  -0.000064   0.000027  -0.000046
    14  H    0.000000   0.485023  -0.023408  -0.002865  -0.003166  -0.000053
    15  H   -0.000002  -0.023408   0.487458  -0.004890   0.003904  -0.000322
    16  H   -0.000064  -0.002865  -0.004890   0.505925  -0.033040   0.003820
    17  H    0.000027  -0.003166   0.003904  -0.033040   0.505710  -0.005377
    18  H   -0.000046  -0.000053  -0.000322   0.003820  -0.005377   0.493115
    19  H    0.000588  -0.000059   0.002623  -0.005290   0.003830  -0.035555
    20  H    0.000395  -0.000003   0.000001   0.000751   0.000964   0.002570
    21  H   -0.006108  -0.000000  -0.000000  -0.000000  -0.000000  -0.000001
    22  H    0.000987   0.000000  -0.000000  -0.000000  -0.000000   0.000000
    23  H   -0.019890  -0.000000   0.000000   0.000000   0.000000   0.000000
    24  N   -0.269880   0.000000  -0.000000   0.000000  -0.000000  -0.000001
    25  H   -0.038648   0.000000  -0.000000  -0.000000  -0.000000  -0.000000
    26  O    0.053412  -0.000000   0.000000  -0.000000   0.000000   0.000000
    27  O    0.110179   0.000000  -0.000000   0.000000  -0.000000  -0.000000
    28  H   -0.000005  -0.023538  -0.029149   0.004395  -0.005324   0.003229
    29  H    0.028517  -0.000000  -0.000000   0.000001   0.000001   0.000001
              19         20         21         22         23         24
     1  C    0.004435  -0.002389   0.000006   0.000000   0.000000   0.000001
     2  C   -0.048340   0.000138   0.000002   0.000010   0.000000  -0.000019
     3  C    0.412237  -0.078343   0.002353   0.000157   0.000012  -0.000048
     4  N   -0.056356   0.237115  -0.000063   0.000841   0.000006   0.000223
     5  C   -0.003693   0.031664   0.024245   0.008137   0.001705  -0.011832
     6  O    0.001674   0.008334  -0.003415  -0.000008  -0.000001   0.000414
     7  N    0.000997   0.029281  -0.011595  -0.009604   0.000200  -0.000439
     8  C   -0.004589   0.017958  -0.001969   0.073016   0.003025  -0.034904
     9  C    0.004722   0.001456   0.289903   0.044240   0.005364  -0.018610
    10  C   -0.001553  -0.000681   0.008980   0.155684   0.015584   0.076368
    11  C   -0.000015   0.000257  -0.015070   0.036876   0.268248   0.064414
    12  C   -0.000000  -0.000028   0.012025  -0.013427   0.039755  -0.067397
    13  C    0.000588   0.000395  -0.006108   0.000987  -0.019890  -0.269880
    14  H   -0.000059  -0.000003  -0.000000   0.000000  -0.000000   0.000000
    15  H    0.002623   0.000001  -0.000000  -0.000000   0.000000  -0.000000
    16  H   -0.005290   0.000751  -0.000000  -0.000000   0.000000   0.000000
    17  H    0.003830   0.000964  -0.000000  -0.000000   0.000000  -0.000000
    18  H   -0.035555   0.002570  -0.000001   0.000000   0.000000  -0.000001
    19  H    0.490763   0.002565  -0.000000   0.000000  -0.000000   0.000002
    20  H    0.002565   0.318836  -0.000000   0.000004  -0.000000   0.000001
    21  H   -0.000000  -0.000000   0.401767  -0.000083   0.000010  -0.003879
    22  H    0.000000   0.000004  -0.000083   0.472479  -0.003512  -0.000072
    23  H   -0.000000  -0.000000   0.000010  -0.003512   0.447214   0.000115
    24  N    0.000002   0.000001  -0.003879  -0.000072   0.000115   6.975188
    25  H    0.000000  -0.000000  -0.000099  -0.000117  -0.003391  -0.005262
    26  O   -0.000000   0.000000   0.004375   0.000001   0.000018   0.362485
    27  O    0.000000  -0.000000  -0.001081  -0.000003  -0.000060   0.339450
    28  H   -0.000478   0.000001  -0.000000   0.000000   0.000000   0.000000
    29  H    0.000006   0.002515  -0.000130   0.005162  -0.000008   0.000027
              25         26         27         28         29
     1  C    0.000000   0.000002   0.000000   0.423335  -0.000089
     2  C    0.000000   0.000006  -0.000001  -0.073394   0.000399
     3  C    0.000004   0.000522   0.000135  -0.006641  -0.000832
     4  N   -0.000001  -0.000125   0.000008   0.000638   0.013196
     5  C    0.000793   0.010161   0.004767  -0.000454  -0.013786
     6  O    0.000004  -0.000705   0.000034  -0.000065   0.008297
     7  N    0.000009  -0.000203  -0.000389   0.000017   0.247246
     8  C    0.009523   0.073834   0.043604   0.000028  -0.001453
     9  C    0.027100  -0.171968  -0.014340  -0.000061   0.031845
    10  C   -0.008174  -0.036964  -0.023062   0.000005  -0.090433
    11  C   -0.039114  -0.004125   0.042491  -0.000000   0.026908
    12  C    0.357069   0.029115  -0.196640   0.000000  -0.007180
    13  C   -0.038648   0.053412   0.110179  -0.000005   0.028517
    14  H    0.000000  -0.000000   0.000000  -0.023538  -0.000000
    15  H   -0.000000   0.000000  -0.000000  -0.029149  -0.000000
    16  H   -0.000000  -0.000000   0.000000   0.004395   0.000001
    17  H   -0.000000   0.000000  -0.000000  -0.005324   0.000001
    18  H   -0.000000   0.000000  -0.000000   0.003229   0.000001
    19  H    0.000000  -0.000000   0.000000  -0.000478   0.000006
    20  H   -0.000000   0.000000  -0.000000   0.000001   0.002515
    21  H   -0.000099   0.004375  -0.001081  -0.000000  -0.000130
    22  H   -0.000117   0.000001  -0.000003   0.000000   0.005162
    23  H   -0.003391   0.000018  -0.000060   0.000000  -0.000008
    24  N   -0.005262   0.362485   0.339450   0.000000   0.000027
    25  H    0.438279  -0.000848   0.003800  -0.000000  -0.000000
    26  O   -0.000848   7.761344  -0.071725  -0.000000  -0.000000
    27  O    0.003800  -0.071725   7.794813   0.000000  -0.000001
    28  H   -0.000000  -0.000000   0.000000   0.485866  -0.000000
    29  H   -0.000000  -0.000000  -0.000001  -0.000000   0.308891
 Mulliken charges:
               1
     1  C   -0.697749
     2  C   -0.357819
     3  C   -0.125412
     4  N   -0.664453
     5  C    0.682368
     6  O   -0.618725
     7  N   -0.658834
     8  C    0.114062
     9  C    0.855172
    10  C   -0.880089
    11  C   -0.350973
    12  C    0.237413
    13  C   -0.542339
    14  H    0.215021
    15  H    0.216561
    16  H    0.218941
    17  H    0.219966
    18  H    0.229468
    19  H    0.231486
    20  H    0.426636
    21  H    0.299827
    22  H    0.229231
    23  H    0.245606
    24  N   -0.406346
    25  H    0.259072
    26  O   -0.008608
    27  O   -0.031981
    28  H    0.221598
    29  H    0.440900
 Sum of Mulliken charges =  -0.00000
 Mulliken charges with hydrogens summed into heavy atoms:
               1
     1  C   -0.044570
     2  C    0.081088
     3  C    0.335542
     4  N   -0.237816
     5  C    0.682368
     6  O   -0.618725
     7  N   -0.217934
     8  C    0.114062
     9  C    1.154999
    10  C   -0.650858
    11  C   -0.105368
    12  C    0.496484
    13  C   -0.542339
    24  N   -0.406346
    26  O   -0.008608
    27  O   -0.031981
 Electronic spatial extent (au):  <R**2>=           6170.8862
 Charge=             -0.0000 electrons
 Dipole moment (field-independent basis, Debye):
    X=              6.3755    Y=              9.3902    Z=              0.3859  Tot=             11.3566
 Quadrupole moment (field-independent basis, Debye-Ang):
   XX=            -92.7491   YY=            -92.4732   ZZ=            -99.1522
   XY=            -13.8219   XZ=              4.5342   YZ=             -1.3254
 Traceless Quadrupole moment (field-independent basis, Debye-Ang):
   XX=              2.0424   YY=              2.3183   ZZ=             -4.3607
   XY=            -13.8219   XZ=              4.5342   YZ=             -1.3254
 Octapole moment (field-independent basis, Debye-Ang**2):
  XXX=            146.7445  YYY=             53.9000  ZZZ=              0.3608  XYY=             22.9232
  XXY=             88.1030  XXZ=            -18.9918  XZZ=              8.6719  YZZ=             -8.6838
  YYZ=              4.2246  XYZ=              3.0653
 Hexadecapole moment (field-independent basis, Debye-Ang**3):
 XXXX=          -6990.1602 YYYY=          -1063.1220 ZZZZ=           -163.1895 XXXY=           -278.6952
 XXXZ=            125.6847 YYYX=            -61.0164 YYYZ=            -11.6323 ZZZX=             -6.0326
 ZZZY=              3.2510 XXYY=          -1416.9786 XXZZ=          -1224.9607 YYZZ=           -226.6245
 XXYZ=              9.4405 YYXZ=              3.4106 ZZXY=             15.5691
 N-N= 1.026297861024D+03 E-N=-3.864764881565D+03  KE= 7.709814738865D+02
 D1PCM: PCM CHGder 1st derivatives, ID1Alg=3 FixD1E=F DoIter=F DoCFld=F I1PDM=0.
 Calling FoFJK, ICntrl=      2127 FMM=F ISym2X=0 I1Cent= 0 IOpClX= 0 NMat=1 NMatS=1 NMatT=0.
 ***** Axes restored to original set *****
 -------------------------------------------------------------------
 Center     Atomic                   Forces (Hartrees/Bohr)
 Number     Number              X              Y              Z
 -------------------------------------------------------------------
      1        6           0.008056139   -0.020050326    0.008486530
      2        6          -0.005483367   -0.006344564    0.004379341
      3        6           0.006490077    0.004424774   -0.002467647
      4        7          -0.026048669   -0.027457022    0.005949717
      5        6           0.019926548    0.018072452   -0.007958126
      6        8           0.005831000    0.014537323    0.004865629
      7        7          -0.008266774    0.021914862    0.021999288
      8        6           0.008410031    0.002263771   -0.006730549
      9        6           0.002330753    0.002480166    0.003588592
     10        6           0.001580100    0.003049501   -0.001253876
     11        6           0.008815165    0.005514669   -0.008831266
     12        6          -0.004248347    0.011023039    0.005405342
     13        6          -0.010689633   -0.036885803   -0.007525182
     14        1           0.001124787    0.009550932    0.005991668
     15        1          -0.007725761   -0.000718900   -0.006950757
     16        1          -0.005027012    0.007295701   -0.003647193
     17        1           0.006249783   -0.001313664    0.006569857
     18        1           0.004003948   -0.007369122    0.007042641
     19        1          -0.009035871    0.002224089   -0.005816200
     20        1           0.010379544    0.012916920   -0.000726070
     21        1           0.006554539   -0.000381784   -0.007694645
     22        1           0.000909555   -0.002979971   -0.002361796
     23        1          -0.000465157   -0.000375390    0.001119440
     24        7           0.037536049    0.130403072    0.027256402
     25        1           0.001045722    0.004072578    0.001211356
     26        8          -0.113544626   -0.047817384    0.004068863
     27        8           0.075875668   -0.088963410   -0.034083389
     28        1           0.001166422    0.014464837   -0.011523376
     29        1          -0.015750613   -0.023551344   -0.000364596
 -------------------------------------------------------------------
 Cartesian Forces:  Max     0.130403072 RMS     0.025752190

 GradGradGradGradGradGradGradGradGradGradGradGradGradGradGradGradGradGrad
 Berny optimization.
 FormGI is forming the generalized inverse of G from B-inverse, IUseBI=4.
 GSVD:  received Info=                   1 from GESDD.
 Internal  Forces:  Max     0.122693007 RMS     0.016376322
 Search for a local minimum.
 Step number   1 out of a maximum of  151
 All quantities printed in internal units (Hartrees-Bohrs-Radians)
 Mixed Optimization -- RFO/linear search
 Second derivative matrix not updated -- first step.
 ITU=  0
     Eigenvalues ---    0.00350   0.00465   0.00993   0.01159   0.01336
     Eigenvalues ---    0.01336   0.01467   0.01628   0.01681   0.01793
     Eigenvalues ---    0.01900   0.01931   0.02022   0.02073   0.02097
     Eigenvalues ---    0.02113   0.02136   0.02143   0.02177   0.02181
     Eigenvalues ---    0.03827   0.04445   0.04970   0.05566   0.05747
     Eigenvalues ---    0.05944   0.07972   0.09180   0.11923   0.12670
     Eigenvalues ---    0.16000   0.16000   0.16000   0.16000   0.16000
     Eigenvalues ---    0.16000   0.16000   0.16000   0.16000   0.21958
     Eigenvalues ---    0.22000   0.22000   0.22000   0.22004   0.23449
     Eigenvalues ---    0.23490   0.25000   0.25000   0.25000   0.25000
     Eigenvalues ---    0.25000   0.25000   0.29292   0.30103   0.32324
     Eigenvalues ---    0.32328   0.32407   0.32454   0.32502   0.32561
     Eigenvalues ---    0.35630   0.35690   0.35711   0.36937   0.37230
     Eigenvalues ---    0.37881   0.39547   0.40411   0.41035   0.41444
     Eigenvalues ---    0.42436   0.43730   0.44759   0.45640   0.46542
     Eigenvalues ---    0.50518   0.51092   0.52284   0.57101   0.57105
     Eigenvalues ---    0.95140
 RFO step:  Lambda=-6.79393183D-02 EMin= 3.50229510D-03
 Linear search not attempted -- first point.
 Maximum step size (   0.300) exceeded in Quadratic search.
    -- Step size scaled by   0.828
 Iteration  1 RMS(Cart)=  0.05886028 RMS(Int)=  0.00062468
 Iteration  2 RMS(Cart)=  0.00120395 RMS(Int)=  0.00004525
 Iteration  3 RMS(Cart)=  0.00000079 RMS(Int)=  0.00004524
 Variable       Old X    -DE/DX   Delta X   Delta X   Delta X     New X
                                 (Linear)    (Quad)   (Total)
    R1        2.87758   0.00518   0.00000   0.01164   0.01164   2.88922
    R2        2.09829  -0.01091   0.00000  -0.02296  -0.02296   2.07533
    R3        2.09935  -0.01020   0.00000  -0.02149  -0.02149   2.07786
    R4        2.02201   0.01752   0.00000   0.03296   0.03296   2.05497
    R5        2.89398  -0.00456   0.00000  -0.01047  -0.01047   2.88351
    R6        2.10105  -0.00899   0.00000  -0.01898  -0.01898   2.08207
    R7        2.10021  -0.00862   0.00000  -0.01819  -0.01819   2.08202
    R8        2.74539  -0.00092   0.00000  -0.00171  -0.00171   2.74368
    R9        2.10256  -0.01044   0.00000  -0.02209  -0.02209   2.08046
   R10        2.10247  -0.01047   0.00000  -0.02215  -0.02215   2.08032
   R11        2.57629  -0.00189   0.00000  -0.00265  -0.00265   2.57364
   R12        1.95071  -0.01620   0.00000  -0.02725  -0.02725   1.92346
   R13        2.30650   0.01596   0.00000   0.01297   0.01297   2.31947
   R14        2.58780   0.01003   0.00000   0.01435   0.01435   2.60215
   R15        2.72174  -0.03479   0.00000  -0.06217  -0.06217   2.65958
   R16        1.86046   0.02767   0.00000   0.03999   0.03999   1.90044
   R17        2.67926  -0.02261   0.00000  -0.03849  -0.03848   2.64078
   R18        2.65986  -0.00640   0.00000  -0.01044  -0.01052   2.64934
   R19        2.66467  -0.01509   0.00000  -0.02522  -0.02513   2.63954
   R20        2.02641   0.00830   0.00000   0.01572   0.01572   2.04213
   R21        2.63414  -0.00236   0.00000  -0.00308  -0.00316   2.63098
   R22        2.04664   0.00302   0.00000   0.00589   0.00589   2.05252
   R23        2.63091  -0.00512   0.00000  -0.00721  -0.00722   2.62369
   R24        2.04570   0.00114   0.00000   0.00222   0.00222   2.04792
   R25        2.65221  -0.01136   0.00000  -0.01803  -0.01795   2.63426
   R26        2.04536   0.00232   0.00000   0.00453   0.00453   2.04988
   R27        2.69637  -0.00667   0.00000  -0.01144  -0.01144   2.68493
   R28        2.53311  -0.12269   0.00000  -0.15902  -0.15902   2.37409
   R29        2.53308  -0.12111   0.00000  -0.15696  -0.15696   2.37612
    A1        1.91871   0.00266   0.00000   0.00900   0.00891   1.92762
    A2        1.92965   0.00112   0.00000   0.00381   0.00375   1.93340
    A3        1.88959   0.00770   0.00000   0.02887   0.02871   1.91830
    A4        1.90222  -0.00270   0.00000  -0.01156  -0.01156   1.89066
    A5        1.91737  -0.00493   0.00000  -0.01739  -0.01757   1.89980
    A6        1.90628  -0.00390   0.00000  -0.01290  -0.01303   1.89326
    A7        1.93324  -0.00000   0.00000   0.00179   0.00179   1.93504
    A8        1.90565   0.00159   0.00000   0.00849   0.00849   1.91414
    A9        1.89736   0.00113   0.00000   0.00683   0.00683   1.90419
   A10        1.91648  -0.00096   0.00000  -0.00523  -0.00525   1.91123
   A11        1.90988  -0.00028   0.00000  -0.00190  -0.00192   1.90796
   A12        1.90083  -0.00149   0.00000  -0.01008  -0.01012   1.89070
   A13        1.93759  -0.00402   0.00000  -0.01012  -0.01010   1.92749
   A14        1.90413   0.00248   0.00000   0.00964   0.00964   1.91376
   A15        1.90639   0.00232   0.00000   0.00899   0.00899   1.91538
   A16        1.90681   0.00084   0.00000   0.00163   0.00166   1.90847
   A17        1.90607   0.00100   0.00000   0.00231   0.00233   1.90840
   A18        1.90254  -0.00261   0.00000  -0.01260  -0.01263   1.88990
   A19        2.12692  -0.00516   0.00000  -0.01484  -0.01484   2.11209
   A20        2.07745  -0.00091   0.00000  -0.00524  -0.00525   2.07221
   A21        2.07881   0.00606   0.00000   0.02008   0.02008   2.09889
   A22        2.08058   0.01740   0.00000   0.04532   0.04532   2.12590
   A23        2.08442  -0.02607   0.00000  -0.06789  -0.06790   2.01653
   A24        2.11818   0.00867   0.00000   0.02258   0.02258   2.14076
   A25        2.23661  -0.00879   0.00000  -0.02529  -0.02529   2.21132
   A26        2.02328   0.01002   0.00000   0.03307   0.03307   2.05635
   A27        2.02329  -0.00123   0.00000  -0.00778  -0.00778   2.01551
   A28        2.17506  -0.00792   0.00000  -0.02052  -0.02048   2.15458
   A29        2.05039  -0.00020   0.00000  -0.00042  -0.00039   2.05000
   A30        2.05774   0.00812   0.00000   0.02094   0.02087   2.07860
   A31        2.11314  -0.01246   0.00000  -0.03693  -0.03684   2.07630
   A32        2.13080   0.00042   0.00000  -0.00266  -0.00271   2.12809
   A33        2.03924   0.01205   0.00000   0.03959   0.03955   2.07879
   A34        2.11619  -0.00210   0.00000  -0.00389  -0.00405   2.11214
   A35        2.09977  -0.00149   0.00000  -0.00728  -0.00720   2.09257
   A36        2.06722   0.00359   0.00000   0.01117   0.01125   2.07847
   A37        2.09858  -0.00075   0.00000   0.00148   0.00139   2.09997
   A38        2.09236   0.00075   0.00000   0.00064   0.00069   2.09305
   A39        2.09224  -0.00001   0.00000  -0.00212  -0.00208   2.09016
   A40        2.10139  -0.01279   0.00000  -0.03402  -0.03395   2.06745
   A41        2.07215   0.01017   0.00000   0.03073   0.03069   2.10285
   A42        2.10964   0.00262   0.00000   0.00329   0.00325   2.11289
   A43        2.07932   0.01998   0.00000   0.05241   0.05257   2.13189
   A44        2.10567  -0.01167   0.00000  -0.03058  -0.03066   2.07501
   A45        2.09819  -0.00831   0.00000  -0.02183  -0.02191   2.07628
   A46        2.10372  -0.00917   0.00000  -0.02388  -0.02388   2.07984
   A47        2.10645  -0.01130   0.00000  -0.02943  -0.02943   2.07702
   A48        2.07301   0.02047   0.00000   0.05331   0.05331   2.12632
    D1       -3.12078  -0.00062   0.00000  -0.00415  -0.00420  -3.12498
    D2        1.04985  -0.00046   0.00000  -0.00432  -0.00437   1.04549
    D3       -1.02175  -0.00025   0.00000  -0.00104  -0.00108  -1.02283
    D4        1.06141   0.00031   0.00000   0.00198   0.00202   1.06343
    D5       -1.05114   0.00047   0.00000   0.00181   0.00185  -1.04929
    D6       -3.12274   0.00068   0.00000   0.00509   0.00513  -3.11761
    D7       -1.02616  -0.00036   0.00000  -0.00239  -0.00238  -1.02854
    D8       -3.13871  -0.00020   0.00000  -0.00256  -0.00255  -3.14126
    D9        1.07288   0.00001   0.00000   0.00072   0.00073   1.07361
   D10        3.13390  -0.00007   0.00000  -0.00004  -0.00004   3.13386
   D11        1.03162  -0.00019   0.00000  -0.00198  -0.00196   1.02966
   D12       -1.04645   0.00014   0.00000   0.00230   0.00228  -1.04417
   D13       -1.04315   0.00129   0.00000   0.00828   0.00826  -1.03489
   D14        3.13775   0.00116   0.00000   0.00635   0.00635  -3.13908
   D15        1.05968   0.00150   0.00000   0.01062   0.01059   1.07028
   D16        1.04234  -0.00129   0.00000  -0.00841  -0.00840   1.03395
   D17       -1.05994  -0.00141   0.00000  -0.01034  -0.01031  -1.07025
   D18       -3.13801  -0.00108   0.00000  -0.00607  -0.00607   3.13911
   D19       -3.14066  -0.00008   0.00000  -0.00056  -0.00056  -3.14122
   D20        0.00072   0.00000   0.00000   0.00025   0.00024   0.00097
   D21       -1.03997   0.00101   0.00000   0.00610   0.00611  -1.03386
   D22        2.10142   0.00109   0.00000   0.00691   0.00691   2.10833
   D23        1.03950  -0.00107   0.00000  -0.00686  -0.00686   1.03263
   D24       -2.10230  -0.00099   0.00000  -0.00605  -0.00606  -2.10836
   D25       -0.00023  -0.00002   0.00000  -0.00018  -0.00018  -0.00040
   D26        3.14095   0.00009   0.00000   0.00084   0.00084  -3.14139
   D27        3.14157  -0.00010   0.00000  -0.00098  -0.00099   3.14058
   D28       -0.00043   0.00001   0.00000   0.00003   0.00003  -0.00040
   D29       -3.14146  -0.00033   0.00000  -0.00308  -0.00308   3.13864
   D30        0.00014  -0.00018   0.00000  -0.00167  -0.00165  -0.00151
   D31       -0.00029  -0.00021   0.00000  -0.00204  -0.00205  -0.00234
   D32        3.14131  -0.00007   0.00000  -0.00062  -0.00062   3.14069
   D33        0.18671  -0.00047   0.00000  -0.00502  -0.00506   0.18166
   D34       -2.95480  -0.00076   0.00000  -0.00791  -0.00789  -2.96269
   D35       -2.95489  -0.00061   0.00000  -0.00643  -0.00646  -2.96134
   D36        0.18679  -0.00091   0.00000  -0.00933  -0.00929   0.17750
   D37        3.14155  -0.00067   0.00000  -0.00642  -0.00640   3.13516
   D38       -0.00031  -0.00063   0.00000  -0.00603  -0.00602  -0.00633
   D39       -0.00012  -0.00038   0.00000  -0.00352  -0.00352  -0.00364
   D40        3.14121  -0.00033   0.00000  -0.00312  -0.00314   3.13806
   D41       -3.14145   0.00058   0.00000   0.00558   0.00561  -3.13584
   D42       -0.00003   0.00053   0.00000   0.00504   0.00509   0.00506
   D43        0.00022   0.00031   0.00000   0.00289   0.00291   0.00312
   D44       -3.14155   0.00025   0.00000   0.00235   0.00239  -3.13916
   D45       -0.00006   0.00009   0.00000   0.00084   0.00081   0.00076
   D46        3.14152   0.00009   0.00000   0.00087   0.00086  -3.14081
   D47       -3.14140   0.00005   0.00000   0.00047   0.00046  -3.14094
   D48        0.00018   0.00005   0.00000   0.00050   0.00050   0.00068
   D49       -0.00014   0.00005   0.00000   0.00045   0.00052   0.00038
   D50        3.14145   0.00012   0.00000   0.00108   0.00113  -3.14060
   D51       -3.14156   0.00010   0.00000   0.00098   0.00103  -3.14052
   D52        0.00003   0.00017   0.00000   0.00161   0.00165   0.00168
   D53       -0.00005  -0.00035   0.00000  -0.00325  -0.00321  -0.00325
   D54       -3.14157   0.00005   0.00000   0.00042   0.00046  -3.14111
   D55        3.14155  -0.00042   0.00000  -0.00387  -0.00382   3.13773
   D56        0.00003  -0.00002   0.00000  -0.00021  -0.00016  -0.00013
   D57        0.00014   0.00028   0.00000   0.00259   0.00257   0.00271
   D58       -3.14144   0.00027   0.00000   0.00256   0.00252  -3.13891
   D59       -3.14152  -0.00012   0.00000  -0.00116  -0.00111   3.14055
   D60        0.00009  -0.00013   0.00000  -0.00119  -0.00116  -0.00107
   D61       -0.71453   0.00277   0.00000   0.02818   0.02817  -0.68635
   D62        2.42698   0.00317   0.00000   0.03230   0.03229   2.45928
   D63        2.42705   0.00277   0.00000   0.02821   0.02822   2.45527
   D64       -0.71462   0.00318   0.00000   0.03233   0.03234  -0.68229
         Item               Value     Threshold  Converged?
 Maximum Force            0.122693     0.000450     NO 
 RMS     Force            0.016376     0.000300     NO 
 Maximum Displacement     0.264195     0.001800     NO 
 RMS     Displacement     0.059247     0.001200     NO 
 Predicted change in Energy=-3.618616D-02
 GradGradGradGradGradGradGradGradGradGradGradGradGradGradGradGradGradGrad

                          Input orientation:                          
 ---------------------------------------------------------------------
 Center     Atomic      Atomic             Coordinates (Angstroms)
 Number     Number       Type             X           Y           Z
 ---------------------------------------------------------------------
      1          6           0       11.933582    0.049898   -7.471312
      2          6           0       10.794596   -0.243315   -6.494430
      3          6           0       10.641228    0.888624   -5.482735
      4          7           0        9.550974    0.605546   -4.566655
      5          6           0        9.225178    1.477762   -3.572727
      6          8           0        9.834628    2.530775   -3.410646
      7          7           0        8.173404    1.096813   -2.769752
      8          6           0        7.645744    1.812675   -1.678946
      9          6           0        7.994734    3.133042   -1.382853
     10          6           0        6.720362    1.151846   -0.858887
     11          6           0        6.146785    1.792109    0.236304
     12          6           0        6.483874    3.105144    0.536239
     13          6           0        7.407038    3.756922   -0.279950
     14          1           0       12.026806   -0.760753   -8.206321
     15          1           0       12.890351    0.144561   -6.937780
     16          1           0       10.995678   -1.187159   -5.962777
     17          1           0        9.855486   -0.357071   -7.059227
     18          1           0       10.437630    1.832615   -6.011398
     19          1           0       11.575380    1.006733   -4.912387
     20          1           0        9.030125   -0.261685   -4.679114
     21          1           0        8.705208    3.684513   -1.981947
     22          1           0        6.441497    0.124747   -1.075730
     23          1           0        5.434035    1.264116    0.858915
     24          7           0        7.762266    5.099707    0.019087
     25          1           0        6.038944    3.606421    1.389143
     26          8           0        8.958109    5.460909   -0.114397
     27          8           0        6.870227    5.892714    0.414597
     28          1           0       11.739152    0.981156   -7.998084
     29          1           0        7.725259    0.218718   -2.968471
 ---------------------------------------------------------------------
                    Distance matrix (angstroms):
                    1          2          3          4          5
     1  C    0.000000
     2  C    1.528909   0.000000
     3  C    2.515568   1.525888   0.000000
     4  N    3.797710   2.446115   1.451892   0.000000
     5  C    4.957138   3.736513   2.449574   1.361909   0.000000
     6  O    5.200901   4.257563   2.764203   2.263476   1.227410
     7  N    6.110617   4.747612   3.673387   2.316874   1.376997
     8  C    7.419194   6.109930   4.929057   3.664140   2.488611
     9  C    7.879697   6.735520   5.371254   4.352782   3.008237
    10  C    8.492121   7.092616   6.068150   4.696632   3.707459
    11  C    9.794369   8.428991   7.329646   6.005402   4.907549
    12  C   10.156511   8.900832   7.643598   6.457137   5.200646
    13  C    9.270777   8.130019   6.764324   5.736155   4.398020
    14  H    1.098218   2.171786   3.472491   4.609087   5.859203
    15  H    1.099556   2.176969   2.780169   4.121429   5.151165
    16  H    2.164637   1.101785   2.159850   2.692604   3.993596
    17  H    2.157295   1.101755   2.157424   2.689289   3.989936
    18  H    2.747235   2.161072   1.100934   2.092639   2.746466
    19  H    2.755347   2.162199   1.100857   2.092535   2.745907
    20  H    4.040237   2.531614   2.136509   1.017851   2.070704
    21  H    7.332527   6.336867   4.880644   4.108050   2.769603
    22  H    8.430426   6.960406   6.135385   4.699636   3.976748
    23  H   10.635371   9.223863   8.214157   6.842493   5.835911
    24  N    9.950202   8.953704   7.502779   6.665283   5.306574
    25  H   11.220663   9.979349   8.705753   7.537316   6.269245
    26  O    9.605034   8.753039   7.249672   6.614276   5.281746
    27  O   11.043715  10.039232   8.604644   7.742960   6.398152
    28  H    1.087443   2.156963   2.746085   4.087042   5.113753
    29  H    6.165554   4.697519   3.908090   2.457043   2.049408
                    6          7          8          9         10
     6  O    0.000000
     7  N    2.286188   0.000000
     8  C    2.881955   1.407387   0.000000
     9  C    2.803547   2.470149   1.397439   0.000000
    10  C    4.255769   2.401200   1.401971   2.413234   0.000000
    11  C    5.238899   3.691476   2.432177   2.799051   1.392254
    12  C    5.209160   4.221075   2.815575   2.442620   2.411986
    13  C    4.147033   3.723252   2.407128   1.396785   2.755560
    14  H    6.215971   6.917770   8.271811   8.830569   9.262891
    15  H    5.241387   6.366226   7.612085   7.984691   8.719881
    16  H    4.656656   4.834994   6.210657   6.974633   7.056838
    17  H    4.653197   4.831437   6.207913   6.918418   7.109856
    18  H    2.759520   4.021989   5.154140   5.392798   6.389827
    19  H    2.758287   4.021497   5.152351   5.458921   6.326382
    20  H    3.170815   2.495026   3.901344   4.843711   4.682649
    21  H    2.155895   2.756744   2.172108   1.080651   3.408119
    22  H    4.770130   2.610388   2.159440   3.399516   1.086149
    23  H    6.260894   4.549654   3.410764   3.882729   2.148973
    24  N    4.759954   4.895898   3.701550   2.426366   4.176363
    25  H    6.213067   5.305700   3.900321   3.425371   3.397486
    26  O    4.496580   5.168366   4.180877   2.820646   4.912210
    27  O    5.892605   5.902458   4.650922   3.480106   4.911217
    28  H    5.203184   6.329565   7.574887   7.900162   8.728432
    29  H    3.160785   1.005672   2.051803   3.328676   2.516126
                   11         12         13         14         15
    11  C    0.000000
    12  C    1.388399   0.000000
    13  C    2.390658   1.393991   0.000000
    14  H   10.600456  11.049959  10.226387   0.000000
    15  H    9.982864  10.279541   9.351073   1.781713   0.000000
    16  H    8.415249   9.000969   8.343668   2.505701   2.512746
    17  H    8.461573   9.002545   8.299303   2.488657   3.078440
    18  H    7.579365   7.753906   6.762909   3.750830   3.118261
    19  H    7.522997   7.746889   6.811614   3.765341   2.564119
    20  H    6.057479   6.709608   6.175456   4.655143   4.490874
    21  H    3.879092   3.407529   2.141794   8.338839   7.389652
    22  H    2.142052   3.388658   3.841644   9.100830   8.715030
    23  H    1.083712   2.143750   3.376957  11.390488  10.846128
    24  N    3.687434   2.424874   1.420803  10.963057   9.962365
    25  H    2.152300   1.084752   2.163377  12.124340  11.325365
    26  O    4.635368   3.477757   2.310152  10.658575   9.501823
    27  O    4.167748   2.816845   2.309149  12.049031  11.105882
    28  H    9.986860  10.245191   9.275865   1.777738   1.774653
    29  H    3.903553   4.706962   4.455143   6.848192   6.514529
                   16         17         18         19         20
    16  H    0.000000
    17  H    1.786417   0.000000
    18  H    3.071289   2.496310   0.000000
    19  H    2.500507   3.070329   1.784484   0.000000
    20  H    2.523428   2.520964   2.853444   2.853353   0.000000
    21  H    6.695256   6.590624   4.761017   4.898558   4.790904
    22  H    6.807708   6.905774   6.576223   6.469513   4.453617
    23  H    9.136525   9.212733   8.518236   8.431506   6.777145
    24  N    9.260795   9.179354   7.361943   7.457326   7.240517
    25  H   10.079600  10.082173   8.789927   8.781787   7.793148
    26  O    9.085816   9.104112   7.080122   7.050568   7.320514
    27  O   10.383393  10.189683   8.396677   8.624850   8.275729
    28  H    3.065423   2.494094   2.523066   3.090146   4.460835
    29  H    4.651666   4.647976   4.384179   4.384428   2.204486
                   21         22         23         24         25
    21  H    0.000000
    22  H    4.314806   0.000000
    23  H    4.962800   2.460892   0.000000
    24  N    2.626033   5.262441   4.564836   0.000000
    25  H    4.298756   4.284822   2.476581   2.660224   0.000000
    26  O    2.589843   5.977636   5.565924   1.256314   3.771111
    27  O    3.739884   5.972799   4.866620   1.257387   2.620668
    28  H    7.259949   8.758857  10.875707   9.851554  11.291785
    29  H    3.734336   2.288962   4.581643   5.722843   5.771394
                   26         27         28         29
    26  O    0.000000
    27  O    2.196711   0.000000
    28  H    9.484457  10.890502   0.000000
    29  H    6.094771   6.661116   6.479942   0.000000
 Stoichiometry    C10H13N3O3
 Framework group  C1[X(C10H13N3O3)]
 Deg. of freedom    81
 Full point group                 C1      NOp   1
 Largest Abelian subgroup         C1      NOp   1
 Largest concise Abelian subgroup C1      NOp   1
                         Standard orientation:                         
 ---------------------------------------------------------------------
[...]
 000228,-0.00001525,-0.00000440,0.00002106,0.00002658,-0.00000772,-0.00
 006079,-0.00005705,0.00002949,0.00021359,-0.00003646,-0.00021831,-0.00
 051446,-0.00031542,0.00004339,0.00013188,0.00011612,-0.00000784,0.0012
 5826,0.00077908,-0.00066276,0.00375076,-0.00439030,0.00000098,-0.00047
 463,-0.00057413,-0.00076804,0.01736066,0.01285375,-0.00818609,0.115402
 25,0.06730084,-0.12934298,-0.00732908,-0.00547588,0.00893620,0.0019537
 1,-0.00327396,0.00243427,0.00000556,-0.00000152,-0.00000606,-0.0000008
 5,0.00000108,0.00000082,-0.00000030,-0.00000041,0.00000181,-0.00000396
 ,-0.00000263,-0.00000228,0.00001006,0.00000854,-0.00001544,0.00000249,
 0.00000289,-0.00000288,0.00000827,0.00002763,0.00001364,-0.00026060,0.
 00020472,-0.00019731,-0.00233440,0.00120418,-0.00084865,-0.12687846,-0
 .06938473,0.12937831,0.00001936,0.00001937,0.00000290,-0.00003672,-0.0
 0002362,0.00004748,0.00018648,0.00014233,-0.00012344,-0.00055863,-0.00
 027591,0.00039703,0.00313972,0.00248946,-0.00121511,-0.00125468,-0.001
 97592,-0.00017130,-0.00150519,0.00084638,0.00264198,0.00499619,0.00106
 158,0.00575871,0.00954412,0.00838082,-0.00914490,-0.00283589,0.0010077
 8,0.00175732,-0.00023453,-0.00418864,0.00815854,-0.00687888,-0.0239034
 3,-0.01166321,-0.09824894,-0.01551655,0.01171652,-0.00000727,-0.000015
 10,0.00000093,-0.00002649,0.00000794,-0.00000478,0.00001878,-0.0000158
 3,0.00000231,-0.00002054,-0.00001158,-0.00002526,-0.00001638,-0.000015
 45,0.00008797,-0.00005041,0.00001864,0.00001057,0.00000401,-0.00004731
 ,-0.00010361,-0.00407947,0.00194890,0.00029628,-0.00071451,0.00026078,
 -0.00016736,0.00027011,-0.00119575,-0.00027670,0.61731026,0.00003217,0
 .00010389,0.00001346,-0.00009444,-0.00015470,0.00006418,0.00068401,0.0
 0026429,-0.00044647,-0.00131653,0.00091227,0.00163765,0.00426744,0.001
 08886,-0.00347716,-0.00194280,-0.00096694,0.00118341,-0.00401267,0.000
 26586,0.00421377,0.00373402,0.00507496,-0.00730999,0.00318172,-0.02761
 410,-0.02024554,0.00077391,0.00110380,0.00108814,-0.00431933,0.0067798
 1,0.00365124,-0.01812256,-0.02947175,0.00378156,-0.01587689,-0.1284412
 8,-0.01354711,-0.00004318,0.00001409,0.00005184,-0.00002565,-0.0000104
 8,-0.00001532,0.00002884,-0.00001361,-0.00000382,-0.00001286,0.0000132
 3,-0.00001567,-0.00009279,-0.00008127,0.00019645,-0.00004529,-0.000010
 28,0.00001616,0.00000344,-0.00019458,-0.00008717,0.00034184,-0.0004132
 8,0.00257617,0.00022596,-0.00016793,0.00032687,0.00025564,0.00041579,-
 0.00049836,0.14030799,0.63756235,0.00000556,0.00004618,0.00001515,-0.0
 0001031,-0.00008043,-0.00000820,0.00024630,0.00002232,-0.00016372,-0.0
 0016491,0.00097726,0.00068737,-0.00084480,-0.00221082,-0.00099794,0.00
 012740,0.00171133,0.00097182,-0.00020133,-0.00096197,0.00019695,0.0073
 3972,-0.00425743,-0.00231338,-0.01262471,-0.02622406,-0.00541784,0.001
 67067,0.00074040,-0.00332636,0.00809169,0.00361447,0.00195549,-0.00806
 847,0.01027558,0.01313064,0.01127266,-0.01410251,-0.10230571,-0.000020
 61,0.00002802,0.00003527,0.00000931,-0.00001946,-0.00000442,-0.0000047
 3,0.00001888,-0.00000858,0.00000868,0.00001932,0.00001772,-0.00004909,
 -0.00002765,0.00001585,0.00002664,-0.00003740,-0.00000964,-0.00000872,
 -0.00010933,0.00009327,-0.00044112,0.00065817,-0.00371355,-0.00018799,
 0.00026290,-0.00061216,0.00069040,0.00118240,0.00070479,-0.36805433,0.
 10144119,0.74831679,0.00000039,0.00000058,0.00000004,0.00000444,-0.000
 00052,0.00000117,0.00001997,-0.00000285,0.00000821,0.00005874,0.000023
 96,0.00005743,-0.00026644,-0.00014822,-0.00010335,-0.00004100,0.000204
 59,0.00007236,-0.00007809,0.00030140,-0.00053044,-0.00073871,-0.000341
 62,-0.00037967,-0.00011015,-0.00460239,0.00308341,0.00298821,-0.003919
 65,0.00199759,0.00853227,-0.00488149,-0.00883117,-0.09824528,0.0502322
 6,0.10691044,-0.00429885,0.01112106,0.01703845,-0.00000011,-0.00000010
 ,0.00000038,-0.00000123,-0.00000064,-0.00000012,-0.00000072,0.00000248
 ,-0.00000008,-0.00000176,-0.00000049,-0.00000030,-0.00000447,0.0000026
 4,-0.00000202,-0.00000038,-0.00000523,-0.00000722,0.00000463,-0.000006
 66,0.00002461,0.00038085,0.00042868,0.00103396,0.00029324,-0.00029708,
 -0.00046218,-0.00178874,0.00172555,-0.00179463,-0.00335496,0.00277335,
 0.00061128,0.09483171,0.00000086,0.00000321,0.00000063,-0.00000312,-0.
 00000541,0.00000037,0.00001492,0.00000688,-0.00002208,-0.00003825,0.00
 009866,0.00004139,0.00004101,-0.00018676,-0.00009099,-0.00005053,0.000
 14507,0.00017656,0.00025364,0.00016017,0.00032060,-0.00032482,-0.00117
 262,0.00017720,-0.00395904,-0.00085194,0.00069868,-0.00398013,-0.00306
 368,-0.00201600,0.01226006,-0.00679983,-0.02155680,0.05136642,-0.11619
 969,-0.11413151,-0.00498745,0.01159823,0.01104307,-0.00000138,0.000000
 34,0.00000145,0.00000015,0.00000003,-0.00000055,0.00000042,-0.00000106
 ,-0.00000006,0.00000065,0.00000138,0.00000110,-0.00000109,-0.00000494,
 0.00000630,0.00000148,0.00000241,0.00000373,-0.00000712,-0.00000332,0.
 00000090,-0.00038794,0.00077252,0.00035216,0.00059509,-0.00040781,-0.0
 0101641,0.00138908,0.00042903,0.00154989,0.00105597,-0.00044694,0.0014
 9579,-0.05176997,0.11937397,0.00000027,0.00000087,0.00000095,-0.000000
 02,-0.00000196,-0.00000009,0.00001736,-0.00000725,0.00000964,-0.000012
 49,-0.00002190,0.00005256,0.00019956,0.00031045,-0.00016917,0.00000815
 ,-0.00020305,-0.00018663,-0.00051103,0.00029345,0.00010204,-0.00047390
 ,0.00024394,-0.00021737,0.00353223,0.00124613,0.00176681,0.00192383,-0
 .00197563,0.00329542,0.00264989,-0.00140454,-0.00025962,0.10774668,-0.
 11284104,-0.23881506,0.00611555,-0.00778700,-0.00857833,-0.00000022,0.
 00000026,0.00000059,-0.00000065,-0.00000057,-0.00000006,-0.00000037,0.
 00000157,-0.00000067,-0.00000071,-0.00000131,-0.00000106,-0.00000631,0
 .00000407,0.00000307,-0.00000455,-0.00000248,-0.00000334,0.00000512,-0
 .00001850,0.00000995,0.00038075,-0.00064141,0.00006420,0.00013777,0.00
 004384,-0.00006371,-0.00202702,0.00113470,-0.00114790,-0.00063799,-0.0
 0066594,-0.00419073,-0.11650495,0.12405837,0.24603697,-0.00001370,-0.0
 0001518,-0.00000234,0.00002621,0.00001741,-0.00003097,-0.00014821,-0.0
 0008345,0.00006634,0.00038795,0.00013229,-0.00026905,-0.00203975,-0.00
 153821,0.00079091,0.00094701,0.00099251,-0.00008107,0.00144757,-0.0001
 6659,-0.00155955,-0.00100397,0.00017022,0.00024082,-0.00119804,0.00257
 078,0.00514584,0.00006607,0.00004955,0.00033624,-0.00103165,-0.0012531
 1,-0.00115954,0.00387381,-0.00245201,-0.00226781,-0.01332119,-0.033445
 05,0.01625000,0.00000566,0.00000994,-0.00000127,0.00001967,-0.00000471
 ,0.00000357,-0.00001300,0.00000758,-0.00000202,0.00001538,0.00000880,0
 .00001761,0.00001239,0.00001093,-0.00005559,0.00003629,-0.00001388,-0.
 00000890,-0.00000992,0.00003460,0.00006097,0.00072141,-0.00082723,-0.0
 0126390,0.00016884,-0.00005905,-0.00016740,-0.00035776,-0.00032939,-0.
 00028351,-0.33631182,-0.18201542,0.19033459,0.00105880,0.00080739,-0.0
 0022306,0.38576045,-0.00001636,-0.00004938,-0.00000475,0.00004775,0.00
 007226,-0.00004043,-0.00032226,-0.00015216,0.00022924,0.00067087,-0.00
 037563,-0.00080119,-0.00236890,-0.00077837,0.00179443,0.00110586,0.000
 74841,-0.00060634,0.00171185,-0.00038329,-0.00218221,-0.00110784,0.001
 55628,0.00305883,-0.00274300,-0.00381575,-0.00029537,-0.00099660,-0.00
 055426,0.00055091,-0.00145987,-0.00284802,0.00059706,0.00226367,-0.003
 67275,-0.00719445,-0.04452643,-0.02844385,0.02191546,0.00001966,-0.000
 00075,-0.00002115,0.00001593,0.00000098,0.00000765,-0.00001601,0.00001
 225,0.00000028,0.00000864,-0.00000473,0.00001111,0.00004208,0.00004099
 ,-0.00010893,0.00002744,-0.00000188,-0.00000948,0.00000516,0.00008260,
 0.00005702,-0.00241451,-0.00416986,-0.00006198,-0.00007288,-0.00016876
 ,-0.00008253,-0.00017345,-0.00092803,-0.00016591,-0.17619043,-0.242103
 62,0.10319516,0.00010106,0.00060826,0.00007668,0.21752062,0.23694776,-
 0.00000131,-0.00001375,-0.00000843,-0.00000214,0.00002750,0.00001213,-
 0.00006522,0.00001901,0.00002708,-0.00000800,-0.00038715,-0.00019320,0
 .00070330,0.00120129,0.00023651,-0.00017879,-0.00078212,-0.00028262,-0
 .00046503,-0.00011601,0.00046173,-0.00058135,0.00154290,0.00077540,0.0
 0157337,-0.00677778,-0.00464648,-0.00038146,-0.00064080,0.00034140,-0.
 00122384,0.00039131,0.00044858,0.00081381,-0.00160299,0.00126337,0.009
 00720,0.00859171,0.01381488,0.00000682,-0.00001308,-0.00001319,-0.0000
 0636,0.00000931,0.00000074,0.00000604,-0.00001464,0.00000401,-0.000005
 35,-0.00000709,-0.00000995,0.00001720,0.00000466,0.00001666,-0.0000159
 1,0.00001817,0.00000387,0.00000020,0.00004984,-0.00005055,-0.00241746,
 -0.00183908,0.00150769,-0.00017481,-0.00008682,0.00021245,-0.00016232,
 0.00005559,-0.00017108,0.19403417,0.11020006,-0.23933526,-0.00078564,-
 0.00082182,0.00068920,-0.28634468,-0.12320850,0.29283007,-0.00000569,0
 .00000358,-0.00000033,0.00000690,-0.00000653,-0.00001284,-0.00000423,-
 0.00003463,0.00001290,0.00009934,0.00020091,0.00000671,-0.00089311,-0.
 00095933,0.00018135,0.00034985,0.00073804,0.00017093,0.00046327,-0.000
 09613,-0.00079755,-0.00011775,0.00059567,-0.00063638,0.00088576,-0.001
 82938,0.00064804,0.00055287,-0.00057679,-0.00075095,0.00083191,0.00154
 500,-0.00068293,-0.00375283,-0.00628799,0.00185856,0.01725113,0.003322
 97,0.00499113,-0.00000174,0.00000857,0.00000544,0.00000931,-0.00000514
 ,0.00000107,-0.00000537,0.00000621,-0.00000171,0.00000817,0.00000693,0
 .00000985,-0.00000455,-0.00000236,-0.00002022,0.00001801,-0.00001221,-
 0.00000356,-0.00000382,-0.00000087,0.00002809,0.00050621,-0.00087097,-
 0.00059341,0.00012238,-0.00005605,-0.00019839,0.00002410,0.00009565,0.
 00005369,-0.17923308,0.07125015,0.17015306,0.00072422,-0.00216182,-0.0
 0235209,-0.03909564,0.00881989,0.08661117,0.20129623,-0.00001580,-0.00
 005918,-0.00001113,0.00004833,0.00009404,-0.00002581,-0.00037389,-0.00
 012197,0.00023939,0.00067702,-0.00064874,-0.00094885,-0.00194272,-0.00
 009298,0.00195028,0.00081854,0.00013496,-0.00064097,0.00137650,-0.0011
 2632,-0.00211940,-0.00090838,-0.00171804,0.00057389,-0.00603360,-0.003
 80992,0.00287315,0.00101012,-0.00072913,-0.00177154,0.00112991,0.00063
 419,-0.00049568,-0.00095640,-0.00408658,-0.00256691,0.01434463,-0.0258
 8049,-0.04795934,0.00002515,-0.00001417,-0.00003280,0.00000691,0.00001
 012,0.00000726,-0.00001063,0.00000019,0.00000477,0.00000073,-0.0000119
 8,0.00000070,0.00005827,0.00004372,-0.00009365,0.00001386,0.00001655,-
 0.00000827,0.00000618,0.00012569,0.00002960,-0.00024290,0.00056804,0.0
 0028243,0.00002005,-0.00015484,-0.00013454,-0.00018453,-0.00019389,0.0
 0006463,0.06578089,-0.22328344,-0.17749115,-0.00092931,-0.00407552,-0.
 00178964,-0.00016226,0.04830846,0.01419418,-0.07372655,0.21603276,-0.0
 0000845,-0.00004281,-0.00001270,0.00002203,0.00007312,-0.00000420,-0.0
 0023669,-0.00005212,0.00015913,0.00031854,-0.00068167,-0.00066184,-0.0
 0019613,0.00106781,0.00117459,0.00013859,-0.00079075,-0.00058330,0.000
 05604,-0.00053399,-0.00067721,-0.00154245,-0.00122661,0.00011917,-0.00
 229951,-0.00203852,0.00355403,0.00026252,0.00006859,-0.00006443,-0.000
 95207,-0.00104832,-0.00017055,0.00553781,0.00389710,-0.00252916,0.0125
 0067,-0.03472397,-0.01886142,0.00001864,-0.00001981,-0.00002930,-0.000
 00407,0.00001430,0.00000408,-0.00000017,-0.00001148,0.00000669,-0.0000
 0570,-0.00001456,-0.00000946,0.00004536,0.00002702,-0.00003416,-0.0000
 1049,0.00002909,0.00000017,0.00000162,0.00009900,-0.00002894,-0.000233
 82,0.00117037,0.00138006,-0.00015448,-0.00002797,0.00013175,-0.0001285
 2,-0.00024744,0.00000229,0.16649569,-0.18400129,-0.40343423,-0.0015378
 0,-0.00033929,0.00154649,0.08047294,0.00331492,-0.06791552,-0.25862404
 ,0.21599576,0.48705160,-0.07252013,0.05775624,-0.05098327,0.00772971,-
 0.01894261,0.01657598,0.00087290,-0.00107868,-0.00008776,-0.00017891,0
 .00021621,-0.00028662,0.00004014,0.00004970,-0.00014812,0.00001928,0.0
 0001790,0.00003742,-0.00001019,-0.00003376,-0.00001282,0.00000535,0.00
 000332,0.00000156,-0.00000400,0.00000190,-0.00000014,-0.00000001,-0.00
 000195,-0.00000254,-0.00000083,0.00000153,0.00000023,-0.00000045,-0.00
 000076,0.00000014,0.00000053,-0.00000103,0.00000009,-0.00280538,0.0035
 1039,-0.00392222,-0.00752675,0.02137819,-0.01615143,-0.00319259,-0.000
 72119,0.00406171,0.00114775,-0.00012298,-0.00085425,-0.00002904,0.0004
 3308,-0.00018690,-0.00002605,0.00018699,-0.00003306,0.00010337,-0.0001
 1643,0.00006443,0.00000264,0.00000091,-0.00000090,0.00000106,-0.000000
 86,0.00000067,0.00000010,-0.00000020,0.00000019,0.00000646,0.00000686,
 -0.00000325,0.00000032,0.00000012,0.00000014,-0.00000412,-0.00000468,0
 .00000224,-0.00000236,-0.00000175,0.00000186,0.07636378,0.05727117,-0.
 18989413,0.12165793,0.00132825,-0.00483989,0.00345853,0.00017309,0.000
 55434,-0.00089687,-0.00007511,0.00024763,-0.00014481,0.00004626,-0.000
 04667,-0.00018597,-0.00003784,0.00005604,0.00008679,-0.00009794,0.0000
 3475,0.00012224,0.00003112,-0.00005781,-0.00005904,-0.00000424,0.00002
 207,0.00000970,-0.00001499,0.00000460,0.00001409,0.00000017,0.00000072
 ,-0.00000360,-0.00000845,0.00000349,0.00001002,0.00000693,-0.00000240,
 -0.00000421,0.00793958,-0.01853515,0.01760262,-0.00257371,0.00831855,-
 0.00729812,-0.00131414,0.00080446,0.00047898,-0.00017761,-0.00007247,-
 0.00013317,0.00003706,0.00047303,0.00025883,-0.00009577,-0.00005596,-0
 .00002302,0.00007041,-0.00008562,0.00004240,0.00000536,-0.00000849,-0.
 00000466,0.00000442,-0.00000020,0.00000071,-0.00000050,-0.00000074,0.0
 0000223,0.00000066,-0.00002317,-0.00001269,0.00000072,-0.00000096,0.00
 000061,-0.00000093,0.00000990,0.00000344,-0.00000325,0.00001404,0.0000
 1070,-0.06252856,0.20308582,-0.05019214,0.12139970,-0.15418479,-0.0070
 2170,0.01590229,-0.01471443,-0.00089755,0.00147769,-0.00000980,0.00015
 602,-0.00071579,0.00040825,0.00005522,0.00007060,0.00015473,-0.0000457
 3,-0.00014572,-0.00002341,-0.00001269,-0.00000161,-0.00000583,-0.00001
 947,0.00001180,0.00000245,0.00000860,-0.00000351,0.00000372,0.00000823
 ,0.00000358,-0.00000092,0.00000039,-0.00000079,0.00000413,0.00000086,-
 0.00000257,-0.00000125,-0.00000294,-0.00000581,-0.00000484,0.00561180,
 -0.01309746,0.01287934,-0.00374702,0.01075923,-0.00940995,0.00397772,0
 .00037266,-0.00212353,-0.00008906,-0.00047156,0.00099882,0.00046494,-0
 .00072957,-0.00020323,0.00001277,-0.00001347,-0.00003698,-0.00016636,0
 .00015778,0.00001864,-0.00000201,0.00000758,-0.00000680,-0.00000440,-0
 .00000037,-0.00000180,-0.00000121,0.00000078,-0.00000032,0.00001940,0.
 00002154,-0.00001432,-0.00000088,0.00000089,-0.00000102,-0.00001223,-0
 .00001587,0.00001123,-0.00000695,-0.00000466,0.00000771,0.05191987,-0.
 13499610,0.16625498,-0.00002644,-0.00005303,-0.00003044,0.00012204,0.0
 0009262,0.00003951,-0.00086895,0.00049122,0.00006706,-0.00018553,0.000
 91843,-0.00133755,-0.00976296,-0.02537477,-0.01147305,-0.00262894,-0.0
 0235054,0.00605758,-0.10104694,-0.14974471,0.00206192,0.00622690,0.014
 04274,-0.00017444,-0.00071344,0.00139037,0.00384304,0.00036557,0.00309
 341,0.00087672,-0.00064414,0.00008151,-0.00029635,-0.00025311,-0.00014
 233,0.00024299,0.00118642,-0.00002571,-0.00005912,0.00002879,-0.000011
 96,-0.00002323,-0.00000197,0.00000069,0.00000535,-0.00004650,0.0000315
 9,0.00000433,-0.00002986,-0.00000813,-0.00000423,0.00028568,0.00013659
 ,-0.00036956,0.00009031,-0.00003851,-0.00006470,0.00039494,-0.00051152
 ,0.00279759,-0.00027508,0.00000780,-0.00008974,-0.00048708,-0.00112427
 ,0.00112168,-0.00000837,-0.00001607,0.00004221,-0.00012711,0.00005306,
 0.00009642,0.00003309,-0.00011461,0.00003804,0.00000125,0.00005273,0.0
 0004412,-0.00002949,0.00017162,0.00006209,0.00000743,0.00001782,-0.000
 01348,0.10839348,0.00000121,-0.00008881,-0.00003244,0.00009701,0.00013
 914,-0.00006510,-0.00044850,-0.00021659,0.00051892,0.00186757,-0.00098
 112,-0.00132187,-0.00052571,-0.00522885,0.00032367,-0.00046005,0.00309
 909,-0.00079432,-0.15538736,-0.37236921,-0.07413463,-0.00381108,-0.014
 16816,-0.00325215,0.00106666,0.00163997,-0.00129622,-0.00088521,0.0017
 8876,0.00300880,0.00033775,-0.00060861,-0.00025497,0.00004357,0.000532
 58,0.00030319,-0.00093300,-0.00027339,0.00002316,0.00002385,-0.0000029
 9,-0.00003098,-0.00000507,0.00000459,0.00000401,0.00004122,-0.00003018
 ,0.00002844,-0.00002584,0.00002441,-0.00001087,0.00000552,-0.00001285,
 -0.00004706,0.00013824,0.00006931,0.00001025,0.00013291,0.00165217,-0.
 00007019,-0.00001289,-0.00003356,0.00021985,-0.00023110,0.00036146,0.0
 0019620,-0.00005998,0.00000966,0.00004986,0.00004601,-0.00020188,-0.00
 015446,-0.00001209,0.00002033,-0.00005274,0.00003385,0.00006293,0.0000
 0262,0.00003644,0.00002442,0.00003284,-0.00000790,-0.00000580,0.000018
 76,0.15893396,0.38479319,-0.00001108,0.00002989,-0.00001587,0.00002114
 ,-0.00004960,0.00010019,-0.00071909,0.00024484,-0.00058296,0.00241087,
 -0.00019606,-0.00250146,-0.00169210,0.02107458,0.00903894,0.00722472,0
 .00052075,-0.00039271,0.00512666,-0.06906371,-0.05756785,-0.01318883,-
 0.02582698,-0.00498800,0.00342564,-0.00132215,-0.00337890,-0.00206421,
 -0.00172377,0.00020821,-0.00021465,0.00028392,-0.00045882,0.00019558,0
 .00025488,-0.00005230,-0.00032504,-0.00093435,0.00108601,-0.00000353,-
 0.00000134,0.00001549,-0.00002402,-0.00000868,0.00000613,-0.00000383,0
 .00002275,0.00000047,-0.00003091,-0.00002267,-0.00006172,0.00008933,0.
 00003845,-0.00006865,-0.00028948,-0.00008700,0.00023518,0.00156998,-0.
 00127546,-0.00271697,-0.00002993,0.00012879,-0.00021205,0.00176706,0.0
 0133350,-0.00121381,-0.00000004,0.00001430,0.00004408,0.00016019,-0.00
 014983,-0.00028507,0.00010112,0.00006642,0.00005684,0.00001307,-0.0000
 0964,-0.00003071,-0.00005064,-0.00012170,-0.00012133,0.00000676,0.0000
 0243,-0.00000077,-0.00346475,0.07677745,0.06385838\\0.00002363,0.00000
 103,-0.00000915,-0.00001680,-0.00002662,0.00000634,-0.00000972,0.00002
 314,0.00002316,0.00003019,-0.00002584,-0.00002394,-0.00004409,-0.00000
 298,0.00000493,0.00001776,0.00002342,0.00001102,0.00002654,0.00002874,
 -0.00001898,-0.00002139,0.00000012,0.00002901,-0.00000959,-0.00002471,
 0.00001990,0.00001057,0.00000118,-0.00002170,-0.00000474,0.00000227,0.
 00001246,0.00001672,0.00001713,-0.00001412,-0.00000588,-0.00002247,-0.
 00001781,-0.00000197,-0.00000090,0.00000912,-0.00000348,-0.00000619,0.
 00000181,-0.00000095,0.00000378,-0.00000598,0.00000732,0.00000322,0.00
 000039,0.00000382,-0.00000749,0.00000852,0.00000727,-0.00000365,-0.000
 01083,-0.00000628,-0.00000301,-0.00000521,0.00001123,0.00002229,-0.000
 00427,-0.00000142,0.00000088,-0.00000390,-0.00000496,0.00000333,-0.000
 00588,0.00000778,0.00001882,0.00000463,-0.00000731,0.00000060,0.000007
 23,-0.00000240,-0.00001189,-0.00000689,-0.00000246,-0.00000119,0.00000
 297,-0.00000364,0.00000228,0.00000164,-0.00001574,-0.00001532,0.000005
 52\\\@


 A MUSTACHE HAIR ACROSS A CHIP IS LIKE A REDWOOD
 TREE FALLING THROUGH A HOUSING PROJECT.
 - AN IBM MANAGER IN EAST FISHKILL, NEW YORK
   AS QUOTED IN "FROM SANDS TO CIRCUITS", IBM INNOVATION JANUARY 1985.
 Job cpu time:       0 days  2 hours 18 minutes 28.3 seconds.
 File lengths (MBytes):  RWF=    445 Int=      0 D2E=      0 Chk=     18 Scr=      1
 Normal termination of Gaussian 09 at Fri Feb 22 15:25:34 2019.
WARNING: pbs_rusage is deprecated and values produced may not be accurate


=============================================================================
                                     Resource usage:
                                       CPU time:              16:11:28
   JobId:    6003243.r-man2            Elapsed time:          04:03:46
   Project:             q95            Requested time:        32:00:00
   Service Units:     16.25 
                                       Max physical memory:      565MB
                                       Max virtual memory:      1315MB
                                       Requested memory:           0MB

                                       Number of cpus:               4

                                       Max jobfs disk use:       0.4GB
                                       Requested jobfs:         16.0GB
=============================================================================

