 Entering Gaussian System, Link 0=/apps/gaussian/g09e01/g09/g09
 AtFile(1): /home/507/hio507/Basis/6-31pGd.gbs
 Initial command:
 /apps/gaussian/g09e01/g09/l1.exe "/jobfs/local/6010413.r-man2/Gau-1656.inp" -scrdir="/jobfs/local/6010413.r-man2/"
 Entering Link 1 = /apps/gaussian/g09e01/g09/l1.exe PID=      1657.
  
 Copyright (c) 1988,1990,1992,1993,1995,1998,2003,2009,2015,
            Gaussian, Inc.  All Rights Reserved.
  
 This is part of the Gaussian(R) 09 program.  It is based on
 the Gaussian(R) 03 system (copyright 2003, Gaussian, Inc.),
 the Gaussian(R) 98 system (copyright 1998, Gaussian, Inc.),
 the Gaussian(R) 94 system (copyright 1995, Gaussian, Inc.),
 the Gaussian 92(TM) system (copyright 1992, Gaussian, Inc.),
 the Gaussian 90(TM) system (copyright 1990, Gaussian, Inc.),
 the Gaussian 88(TM) system (copyright 1988, Gaussian, Inc.),
 the Gaussian 86(TM) system (copyright 1986, Carnegie Mellon
 University), and the Gaussian 82(TM) system (copyright 1983,
 Carnegie Mellon University). Gaussian is a federally registered
 trademark of Gaussian, Inc.
  
 This software contains proprietary and confidential information,
 including trade secrets, belonging to Gaussian, Inc.
  
 This software is provided under written license and may be
 used, copied, transmitted, or stored only in accord with that
 written license.
  
 The following legend is applicable only to US Government
 contracts under FAR:
  
                    RESTRICTED RIGHTS LEGEND
  
 Use, reproduction and disclosure by the US Government is
 subject to restrictions as set forth in subparagraphs (a)
 and (c) of the Commercial Computer Software - Restricted
 Rights clause in FAR 52.227-19.
  
 Gaussian, Inc.
 340 Quinnipiac St., Bldg. 40, Wallingford CT 06492
  
  
 ---------------------------------------------------------------
 Warning -- This program may not be used in any manner that
 competes with the business of Gaussian, Inc. or will provide
 assistance to any competitor of Gaussian, Inc.  The licensee
 of this program is prohibited from giving any competitor of
 Gaussian, Inc. access to this program.  By using this program,
 the user acknowledges that Gaussian, Inc. is engaged in the
 business of creating and licensing software in the field of
 computational chemistry and represents and warrants to the
 licensee that it is not a competitor of Gaussian, Inc. and that
 it will not use this program in any manner prohibited above.
 ---------------------------------------------------------------
  

 Cite this work as:
 Gaussian 09, Revision E.01,
 M. J. Frisch, G. W. Trucks, H. B. Schlegel, G. E. Scuseria, 
 M. A. Robb, J. R. Cheeseman, G. Scalmani, V. Barone, B. Mennucci, 
 G. A. Petersson, H. Nakatsuji, M. Caricato, X. Li, H. P. Hratchian, 
 A. F. Izmaylov, J. Bloino, G. Zheng, J. L. Sonnenberg, M. Hada, 
 M. Ehara, K. Toyota, R. Fukuda, J. Hasegawa, M. Ishida, T. Nakajima, 
 Y. Honda, O. Kitao, H. Nakai, T. Vreven, J. A. Montgomery, Jr., 
 J. E. Peralta, F. Ogliaro, M. Bearpark, J. J. Heyd, E. Brothers, 
 K. N. Kudin, V. N. Staroverov, T. Keith, R. Kobayashi, J. Normand, 
 K. Raghavachari, A. Rendell, J. C. Burant, S. S. Iyengar, J. Tomasi, 
 M. Cossi, N. Rega, J. M. Millam, M. Klene, J. E. Knox, J. B. Cross, 
 V. Bakken, C. Adamo, J. Jaramillo, R. Gomperts, R. E. Stratmann, 
 O. Yazyev, A. J. Austin, R. Cammi, C. Pomelli, J. W. Ochterski, 
 R. L. Martin, K. Morokuma, V. G. Zakrzewski, G. A. Voth, 
 P. Salvador, J. J. Dannenberg, S. Dapprich, A. D. Daniels, 
 O. Farkas, J. B. Foresman, J. V. Ortiz, J. Cioslowski, 
 and D. J. Fox, Gaussian, Inc., Wallingford CT, 2013.
 
 ******************************************
 Gaussian 09:  ES64L-G09RevE.01 30-Nov-2015
                22-Feb-2019 
 ******************************************
 %chk=3Nitro_EtO.M062X_6-31pGd_opt.chk
 %mem=196608000
 %nproc=8
 Will use up to    8 processors via shared memory.
 ----------------------------------------------------------------------
 # M062X/Gen 6D SCF=Tight INT(grid=ultrafine) OPT IOP(2/17=4) maxdisk=2
 684354560
 ----------------------------------------------------------------------
 1/14=-1,18=20,19=15,26=4,38=1/1,3;
 2/9=110,12=2,17=4,18=5,40=1/2;
 3/5=7,8=2,11=2,16=1,25=1,30=1,71=1,74=-55,75=-5/1,2,3;
 4//1;
 5/5=2,32=2,38=5/2;
 6/7=2,8=2,9=2,10=2,28=1/1;
 7//1,2,3,16;
 1/14=-1,18=20,19=15,26=4/3(2);
 2/9=110,17=4/2;
 99//99;
 2/9=110,17=4/2;
 3/5=7,6=1,8=2,11=2,16=1,25=1,30=1,71=1,74=-55,75=-5,82=7/1,2,3;
 4/5=5,16=3,69=1/1;
 5/5=2,32=2,38=5/2;
 7//1,2,3,16;
 1/14=-1,18=20,19=15,26=4/3(-5);
 2/9=110,17=4/2;
 6/7=2,8=2,9=2,10=2,19=2,28=1/1;
 99/9=1/99;
 ----------------------------
 3Nitro_EtO.M062X_6-31pGd_opt
 ----------------------------
 Symbolic Z-matrix:
 Charge = -1 Multiplicity = 1
 C                     11.83322   0.00978  -7.42407 
 C                     10.7955  -0.2034   -6.32576 
 C                     10.52795   1.08082  -5.54871 
 N                     9.51867   0.8493   -4.5372 
 C                     9.2847    1.76988  -3.57246 
 O                     9.93663   2.81202  -3.45599 
 N                     8.24467   1.41489  -2.72682 
 C                     7.77368   2.12187  -1.63738 
 C                     8.30312   3.34228  -1.1848 
 C                     6.68417   1.55653  -0.93928 
 C                     6.13928   2.18658   0.17045 
 C                     6.65053   3.39828   0.63304 
 C                     7.72279   3.93427  -0.06849 
 H                     12.02864  -0.91806  -7.97166 
 H                     12.78508   0.35881  -7.00631 
 H                     11.13597  -0.9764   -5.62589 
 H                     9.85528  -0.56885  -6.75622 
 H                     10.21078   1.87692  -6.24026 
 H                     11.44714   1.43219  -5.06479 
 H                     8.89176   0.03391  -4.64661 
 H                     9.13726   3.80451  -1.69237 
 H                     6.28246   0.61118  -1.29632 
 H                     5.30118   1.72613   0.68533 
 N                     8.28468   5.21246   0.40073 
 H                     6.24137   3.90753   1.49612 
 O                     9.23149   5.68704  -0.20299 
 O                     7.77221   5.73945   1.37884 
 H                     11.4934   0.75947  -8.14833 
 H                     7.74652   0.51982  -2.91751 
 O                     6.74995  -0.90554  -3.03928 
 O                     7.84732  -1.4088   -4.92932 
 C                     6.97044  -1.62268  -4.0566 
 C                     6.0696   -2.85483  -4.21811 
 C                     6.39823  -3.7246   -5.42369 
 H                     5.03552  -2.49075  -4.26877 
 H                     6.13723  -3.43065  -3.28694 
 H                     6.31641  -3.15092  -6.35162 
 H                     5.72013  -4.58413  -5.48679 
 H                     7.42483  -4.09901  -5.36576 
 
 Add virtual bond connecting atoms O30        and H29        Dist= 3.29D+00.
 Add virtual bond connecting atoms O31        and H20        Dist= 3.41D+00.

 GradGradGradGradGradGradGradGradGradGradGradGradGradGradGradGradGradGrad
 Berny optimization.
 Initialization pass.
                           ----------------------------
                           !    Initial Parameters    !
                           ! (Angstroms and Degrees)  !
 --------------------------                            --------------------------
 ! Name  Definition              Value          Derivative Info.                !
 --------------------------------------------------------------------------------
 ! R1    R(1,2)                  1.526          estimate D2E/DX2                !
 ! R2    R(1,14)                 1.095          estimate D2E/DX2                !
 ! R3    R(1,15)                 1.0965         estimate D2E/DX2                !
 ! R4    R(1,28)                 1.0964         estimate D2E/DX2                !
 ! R5    R(2,3)                  1.5247         estimate D2E/DX2                !
 ! R6    R(2,16)                 1.0969         estimate D2E/DX2                !
 ! R7    R(2,17)                 1.0968         estimate D2E/DX2                !
 ! R8    R(3,4)                  1.4476         estimate D2E/DX2                !
 ! R9    R(3,18)                 1.1012         estimate D2E/DX2                !
 ! R10   R(3,19)                 1.0966         estimate D2E/DX2                !
 ! R11   R(4,5)                  1.3539         estimate D2E/DX2                !
 ! R12   R(4,20)                 1.0343         estimate D2E/DX2                !
 ! R13   R(5,6)                  1.2348         estimate D2E/DX2                !
 ! R14   R(5,7)                  1.3867         estimate D2E/DX2                !
 ! R15   R(7,8)                  1.3815         estimate D2E/DX2                !
 ! R16   R(7,29)                 1.042          estimate D2E/DX2                !
 ! R17   R(8,9)                  1.4052         estimate D2E/DX2                !
 ! R18   R(8,10)                 1.4121         estimate D2E/DX2                !
 ! R19   R(9,13)                 1.3905         estimate D2E/DX2                !
 ! R20   R(9,21)                 1.0803         estimate D2E/DX2                !
 ! R21   R(10,11)                1.3876         estimate D2E/DX2                !
 ! R22   R(10,22)                1.0874         estimate D2E/DX2                !
 ! R23   R(11,12)                1.3941         estimate D2E/DX2                !
 ! R24   R(11,23)                1.0861         estimate D2E/DX2                !
 ! R25   R(12,13)                1.3889         estimate D2E/DX2                !
 ! R26   R(12,25)                1.0824         estimate D2E/DX2                !
 ! R27   R(13,24)                1.473          estimate D2E/DX2                !
 ! R28   R(20,31)                1.8034         estimate D2E/DX2                !
 ! R29   R(24,26)                1.2191         estimate D2E/DX2                !
 ! R30   R(24,27)                1.2235         estimate D2E/DX2                !
 ! R31   R(29,30)                1.7435         estimate D2E/DX2                !
 ! R32   R(30,32)                1.2641         estimate D2E/DX2                !
 ! R33   R(31,32)                1.2555         estimate D2E/DX2                !
 ! R34   R(32,33)                1.5349         estimate D2E/DX2                !
 ! R35   R(33,34)                1.5225         estimate D2E/DX2                !
 ! R36   R(33,35)                1.0975         estimate D2E/DX2                !
 ! R37   R(33,36)                1.0969         estimate D2E/DX2                !
 ! R38   R(34,37)                1.094          estimate D2E/DX2                !
 ! R39   R(34,38)                1.0966         estimate D2E/DX2                !
 ! R40   R(34,39)                1.0943         estimate D2E/DX2                !
 ! A1    A(2,1,14)             111.2802         estimate D2E/DX2                !
 ! A2    A(2,1,15)             111.1357         estimate D2E/DX2                !
 ! A3    A(2,1,28)             111.1124         estimate D2E/DX2                !
 ! A4    A(14,1,15)            107.7779         estimate D2E/DX2                !
 ! A5    A(14,1,28)            107.7211         estimate D2E/DX2                !
 ! A6    A(15,1,28)            107.6423         estimate D2E/DX2                !
 ! A7    A(1,2,3)              111.622          estimate D2E/DX2                !
 ! A8    A(1,2,16)             110.2789         estimate D2E/DX2                !
 ! A9    A(1,2,17)             110.3065         estimate D2E/DX2                !
 ! A10   A(3,2,16)             108.8357         estimate D2E/DX2                !
 ! A11   A(3,2,17)             109.2843         estimate D2E/DX2                !
 ! A12   A(16,2,17)            106.3609         estimate D2E/DX2                !
 ! A13   A(2,3,4)              110.1068         estimate D2E/DX2                !
 ! A14   A(2,3,18)             109.8415         estimate D2E/DX2                !
 ! A15   A(2,3,19)             110.3468         estimate D2E/DX2                !
 ! A16   A(4,3,18)             110.7097         estimate D2E/DX2                !
 ! A17   A(4,3,19)             109.1059         estimate D2E/DX2                !
 ! A18   A(18,3,19)            106.6728         estimate D2E/DX2                !
 ! A19   A(3,4,5)              120.6423         estimate D2E/DX2                !
 ! A20   A(3,4,20)             118.3434         estimate D2E/DX2                !
 ! A21   A(5,4,20)             120.4426         estimate D2E/DX2                !
 ! A22   A(4,5,6)              123.358          estimate D2E/DX2                !
 ! A23   A(4,5,7)              112.9609         estimate D2E/DX2                !
 ! A24   A(6,5,7)              123.6798         estimate D2E/DX2                !
 ! A25   A(5,7,8)              127.2732         estimate D2E/DX2                !
 ! A26   A(5,7,29)             117.833          estimate D2E/DX2                !
 ! A27   A(8,7,29)             114.8936         estimate D2E/DX2                !
 ! A28   A(7,8,9)              124.7498         estimate D2E/DX2                !
 ! A29   A(7,8,10)             116.6175         estimate D2E/DX2                !
 ! A30   A(9,8,10)             118.6322         estimate D2E/DX2                !
 ! A31   A(8,9,13)             118.1053         estimate D2E/DX2                !
 ! A32   A(8,9,21)             120.7436         estimate D2E/DX2                !
 ! A33   A(13,9,21)            121.1511         estimate D2E/DX2                !
 ! A34   A(8,10,11)            121.1033         estimate D2E/DX2                !
 ! A35   A(8,10,22)            118.082          estimate D2E/DX2                !
 ! A36   A(11,10,22)           120.8147         estimate D2E/DX2                !
 ! A37   A(10,11,12)           121.0655         estimate D2E/DX2                !
 ! A38   A(10,11,23)           119.3195         estimate D2E/DX2                !
 ! A39   A(12,11,23)           119.615          estimate D2E/DX2                !
 ! A40   A(11,12,13)           116.802          estimate D2E/DX2                !
 ! A41   A(11,12,25)           122.3343         estimate D2E/DX2                !
 ! A42   A(13,12,25)           120.8637         estimate D2E/DX2                !
 ! A43   A(9,13,12)            124.2917         estimate D2E/DX2                !
 ! A44   A(9,13,24)            117.7741         estimate D2E/DX2                !
 ! A45   A(12,13,24)           117.9341         estimate D2E/DX2                !
 ! A46   A(13,24,26)           118.4458         estimate D2E/DX2                !
 ! A47   A(13,24,27)           117.9458         estimate D2E/DX2                !
 ! A48   A(26,24,27)           123.6084         estimate D2E/DX2                !
 ! A49   A(29,30,32)           114.8554         estimate D2E/DX2                !
 ! A50   A(20,31,32)           115.5827         estimate D2E/DX2                !
 ! A51   A(30,32,31)           125.7751         estimate D2E/DX2                !
 ! A52   A(30,32,33)           115.961          estimate D2E/DX2                !
 ! A53   A(31,32,33)           118.2636         estimate D2E/DX2                !
 ! A54   A(32,33,34)           114.536          estimate D2E/DX2                !
 ! A55   A(32,33,35)           106.9513         estimate D2E/DX2                !
 ! A56   A(32,33,36)           107.2115         estimate D2E/DX2                !
 ! A57   A(34,33,35)           110.8762         estimate D2E/DX2                !
 ! A58   A(34,33,36)           111.0389         estimate D2E/DX2                !
 ! A59   A(35,33,36)           105.7489         estimate D2E/DX2                !
 ! A60   A(33,34,37)           110.8502         estimate D2E/DX2                !
 ! A61   A(33,34,38)           111.0922         estimate D2E/DX2                !
 ! A62   A(33,34,39)           110.8575         estimate D2E/DX2                !
 ! A63   A(37,34,38)           108.4186         estimate D2E/DX2                !
 ! A64   A(37,34,39)           107.1265         estimate D2E/DX2                !
 ! A65   A(38,34,39)           108.3597         estimate D2E/DX2                !
 ! A66   L(4,20,31,1,-1)       176.6744         estimate D2E/DX2                !
 ! A67   L(7,29,30,1,-1)       188.7366         estimate D2E/DX2                !
 ! A68   L(4,20,31,1,-2)       180.588          estimate D2E/DX2                !
 ! A69   L(7,29,30,1,-2)       180.4775         estimate D2E/DX2                !
 ! D1    D(14,1,2,3)           179.4145         estimate D2E/DX2                !
 ! D2    D(14,1,2,16)           58.3035         estimate D2E/DX2                !
 ! D3    D(14,1,2,17)          -58.8856         estimate D2E/DX2                !
 ! D4    D(15,1,2,3)            59.2907         estimate D2E/DX2                !
 ! D5    D(15,1,2,16)          -61.8203         estimate D2E/DX2                !
 ! D6    D(15,1,2,17)         -179.0094         estimate D2E/DX2                !
 ! D7    D(28,1,2,3)           -60.5492         estimate D2E/DX2                !
 ! D8    D(28,1,2,16)          178.3398         estimate D2E/DX2                !
 ! D9    D(28,1,2,17)           61.1507         estimate D2E/DX2                !
 ! D10   D(1,2,3,4)            178.7057         estimate D2E/DX2                !
 ! D11   D(1,2,3,18)            56.5345         estimate D2E/DX2                !
 ! D12   D(1,2,3,19)           -60.7961         estimate D2E/DX2                !
 ! D13   D(16,2,3,4)           -59.3477         estimate D2E/DX2                !
 ! D14   D(16,2,3,18)          178.4812         estimate D2E/DX2                !
 ! D15   D(16,2,3,19)           61.1506         estimate D2E/DX2                !
 ! D16   D(17,2,3,4)            56.4168         estimate D2E/DX2                !
 ! D17   D(17,2,3,18)          -65.7543         estimate D2E/DX2                !
 ! D18   D(17,2,3,19)          176.915          estimate D2E/DX2                !
 ! D19   D(2,3,4,5)            168.2562         estimate D2E/DX2                !
 ! D20   D(2,3,4,20)           -20.3757         estimate D2E/DX2                !
 ! D21   D(18,3,4,5)           -70.0878         estimate D2E/DX2                !
 ! D22   D(18,3,4,20)          101.2804         estimate D2E/DX2                !
 ! D23   D(19,3,4,5)            47.0136         estimate D2E/DX2                !
 ! D24   D(19,3,4,20)         -141.6182         estimate D2E/DX2                !
 ! D25   D(3,4,5,6)             -3.2663         estimate D2E/DX2                !
 ! D26   D(3,4,5,7)            177.1353         estimate D2E/DX2                !
 ! D27   D(20,4,5,6)          -174.453          estimate D2E/DX2                !
 ! D28   D(20,4,5,7)             5.9486         estimate D2E/DX2                !
 ! D29   D(3,4,31,32)          179.7913         estimate D2E/DX2                !
 ! D30   D(5,4,31,32)           -9.1138         estimate D2E/DX2                !
 ! D31   D(4,5,7,8)            178.9111         estimate D2E/DX2                !
 ! D32   D(4,5,7,29)            -1.2886         estimate D2E/DX2                !
 ! D33   D(6,5,7,8)             -0.6859         estimate D2E/DX2                !
 ! D34   D(6,5,7,29)           179.1145         estimate D2E/DX2                !
 ! D35   D(5,7,8,9)             -1.0744         estimate D2E/DX2                !
 ! D36   D(5,7,8,10)           179.1871         estimate D2E/DX2                !
 ! D37   D(29,7,8,9)           179.1203         estimate D2E/DX2                !
 ! D38   D(29,7,8,10)           -0.6182         estimate D2E/DX2                !
 ! D39   D(5,7,30,32)           -5.0919         estimate D2E/DX2                !
 ! D40   D(8,7,30,32)          174.2433         estimate D2E/DX2                !
 ! D41   D(7,8,9,13)          -179.8256         estimate D2E/DX2                !
 ! D42   D(7,8,9,21)             0.1829         estimate D2E/DX2                !
 ! D43   D(10,8,9,13)           -0.092          estimate D2E/DX2                !
 ! D44   D(10,8,9,21)          179.9166         estimate D2E/DX2                !
 ! D45   D(7,8,10,11)          179.8602         estimate D2E/DX2                !
 ! D46   D(7,8,10,22)           -0.1538         estimate D2E/DX2                !
 ! D47   D(9,8,10,11)            0.105          estimate D2E/DX2                !
 ! D48   D(9,8,10,22)         -179.909          estimate D2E/DX2                !
 ! D49   D(8,9,13,12)            0.0216         estimate D2E/DX2                !
 ! D50   D(8,9,13,24)          179.919          estimate D2E/DX2                !
 ! D51   D(21,9,13,12)        -179.987          estimate D2E/DX2                !
 ! D52   D(21,9,13,24)          -0.0895         estimate D2E/DX2                !
 ! D53   D(8,10,11,12)          -0.0443         estimate D2E/DX2                !
 ! D54   D(8,10,11,23)         179.9704         estimate D2E/DX2                !
 ! D55   D(22,10,11,12)        179.97           estimate D2E/DX2                !
 ! D56   D(22,10,11,23)         -0.0153         estimate D2E/DX2                !
 ! D57   D(10,11,12,13)         -0.0272         estimate D2E/DX2                !
 ! D58   D(10,11,12,25)        179.9864         estimate D2E/DX2                !
 ! D59   D(23,11,12,13)        179.9581         estimate D2E/DX2                !
 ! D60   D(23,11,12,25)         -0.0283         estimate D2E/DX2                !
 ! D61   D(11,12,13,9)           0.0389         estimate D2E/DX2                !
 ! D62   D(11,12,13,24)       -179.8584         estimate D2E/DX2                !
 ! D63   D(25,12,13,9)        -179.9745         estimate D2E/DX2                !
 ! D64   D(25,12,13,24)          0.1282         estimate D2E/DX2                !
 ! D65   D(9,13,24,26)          -0.367          estimate D2E/DX2                !
 ! D66   D(9,13,24,27)         179.6479         estimate D2E/DX2                !
 ! D67   D(12,13,24,26)        179.5371         estimate D2E/DX2                !
 ! D68   D(12,13,24,27)         -0.448          estimate D2E/DX2                !
 ! D69   D(29,30,32,31)          2.0931         estimate D2E/DX2                !
 ! D70   D(29,30,32,33)       -177.6841         estimate D2E/DX2                !
 ! D71   D(20,31,32,30)          1.7141         estimate D2E/DX2                !
 ! D72   D(20,31,32,33)       -178.5133         estimate D2E/DX2                !
 ! D73   D(30,32,33,34)       -177.7326         estimate D2E/DX2                !
 ! D74   D(30,32,33,35)         58.9928         estimate D2E/DX2                !
 ! D75   D(30,32,33,36)        -54.0533         estimate D2E/DX2                !
 ! D76   D(31,32,33,34)          2.4727         estimate D2E/DX2                !
 ! D77   D(31,32,33,35)       -120.8019         estimate D2E/DX2                !
 ! D78   D(31,32,33,36)        126.152          estimate D2E/DX2                !
 ! D79   D(32,33,34,37)        -59.1752         estimate D2E/DX2                !
 ! D80   D(32,33,34,38)       -179.7911         estimate D2E/DX2                !
 ! D81   D(32,33,34,39)         59.6626         estimate D2E/DX2                !
 ! D82   D(35,33,34,37)         61.9638         estimate D2E/DX2                !
 ! D83   D(35,33,34,38)        -58.6521         estimate D2E/DX2                !
 ! D84   D(35,33,34,39)       -179.1984         estimate D2E/DX2                !
 ! D85   D(36,33,34,37)        179.218          estimate D2E/DX2                !
 ! D86   D(36,33,34,38)         58.6021         estimate D2E/DX2                !
 ! D87   D(36,33,34,39)        -61.9442         estimate D2E/DX2                !
 --------------------------------------------------------------------------------
 Trust Radius=3.00D-01 FncErr=1.00D-07 GrdErr=1.00D-06
 Number of steps in this run=    206 maximum allowed number of steps=    234.
 GradGradGradGradGradGradGradGradGradGradGradGradGradGradGradGradGradGrad

                          Input orientation:                          
 ---------------------------------------------------------------------
 Center     Atomic      Atomic             Coordinates (Angstroms)
 Number     Number       Type             X           Y           Z
 ---------------------------------------------------------------------
      1          6           0       11.833222    0.009780   -7.424068
      2          6           0       10.795502   -0.203402   -6.325761
      3          6           0       10.527952    1.080815   -5.548714
      4          7           0        9.518666    0.849303   -4.537203
      5          6           0        9.284704    1.769883   -3.572460
      6          8           0        9.936630    2.812023   -3.455994
      7          7           0        8.244668    1.414890   -2.726822
      8          6           0        7.773678    2.121866   -1.637381
      9          6           0        8.303117    3.342280   -1.184797
     10          6           0        6.684169    1.556533   -0.939275
     11          6           0        6.139283    2.186584    0.170450
     12          6           0        6.650532    3.398284    0.633040
     13          6           0        7.722795    3.934266   -0.068488
     14          1           0       12.028643   -0.918063   -7.971655
     15          1           0       12.785084    0.358815   -7.006310
     16          1           0       11.135967   -0.976399   -5.625894
     17          1           0        9.855282   -0.568851   -6.756221
     18          1           0       10.210782    1.876923   -6.240265
     19          1           0       11.447137    1.432189   -5.064794
     20          1           0        8.891765    0.033909   -4.646613
     21          1           0        9.137256    3.804507   -1.692369
     22          1           0        6.282464    0.611179   -1.296319
     23          1           0        5.301183    1.726134    0.685332
     24          7           0        8.284678    5.212463    0.400729
     25          1           0        6.241371    3.907530    1.496120
     26          8           0        9.231487    5.687042   -0.202987
     27          8           0        7.772212    5.739449    1.378839
     28          1           0       11.493396    0.759473   -8.148325
     29          1           0        7.746518    0.519822   -2.917513
     30          8           0        6.749953   -0.905542   -3.039280
     31          8           0        7.847325   -1.408795   -4.929320
     32          6           0        6.970435   -1.622677   -4.056596
     33          6           0        6.069604   -2.854825   -4.218109
     34          6           0        6.398227   -3.724603   -5.423689
     35          1           0        5.035522   -2.490748   -4.268767
     36          1           0        6.137231   -3.430645   -3.286936
     37          1           0        6.316410   -3.150924   -6.351615
     38          1           0        5.720128   -4.584127   -5.486790
     39          1           0        7.424830   -4.099010   -5.365757
 ---------------------------------------------------------------------
                    Distance matrix (angstroms):
                    1          2          3          4          5
     1  C    0.000000
     2  C    1.525972   0.000000
     3  C    2.523450   1.524663   0.000000
     4  N    3.794201   2.436686   1.447554   0.000000
     5  C    4.942448   3.709047   2.434350   1.353860   0.000000
     6  O    5.214906   4.250413   2.779608   2.279469   1.234757
     7  N    6.075868   4.698722   3.645280   2.284828   1.386650
     8  C    7.377436   6.043112   4.895747   3.615712   2.480247
     9  C    7.905422   6.724087   5.395172   4.350991   3.022727
    10  C    8.423642   7.001047   6.020623   4.634613   3.707016
    11  C    9.738384   8.342251   7.293283   5.947314   4.906800
    12  C   10.161655   8.864414   7.656313   6.438549   5.222718
    13  C    9.295254   8.106496   6.785570   5.719402   4.404762
    14  H    1.094958   2.177233   3.481125   4.606411   5.840134
    15  H    1.096534   2.176619   2.782178   4.123901   5.102460
    16  H    2.166136   1.096929   2.146571   2.670973   3.896900
    17  H    2.166352   1.096751   2.152198   2.654903   3.991437
    18  H    2.742248   2.162628   1.101194   2.106051   2.825997
    19  H    2.781813   2.165600   1.096606   2.082573   2.649003
    20  H    4.045616   2.549523   2.141707   1.034332   2.078897
    21  H    7.383804   6.346766   4.921781   4.119683   2.774198
    22  H    8.289867   6.806345   6.027237   4.586178   3.941682
    23  H   10.553472   9.114059   8.160813   6.769849   5.830878
    24  N   10.044278   8.993414   7.582787   6.703959   5.351415
    25  H   11.226353   9.940910   8.717498   7.516276   6.286646
    26  O    9.546955   8.638972   7.174604   6.501663   5.167235
    27  O   11.261087  10.189142   8.791357   7.871670   6.523837
    28  H    1.096389   2.176219   2.791652   4.116775   5.180520
    29  H    6.104943   4.629849   3.869664   2.423316   2.087492
    30  O    6.775235   5.259318   4.951378   3.604029   3.723861
    31  O    4.911568   3.477753   3.710467   2.836572   3.743144
    32  C    6.136081   4.668468   4.710755   3.582617   4.135178
    33  C    7.190510   5.814323   6.093984   5.071332   5.669361
    34  C    6.891031   5.705139   6.337373   5.607460   6.476741
    35  H    7.900461   6.529973   6.675411   5.597014   6.057505
    36  H    7.835605   6.430322   6.689345   5.596000   6.085524
    37  H    6.447901   5.361979   6.024065   5.435839   6.383480
    38  H    7.888406   6.756778   7.430382   6.697220   7.532882
    39  H    6.368102   5.240114   6.040979   5.436584   6.412406
                    6          7          8          9         10
     6  O    0.000000
     7  N    2.312229   0.000000
     8  C    2.908957   1.381495   0.000000
     9  C    2.847432   2.469026   1.405186   0.000000
    10  C    4.299840   2.377087   1.412084   2.422843   0.000000
    11  C    5.287920   3.663651   2.437967   2.802589   1.387571
    12  C    5.278479   4.214712   2.836461   2.457378   2.421849
    13  C    4.199486   3.699506   2.397666   1.390455   2.736901
    14  H    6.219426   6.875275   8.213947   8.836940   9.172862
    15  H    5.170751   6.328088   7.553009   7.929634   8.687037
    16  H    4.527584   4.741571   6.067328   6.811708   6.942525
    17  H    4.725296   4.771306   6.146183   6.981900   6.957735
    18  H    2.949871   4.052574   5.214021   5.598590   6.374962
    19  H    2.602655   3.965126   5.071205   5.346745   6.302479
    20  H    3.198005   2.451824   3.829512   4.824520   4.575612
    21  H    2.175866   2.752649   2.166484   1.080311   3.411477
    22  H    4.781300   2.557838   2.149934   3.399175   1.087447
    23  H    6.310078   4.517053   3.415380   3.888562   2.140271
    24  N    4.833774   4.919831   3.737218   2.451901   4.209876
    25  H    6.275229   5.297140   3.918595   3.428939   3.413855
    26  O    4.398297   5.059134   4.110130   2.706239   4.908365
    27  O    6.052283   5.981762   4.710042   3.549720   4.904516
    28  H    5.352986   6.354251   7.621340   8.083285   8.702550
    29  H    3.215701   1.041951   2.050859   3.358329   2.473213
    30  O    4.914147   2.777806   3.489775   4.888293   3.236690
    31  O    4.934692   3.603065   4.827821   6.066458   5.105543
    32  C    5.368947   3.552292   4.529835   5.888469   4.461728
    33  C    6.902744   5.018496   5.859307   7.252149   5.530689
    34  C    7.688926   6.090716   7.099943   8.457992   6.934128
    35  H    7.266418   5.284905   5.974772   7.362898   5.494000
    36  H    7.309918   5.313589   6.019084   7.415023   5.539188
    37  H    7.552970   6.140355   7.221492   8.532568   7.182536
    38  H    8.752488   7.069578   8.000335   9.381200   7.701752
    39  H    7.597283   6.167593   7.260977   8.580478   7.219937
                   11         12         13         14         15
    11  C    0.000000
    12  C    1.394125   0.000000
    13  C    2.370441   1.388944   0.000000
    14  H   10.517474  11.027044  10.224747   0.000000
    15  H    9.950542  10.258205   9.302902   1.770455   0.000000
    16  H    8.280635   8.856141   8.163892   2.510551   2.531389
    17  H    8.329456   8.978294   8.339744   2.514503   3.083318
    18  H    7.600675   7.888742   6.965168   3.756897   3.085208
    19  H    7.493344   7.703134   6.715220   3.783077   2.590698
    20  H    5.950988   6.649578   6.126867   4.669278   4.564172
    21  H    3.882732   3.428752   2.157435   8.372109   7.308722
    22  H    2.157270   3.409671   3.824268   8.939645   8.657468
    23  H    1.086061   2.149317   3.362780  11.278028  10.818488
    24  N    3.716408   2.452681   1.472978  11.031656   9.933569
    25  H    2.174737   1.082428   2.154839  12.100315  11.300658
    26  O    4.685550   3.549462   2.316563  10.573727   9.343622
    27  O    4.092617   2.701006   2.314279  12.242198  11.153064
    28  H    9.995258  10.369621   9.464698   1.769698   1.770080
    29  H    3.859639   4.700336   4.447014   6.778529   6.490865
    30  O    4.498502   5.658510   5.761576   7.224475   7.332035
    31  O    6.469298   7.448502   7.224368   5.194231   5.640904
    32  C    5.750582   6.877869   6.881181   6.435032   6.814490
    33  C    6.684318   7.935522   8.126755   7.304129   7.949793
    34  C    8.142700   9.353242   9.438798   6.787516   7.744090
    35  H    6.542352   7.830497   8.132932   8.067741   8.698842
    36  H    6.595967   7.890752   8.192333   7.935262   8.508096
    37  H    8.429572   9.580667   9.573688   6.343485   7.388548
    38  H    8.833039  10.101330  10.292312   7.707914   8.755296
    39  H    8.474132   9.632992   9.627219   6.172861   7.162118
                   16         17         18         19         20
    16  H    0.000000
    17  H    1.756101   0.000000
    18  H    3.061840   2.524758   0.000000
    19  H    2.492580   3.065794   1.762979   0.000000
    20  H    2.648803   2.396274   2.770602   2.942786   0.000000
    21  H    6.505730   6.729370   5.054839   4.726171   4.796377
    22  H    6.694932   6.630839   6.440217   6.445875   4.285576
    23  H    9.009992   9.021279   8.490629   8.421585   6.647220
    24  N    9.096815   9.333398   7.677142   7.359590   7.256834
    25  H    9.926375  10.059795   8.929235   8.733436   7.730634
    26  O    8.799796   9.081310   7.205883   6.830084   7.198551
    27  O   10.270528  10.503001   8.883494   8.577760   8.373331
    28  H    3.082802   2.527018   2.556264   3.156398   4.422320
    29  H    4.589375   4.513067   4.353734   4.374678   2.130138
    30  O    5.092417   4.855109   5.474099   5.624165   2.837859
    31  O    3.389299   2.841648   4.254463   4.587831   1.803378
    32  C    4.498003   4.089116   5.245519   5.512670   2.604593
    33  C    5.583760   5.098926   6.605143   6.929158   4.061156
    34  C    5.480848   4.866789   6.824915   7.225843   4.576897
    35  H    6.430433   5.754233   7.053132   7.558565   4.624637
    36  H    6.039984   5.835212   7.313429   7.416403   4.630260
    37  H    5.336981   4.399366   6.360643   6.998943   4.436513
    38  H    6.508945   5.901982   7.904358   8.317017   5.664930
    39  H    4.857047   4.505830   6.651171   6.845706   4.444106
                   21         22         23         24         25
    21  H    0.000000
    22  H    4.301632   0.000000
    23  H    4.968757   2.476485   0.000000
    24  N    2.662760   5.297230   4.597469   0.000000
    25  H    4.308506   4.320340   2.509944   2.660420   0.000000
    26  O    2.402306   5.971306   5.650237   1.219076   3.872263
    27  O    3.878101   5.972853   4.763783   1.223534   2.390221
    28  H    7.516847   8.609633  10.831040  10.159297  11.424069
    29  H    3.771510   2.186337   4.518334   5.772454   5.763870
    30  O    5.449582   2.357307   4.785121   7.184638   6.632810
    31  O    6.270590   4.441597   6.916281   8.511273   8.492861
    32  C    6.303888   3.616980   6.040432   8.265235   7.870666
    33  C    7.754776   4.538210   6.754213   9.556220   8.855019
    34  C    8.838129   5.987285   8.260398  10.832990  10.303291
    35  H    7.943065   4.473507   6.511204   9.576046   8.696319
    36  H    7.993136   4.507770   6.562794   9.639176   8.759982
    37  H    8.834238   6.301633   8.621775  10.927693  10.555299
    38  H    9.820569   6.698319   8.836855  11.713794  11.006406
    39  H    8.882103   6.328602   8.663594  10.986138  10.610872
                   26         27         28         29         30
    26  O    0.000000
    27  O    2.152766   0.000000
    28  H    9.619021  11.376037   0.000000
    29  H    6.022786   6.760459   6.438782   0.000000
    30  O    7.593729   8.044917   7.167627   1.743454   0.000000
    31  O    8.637421   9.533935   5.325149   2.788744   2.242709
    32  C    8.567068   9.186278   6.547829   2.547571   1.264052
    33  C    9.954004  10.396454   7.610997   3.986456   2.377440
    34  C   11.129337  11.735864   7.313777   5.110181   3.708938
    35  H   10.050519  10.349931   8.204818   4.270705   2.638900
    36  H   10.110261  10.417929   8.359348   4.281643   2.610155
    37  H   11.154055  11.870889   6.732055   5.226150   4.025080
    38  H   12.072495  12.566787   8.304725   6.062816   4.536831
    39  H   11.210933  11.933379   6.921038   5.237460   4.008266
                   31         32         33         34         35
    31  O    0.000000
    32  C    1.255520   0.000000
    33  C    2.399399   1.534852   0.000000
    34  C    2.776193   2.571859   1.522474   0.000000
    35  H    3.084345   2.131303   1.097471   2.170992   0.000000
    36  H    3.116043   2.134327   1.096916   2.172611   1.749617
    37  H    2.720595   2.833796   2.168049   1.094006   2.532737
    38  H    3.862444   3.518368   2.173056   1.096623   2.516844
    39  H    2.757940   2.837711   2.168347   1.094281   3.081994
                   36         37         38         39
    36  H    0.000000
    37  H    3.082629   0.000000
    38  H    2.518701   1.776948   0.000000
    39  H    2.534979   1.760506   1.776513   0.000000
 Stoichiometry    C13H18N3O5(1-)
 Framework group  C1[X(C13H18N3O5)]
 Deg. of freedom   111
 Full point group                 C1      NOp   1
 Largest Abelian subgroup         C1      NOp   1
 Largest concise Abelian subgroup C1      NOp   1
                         Standard orientation:                         
 ---------------------------------------------------------------------
 Center     Atomic      Atomic             Coordinates (Angstroms)
 Number     Number       Type             X           Y           Z
 ---------------------------------------------------------------------
      1          6           0       -4.467848    3.919858   -0.086266
      2          6           0       -3.753287    2.578802   -0.226119
      3          6           0       -2.274283    2.690778    0.126881
      4          7           0       -1.636054    1.396545    0.012698
      5          6           0       -0.287013    1.287157    0.045234
      6          8           0        0.471563    2.259115    0.112196
      7          7           0        0.150685   -0.027294   -0.013399
      8          6           0        1.457846   -0.474284   -0.021251
      9          6           0        2.589287    0.358470    0.008919
     10          6           0        1.648003   -1.872705   -0.068573
     11          6           0        2.921790   -2.422803   -0.083091
     12          6           0        4.055769   -1.612413   -0.052342
     13          6           0        3.844041   -0.240434   -0.007500
     14          1           0       -5.526966    3.835315   -0.350948
     15          1           0       -4.018823    4.677183   -0.739889
     16          1           0       -3.844909    2.204477   -1.253124
     17          1           0       -4.223932    1.827579    0.419652
     18          1           0       -2.162672    3.091412    1.146520
     19          1           0       -1.774278    3.398130   -0.545570
     20          1           0       -2.231266    0.551163    0.042587
     21          1           0        2.483348    1.433002    0.043992
     22          1           0        0.766254   -2.508674   -0.093167
     23          1           0        3.034472   -3.502397   -0.119250
     24          7           0        5.025003    0.639392    0.022497
     25          1           0        5.058697   -2.019451   -0.062680
     26          8           0        4.849967    1.845444    0.053261
     27          8           0        6.130677    0.115500    0.014795
     28          1           0       -4.409852    4.292783    0.943119
     29          1           0       -0.570035   -0.778687   -0.053832
     30          8           0       -1.571387   -2.205010   -0.104105
     31          8           0       -3.352802   -0.859444    0.109803
     32          6           0       -2.811590   -1.987718    0.007743
     33          6           0       -3.712765   -3.230072    0.022257
     34          6           0       -5.203004   -2.929218    0.103510
     35          1           0       -3.391792   -3.848304    0.870319
     36          1           0       -3.477065   -3.812542   -0.876853
     37          1           0       -5.436608   -2.360193    1.008214
     38          1           0       -5.792305   -3.853986    0.114006
     39          1           0       -5.525512   -2.324655   -0.749686
 ---------------------------------------------------------------------
 Rotational constants (GHZ):      0.4108657      0.1426897      0.1063542
 General basis read from cards:  (6D, 7F)
 There are   435 symmetry adapted cartesian basis functions of A   symmetry.
 There are   435 symmetry adapted basis functions of A   symmetry.
   435 basis functions,   744 primitive gaussians,   435 cartesian basis functions
    79 alpha electrons       79 beta electrons
       nuclear repulsion energy      1638.2218838405 Hartrees.
 NAtoms=   39 NActive=   39 NUniq=   39 SFac= 1.00D+00 NAtFMM=   60 NAOKFM=F Big=F
 Integral buffers will be    131072 words long.
 Raffenetti 2 integral format.
 Two-electron integral symmetry is turned on.
 One-electron integrals computed using PRISM.
 NBasis=   435 RedAO= T EigKep=  1.08D-06  NBF=   435
 NBsUse=   434 1.00D-06 EigRej=  8.08D-07 NBFU=   434
 ExpMin= 4.38D-02 ExpMax= 5.48D+03 ExpMxC= 8.25D+02 IAcc=3 IRadAn=         5 AccDes= 0.00D+00
 Harris functional with IExCor= 1009 and IRadAn=       5 diagonalized for initial guess.
 HarFok:  IExCor= 1009 AccDes= 0.00D+00 IRadAn=         5 IDoV= 1 UseB2=F ITyADJ=14
 ICtDFT=  3500011 ScaDFX=  1.000000  1.000000  1.000000  1.000000
 FoFCou: FMM=F IPFlag=           0 FMFlag=      100000 FMFlg1=           0
         NFxFlg=           0 DoJE=T BraDBF=F KetDBF=T FulRan=T
         wScrn=  0.000000 ICntrl=     500 IOpCl=  0 I1Cent=   200000004 NGrid=           0
         NMat0=    1 NMatS0=      1 NMatT0=    0 NMatD0=    1 NMtDS0=    0 NMtDT0=    0
 Petite list used in FoFCou.
 Requested convergence on RMS density matrix=1.00D-08 within 128 cycles.
 Requested convergence on MAX density matrix=1.00D-06.
 Requested convergence on             energy=1.00D-06.
 No special actions if energy rises.
 SCF Done:  E(RM062X) =  -1046.25340277     A.U. after   16 cycles
            NFock= 16  Conv=0.47D-08     -V/T= 2.0085

 **********************************************************************

            Population analysis using the SCF density.

 **********************************************************************

 Orbital symmetries:
       Occupied  (A) (A) (A) (A) (A) (A) (A) (A) (A) (A) (A) (A)
                 (A) (A) (A) (A) (A) (A) (A) (A) (A) (A) (A) (A)
                 (A) (A) (A) (A) (A) (A) (A) (A) (A) (A) (A) (A)
                 (A) (A) (A) (A) (A) (A) (A) (A) (A) (A) (A) (A)
                 (A) (A) (A) (A) (A) (A) (A) (A) (A) (A) (A) (A)
                 (A) (A) (A) (A) (A) (A) (A) (A) (A) (A) (A) (A)
                 (A) (A) (A) (A) (A) (A) (A)
       Virtual   (A) (A) (A) (A) (A) (A) (A) (A) (A) (A) (A) (A)
                 (A) (A) (A) (A) (A) (A) (A) (A) (A) (A) (A) (A)
                 (A) (A) (A) (A) (A) (A) (A) (A) (A) (A) (A) (A)
                 (A) (A) (A) (A) (A) (A) (A) (A) (A) (A) (A) (A)
                 (A) (A) (A) (A) (A) (A) (A) (A) (A) (A) (A) (A)
                 (A) (A) (A) (A) (A) (A) (A) (A) (A) (A) (A) (A)
                 (A) (A) (A) (A) (A) (A) (A) (A) (A) (A) (A) (A)
                 (A) (A) (A) (A) (A) (A) (A) (A) (A) (A) (A) (A)
                 (A) (A) (A) (A) (A) (A) (A) (A) (A) (A) (A) (A)
                 (A) (A) (A) (A) (A) (A) (A) (A) (A) (A) (A) (A)
                 (A) (A) (A) (A) (A) (A) (A) (A) (A) (A) (A) (A)
                 (A) (A) (A) (A) (A) (A) (A) (A) (A) (A) (A) (A)
                 (A) (A) (A) (A) (A) (A) (A) (A) (A) (A) (A) (A)
                 (A) (A) (A) (A) (A) (A) (A) (A) (A) (A) (A) (A)
                 (A) (A) (A) (A) (A) (A) (A) (A) (A) (A) (A) (A)
                 (A) (A) (A) (A) (A) (A) (A) (A) (A) (A) (A) (A)
                 (A) (A) (A) (A) (A) (A) (A) (A) (A) (A) (A) (A)
                 (A) (A) (A) (A) (A) (A) (A) (A) (A) (A) (A) (A)
                 (A) (A) (A) (A) (A) (A) (A) (A) (A) (A) (A) (A)
                 (A) (A) (A) (A) (A) (A) (A) (A) (A) (A) (A) (A)
                 (A) (A) (A) (A) (A) (A) (A) (A) (A) (A) (A) (A)
                 (A) (A) (A) (A) (A) (A) (A) (A) (A) (A) (A) (A)
                 (A) (A) (A) (A) (A) (A) (A) (A) (A) (A) (A) (A)
                 (A) (A) (A) (A) (A) (A) (A) (A) (A) (A) (A) (A)
                 (A) (A) (A) (A) (A) (A) (A) (A) (A) (A) (A) (A)
                 (A) (A) (A) (A) (A) (A) (A) (A) (A) (A) (A) (A)
                 (A) (A) (A) (A) (A) (A) (A) (A) (A) (A) (A) (A)
                 (A) (A) (A) (A) (A) (A) (A) (A) (A) (A) (A) (A)
                 (A) (A) (A) (A) (A) (A) (A) (A) (A) (A) (A) (A)
                 (A) (A) (A) (A) (A) (A) (A)
 The electronic state is 1-A.
 Alpha  occ. eigenvalues --  -19.58841 -19.58716 -19.48798 -19.47055 -19.46774
 Alpha  occ. eigenvalues --  -14.91852 -14.66535 -14.64847 -10.55844 -10.51852
 Alpha  occ. eigenvalues --  -10.51254 -10.50673 -10.47136 -10.47094 -10.46975
 Alpha  occ. eigenvalues --  -10.46020 -10.45928 -10.45450 -10.44734 -10.43176
 Alpha  occ. eigenvalues --  -10.43116  -1.27338  -1.08561  -1.04968  -1.03235
 Alpha  occ. eigenvalues --   -0.93820  -0.93292  -0.90630  -0.87632  -0.79953
 Alpha  occ. eigenvalues --   -0.78429  -0.75255  -0.74812  -0.69325  -0.67765
 Alpha  occ. eigenvalues --   -0.61805  -0.61553  -0.58688  -0.57825  -0.55922
 Alpha  occ. eigenvalues --   -0.53814  -0.52898  -0.51358  -0.50031  -0.47889
 Alpha  occ. eigenvalues --   -0.46789  -0.45842  -0.45030  -0.42374  -0.42199
 Alpha  occ. eigenvalues --   -0.41728  -0.40984  -0.40793  -0.40666  -0.39084
 Alpha  occ. eigenvalues --   -0.37449  -0.37189  -0.36167  -0.34641  -0.34488
 Alpha  occ. eigenvalues --   -0.34208  -0.33758  -0.32867  -0.32714  -0.31086
 Alpha  occ. eigenvalues --   -0.30592  -0.29938  -0.29423  -0.28964  -0.28609
 Alpha  occ. eigenvalues --   -0.28320  -0.27126  -0.22581  -0.22433  -0.20015
 Alpha  occ. eigenvalues --   -0.19565  -0.19268  -0.19090  -0.15728
 Alpha virt. eigenvalues --    0.04487   0.10147   0.10310   0.11059   0.11650
 Alpha virt. eigenvalues --    0.11996   0.12363   0.12612   0.13190   0.13630
 Alpha virt. eigenvalues --    0.13908   0.14161   0.14897   0.15386   0.15541
 Alpha virt. eigenvalues --    0.15751   0.16735   0.16932   0.16955   0.17261
 Alpha virt. eigenvalues --    0.18045   0.18206   0.18730   0.19355   0.19478
 Alpha virt. eigenvalues --    0.19993   0.20299   0.20631   0.20796   0.22083
 Alpha virt. eigenvalues --    0.22251   0.22532   0.22611   0.23497   0.23765
 Alpha virt. eigenvalues --    0.24257   0.24453   0.25375   0.25416   0.26103
 Alpha virt. eigenvalues --    0.26356   0.26874   0.27217   0.27896   0.28086
 Alpha virt. eigenvalues --    0.28723   0.29272   0.29360   0.30138   0.30753
 Alpha virt. eigenvalues --    0.30852   0.31379   0.31937   0.32347   0.32379
 Alpha virt. eigenvalues --    0.32660   0.33270   0.33684   0.33984   0.34204
 Alpha virt. eigenvalues --    0.34547   0.34834   0.35291   0.35549   0.35655
 Alpha virt. eigenvalues --    0.35992   0.36067   0.36744   0.37145   0.37769
 Alpha virt. eigenvalues --    0.38104   0.38572   0.38844   0.39056   0.39655
 Alpha virt. eigenvalues --    0.39937   0.40106   0.40784   0.40903   0.41293
 Alpha virt. eigenvalues --    0.41478   0.42023   0.42117   0.42671   0.43176
 Alpha virt. eigenvalues --    0.43269   0.43730   0.43916   0.44482   0.44694
 Alpha virt. eigenvalues --    0.45424   0.46000   0.46328   0.46602   0.46767
 Alpha virt. eigenvalues --    0.46959   0.47399   0.48047   0.48631   0.49199
 Alpha virt. eigenvalues --    0.49860   0.50129   0.50805   0.51282   0.51956
 Alpha virt. eigenvalues --    0.52502   0.52999   0.53890   0.54758   0.56146
 Alpha virt. eigenvalues --    0.57088   0.57832   0.58395   0.59772   0.60707
 Alpha virt. eigenvalues --    0.61496   0.63587   0.63985   0.64785   0.66184
 Alpha virt. eigenvalues --    0.66982   0.67066   0.70223   0.71163   0.73077
 Alpha virt. eigenvalues --    0.74210   0.77884   0.79029   0.79790   0.80291
 Alpha virt. eigenvalues --    0.80750   0.83713   0.84065   0.84747   0.85817
 Alpha virt. eigenvalues --    0.86417   0.86636   0.87294   0.87741   0.88340
 Alpha virt. eigenvalues --    0.88552   0.89467   0.89639   0.90474   0.92279
 Alpha virt. eigenvalues --    0.92661   0.92694   0.94503   0.97039   0.97618
 Alpha virt. eigenvalues --    0.97656   0.98826   0.98840   1.00400   1.01356
 Alpha virt. eigenvalues --    1.02991   1.05194   1.05245   1.07423   1.07927
 Alpha virt. eigenvalues --    1.08326   1.09660   1.10248   1.10741   1.12532
 Alpha virt. eigenvalues --    1.13708   1.14738   1.15519   1.16584   1.16937
 Alpha virt. eigenvalues --    1.17356   1.17835   1.18783   1.19823   1.20085
 Alpha virt. eigenvalues --    1.22323   1.23669   1.25344   1.26557   1.27182
 Alpha virt. eigenvalues --    1.27645   1.28143   1.28503   1.29820   1.30576
 Alpha virt. eigenvalues --    1.31438   1.33577   1.34267   1.35094   1.35275
 Alpha virt. eigenvalues --    1.36635   1.37051   1.37908   1.38826   1.40521
 Alpha virt. eigenvalues --    1.43307   1.43697   1.45249   1.45887   1.46725
 Alpha virt. eigenvalues --    1.47142   1.47332   1.48093   1.48408   1.49561
 Alpha virt. eigenvalues --    1.50639   1.51028   1.52104   1.52735   1.53481
 Alpha virt. eigenvalues --    1.53662   1.55158   1.55839   1.56098   1.57036
 Alpha virt. eigenvalues --    1.57421   1.59476   1.60794   1.61020   1.61384
 Alpha virt. eigenvalues --    1.62062   1.62249   1.62756   1.63310   1.65957
 Alpha virt. eigenvalues --    1.66355   1.68526   1.69494   1.70425   1.71304
 Alpha virt. eigenvalues --    1.72625   1.75566   1.77538   1.79208   1.83045
 Alpha virt. eigenvalues --    1.86033   1.86364   1.90257   1.91618   1.92392
 Alpha virt. eigenvalues --    1.94532   1.95418   1.95571   1.96696   1.97951
 Alpha virt. eigenvalues --    1.99071   1.99356   2.00007   2.03422   2.03610
 Alpha virt. eigenvalues --    2.03835   2.05558   2.06796   2.07080   2.07829
 Alpha virt. eigenvalues --    2.07985   2.08314   2.08627   2.09186   2.09576
 Alpha virt. eigenvalues --    2.10924   2.12596   2.13479   2.14180   2.16017
 Alpha virt. eigenvalues --    2.16797   2.17855   2.19119   2.19650   2.21384
 Alpha virt. eigenvalues --    2.22126   2.22690   2.24747   2.25317   2.26674
 Alpha virt. eigenvalues --    2.29233   2.29848   2.30523   2.31437   2.33899
 Alpha virt. eigenvalues --    2.34362   2.35874   2.36936   2.38614   2.39067
 Alpha virt. eigenvalues --    2.40841   2.42222   2.42438   2.42988   2.46710
 Alpha virt. eigenvalues --    2.49346   2.49517   2.50623   2.50677   2.52856
 Alpha virt. eigenvalues --    2.55276   2.58210   2.58962   2.61795   2.65600
 Alpha virt. eigenvalues --    2.66000   2.67189   2.67953   2.69117   2.72710
 Alpha virt. eigenvalues --    2.73904   2.75549   2.76832   2.78195   2.80189
 Alpha virt. eigenvalues --    2.83212   2.85046   2.85399   2.89053   2.89608
 Alpha virt. eigenvalues --    2.92106   2.92688   2.94476   2.97786   3.01832
 Alpha virt. eigenvalues --    3.06519   3.09113   3.11681   3.16548   3.21105
 Alpha virt. eigenvalues --    3.23460   3.25858   3.27172   3.27853   3.31556
 Alpha virt. eigenvalues --    3.35337   3.42818   3.48552   3.57471   4.24873
 Alpha virt. eigenvalues --    4.35276   4.37074   4.38709   4.40495   4.44784
 Alpha virt. eigenvalues --    4.50720   4.53064   4.55620   4.57164   4.59376
 Alpha virt. eigenvalues --    4.61369   4.62360   4.64316   4.70775   4.73234
 Alpha virt. eigenvalues --    4.82409   4.84408   4.88762   4.90692   5.00676
          Condensed to atoms (all electrons):
               1          2          3          4          5          6
     1  C    5.859188  -0.258549   0.055949  -0.019661  -0.059318  -0.001225
     2  C   -0.258549   6.464245  -0.504944  -0.046962   0.189781   0.014655
     3  C    0.055949  -0.504944   6.847597   0.345881  -0.744772  -0.072539
     4  N   -0.019661  -0.046962   0.345881   7.798491   0.403437  -0.172837
     5  C   -0.059318   0.189781  -0.744772   0.403437   6.543660   0.706462
     6  O   -0.001225   0.014655  -0.072539  -0.172837   0.706462   8.338010
     7  N   -0.001581   0.018266  -0.143766  -0.356549   0.097139  -0.072483
     8  C   -0.006923   0.006841  -0.497243  -0.307430  -1.530302  -0.311075
     9  C    0.006777  -0.031082   0.291199   0.287725   1.082573   0.317730
    10  C   -0.004993   0.016066  -0.219176  -0.184690  -1.320494  -0.100842
    11  C   -0.000809   0.002178  -0.020553  -0.066972   0.245967   0.016706
    12  C    0.000204  -0.000285   0.018221   0.014706   0.204889  -0.028220
    13  C    0.000640  -0.002451  -0.002192   0.021194  -0.418174  -0.031419
    14  H    0.449201  -0.125414   0.030444   0.000458  -0.001317   0.000002
    15  H    0.446181  -0.070022  -0.025915   0.000654  -0.003196  -0.000048
    16  H   -0.059620   0.422974  -0.052504   0.001394   0.000824  -0.000151
    17  H   -0.024492   0.442996  -0.098470   0.008211  -0.003997  -0.000084
    18  H   -0.018030  -0.082231   0.411642  -0.066425   0.037926   0.001463
    19  H    0.002893  -0.033531   0.502994  -0.045179  -0.092290  -0.001067
    20  H    0.001548  -0.003422  -0.023766   0.147726  -0.000883   0.003727
    21  H    0.000021  -0.000024   0.004259   0.001592   0.043300  -0.002366
    22  H   -0.000002   0.000031   0.000043   0.000570   0.010694   0.000071
    23  H    0.000000  -0.000000   0.000029   0.000024   0.003185  -0.000003
    24  N    0.000003  -0.000060  -0.000160   0.000542  -0.018631   0.004199
    25  H    0.000000   0.000000  -0.000000  -0.000005   0.000057   0.000005
    26  O   -0.000002   0.000036  -0.000427  -0.000596  -0.010172  -0.001451
    27  O    0.000000  -0.000001   0.000159   0.000065   0.006028   0.000077
    28  H    0.399415  -0.061396   0.005977  -0.000514   0.003212   0.000002
    29  H    0.000053  -0.001718   0.009201   0.016913  -0.010996   0.002403
    30  O   -0.000801  -0.004251   0.008289   0.004929   0.019199  -0.000600
    31  O    0.002866  -0.005542  -0.005152  -0.031811  -0.004619   0.000274
    32  C   -0.005784  -0.005142   0.000948  -0.002014  -0.021717  -0.000631
    33  C    0.005225  -0.008519   0.035904  -0.036383  -0.041296  -0.000880
    34  C   -0.000030   0.002877  -0.006439   0.004589   0.001591   0.000048
    35  H   -0.000014  -0.000148   0.000141   0.000053  -0.000350  -0.000000
    36  H    0.000010   0.000174  -0.000160  -0.000046  -0.000177  -0.000000
    37  H    0.000090   0.000150  -0.000283  -0.000070   0.000031  -0.000000
    38  H   -0.000010  -0.000027   0.000001   0.000027   0.000015   0.000000
    39  H   -0.000112  -0.000130  -0.000140  -0.000054   0.000031  -0.000000
               7          8          9         10         11         12
     1  C   -0.001581  -0.006923   0.006777  -0.004993  -0.000809   0.000204
     2  C    0.018266   0.006841  -0.031082   0.016066   0.002178  -0.000285
     3  C   -0.143766  -0.497243   0.291199  -0.219176  -0.020553   0.018221
     4  N   -0.356549  -0.307430   0.287725  -0.184690  -0.066972   0.014706
     5  C    0.097139  -1.530302   1.082573  -1.320494   0.245967   0.204889
     6  O   -0.072483  -0.311075   0.317730  -0.100842   0.016706  -0.028220
     7  N    8.004245  -0.123582   0.082343   0.094875  -0.056822   0.061952
     8  C   -0.123582  27.612179 -14.420426  -0.611093   3.272442  -5.385727
     9  C    0.082343 -14.420426  26.510848  -5.392089  -7.073905   2.820721
    10  C    0.094875  -0.611093  -5.392089  19.888029  -5.504863  -0.043735
    11  C   -0.056822   3.272442  -7.073905  -5.504863  17.936449  -2.664318
    12  C    0.061952  -5.385727   2.820721  -0.043735  -2.664318  13.269169
    13  C    0.053346  -2.277812   1.099527  -0.160366  -0.080360  -2.879971
    14  H    0.000016  -0.000031   0.000004  -0.000003  -0.000000   0.000000
    15  H    0.000018  -0.000153   0.000019  -0.000005   0.000000   0.000000
    16  H   -0.000700   0.001124  -0.000147   0.000094  -0.000012  -0.000000
    17  H    0.000445  -0.002346   0.000064   0.000130   0.000020   0.000003
    18  H   -0.001139   0.012787  -0.000994   0.000333  -0.000119  -0.000018
    19  H    0.000039  -0.017933   0.000281  -0.000569   0.000138   0.000070
    20  H    0.007582   0.003617  -0.005920   0.002279   0.000563  -0.000106
    21  H   -0.012362  -0.114381   0.360542   0.001374  -0.030125   0.061019
    22  H   -0.008613   0.046659   0.008566   0.168193   0.078613  -0.018915
    23  H    0.000402   0.029706   0.008736  -0.011874   0.276106   0.046613
    24  N   -0.012576  -0.032068  -0.230992   0.036328  -0.002033   0.317359
    25  H   -0.000352   0.017217   0.024918  -0.004904  -0.075789   0.248064
    26  O    0.000697   0.309394  -0.089635  -0.008925  -0.016514   0.122631
    27  O   -0.000861   0.120506   0.040734  -0.006359   0.193266  -0.176961
    28  H    0.000026   0.000102  -0.000004  -0.000001  -0.000000   0.000000
    29  H    0.090692  -0.012176   0.088857  -0.098228   0.011497   0.002589
    30  O   -0.000686  -0.325807   0.018644   0.216998   0.070205   0.003843
    31  O    0.017694  -0.025005  -0.010326   0.025409  -0.002372   0.000724
    32  C   -0.012111   0.089116  -0.000910  -0.026177  -0.069692   0.001155
    33  C   -0.022384  -0.023649  -0.029764   0.021119   0.021914  -0.001552
    34  C    0.005612  -0.004308  -0.000363   0.004569  -0.002369   0.000224
    35  H   -0.000201  -0.001419  -0.000110   0.001450   0.000593   0.000010
    36  H   -0.000073  -0.001459  -0.000092   0.001350   0.000382   0.000017
    37  H   -0.000015  -0.000015   0.000006   0.000045   0.000008   0.000000
    38  H   -0.000010   0.000063   0.000003  -0.000059  -0.000006  -0.000000
    39  H   -0.000011  -0.000065   0.000001   0.000095   0.000014   0.000000
              13         14         15         16         17         18
     1  C    0.000640   0.449201   0.446181  -0.059620  -0.024492  -0.018030
     2  C   -0.002451  -0.125414  -0.070022   0.422974   0.442996  -0.082231
     3  C   -0.002192   0.030444  -0.025915  -0.052504  -0.098470   0.411642
     4  N    0.021194   0.000458   0.000654   0.001394   0.008211  -0.066425
     5  C   -0.418174  -0.001317  -0.003196   0.000824  -0.003997   0.037926
     6  O   -0.031419   0.000002  -0.000048  -0.000151  -0.000084   0.001463
     7  N    0.053346   0.000016   0.000018  -0.000700   0.000445  -0.001139
     8  C   -2.277812  -0.000031  -0.000153   0.001124  -0.002346   0.012787
     9  C    1.099527   0.000004   0.000019  -0.000147   0.000064  -0.000994
    10  C   -0.160366  -0.000003  -0.000005   0.000094   0.000130   0.000333
    11  C   -0.080360  -0.000000   0.000000  -0.000012   0.000020  -0.000119
    12  C   -2.879971   0.000000   0.000000  -0.000000   0.000003  -0.000018
    13  C   11.899205   0.000000   0.000001   0.000016  -0.000011   0.000174
    14  H    0.000000   0.511023  -0.028093  -0.003050  -0.002890  -0.000085
    15  H    0.000001  -0.028093   0.512561  -0.004719   0.003790  -0.000450
    16  H    0.000016  -0.003050  -0.004719   0.500896  -0.031781   0.004483
    17  H   -0.000011  -0.002890   0.003790  -0.031781   0.471796  -0.005472
    18  H    0.000174  -0.000085  -0.000450   0.004483  -0.005472   0.546559
    19  H    0.000008  -0.000077   0.002767  -0.005957   0.004017  -0.046036
    20  H   -0.000152  -0.000000   0.000004  -0.000287   0.002315   0.001190
    21  H   -0.009332   0.000000  -0.000000   0.000000  -0.000000   0.000000
    22  H    0.001983   0.000000  -0.000000  -0.000000  -0.000000   0.000000
    23  H   -0.046402  -0.000000   0.000000  -0.000000   0.000000   0.000000
    24  N   -0.416193   0.000000  -0.000000  -0.000000  -0.000000   0.000001
    25  H    0.115485   0.000000  -0.000000  -0.000000  -0.000000  -0.000000
    26  O   -0.395024  -0.000000   0.000000   0.000000   0.000000  -0.000000
    27  O   -0.275627   0.000000   0.000000  -0.000000   0.000000  -0.000000
    28  H    0.000001  -0.027469  -0.032951   0.003950  -0.004337   0.002895
    29  H    0.001463  -0.000000  -0.000000  -0.000001   0.000006  -0.000000
    30  O    0.001064   0.000000  -0.000000   0.000057  -0.000057   0.000002
    31  O   -0.000110  -0.000006  -0.000041   0.000518  -0.005490   0.000608
    32  C    0.000500  -0.000055  -0.000085   0.000281  -0.000925   0.000364
    33  C   -0.001805   0.000038  -0.000018   0.000641  -0.000570   0.000156
    34  C    0.000212  -0.000013   0.000005  -0.000168   0.000189  -0.000029
    35  H    0.000010   0.000000   0.000000   0.000000   0.000000  -0.000000
    36  H    0.000005  -0.000000   0.000000  -0.000000   0.000000   0.000000
    37  H    0.000000   0.000000  -0.000000   0.000000  -0.000001   0.000000
    38  H    0.000000   0.000000  -0.000000  -0.000000   0.000000   0.000000
    39  H    0.000000   0.000000  -0.000000   0.000001  -0.000002  -0.000000
              19         20         21         22         23         24
     1  C    0.002893   0.001548   0.000021  -0.000002   0.000000   0.000003
     2  C   -0.033531  -0.003422  -0.000024   0.000031  -0.000000  -0.000060
     3  C    0.502994  -0.023766   0.004259   0.000043   0.000029  -0.000160
     4  N   -0.045179   0.147726   0.001592   0.000570   0.000024   0.000542
     5  C   -0.092290  -0.000883   0.043300   0.010694   0.003185  -0.018631
     6  O   -0.001067   0.003727  -0.002366   0.000071  -0.000003   0.004199
     7  N    0.000039   0.007582  -0.012362  -0.008613   0.000402  -0.012576
     8  C   -0.017933   0.003617  -0.114381   0.046659   0.029706  -0.032068
     9  C    0.000281  -0.005920   0.360542   0.008566   0.008736  -0.230992
    10  C   -0.000569   0.002279   0.001374   0.168193  -0.011874   0.036328
    11  C    0.000138   0.000563  -0.030125   0.078613   0.276106  -0.002033
    12  C    0.000070  -0.000106   0.061019  -0.018915   0.046613   0.317359
    13  C    0.000008  -0.000152  -0.009332   0.001983  -0.046402  -0.416193
    14  H   -0.000077  -0.000000   0.000000   0.000000  -0.000000   0.000000
    15  H    0.002767   0.000004  -0.000000  -0.000000   0.000000  -0.000000
    16  H   -0.005957  -0.000287   0.000000  -0.000000  -0.000000  -0.000000
    17  H    0.004017   0.002315  -0.000000  -0.000000   0.000000  -0.000000
    18  H   -0.046036   0.001190   0.000000   0.000000   0.000000   0.000001
    19  H    0.509278   0.001963  -0.000002   0.000000   0.000000  -0.000005
    20  H    0.001963   0.246322  -0.000000   0.000004   0.000000  -0.000002
    21  H   -0.000002  -0.000000   0.390421  -0.000086   0.000013  -0.023682
    22  H    0.000000   0.000004  -0.000086   0.430969  -0.003541  -0.000129
    23  H    0.000000   0.000000   0.000013  -0.003541   0.502527   0.000286
    24  N   -0.000005  -0.000002  -0.023682  -0.000129   0.000286   6.976757
    25  H   -0.000000   0.000000  -0.000092  -0.000099  -0.003206  -0.033775
    26  O    0.000001   0.000000   0.012255   0.000004   0.000054   0.432861
    27  O    0.000000   0.000000  -0.001481  -0.000005  -0.000034   0.349728
    28  H   -0.000255  -0.000006   0.000000   0.000000   0.000000  -0.000000
    29  H    0.000012   0.008991  -0.000143   0.006642  -0.000008  -0.000142
    30  O   -0.000010  -0.000009   0.000006  -0.001881   0.000090  -0.000042
    31  O   -0.000505   0.076056   0.000002   0.000046   0.000000   0.000001
    32  C    0.000588  -0.010773   0.000055   0.000552  -0.000065   0.000048
    33  C    0.000023   0.021634  -0.000003   0.000917  -0.000006   0.000009
    34  C    0.000019  -0.003302  -0.000000   0.000024  -0.000002  -0.000001
    35  H    0.000000  -0.000021   0.000000  -0.000004  -0.000000  -0.000000
    36  H    0.000000  -0.000022   0.000000  -0.000002  -0.000000  -0.000000
    37  H   -0.000000  -0.000011   0.000000   0.000000  -0.000000  -0.000000
    38  H    0.000000   0.000000  -0.000000  -0.000000   0.000000  -0.000000
    39  H   -0.000000  -0.000010  -0.000000   0.000000  -0.000000  -0.000000
              25         26         27         28         29         30
     1  C    0.000000  -0.000002   0.000000   0.399415   0.000053  -0.000801
     2  C    0.000000   0.000036  -0.000001  -0.061396  -0.001718  -0.004251
     3  C   -0.000000  -0.000427   0.000159   0.005977   0.009201   0.008289
     4  N   -0.000005  -0.000596   0.000065  -0.000514   0.016913   0.004929
     5  C    0.000057  -0.010172   0.006028   0.003212  -0.010996   0.019199
     6  O    0.000005  -0.001451   0.000077   0.000002   0.002403  -0.000600
     7  N   -0.000352   0.000697  -0.000861   0.000026   0.090692  -0.000686
     8  C    0.017217   0.309394   0.120506   0.000102  -0.012176  -0.325807
     9  C    0.024918  -0.089635   0.040734  -0.000004   0.088857   0.018644
    10  C   -0.004904  -0.008925  -0.006359  -0.000001  -0.098228   0.216998
    11  C   -0.075789  -0.016514   0.193266  -0.000000   0.011497   0.070205
    12  C    0.248064   0.122631  -0.176961   0.000000   0.002589   0.003843
    13  C    0.115485  -0.395024  -0.275627   0.000001   0.001463   0.001064
    14  H    0.000000  -0.000000   0.000000  -0.027469  -0.000000   0.000000
    15  H   -0.000000   0.000000   0.000000  -0.032951  -0.000000  -0.000000
    16  H   -0.000000   0.000000  -0.000000   0.003950  -0.000001   0.000057
    17  H   -0.000000   0.000000   0.000000  -0.004337   0.000006  -0.000057
    18  H   -0.000000  -0.000000  -0.000000   0.002895  -0.000000   0.000002
    19  H   -0.000000   0.000001   0.000000  -0.000255   0.000012  -0.000010
    20  H    0.000000   0.000000   0.000000  -0.000006   0.008991  -0.000009
    21  H   -0.000092   0.012255  -0.001481   0.000000  -0.000143   0.000006
    22  H   -0.000099   0.000004  -0.000005   0.000000   0.006642  -0.001881
    23  H   -0.003206   0.000054  -0.000034   0.000000  -0.000008   0.000090
    24  N   -0.033775   0.432861   0.349728  -0.000000  -0.000142  -0.000042
    25  H    0.468594  -0.002056   0.013820  -0.000000  -0.000000   0.000004
    26  O   -0.002056   7.779624  -0.098367   0.000000   0.000008  -0.000001
    27  O    0.013820  -0.098367   7.893362  -0.000000  -0.000001   0.000000
    28  H   -0.000000   0.000000  -0.000000   0.509950  -0.000000   0.000000
    29  H   -0.000000   0.000008  -0.000001  -0.000000   0.267280   0.093771
    30  O    0.000004  -0.000001   0.000000   0.000000   0.093771   8.596429
    31  O    0.000000  -0.000000  -0.000000   0.000039  -0.000926  -0.183794
    32  C    0.000006   0.000017   0.000019   0.000045  -0.006154   0.347932
    33  C   -0.000001   0.000002   0.000000   0.000002   0.018144  -0.215844
    34  C   -0.000000   0.000000  -0.000000  -0.000004  -0.002963   0.035194
    35  H    0.000000   0.000000   0.000000  -0.000000  -0.000006  -0.002067
    36  H    0.000000   0.000000  -0.000000  -0.000000  -0.000004  -0.003185
    37  H   -0.000000   0.000000   0.000000  -0.000000  -0.000000   0.000084
    38  H    0.000000  -0.000000  -0.000000   0.000000   0.000000  -0.000328
    39  H   -0.000000   0.000000   0.000000  -0.000000  -0.000000   0.000210
              31         32         33         34         35         36
     1  C    0.002866  -0.005784   0.005225  -0.000030  -0.000014   0.000010
     2  C   -0.005542  -0.005142  -0.008519   0.002877  -0.000148   0.000174
     3  C   -0.005152   0.000948   0.035904  -0.006439   0.000141  -0.000160
     4  N   -0.031811  -0.002014  -0.036383   0.004589   0.000053  -0.000046
     5  C   -0.004619  -0.021717  -0.041296   0.001591  -0.000350  -0.000177
     6  O    0.000274  -0.000631  -0.000880   0.000048  -0.000000  -0.000000
     7  N    0.017694  -0.012111  -0.022384   0.005612  -0.000201  -0.000073
     8  C   -0.025005   0.089116  -0.023649  -0.004308  -0.001419  -0.001459
     9  C   -0.010326  -0.000910  -0.029764  -0.000363  -0.000110  -0.000092
    10  C    0.025409  -0.026177   0.021119   0.004569   0.001450   0.001350
    11  C   -0.002372  -0.069692   0.021914  -0.002369   0.000593   0.000382
    12  C    0.000724   0.001155  -0.001552   0.000224   0.000010   0.000017
    13  C   -0.000110   0.000500  -0.001805   0.000212   0.000010   0.000005
    14  H   -0.000006  -0.000055   0.000038  -0.000013   0.000000  -0.000000
    15  H   -0.000041  -0.000085  -0.000018   0.000005   0.000000   0.000000
    16  H    0.000518   0.000281   0.000641  -0.000168   0.000000  -0.000000
    17  H   -0.005490  -0.000925  -0.000570   0.000189   0.000000   0.000000
    18  H    0.000608   0.000364   0.000156  -0.000029  -0.000000   0.000000
    19  H   -0.000505   0.000588   0.000023   0.000019   0.000000   0.000000
    20  H    0.076056  -0.010773   0.021634  -0.003302  -0.000021  -0.000022
    21  H    0.000002   0.000055  -0.000003  -0.000000   0.000000   0.000000
    22  H    0.000046   0.000552   0.000917   0.000024  -0.000004  -0.000002
    23  H    0.000000  -0.000065  -0.000006  -0.000002  -0.000000  -0.000000
    24  N    0.000001   0.000048   0.000009  -0.000001  -0.000000  -0.000000
    25  H    0.000000   0.000006  -0.000001  -0.000000   0.000000   0.000000
    26  O   -0.000000   0.000017   0.000002   0.000000   0.000000   0.000000
    27  O   -0.000000   0.000019   0.000000  -0.000000   0.000000  -0.000000
    28  H    0.000039   0.000045   0.000002  -0.000004  -0.000000  -0.000000
    29  H   -0.000926  -0.006154   0.018144  -0.002963  -0.000006  -0.000004
    30  O   -0.183794   0.347932  -0.215844   0.035194  -0.002067  -0.003185
    31  O    8.478032   0.389257  -0.123889   0.043149   0.000231   0.002359
    32  C    0.389257   5.704235  -0.947941   0.002028  -0.073522  -0.073809
    33  C   -0.123889  -0.947941   7.482220  -0.332869   0.437656   0.439904
    34  C    0.043149   0.002028  -0.332869   5.844236  -0.044101  -0.046678
    35  H    0.000231  -0.073522   0.437656  -0.044101   0.505113  -0.029786
    36  H    0.002359  -0.073809   0.439904  -0.046678  -0.029786   0.504418
    37  H   -0.004698  -0.009070  -0.056359   0.422642  -0.004002   0.003665
    38  H    0.002403   0.039858  -0.096010   0.394595  -0.002097  -0.002094
    39  H   -0.005283  -0.008488  -0.056727   0.423009   0.003669  -0.003977
              37         38         39
     1  C    0.000090  -0.000010  -0.000112
     2  C    0.000150  -0.000027  -0.000130
     3  C   -0.000283   0.000001  -0.000140
     4  N   -0.000070   0.000027  -0.000054
     5  C    0.000031   0.000015   0.000031
     6  O   -0.000000   0.000000  -0.000000
     7  N   -0.000015  -0.000010  -0.000011
     8  C   -0.000015   0.000063  -0.000065
     9  C    0.000006   0.000003   0.000001
    10  C    0.000045  -0.000059   0.000095
    11  C    0.000008  -0.000006   0.000014
    12  C    0.000000  -0.000000   0.000000
    13  C    0.000000   0.000000   0.000000
    14  H    0.000000   0.000000   0.000000
    15  H   -0.000000  -0.000000  -0.000000
    16  H    0.000000  -0.000000   0.000001
    17  H   -0.000001   0.000000  -0.000002
    18  H    0.000000   0.000000  -0.000000
    19  H   -0.000000   0.000000  -0.000000
    20  H   -0.000011   0.000000  -0.000010
    21  H    0.000000  -0.000000  -0.000000
    22  H    0.000000  -0.000000   0.000000
    23  H   -0.000000   0.000000  -0.000000
    24  N   -0.000000  -0.000000  -0.000000
    25  H   -0.000000   0.000000  -0.000000
    26  O    0.000000  -0.000000   0.000000
    27  O    0.000000  -0.000000   0.000000
    28  H   -0.000000   0.000000  -0.000000
    29  H   -0.000000   0.000000  -0.000000
    30  O    0.000084  -0.000328   0.000210
    31  O   -0.004698   0.002403  -0.005283
    32  C   -0.009070   0.039858  -0.008488
    33  C   -0.056359  -0.096010  -0.056727
    34  C    0.422642   0.394595   0.423009
    35  H   -0.004002  -0.002097   0.003669
    36  H    0.003665  -0.002094  -0.003977
    37  H    0.489016  -0.030637  -0.026490
    38  H   -0.030637   0.551931  -0.030676
    39  H   -0.026490  -0.030676   0.491147
 Mulliken charges:
               1
     1  C   -0.768310
     2  C   -0.335418
     3  C   -0.150276
     4  N   -0.720981
     5  C    0.682701
     6  O   -0.607913
     7  N   -0.708512
     8  C    0.510675
     9  C    0.235942
    10  C   -0.779290
    11  C   -0.459428
    12  C    0.005624
    13  C   -0.197431
    14  H    0.197316
    15  H    0.199695
    16  H    0.221847
    17  H    0.246942
    18  H    0.200449
    19  H    0.218323
    20  H    0.523171
    21  H    0.319221
    22  H    0.278696
    23  H    0.197372
    24  N   -0.347633
    25  H    0.232111
    26  O   -0.034414
    27  O   -0.058067
    28  H    0.201320
    29  H    0.514945
    30  O   -0.677590
    31  O   -0.630102
    32  C    0.698062
    33  C   -0.489038
    34  C   -0.741173
    35  H    0.208924
    36  H    0.209282
    37  H    0.215912
    38  H    0.173056
    39  H    0.213986
 Sum of Mulliken charges =  -1.00000
 Mulliken charges with hydrogens summed into heavy atoms:
               1
     1  C   -0.169978
     2  C    0.133372
     3  C    0.268495
     4  N   -0.197810
     5  C    0.682701
     6  O   -0.607913
     7  N   -0.193567
     8  C    0.510675
     9  C    0.555164
    10  C   -0.500595
    11  C   -0.262055
    12  C    0.237735
    13  C   -0.197431
    24  N   -0.347633
    26  O   -0.034414
    27  O   -0.058067
    30  O   -0.677590
    31  O   -0.630102
    32  C    0.698062
    33  C   -0.070833
    34  C   -0.138218
 Electronic spatial extent (au):  <R**2>=           9655.1689
 Charge=             -1.0000 electrons
 Dipole moment (field-independent basis, Debye):
    X=             -2.1620    Y=             -1.5063    Z=             -0.1948  Tot=              2.6422
 Quadrupole moment (field-independent basis, Debye-Ang):
   XX=           -200.1280   YY=           -148.6047   ZZ=           -129.8404
   XY=            -21.0623   XZ=             -0.1532   YZ=             -0.9356
 Traceless Quadrupole moment (field-independent basis, Debye-Ang):
   XX=            -40.6036   YY=             10.9197   ZZ=             29.6840
   XY=            -21.0623   XZ=             -0.1532   YZ=             -0.9356
 Octapole moment (field-independent basis, Debye-Ang**2):
  XXX=           -177.9835  YYY=            -18.6280  ZZZ=              1.5072  XYY=             14.5737
  XXY=            -29.6201  XXZ=             -4.9915  XZZ=              3.3680  YZZ=              8.7050
  YYZ=             -1.7451  XYZ=             -0.9810
 Hexadecapole moment (field-independent basis, Debye-Ang**3):
 XXXX=         -11800.8588 YYYY=          -3761.0915 ZZZZ=           -180.3586 XXXY=           -360.0131
 XXXZ=              5.9913 YYYX=            -43.1307 YYYZ=             -9.4792 ZZZX=              2.4796
 ZZZY=              1.3939 XXYY=          -2345.6434 XXZZ=          -1579.6304 YYZZ=           -632.6692
 XXYZ=              3.7918 YYXZ=             -4.7604 ZZXY=             37.0116
 N-N= 1.638221883841D+03 E-N=-5.735912424843D+03  KE= 1.037475289040D+03
 Calling FoFJK, ICntrl=      2127 FMM=F ISym2X=0 I1Cent= 0 IOpClX= 0 NMat=1 NMatS=1 NMatT=0.
 ***** Axes restored to original set *****
 -------------------------------------------------------------------
 Center     Atomic                   Forces (Hartrees/Bohr)
 Number     Number              X              Y              Z
 -------------------------------------------------------------------
      1        6           0.000466569   -0.000262349   -0.000470921
      2        6          -0.000668425   -0.000031173    0.000158956
      3        6          -0.001148586   -0.000214158    0.001595467
      4        7           0.000689778   -0.001572719   -0.001739812
      5        6           0.001951708    0.003499739    0.000749861
      6        8          -0.000499302   -0.001389743   -0.000329023
      7        7          -0.001497571   -0.000143979    0.001472428
      8        6           0.000719635   -0.001145671   -0.001712301
      9        6           0.000098319    0.000649766    0.000395613
     10        6          -0.000630738   -0.000742239    0.000038001
     11        6           0.000648009    0.000450715   -0.000314814
     12        6          -0.000751038   -0.000137466    0.000654461
     13        6           0.000333789   -0.000327671   -0.000565964
     14        1           0.000053516   -0.000026940   -0.000119929
     15        1          -0.000036221    0.000171034    0.000011575
     16        1          -0.000413979    0.000020260   -0.000111602
     17        1           0.000048557   -0.000283984    0.000500777
     18        1           0.000107826    0.000423876   -0.000119089
     19        1          -0.000002260    0.000585269    0.000219506
     20        1          -0.000309272   -0.000349869   -0.000076318
     21        1           0.000320163    0.000069817   -0.000354018
     22        1           0.000098863   -0.000343926   -0.000399886
     23        1          -0.000108995   -0.000093275    0.000044519
     24        7           0.001261556    0.000810108   -0.000748363
     25        1           0.000395120    0.000357535   -0.000108350
     26        8          -0.000634107   -0.000400210    0.000342463
     27        8          -0.000740930    0.000152992    0.000925465
     28        1           0.000020615    0.000117995    0.000120549
     29        1          -0.000177162   -0.000321213   -0.000018175
     30        8          -0.000830976   -0.001316870   -0.000479695
     31        8          -0.000307233   -0.001294263   -0.000816853
     32        6           0.002024022    0.003558746    0.001203669
     33        6          -0.000679947   -0.000425526    0.000223616
     34        6           0.000047990   -0.000730613   -0.000802797
     35        1           0.000063520   -0.000002981    0.000196830
     36        1          -0.000047965    0.000203758    0.000096180
     37        1           0.000455472    0.000243183    0.000340129
     38        1          -0.000313205   -0.000327688    0.000076093
     39        1          -0.000007116    0.000569731   -0.000078245
 -------------------------------------------------------------------
 Cartesian Forces:  Max     0.003558746 RMS     0.000807461

 GradGradGradGradGradGradGradGradGradGradGradGradGradGradGradGradGradGrad
 Berny optimization.
 FormGI is forming the generalized inverse of G from B-inverse, IUseBI=4.
 GSVD:  received Info=                   1 from GESDD.
 Internal  Forces:  Max     0.002261165 RMS     0.000458626
 Search for a local minimum.
 Step number   1 out of a maximum of  206
 All quantities printed in internal units (Hartrees-Bohrs-Radians)
 Mixed Optimization -- En-DIIS/RFO-DIIS
 Second derivative matrix not updated -- first step.
 ITU=  0
     Eigenvalues ---    0.00230   0.00305   0.00422   0.00440   0.00469
     Eigenvalues ---    0.00686   0.00726   0.00726   0.01062   0.01324
[...]
 0,-0.00005397,0.00008518,0.00212912,-0.00124265,0.00103197,-0.00127936
 ,-0.00508279,0.00264752,-0.02684909,0.01112421,-0.00203858,0.07864932,
 -0.07110179,-0.00330684,0.01727244,-0.00653010,-0.00023336,-0.08836651
 ,0.07984221,0.00000330,-0.00000432,0.00000061,-0.00001038,0.00000191,-
 0.00000064,0.00003409,-0.00000234,-0.00002356,-0.00000440,-0.00001155,
 0.00000371,0.00003884,0.00004895,-0.00000545,-0.00003511,-0.00004501,-
 0.00000106,-0.00001411,-0.00010190,-0.00006046,-0.00005069,0.00007341,
 0.00012662,0.00000467,-0.00002549,-0.00002884,0.00003073,0.00000505,-0
 .00003641,-0.00001376,-0.00000780,0.00002137,0.00001182,-0.00000678,-0
 .00002214,-0.00000788,0.00000491,0.00001434,-0.00000754,0.00000453,0.0
 0000631,0.00000014,0.00000152,0.00000052,-0.00000095,-0.00000268,-0.00
 000614,0.00001070,-0.00001366,-0.00000310,-0.00000133,0.00000184,0.000
 00540,-0.00000622,0.00000145,0.00000117,0.00001723,0.00003106,-0.00002
 779,-0.00000050,0.00000426,0.00000511,-0.00005047,0.00000145,0.0000268
 0,0.00000503,-0.00000367,-0.00001181,-0.00000266,0.00001077,0.00001277
 ,-0.00000047,-0.00000083,-0.00000033,0.00000306,-0.00000266,-0.0000064
 2,0.00000291,-0.00000944,-0.00001108,-0.00000031,0.00000030,-0.0000007
 8,0.00009953,0.00018896,0.00000533,-0.00022062,-0.00169907,-0.00071639
 ,0.00003087,0.00076518,0.00007956,0.00026588,0.00221602,-0.00080418,0.
 00303544,-0.00256168,-0.04626784,0.02760346,-0.00941423,-0.00045650,-0
 .00466929,0.00456496,0.05069300,-0.00000770,-0.00000233,-0.00000951,0.
 00001935,-0.00000008,0.00002984,0.00001929,-0.00000372,-0.00004649,-0.
 00010634,-0.00029904,-0.00008109,-0.00010422,0.00006101,0.00018418,0.0
 0000197,-0.00004708,-0.00005738,0.00012485,0.00007337,0.00001399,0.000
 01922,-0.00001376,-0.00003857,-0.00000912,0.00000464,0.00000441,-0.000
 00794,-0.00000884,0.00001378,0.00001245,0.00000323,-0.00001029,-0.0000
 0503,0.00000258,0.00000598,0.00000352,0.00000061,-0.00000277,-0.000001
 80,0.00000159,0.00000506,-0.00000407,-0.00000293,0.00000312,-0.0000029
 2,0.00000212,-0.00000634,0.00000365,-0.00000063,-0.00001746,-0.0000042
 8,-0.00000235,0.00000752,-0.00001271,-0.00000758,0.00000711,0.00018339
 ,0.00048850,0.00004133,-0.00000066,-0.00000049,0.00000134,0.00001519,0
 .00001540,-0.00001402,-0.00000314,0.00000349,0.00000518,0.00000303,-0.
 00000508,-0.00000507,0.00000079,0.00000119,0.00000013,-0.00000319,0.00
 000015,0.00000256,-0.00000216,0.00000401,0.00000493,0.00000007,0.00000
 084,-0.00000025,-0.00017655,-0.00006551,-0.00004646,-0.00059264,0.0022
 4534,-0.00077623,-0.00495015,-0.00157960,-0.00096295,0.00406765,-0.013
 55092,0.01864865,-0.04749786,0.01843398,-0.02653315,0.00044958,-0.0037
 7715,0.00497834,-0.00411968,0.01912792,-0.02677858,0.05192108,-0.00000
 645,-0.00000883,-0.00001947,0.00002820,0.00001147,0.00004122,0.0000540
 8,0.00000008,-0.00010043,-0.00019447,-0.00053127,-0.00019903,-0.000157
 76,0.00023827,0.00039861,-0.00005101,-0.00018852,-0.00012072,0.0001653
 0,-0.00008859,-0.00019272,-0.00008860,0.00015337,0.00021262,0.00000042
 ,-0.00005916,-0.00005616,0.00003869,-0.00000161,-0.00006638,-0.0000274
 3,0.00000453,0.00001165,0.00002367,-0.00001331,-0.00003764,-0.00001510
 ,0.00001709,0.00002908,-0.00000665,0.00000917,0.00000964,-0.00001429,-
 0.00000808,0.00000639,0.00000950,0.00000370,-0.00000180,0.00000706,-0.
 00000283,-0.00005092,-0.00000009,-0.00000811,0.00001656,-0.00003184,-0
 .00001710,0.00001299,0.00040979,0.00077273,0.00009278,-0.00000346,0.00
 000963,0.00001731,-0.00001171,-0.00002271,0.00006133,0.00001450,-0.000
 00779,-0.00000908,-0.00000917,0.00001293,0.00002526,0.00000192,-0.0000
 0143,0.00000098,0.00000689,-0.00000277,-0.00001345,0.00000485,-0.00001
 452,-0.00002111,0.00000053,-0.00000520,0.00000532,-0.00003510,0.000150
 26,0.00000114,-0.00163988,0.00146475,-0.00386566,-0.00523493,-0.002254
 21,-0.00137468,0.00777904,-0.01327216,0.02469058,0.02128456,-0.1321959
 4,0.12272646,-0.00289365,0.01149962,-0.01766093,0.00112276,-0.00650895
 ,0.00819241,-0.02075203,0.14104881,0.00000681,0.00000430,0.00000946,-0
 .00004456,-0.00000960,-0.00002804,0.00001404,0.00000785,-0.00000014,0.
 00006928,0.00015673,0.00011897,0.00011826,-0.00007260,-0.00020951,-0.0
 0001065,0.00004486,0.00005853,-0.00007666,0.00001081,0.00009301,0.0000
 1474,-0.00003902,-0.00004865,0.00000005,0.00001903,0.00001921,-0.00000
 379,0.00001195,0.00001362,0.00000507,-0.00000470,0.00000039,-0.0000065
 0,0.00000093,0.00000979,0.00000318,-0.00001173,-0.00001297,-0.00000710
 ,0.00000030,-0.00000175,0.00001119,0.00000696,0.00000055,0.00001113,-0
 .00000156,0.00000619,0.00000267,-0.00000033,0.00000961,-0.00000424,-0.
 00000700,0.00000494,0.00000853,0.00000821,0.00000042,-0.00014274,-0.00
 016924,-0.00007231,0.00000113,-0.00000218,-0.00000841,-0.00000840,0.00
 001647,0.00001104,-0.00000457,0.00000238,0.00000217,0.00001143,0.00001
 098,-0.00000782,-0.00000116,0.00000060,-0.00000105,-0.00000774,-0.0000
 0684,0.00000676,-0.00000289,-0.00000181,0.00000492,-0.00000293,-0.0000
 0620,0.00000185,0.00008102,0.00005647,0.00000440,-0.00054299,-0.001085
 24,0.00090917,0.00013603,0.00107255,0.00108668,0.00131334,-0.00226206,
 -0.00078157,-0.02827067,0.12179252,-0.22299039,-0.00376454,0.01494061,
 -0.02168840,-0.00030886,-0.00008377,0.00006150,0.03028570,-0.13058047,
 0.24538880,0.00001353,0.00000764,0.00002302,-0.00008857,-0.00002460,-0
 .00004802,0.00003433,-0.00000869,0.00000385,0.00004000,0.00015241,0.00
 009481,0.00006942,-0.00011766,-0.00016788,0.00001190,0.00008025,0.0000
 5023,-0.00006081,0.00004564,0.00010848,0.00003997,-0.00005646,-0.00008
 750,0.00000282,0.00002527,0.00002047,-0.00002442,-0.00000377,0.0000182
 9,0.00000780,0.00000100,-0.00000811,-0.00001052,0.00000767,0.00001729,
 0.00000730,-0.00000028,-0.00001040,-0.00001244,-0.00000082,-0.00000301
 ,0.00002025,0.00001209,-0.00000120,0.00002034,0.00000348,0.00001162,0.
 00000024,-0.00001137,0.00001192,-0.00000567,-0.00000398,-0.00000088,0.
 00000562,0.00001601,0.00000608,-0.00014020,-0.00016827,-0.00003683,0.0
 0000256,-0.00000492,-0.00000717,0.00000724,-0.00001043,-0.00001156,-0.
 00000258,-0.00000122,0.00000369,0.00000077,-0.00002237,-0.00001824,0.,
 0.00000028,0.00000083,-0.00000021,0.00000810,0.00000668,-0.00000321,0.
 00001517,0.00001519,-0.00000597,-0.00000695,-0.00000106,-0.00002399,-0
 .00005549,-0.00003340,-0.00043727,0.00008197,0.00042222,-0.00017890,0.
 00002342,0.00104329,0.00089691,0.00034375,-0.00151022,0.00059839,-0.00
 391142,0.00615119,-0.05276152,0.02078369,-0.03022005,0.00014015,-0.000
 63622,0.00003840,0.00051875,0.00070022,0.00124161,0.05255340,-0.000000
 95,0.00000747,0.00000821,0.00000079,-0.00001271,-0.00000204,-0.0000391
 2,-0.00000179,0.00004437,0.00007352,0.00011964,0.00002868,0.00000078,-
 0.00008828,-0.00006335,0.00003562,0.00007407,0.00001672,0.00000646,0.0
 0007486,0.00005537,0.00003754,-0.00004115,-0.00007366,0.00000122,0.000
 01692,0.00001267,-0.00002053,-0.00001010,0.00001773,0.00000807,0.00000
 069,-0.00000895,-0.00000718,0.00000646,0.00001341,0.00000676,0.0000062
 5,-0.00000364,0.00001197,-0.00000923,-0.00000481,0.00000320,-0.0000006
 8,-0.00000562,-0.00000548,-0.00000030,-0.00000287,-0.00001278,0.000012
 75,0.00002322,-0.00000137,0.00000485,-0.00001015,0.00001130,0.00000359
 ,-0.00000327,-0.00014162,-0.00017810,-0.00002425,0.00000036,-0.0000040
 6,-0.00000346,0.00000717,-0.00000489,-0.00001594,-0.00000203,-0.000000
 59,0.00000190,-0.00000954,-0.00003326,-0.00001600,-0.00000009,0.000000
 11,0.00000075,0.00000675,0.00001429,0.00000345,-0.00000031,0.00001834,
 0.00001432,-0.00000041,0.00000829,-0.00000412,-0.00005843,-0.00010524,
 -0.00002376,0.00013997,0.00025833,0.00054407,0.00000967,-0.00045674,-0
 .00004473,-0.00041284,0.00026709,-0.00081800,-0.00286458,0.01158679,-0
 .01619754,0.02178768,-0.13542112,0.12806662,-0.00010292,0.00093128,0.0
 0084270,0.00017687,-0.00174567,-0.00387160,-0.02429673,0.14564760,0.00
 000522,0.00000642,0.00000742,-0.00003465,-0.00001149,-0.00001617,0.000
 01386,0.00001035,-0.00002052,0.00002082,0.00006646,0.00008782,0.000093
 27,-0.00004650,-0.00017265,-0.00002038,0.00000941,0.00004949,-0.000099
 73,-0.00008737,0.00007496,0.00000313,-0.00004040,-0.00003618,-0.000003
 02,0.00001420,0.00001610,0.00000957,0.00001433,0.00001623,0.00000287,-
 0.00000509,0.00000143,-0.00000461,-0.00000195,0.00000683,0.00000088,-0
 .00001781,-0.00001554,-0.00000355,-0.00000071,-0.00000147,0.00000835,0
 .00000369,-0.00000027,0.00001344,-0.00000196,0.00000693,-0.00001102,0.
 00000199,0.00000293,-0.00000609,-0.00001147,0.00001053,0.00000401,0.00
 000357,0.00000443,-0.00008160,-0.00006133,-0.00003298,0.00000103,-0.00
 000103,-0.00000750,-0.00000550,0.00002473,-0.00000157,-0.00000537,0.00
 000489,0.00000280,0.00001664,0.00002735,-0.00000054,-0.00000129,0.0000
 0028,-0.00000166,-0.00001176,-0.00001389,0.00000551,-0.00000283,-0.000
 01048,-0.00000181,-0.00000292,-0.00000576,0.00000334,0.00008134,0.0001
 4004,-0.00000540,-0.00066645,-0.00050132,0.00093531,-0.00060931,-0.000
 26258,0.00248399,0.00242384,0.00195495,-0.00198443,-0.00464520,0.01550
 589,-0.02360069,-0.03089278,0.12600229,-0.22714612,0.00046184,0.000257
 91,0.00099352,0.00144310,-0.00408398,-0.00369407,0.03131734,-0.1364739
 6,0.24896863,-0.00000123,-0.00001161,-0.00002026,0.00003996,0.00001841
 ,0.00001785,0.00000125,0.00001393,-0.00004361,-0.00008527,-0.00022055,
 -0.00007530,-0.00002270,0.00018823,0.00016885,-0.00005377,-0.00014221,
 -0.00004946,0.00003673,-0.00011042,-0.00013253,-0.00007003,0.00007695,
 0.00013669,-0.00000427,-0.00003478,-0.00002251,0.00003913,0.00001990,-
 0.00003012,-0.00001608,-0.00000084,0.00001585,0.00001490,-0.00001252,-
 0.00002694,-0.00001514,-0.00001343,0.00000550,0.00000245,0.00000949,0.
 00000204,-0.00001854,-0.00001097,0.00000456,0.00002037,0.00000230,0.00
 001152,-0.00000949,0.00002566,-0.00004111,0.00000558,-0.00001291,0.000
 01201,-0.00001468,-0.00001636,0.00000035,0.00021418,0.00028935,0.00002
 164,-0.00000136,0.00000787,0.00000843,-0.00000680,0.00002030,0.0000293
 9,0.00000456,0.00000220,-0.00000140,0.00001620,0.00006957,0.00003925,0
 .00000071,-0.00000110,-0.00000101,-0.00001211,-0.00002789,-0.00001013,
 0.00000184,-0.00003901,-0.00003417,0.00000135,-0.00000807,0.00001071,0
 .00008534,0.00017701,0.00006333,0.00047582,0.00000904,-0.00058329,0.00
 066167,-0.00121989,-0.00126937,-0.00117285,0.00039507,0.00276746,0.004
 29862,0.00730571,0.00083910,-0.14813037,-0.12584419,-0.00786078,0.0004
 6664,-0.00017394,-0.00059304,-0.00006892,-0.00036133,-0.00059666,0.002
 70944,0.00491478,0.00122749,0.15774938,-0.00000429,-0.00000501,-0.0000
 1922,0.00003383,0.00001177,0.00003117,0.00006840,0.00001695,-0.0001055
 7,-0.00018418,-0.00024660,-0.00005183,0.00012191,0.00023264,0.00004248
 ,-0.00014698,-0.00023635,-0.00001895,-0.00016462,-0.00044123,-0.000191
 10,-0.00016047,0.00013412,0.00028427,-0.00000417,-0.00006274,-0.000046
 13,0.00009868,0.00005708,-0.00006113,-0.00003940,-0.00001062,0.0000349
 7,0.00002859,-0.00002882,-0.00005320,-0.00003047,-0.00003444,0.0000044
 5,-0.00000760,0.00001375,0.00001310,-0.00001704,-0.00000975,0.00000417
 ,0.00000233,-0.00000227,-0.00000491,0.00001378,-0.00000370,-0.00003677
 ,-0.00000061,-0.00001006,0.00002811,-0.00002673,-0.00001737,0.00000672
 ,0.00033671,0.00038799,0.00003071,-0.00000011,0.00001259,0.00001061,-0
 .00003406,0.00004925,0.00007547,0.00000829,0.00000476,-0.00000672,0.00
 003784,0.00013561,0.00006859,-0.00000029,-0.00000335,-0.00000313,-0.00
 002706,-0.00005559,-0.00001584,0.00000230,-0.00007504,-0.00006230,0.00
 000327,-0.00000594,0.00000657,0.00041822,0.00067377,0.00011521,-0.0008
 1187,-0.00271484,-0.00188575,-0.00059277,-0.00051039,-0.00058005,0.002
 31336,0.00192545,-0.00158849,-0.01130955,-0.01348585,0.00150371,-0.125
 79494,-0.21153433,-0.00800504,0.00046020,-0.00006915,0.00044175,0.0000
 1325,0.00080838,-0.00021480,-0.01134149,-0.01437553,-0.00196613,0.1405
 8592,0.22962443,0.00000296,0.00000708,0.00000462,-0.00003055,-0.000016
 21,-0.00000300,0.00005458,0.00001030,-0.00005519,-0.00005746,-0.000000
 94,0.00006099,0.00015704,0.00001099,-0.00017383,-0.00008879,-0.0000724
 8,0.00004344,-0.00022108,-0.00033864,-0.00002722,-0.00008287,0.0000440
 6,0.00012493,0.00000125,-0.00002279,-0.00001929,0.00005356,0.00003786,
 -0.00002864,-0.00002258,-0.00000944,0.00001574,0.00001027,-0.00001416,
 -0.00002283,-0.00001259,-0.00002042,-0.00000285,-0.00000831,0.00000347
 ,0.00000583,0.00000459,0.00000122,0.00000050,0.00000956,0.00000064,0.0
 0000024,0.00000277,-0.00000545,-0.00000890,-0.00000737,-0.00000865,0.0
 0001632,-0.00000721,-0.00000059,0.00000769,0.00004991,0.00005996,-0.00
 001790,0.00000187,0.00000323,0.00000059,-0.00002300,0.00002434,0.00004
 698,0.00000473,0.00000089,-0.00000338,0.00002123,0.00005649,0.00002297
 ,-0.00000041,-0.00000272,-0.00000137,-0.00001462,-0.00002401,-0.000003
 93,-0.00000107,-0.00002985,-0.00002339,-0.00000254,-0.00000443,0.00000
 143,0.00034151,0.00050532,0.00003710,-0.00149475,-0.00302335,-0.001265
 48,-0.00056231,0.00027048,0.00177874,0.00485677,0.00096365,-0.00488338
 ,-0.01960065,-0.02342540,-0.00053168,-0.00779972,-0.00792691,-0.049030
 18,0.00038768,0.00067370,0.00106649,-0.00046707,0.00090719,0.00072450,
 0.01806394,0.01988349,0.00278004,0.00694782,0.01151027,0.05096156,-0.0
 0000186,0.00000713,0.00000466,-0.00000036,0.00000331,-0.00001066,-0.00
 004395,0.00000407,0.00003968,0.00007781,0.00002359,-0.00001122,-0.0000
 7969,-0.00002277,0.00005614,0.00005103,0.00004320,-0.00001159,0.000093
 09,0.00009977,0.00000833,0.00002354,-0.00000073,-0.00003213,0.00000385
 ,0.00000228,-0.00000181,-0.00001435,-0.00002297,0.00000921,0.00000889,
 0.00000046,-0.00000392,-0.00000037,0.00000465,0.00000709,0.00000503,0.
 00001748,0.00000907,0.00001104,-0.00000796,-0.00001038,0.00000071,-0.0
 0000084,-0.00000299,0.00000038,0.00000108,0.00000541,-0.00000306,0.000
 01638,0.00001417,0.00000354,-0.00000081,-0.00000886,0.00000871,0.00000
 215,-0.00000404,-0.00009378,-0.00008438,-0.00002220,-0.00000350,-0.000
 00029,-0.00000013,-0.00000270,-0.00001218,-0.00002211,-0.00000150,-0.0
 0000101,-0.00000419,-0.00002265,-0.00004490,-0.00001514,-0.00000121,0.
 00000132,-0.00000014,0.00001665,0.00001971,0.00000122,0.00000418,0.000
 02075,0.00001497,0.00000137,-0.00000001,0.00000137,-0.00011461,-0.0001
 5897,-0.00003111,0.00055818,0.00048329,-0.00014362,0.00099247,-0.00065
 313,-0.00113794,-0.00136147,-0.00145883,0.00091655,-0.00458697,0.00238
 001,0.00032318,-0.29362611,0.08427645,0.00088592,0.00120209,-0.0001145
 7,0.00123217,0.00031723,-0.00011706,0.00047244,-0.00394489,0.00073642,
 -0.00004000,-0.01714254,0.00615183,-0.00046713,0.31766576,0.00000358,0
 .00001677,0.00002759,-0.00005812,-0.00002627,-0.00002329,0.00004936,-0
 .00002024,0.00001027,0.00002162,0.00023862,0.00011135,0.00012679,-0.00
 017248,-0.00025898,0.00000280,0.00010956,0.00006980,-0.00012093,0.0000
 3035,0.00014136,0.00005132,-0.00008730,-0.00011788,-0.00000169,0.00003
 782,0.00002935,-0.00002946,0.00000587,0.00002516,0.00000891,-0.0000001
 0,-0.00001107,-0.00001593,0.00000923,0.00002158,0.00001019,-0.00001007
 ,-0.00001759,-0.00001043,-0.00000543,0.00000444,0.00002246,0.00001296,
 -0.00000663,-0.00003192,-0.00000302,-0.00001980,0.00002535,-0.00004843
 ,0.00005259,-0.00001001,0.00001719,-0.00000432,0.00000581,0.00001820,0
 .00000373,-0.00016017,-0.00026330,-0.00002188,0.00000524,-0.00000792,-
 0.00000965,0.00001588,-0.00000364,-0.00000790,-0.00000392,0.00000015,0
 .00000737,0.00000874,-0.00001441,-0.00001869,0.00000015,-0.00000030,0.
 00000089,-0.00000614,0.00000442,0.00000843,-0.00000538,0.00001321,0.00
 001501,-0.00000052,0.00000939,-0.00001507,0.00001498,-0.00002011,-0.00
 002455,-0.00084585,0.00006602,0.00088683,-0.00167108,0.00068611,0.0012
 1546,0.00294350,0.00051979,-0.00170493,0.01714082,-0.00645642,0.000359
 49,0.08202736,-0.07523603,0.00026083,0.00011614,-0.00150477,-0.0034902
 8,-0.00054099,0.00075397,0.00026624,0.01837510,-0.00657024,-0.00044357
 ,-0.02586968,0.00985041,-0.00002823,-0.09159391,0.07805042,-0.00001128
 ,0.00001019,-0.00000745,0.00005116,-0.00000760,0.00002581,-0.00003642,
 0.00000647,0.00001723,0.00000460,0.00001580,-0.00001322,0.00001685,-0.
 00000554,-0.00001258,-0.00000358,-0.00000193,-0.00000166,-0.00002064,-
 0.00002224,-0.00000903,-0.00000396,-0.00000815,-0.00000742,-0.00000238
 ,0.00000109,0.00000459,0.00000006,0.00001071,-0.00000053,-0.00000157,-
 0.00000022,-0.00000158,-0.00000169,-0.00000095,-0.00000115,-0.00000045
 ,-0.00000718,-0.00000453,0.00001530,-0.00000477,-0.00000505,-0.0000073
 9,-0.00000867,-0.00000160,-0.00001196,0.00000238,-0.00000026,-0.000018
 62,0.00002259,0.00000022,0.00000112,0.00000042,-0.00000278,0.00000398,
 -0.00000868,-0.00000405,-0.00001134,-0.00002587,0.00000541,0.00000088,
 -0.00000090,0.00000020,0.00001163,0.00000678,0.00000982,0.00000069,0.0
 0000079,0.00000368,0.00000600,0.00001251,0.00000515,0.00000049,-0.0000
 0082,0.00000009,-0.00000450,-0.00000516,-0.00000050,-0.00000091,-0.000
 00571,-0.00000480,0.00000299,0.00000262,-0.00000111,0.00002754,0.00003
 907,0.00001267,-0.00044557,0.00023003,0.00013515,-0.00066473,-0.000012
 73,0.00016991,0.00100058,0.00039596,0.00000247,0.02848735,-0.01012643,
 -0.00032074,0.00020501,0.00066425,-0.04688711,0.00070666,-0.00366852,-
 0.00463320,0.00016743,0.00099512,0.00099862,-0.02650494,0.00809405,0.0
 0028135,-0.00093814,0.00070470,-0.00159826,-0.00202022,0.00270653,0.05
 184626\\-0.00000071,0.00000203,0.00000165,0.00000131,0.00000147,-0.000
 00126,-0.00000246,-0.00000054,0.00000128,0.00000268,0.00000028,-0.0000
 0266,0.00000119,0.00000569,0.00000112,-0.00000196,-0.00000299,-0.00000
 061,0.00000207,0.00000068,0.00000226,-0.00000271,-0.00000312,-0.000000
 44,-0.00000119,0.00000275,0.00000144,0.00000254,0.00000060,-0.00000077
 ,-0.00000098,-0.00000069,0.00000048,-0.00000149,-0.00000119,0.00000046
 ,-0.00000236,-0.00000357,-0.00000075,0.00000019,0.00000172,0.00000064,
 0.00000073,0.00000161,0.00000025,0.00000163,0.00000118,-0.00000010,-0.
 00000010,0.00000041,-0.00000057,0.00000033,0.00000140,0.00000008,0.000
 00032,0.00000087,0.00000056,-0.00000073,0.00000041,-0.00000069,-0.0000
 0151,-0.00000051,0.00000120,-0.00000031,-0.00000036,0.00000010,-0.0000
 0028,-0.00000155,-0.00000039,0.00000228,0.00000183,-0.00000151,-0.0000
 0100,-0.00000083,0.00000054,-0.00000333,-0.00000054,0.00000183,-0.0000
 0243,-0.00000149,0.00000084,0.00000021,0.00000106,-0.00000006,-0.00000
 579,-0.00000453,-0.00000119,0.00000505,0.00000197,0.00000326,0.0000002
 1,-0.00000024,0.00000318,0.00000069,-0.00000093,-0.00000599,-0.0000006
 1,-0.00000349,-0.00000024,0.00000075,0.00000106,0.00000039,0.00000122,
 0.00000034,-0.00000133,0.00000143,0.00000021,-0.00000080,0.00000077,-0
 .00000034,-0.00000085,0.00000255,0.00000034,-0.00000076,0.00000181,-0.
 00000101,-0.00000058\\\@


 K N O W I N G  IS A BARRIER WHICH PREVENTS LEARNING

                     -- TEACHING OF THE BENE GESSERIT
 Job cpu time:       0 days  5 hours 42 minutes 24.1 seconds.
 File lengths (MBytes):  RWF=    784 Int=      0 D2E=      0 Chk=     15 Scr=      1
 Normal termination of Gaussian 09 at Fri Feb 22 17:54:07 2019.
WARNING: pbs_rusage is deprecated and values produced may not be accurate


=============================================================================
                                     Resource usage:
                                       CPU time:              20:17:04
   JobId:    6010413.r-man2            Elapsed time:          02:33:16
   Project:             q95            Requested time:        42:00:00
   Service Units:     20.44 
                                       Max physical memory:     1558MB
                                       Max virtual memory:      2664MB
                                       Requested memory:           0MB

                                       Number of cpus:               8

                                       Max jobfs disk use:       0.8GB
                                       Requested jobfs:         20.0GB
=============================================================================

