 Entering Gaussian System, Link 0=/apps/gaussian/g09e01/g09/g09
 AtFile(1): /home/507/hio507/Basis/6-31pGd.gbs
 Initial command:
 /apps/gaussian/g09e01/g09/l1.exe "/jobfs/local/1827720.r-man2/Gau-33842.inp" -scrdir="/jobfs/local/1827720.r-man2/"
 Entering Link 1 = /apps/gaussian/g09e01/g09/l1.exe PID=     33843.
  
 Copyright (c) 1988,1990,1992,1993,1995,1998,2003,2009,2015,
            Gaussian, Inc.  All Rights Reserved.
  
 This is part of the Gaussian(R) 09 program.  It is based on
 the Gaussian(R) 03 system (copyright 2003, Gaussian, Inc.),
 the Gaussian(R) 98 system (copyright 1998, Gaussian, Inc.),
 the Gaussian(R) 94 system (copyright 1995, Gaussian, Inc.),
 the Gaussian 92(TM) system (copyright 1992, Gaussian, Inc.),
 the Gaussian 90(TM) system (copyright 1990, Gaussian, Inc.),
 the Gaussian 88(TM) system (copyright 1988, Gaussian, Inc.),
 the Gaussian 86(TM) system (copyright 1986, Carnegie Mellon
 University), and the Gaussian 82(TM) system (copyright 1983,
 Carnegie Mellon University). Gaussian is a federally registered
 trademark of Gaussian, Inc.
  
 This software contains proprietary and confidential information,
 including trade secrets, belonging to Gaussian, Inc.
  
 This software is provided under written license and may be
 used, copied, transmitted, or stored only in accord with that
 written license.
  
 The following legend is applicable only to US Government
 contracts under FAR:
  
                    RESTRICTED RIGHTS LEGEND
  
 Use, reproduction and disclosure by the US Government is
 subject to restrictions as set forth in subparagraphs (a)
 and (c) of the Commercial Computer Software - Restricted
 Rights clause in FAR 52.227-19.
  
 Gaussian, Inc.
 340 Quinnipiac St., Bldg. 40, Wallingford CT 06492
  
  
 ---------------------------------------------------------------
 Warning -- This program may not be used in any manner that
 competes with the business of Gaussian, Inc. or will provide
 assistance to any competitor of Gaussian, Inc.  The licensee
 of this program is prohibited from giving any competitor of
 Gaussian, Inc. access to this program.  By using this program,
 the user acknowledges that Gaussian, Inc. is engaged in the
 business of creating and licensing software in the field of
 computational chemistry and represents and warrants to the
 licensee that it is not a competitor of Gaussian, Inc. and that
 it will not use this program in any manner prohibited above.
 ---------------------------------------------------------------
  

 Cite this work as:
 Gaussian 09, Revision E.01,
 M. J. Frisch, G. W. Trucks, H. B. Schlegel, G. E. Scuseria, 
 M. A. Robb, J. R. Cheeseman, G. Scalmani, V. Barone, B. Mennucci, 
 G. A. Petersson, H. Nakatsuji, M. Caricato, X. Li, H. P. Hratchian, 
 A. F. Izmaylov, J. Bloino, G. Zheng, J. L. Sonnenberg, M. Hada, 
 M. Ehara, K. Toyota, R. Fukuda, J. Hasegawa, M. Ishida, T. Nakajima, 
 Y. Honda, O. Kitao, H. Nakai, T. Vreven, J. A. Montgomery, Jr., 
 J. E. Peralta, F. Ogliaro, M. Bearpark, J. J. Heyd, E. Brothers, 
 K. N. Kudin, V. N. Staroverov, T. Keith, R. Kobayashi, J. Normand, 
 K. Raghavachari, A. Rendell, J. C. Burant, S. S. Iyengar, J. Tomasi, 
 M. Cossi, N. Rega, J. M. Millam, M. Klene, J. E. Knox, J. B. Cross, 
 V. Bakken, C. Adamo, J. Jaramillo, R. Gomperts, R. E. Stratmann, 
 O. Yazyev, A. J. Austin, R. Cammi, C. Pomelli, J. W. Ochterski, 
 R. L. Martin, K. Morokuma, V. G. Zakrzewski, G. A. Voth, 
 P. Salvador, J. J. Dannenberg, S. Dapprich, A. D. Daniels, 
 O. Farkas, J. B. Foresman, J. V. Ortiz, J. Cioslowski, 
 and D. J. Fox, Gaussian, Inc., Wallingford CT, 2013.
 
 ******************************************
 Gaussian 09:  ES64L-G09RevE.01 30-Nov-2015
                30-Oct-2018 
 ******************************************
 %chk=34TFM_a1.M062X_6-31pGd_opt_water.chk
 %mem=196608000
 %nproc=8
 Will use up to    8 processors via shared memory.
 ----------------------------------------------------------------------
 # M062X/Gen 6D SCF=Tight INT(grid=ultrafine) OPT IOP(2/17=4) SCRF=(SMD
 ,Solvent=h2o) maxdisk=2684354560
 ----------------------------------------------------------------------
 1/14=-1,18=20,19=15,26=4,38=1/1,3;
 2/9=110,12=2,17=4,18=5,40=1/2;
 3/5=7,8=2,11=2,16=1,25=1,30=1,70=32201,71=1,72=1,74=-55,75=-5/1,2,3;
 4//1;
 5/5=2,32=2,38=5,53=1/2;
 6/7=2,8=2,9=2,10=2,28=1/1;
 7//1,2,3,16;
 1/14=-1,18=20,19=15,26=4/3(2);
 2/9=110,17=4/2;
 99//99;
 2/9=110,17=4/2;
 3/5=7,6=1,8=2,11=2,16=1,25=1,30=1,70=32205,71=1,72=1,74=-55,75=-5,82=7/1,2,3;
 4/5=5,16=3,69=1/1;
 5/5=2,32=2,38=5,53=1/2;
 7//1,2,3,16;
 1/14=-1,18=20,19=15,26=4/3(-5);
 2/9=110,17=4/2;
 6/7=2,8=2,9=2,10=2,19=2,28=1/1;
 99/9=1/99;
 --------------------------------
 34TFM_a1.M062X_6-31pGd_opt_water
 --------------------------------
 Symbolic Z-matrix:
 Charge = -1 Multiplicity = 1
 C                    -1.96889   1.89374  -0.09711 
 C                    -0.61309   1.20077   0.00275 
 C                     0.53496   2.21451  -0.06469 
 N                     1.82308   1.54997   0.03386 
 C                     2.99583   2.24445  -0.00104 
 O                     2.96489   3.45872  -0.11949 
 N                     4.182     1.56684   0.09974 
 C                     5.52064   2.10058   0.08678 
 C                     5.84122   3.46984  -0.05409 
 C                     6.57791   1.19325   0.22374 
 C                     7.90075   1.6189    0.22355 
 C                     8.23604   2.97503   0.08553 
 C                     7.18125   3.92905  -0.05791 
 H                    -2.77886   1.13596  -0.04554 
 H                    -2.05346   2.43994  -1.06072 
 H                    -2.09869   2.6106    0.74158 
 H                    -0.51624   0.47499  -0.83395 
 H                    -0.56189   0.64629   0.96512 
 H                     0.43216   2.93917   0.77313 
 H                     0.47979   2.76591  -1.02934 
 H                     1.85028   0.52297   0.13423 
 H                     5.06868   4.20213  -0.16362 
 H                     6.37791   0.13441   0.33403 
 H                     8.6789    0.87235   0.33383 
 C                     7.43697   5.42119  -0.21508 
 C                     9.72833   3.28082   0.10514 
 F                     10.04824   4.6138   -0.03105 
 F                     10.34227   2.59504  -0.92796 
 F                     10.26196   2.84249   1.30417 
 F                     6.26539   6.14922  -0.33824 
 F                     8.18542   5.65129  -1.35549 
 F                     8.1048    5.90246   0.89667 
 

 GradGradGradGradGradGradGradGradGradGradGradGradGradGradGradGradGradGrad
 Berny optimization.
 Initialization pass.
                           ----------------------------
                           !    Initial Parameters    !
                           ! (Angstroms and Degrees)  !
 --------------------------                            --------------------------
 ! Name  Definition              Value          Derivative Info.                !
 --------------------------------------------------------------------------------
 ! R1    R(1,2)                  1.5259         estimate D2E/DX2                !
 ! R2    R(1,14)                 1.1104         estimate D2E/DX2                !
 ! R3    R(1,15)                 1.1109         estimate D2E/DX2                !
 ! R4    R(1,16)                 1.1109         estimate D2E/DX2                !
 ! R5    R(2,3)                  1.533          estimate D2E/DX2                !
 ! R6    R(2,17)                 1.1118         estimate D2E/DX2                !
 ! R7    R(2,18)                 1.1119         estimate D2E/DX2                !
 ! R8    R(3,4)                  1.4528         estimate D2E/DX2                !
 ! R9    R(3,19)                 1.1125         estimate D2E/DX2                !
 ! R10   R(3,20)                 1.1125         estimate D2E/DX2                !
 ! R11   R(4,5)                  1.3634         estimate D2E/DX2                !
 ! R12   R(4,21)                 1.0323         estimate D2E/DX2                !
 ! R13   R(5,6)                  1.2204         estimate D2E/DX2                !
 ! R14   R(5,7)                  1.3698         estimate D2E/DX2                !
 ! R15   R(7,8)                  1.4412         estimate D2E/DX2                !
 ! R16   R(8,9)                  1.4133         estimate D2E/DX2                !
 ! R17   R(8,10)                 1.3999         estimate D2E/DX2                !
 ! R18   R(9,13)                 1.4165         estimate D2E/DX2                !
 ! R19   R(9,22)                 1.0701         estimate D2E/DX2                !
 ! R20   R(10,11)                1.3896         estimate D2E/DX2                !
 ! R21   R(10,23)                1.0832         estimate D2E/DX2                !
 ! R22   R(11,12)                1.4038         estimate D2E/DX2                !
 ! R23   R(11,24)                1.084          estimate D2E/DX2                !
 ! R24   R(12,13)                1.4294         estimate D2E/DX2                !
 ! R25   R(12,26)                1.5234         estimate D2E/DX2                !
 ! R26   R(13,25)                1.522          estimate D2E/DX2                !
 ! R27   R(25,30)                1.3848         estimate D2E/DX2                !
 ! R28   R(25,31)                1.3834         estimate D2E/DX2                !
 ! R29   R(25,32)                1.3833         estimate D2E/DX2                !
 ! R30   R(26,27)                1.3776         estimate D2E/DX2                !
 ! R31   R(26,28)                1.3837         estimate D2E/DX2                !
 ! R32   R(26,29)                1.3837         estimate D2E/DX2                !
 ! A1    A(2,1,14)             109.5829         estimate D2E/DX2                !
 ! A2    A(2,1,15)             110.347          estimate D2E/DX2                !
 ! A3    A(2,1,16)             110.3319         estimate D2E/DX2                !
 ! A4    A(14,1,15)            108.6815         estimate D2E/DX2                !
 ! A5    A(14,1,16)            108.668          estimate D2E/DX2                !
 ! A6    A(15,1,16)            109.1899         estimate D2E/DX2                !
 ! A7    A(1,2,3)              111.2357         estimate D2E/DX2                !
 ! A8    A(1,2,17)             108.9411         estimate D2E/DX2                !
 ! A9    A(1,2,18)             108.9073         estimate D2E/DX2                !
 ! A10   A(3,2,17)             109.47           estimate D2E/DX2                !
 ! A11   A(3,2,18)             109.4728         estimate D2E/DX2                !
 ! A12   A(17,2,18)            108.7724         estimate D2E/DX2                !
 ! A13   A(2,3,4)              111.0098         estimate D2E/DX2                !
 ! A14   A(2,3,19)             109.1719         estimate D2E/DX2                !
 ! A15   A(2,3,20)             109.1933         estimate D2E/DX2                !
 ! A16   A(4,3,19)             109.1962         estimate D2E/DX2                !
 ! A17   A(4,3,20)             109.2391         estimate D2E/DX2                !
 ! A18   A(19,3,20)            109.0009         estimate D2E/DX2                !
 ! A19   A(3,4,5)              121.866          estimate D2E/DX2                !
 ! A20   A(3,4,21)             119.0163         estimate D2E/DX2                !
 ! A21   A(5,4,21)             119.1177         estimate D2E/DX2                !
 ! A22   A(4,5,6)              119.1752         estimate D2E/DX2                !
 ! A23   A(4,5,7)              119.4064         estimate D2E/DX2                !
 ! A24   A(6,5,7)              121.4183         estimate D2E/DX2                !
 ! A25   A(5,7,8)              128.3507         estimate D2E/DX2                !
 ! A26   A(7,8,9)              124.7772         estimate D2E/DX2                !
 ! A27   A(7,8,10)             117.4246         estimate D2E/DX2                !
 ! A28   A(9,8,10)             117.7983         estimate D2E/DX2                !
 ! A29   A(8,9,13)             121.9323         estimate D2E/DX2                !
 ! A30   A(8,9,22)             120.6267         estimate D2E/DX2                !
 ! A31   A(13,9,22)            117.441          estimate D2E/DX2                !
 ! A32   A(8,10,11)            121.3584         estimate D2E/DX2                !
 ! A33   A(8,10,23)            120.2695         estimate D2E/DX2                !
 ! A34   A(11,10,23)           118.3721         estimate D2E/DX2                !
 ! A35   A(10,11,12)           121.5534         estimate D2E/DX2                !
 ! A36   A(10,11,24)           118.1895         estimate D2E/DX2                !
 ! A37   A(12,11,24)           120.2571         estimate D2E/DX2                !
 ! A38   A(11,12,13)           118.5794         estimate D2E/DX2                !
 ! A39   A(11,12,26)           115.2531         estimate D2E/DX2                !
 ! A40   A(13,12,26)           126.1675         estimate D2E/DX2                !
 ! A41   A(9,13,12)            118.7782         estimate D2E/DX2                !
 ! A42   A(9,13,25)            118.4915         estimate D2E/DX2                !
 ! A43   A(12,13,25)           122.7303         estimate D2E/DX2                !
 ! A44   A(13,25,30)           112.4845         estimate D2E/DX2                !
 ! A45   A(13,25,31)           109.822          estimate D2E/DX2                !
 ! A46   A(13,25,32)           109.8278         estimate D2E/DX2                !
 ! A47   A(30,25,31)           107.2752         estimate D2E/DX2                !
 ! A48   A(30,25,32)           107.2774         estimate D2E/DX2                !
 ! A49   A(31,25,32)           110.0884         estimate D2E/DX2                !
 ! A50   A(12,26,27)           114.862          estimate D2E/DX2                !
 ! A51   A(12,26,28)           108.9985         estimate D2E/DX2                !
 ! A52   A(12,26,29)           108.9865         estimate D2E/DX2                !
 ! A53   A(27,26,28)           107.6215         estimate D2E/DX2                !
 ! A54   A(27,26,29)           107.6161         estimate D2E/DX2                !
 ! A55   A(28,26,29)           108.595          estimate D2E/DX2                !
 ! D1    D(14,1,2,3)           179.9971         estimate D2E/DX2                !
 ! D2    D(14,1,2,17)           59.2385         estimate D2E/DX2                !
 ! D3    D(14,1,2,18)          -59.263          estimate D2E/DX2                !
 ! D4    D(15,1,2,3)            60.3588         estimate D2E/DX2                !
 ! D5    D(15,1,2,17)          -60.3998         estimate D2E/DX2                !
 ! D6    D(15,1,2,18)         -178.9013         estimate D2E/DX2                !
 ! D7    D(16,1,2,3)           -60.3905         estimate D2E/DX2                !
 ! D8    D(16,1,2,17)          178.8509         estimate D2E/DX2                !
 ! D9    D(16,1,2,18)           60.3494         estimate D2E/DX2                !
 ! D10   D(1,2,3,4)            179.8701         estimate D2E/DX2                !
 ! D11   D(1,2,3,19)            59.4434         estimate D2E/DX2                !
 ! D12   D(1,2,3,20)           -59.636          estimate D2E/DX2                !
 ! D13   D(17,2,3,4)           -59.6828         estimate D2E/DX2                !
 ! D14   D(17,2,3,19)          179.8905         estimate D2E/DX2                !
 ! D15   D(17,2,3,20)           60.8111         estimate D2E/DX2                !
 ! D16   D(18,2,3,4)            59.4634         estimate D2E/DX2                !
 ! D17   D(18,2,3,19)          -60.9633         estimate D2E/DX2                !
 ! D18   D(18,2,3,20)          179.9573         estimate D2E/DX2                !
 ! D19   D(2,3,4,5)           -179.95           estimate D2E/DX2                !
 ! D20   D(2,3,4,21)            -0.0223         estimate D2E/DX2                !
 ! D21   D(19,3,4,5)           -59.5377         estimate D2E/DX2                !
 ! D22   D(19,3,4,21)          120.39           estimate D2E/DX2                !
 ! D23   D(20,3,4,5)            59.5832         estimate D2E/DX2                !
 ! D24   D(20,3,4,21)         -120.4891         estimate D2E/DX2                !
 ! D25   D(3,4,5,6)             -0.0623         estimate D2E/DX2                !
 ! D26   D(3,4,5,7)            179.8217         estimate D2E/DX2                !
 ! D27   D(21,4,5,6)          -179.9899         estimate D2E/DX2                !
 ! D28   D(21,4,5,7)            -0.106          estimate D2E/DX2                !
 ! D29   D(4,5,7,8)           -179.9324         estimate D2E/DX2                !
 ! D30   D(6,5,7,8)             -0.0512         estimate D2E/DX2                !
 ! D31   D(5,7,8,9)             -0.8168         estimate D2E/DX2                !
 ! D32   D(5,7,8,10)           179.1957         estimate D2E/DX2                !
 ! D33   D(7,8,9,13)           179.9611         estimate D2E/DX2                !
 ! D34   D(7,8,9,22)            -0.0966         estimate D2E/DX2                !
 ! D35   D(10,8,9,13)           -0.0515         estimate D2E/DX2                !
 ! D36   D(10,8,9,22)          179.8908         estimate D2E/DX2                !
 ! D37   D(7,8,10,11)         -179.9356         estimate D2E/DX2                !
 ! D38   D(7,8,10,23)            0.0059         estimate D2E/DX2                !
 ! D39   D(9,8,10,11)            0.076          estimate D2E/DX2                !
 ! D40   D(9,8,10,23)         -179.9824         estimate D2E/DX2                !
 ! D41   D(8,9,13,12)           -0.0117         estimate D2E/DX2                !
 ! D42   D(8,9,13,25)          179.9847         estimate D2E/DX2                !
 ! D43   D(22,9,13,12)        -179.9558         estimate D2E/DX2                !
 ! D44   D(22,9,13,25)           0.0406         estimate D2E/DX2                !
 ! D45   D(8,10,11,12)          -0.0372         estimate D2E/DX2                !
 ! D46   D(8,10,11,24)         179.951          estimate D2E/DX2                !
 ! D47   D(23,10,11,12)       -179.9798         estimate D2E/DX2                !
 ! D48   D(23,10,11,24)          0.0084         estimate D2E/DX2                !
 ! D49   D(10,11,12,13)         -0.0284         estimate D2E/DX2                !
 ! D50   D(10,11,12,26)        179.9773         estimate D2E/DX2                !
 ! D51   D(24,11,12,13)        179.9836         estimate D2E/DX2                !
 ! D52   D(24,11,12,26)         -0.0107         estimate D2E/DX2                !
 ! D53   D(11,12,13,9)           0.0515         estimate D2E/DX2                !
 ! D54   D(11,12,13,25)       -179.9448         estimate D2E/DX2                !
 ! D55   D(26,12,13,9)        -179.9548         estimate D2E/DX2                !
 ! D56   D(26,12,13,25)          0.0489         estimate D2E/DX2                !
 ! D57   D(11,12,26,27)        179.9918         estimate D2E/DX2                !
 ! D58   D(11,12,26,28)         59.1672         estimate D2E/DX2                !
 ! D59   D(11,12,26,29)        -59.1994         estimate D2E/DX2                !
 ! D60   D(13,12,26,27)         -0.002          estimate D2E/DX2                !
 ! D61   D(13,12,26,28)       -120.8265         estimate D2E/DX2                !
 ! D62   D(13,12,26,29)        120.8068         estimate D2E/DX2                !
 ! D63   D(9,13,25,30)          -0.0306         estimate D2E/DX2                !
 ! D64   D(9,13,25,31)        -119.4255         estimate D2E/DX2                !
 ! D65   D(9,13,25,32)         119.371          estimate D2E/DX2                !
 ! D66   D(12,13,25,30)        179.9657         estimate D2E/DX2                !
 ! D67   D(12,13,25,31)         60.5708         estimate D2E/DX2                !
 ! D68   D(12,13,25,32)        -60.6327         estimate D2E/DX2                !
 --------------------------------------------------------------------------------
 Trust Radius=3.00D-01 FncErr=1.00D-07 GrdErr=1.00D-06
 Number of steps in this run=    165 maximum allowed number of steps=    192.
 GradGradGradGradGradGradGradGradGradGradGradGradGradGradGradGradGradGrad

                          Input orientation:                          
 ---------------------------------------------------------------------
 Center     Atomic      Atomic             Coordinates (Angstroms)
 Number     Number       Type             X           Y           Z
 ---------------------------------------------------------------------
      1          6           0       -1.968890    1.893740   -0.097110
      2          6           0       -0.613090    1.200770    0.002750
      3          6           0        0.534960    2.214510   -0.064690
      4          7           0        1.823080    1.549970    0.033860
      5          6           0        2.995830    2.244450   -0.001040
      6          8           0        2.964890    3.458720   -0.119490
      7          7           0        4.182000    1.566840    0.099740
      8          6           0        5.520640    2.100580    0.086780
      9          6           0        5.841220    3.469840   -0.054090
     10          6           0        6.577910    1.193250    0.223740
     11          6           0        7.900750    1.618900    0.223550
     12          6           0        8.236040    2.975030    0.085530
     13          6           0        7.181250    3.929050   -0.057910
     14          1           0       -2.778860    1.135960   -0.045540
     15          1           0       -2.053460    2.439940   -1.060720
     16          1           0       -2.098690    2.610600    0.741580
     17          1           0       -0.516240    0.474990   -0.833950
     18          1           0       -0.561890    0.646290    0.965120
     19          1           0        0.432160    2.939170    0.773130
     20          1           0        0.479790    2.765910   -1.029340
     21          1           0        1.850280    0.522970    0.134230
     22          1           0        5.068680    4.202130   -0.163620
     23          1           0        6.377910    0.134410    0.334030
     24          1           0        8.678900    0.872350    0.333830
     25          6           0        7.436970    5.421190   -0.215080
     26          6           0        9.728330    3.280820    0.105140
     27          9           0       10.048240    4.613800   -0.031050
     28          9           0       10.342270    2.595040   -0.927960
     29          9           0       10.261960    2.842490    1.304170
     30          9           0        6.265390    6.149220   -0.338240
     31          9           0        8.185420    5.651290   -1.355490
     32          9           0        8.104800    5.902460    0.896670
 ---------------------------------------------------------------------
                    Distance matrix (angstroms):
                    1          2          3          4          5
     1  C    0.000000
     2  C    1.525901   0.000000
     3  C    2.524522   1.533048   0.000000
     4  N    3.809773   2.461266   1.452783   0.000000
     5  C    4.978019   3.756805   2.461875   1.363401   0.000000
     6  O    5.176084   4.232638   2.730498   2.229478   1.220426
     7  N    6.162715   4.810021   3.707751   2.359900   1.369785
     8  C    7.494642   6.199949   4.989281   3.738706   2.530430
     9  C    7.967670   6.841785   5.452739   4.454109   3.098490
    10  C    8.581458   7.194399   6.135422   4.771971   3.739899
    11  C    9.878672   8.526961   7.395451   6.081020   4.949747
    12  C   10.263681   9.025628   7.739999   6.569591   5.291601
    13  C    9.373851   8.258264   6.863881   5.863312   4.512078
    14  H    1.110379   2.167278   3.484973   4.621208   5.880287
    15  H    1.110869   2.177424   2.782591   4.125253   5.162990
    16  H    1.110917   2.177268   2.782637   4.123843   5.161365
    17  H    2.160087   1.111847   2.173180   2.716817   4.019871
    18  H    2.159656   1.111857   2.173224   2.715136   4.018078
    19  H    2.759580   2.169808   1.112494   2.100251   2.766655
    20  H    2.761479   2.170083   1.112491   2.100793   2.767631
    21  H    4.064307   2.558299   2.151963   1.032251   2.072215
    22  H    7.406786   6.427935   4.951266   4.196054   2.855810
    23  H    8.541089   7.079615   6.214971   4.779162   4.000376
    24  H   10.705343   9.303685   8.263412   6.895754   5.855944
    25  C   10.046244   9.091912   7.612040   6.823788   5.464542
    26  C   11.780910  10.549031   9.256560   8.092830   6.812627
    27  F   12.321303  11.194368   9.811229   8.777501   7.439839
    28  F   12.359077  11.082875   9.852582   8.636774   7.412980
    29  F   12.347364  11.075001   9.842899   8.631280   7.406610
    30  F    9.272034   8.480384   6.956623   6.405129   5.104014
    31  F   10.900124   9.953176   8.485703   7.696135   6.353970
    32  F   10.887454   9.945179   8.475120   7.690814   6.347322
                    6          7          8          9         10
     6  O    0.000000
     7  N    2.260228   0.000000
     8  C    2.901543   1.441181   0.000000
     9  C    2.877095   2.529443   1.413325   0.000000
    10  C    4.278326   2.428030   1.399938   2.408893   0.000000
    11  C    5.278762   3.721175   2.432210   2.782935   1.389634
    12  C    5.297265   4.291671   2.852729   2.449386   2.437876
    13  C    4.242958   3.821046   2.474240   1.416534   2.815661
    14  H    6.196075   6.975696   8.356417   8.930445   9.360819
    15  H    5.206502   6.402338   7.668045   8.024959   8.815022
    16  H    5.205823   6.399098   7.664403   8.025806   8.806840
    17  H    4.640190   4.912980   6.319352   7.070686   7.208437
    18  H    4.639431   4.909255   6.315347   7.071849   7.198997
    19  H    2.735219   4.049450   5.202590   5.497621   6.412512
    20  H    2.735605   4.052030   5.205627   5.494685   6.421101
    21  H    3.150454   2.554951   3.995328   4.964586   4.775748
    22  H    2.231712   2.792904   2.164135   1.070076   3.388389
    23  H    4.785961   2.632255   2.159136   3.400554   1.083193
    24  H    6.288459   4.556229   3.397674   3.866505   2.128205
    25  C    4.884662   5.054696   3.845763   2.525887   4.336591
    26  C    6.769507   5.805130   4.370121   3.894959   3.781159
    27  F    7.177456   6.611645   5.179703   4.359839   4.879372
    28  F    7.471633   6.329478   4.952000   4.667802   4.178736
    29  F    7.460146   6.328021   4.951019   4.667053   4.178462
    30  F    4.263794   5.052776   4.138451   2.727588   4.997512
    31  F    5.795601   5.901508   4.667841   3.456536   4.995215
    32  F    5.781273   5.900937   4.667772   3.456209   4.996087
                   11         12         13         14         15
    11  C    0.000000
    12  C    1.403765   0.000000
    13  C    2.435917   1.429444   0.000000
    14  H   10.693910  11.168141  10.344336   0.000000
    15  H   10.070241  10.366968   9.407600   1.804760   0.000000
    16  H   10.061840  10.361943   9.407166   1.804647   1.810927
    17  H    8.559939   9.148664   8.472551   2.485542   2.505095
    18  H    8.550566   9.143319   8.472268   2.485189   3.089658
    19  H    7.604274   7.834196   6.871732   3.772590   3.128984
    20  H    7.612885   7.838755   6.870672   3.774043   2.554329
    21  H    6.149571   6.840534   6.329103   4.673009   4.510196
    22  H    3.852739   3.405880   2.132768   8.426104   7.391548
    23  H    2.129544   3.403457   3.898495   9.219198   8.851486
    24  H    1.083982   2.163109   3.426344  11.467069  10.935523
    25  C    3.855502   2.590864   1.522031  11.079491   9.983547
    26  C    2.473064   1.523424   2.633326  12.690663  11.869157
    27  F    3.694044   2.446064   2.947751  13.290225  12.338437
    28  F    2.870513   2.368071   3.539579  13.231464  12.397411
    29  F    2.870579   2.367911   3.539301  13.221080  12.546885
    30  F    4.849104   3.760123   2.417962  10.344898   9.136958
    31  F    4.339882   3.039978   2.378693  11.929778  10.734725
    32  F    4.340923   3.040562   2.378763  11.918949  10.909201
                   16         17         18         19         20
    16  H    0.000000
    17  H    3.089866   0.000000
    18  H    2.504044   1.807783   0.000000
    19  H    2.552284   3.091011   2.506451   0.000000
    20  H    3.131906   2.505707   3.091239   1.811404   0.000000
    21  H    4.507930   2.557360   2.554242   2.873548   2.874529
    22  H    7.397537   6.747759   6.754359   4.895905   4.885705
    23  H    8.840269   7.000677   6.987211   6.588735   6.600863
    24  H   10.924478   9.277511   9.265087   8.513134   8.524624
    25  C    9.987163   9.386237   9.390117   7.496956   7.491054
    26  C   11.863079  10.663292  10.656873   9.326399   9.332077
    27  F   12.335221  11.374649  11.371383   9.793880   9.796250
    28  F   12.552493  11.063936  11.237530  10.060935   9.864481
    29  F   12.375619  11.240383  11.049614   9.844609  10.056937
    30  F    9.145801   8.856248   8.865255   6.750269   6.737772
    31  F   10.927324  10.138292  10.341697   8.485261   8.234593
    32  F   10.722481  10.333190  10.136248   8.225920   8.466891
                   21         22         23         24         25
    21  H    0.000000
    22  H    4.897247   0.000000
    23  H    4.548663   4.302102   0.000000
    24  H    6.840465   4.936454   2.416425   0.000000
    25  C    7.438124   2.664123   5.419702   4.747172   0.000000
    26  C    8.346871   4.757455   4.601913   2.637106   3.151834
    27  F    9.163447   4.998306   5.802546   4.000835   2.739430
    28  F    8.805431   5.565762   4.833577   2.706765   4.115348
    29  F    8.803709   5.565356   4.833292   2.707229   4.115627
    30  F    7.167364   2.292110   6.053309   5.841410   1.384845
    31  F    8.285706   3.637951   6.046283   5.092700   1.383350
    32  F    8.284881   3.637769   6.047240   5.093956   1.383331
                   26         27         28         29         30
    26  C    0.000000
    27  F    1.377580   0.000000
    28  F    1.383659   2.228518   0.000000
    29  F    1.383679   2.228459   2.247240   0.000000
    30  F    4.518435   4.094122   5.440672   5.441006   0.000000
    31  F    3.183259   2.510105   3.765030   4.390349   2.229181
    32  F    3.183609   2.509635   4.390282   3.766007   2.229198
                   31         32
    31  F    0.000000
    32  F    2.267556   0.000000
 Stoichiometry    C12H11F6N2O(1-)
 Framework group  C1[X(C12H11F6N2O)]
 Deg. of freedom    90
 Full point group                 C1      NOp   1
 Largest Abelian subgroup         C1      NOp   1
 Largest concise Abelian subgroup C1      NOp   1
                         Standard orientation:                         
 ---------------------------------------------------------------------
 Center     Atomic      Atomic             Coordinates (Angstroms)
 Number     Number       Type             X           Y           Z
 ---------------------------------------------------------------------
      1          6           0       -7.818648    0.531244    0.015558
      2          6           0       -6.659891   -0.461377   -0.003423
      3          6           0       -5.308499    0.262427    0.005627
      4          7           0       -4.208997   -0.687019   -0.009434
      5          6           0       -2.907410   -0.281182   -0.003953
      6          8           0       -2.656668    0.913088    0.012950
      7          7           0       -1.910101   -1.220097   -0.015084
      8          6           0       -0.484289   -1.010232   -0.010626
      9          6           0        0.144214    0.255656   -0.009812
     10          6           0        0.334564   -2.145703   -0.007106
     11          6           0        1.720017   -2.038140   -0.001367
     12          6           0        2.359800   -0.788647    0.000378
     13          6           0        1.554150    0.392121   -0.004518
     14          1           0       -8.781926   -0.021012    0.008453
     15          1           0       -7.778789    1.188648   -0.879016
     16          1           0       -7.774922    1.158142    0.931650
     17          1           0       -6.737727   -1.089555   -0.917500
     18          1           0       -6.734136   -1.118976    0.890040
     19          1           0       -5.236705    0.890761    0.920877
     20          1           0       -5.238841    0.918222   -0.890318
     21          1           0       -4.420064   -1.697363   -0.023576
     22          1           0       -0.438098    1.153407   -0.014149
     23          1           0       -0.104849   -3.135764   -0.007869
     24          1           0        2.304486   -2.951048    0.001973
     25          6           0        2.147959    1.793538   -0.004369
     26          6           0        3.882405   -0.838118    0.007357
     27          9           0        4.501870    0.392323    0.008849
     28          9           0        4.315941   -1.523983   -1.113423
     29          9           0        4.305461   -1.521301    1.133790
     30          9           0        1.176423    2.780390   -0.010375
     31          9           0        2.924086    1.974262   -1.135132
     32          9           0        2.914259    1.978323    1.132399
 ---------------------------------------------------------------------
 Rotational constants (GHZ):      0.6824132      0.1151689      0.1026119
 General basis read from cards:  (6D, 7F)
 There are   421 symmetry adapted cartesian basis functions of A   symmetry.
 There are   421 symmetry adapted basis functions of A   symmetry.
   421 basis functions,   716 primitive gaussians,   421 cartesian basis functions
    80 alpha electrons       80 beta electrons
       nuclear repulsion energy      1729.8397475195 Hartrees.
 NAtoms=   32 NActive=   32 NUniq=   32 SFac= 1.00D+00 NAtFMM=   60 NAOKFM=F Big=F
 Integral buffers will be    131072 words long.
 Raffenetti 2 integral format.
 Two-electron integral symmetry is turned on.
 ------------------------------------------------------------------------------
 Polarizable Continuum Model (PCM)
 =================================
 Model                : PCM (using non-symmetric T matrix).
 Atomic radii         : SMD-Coulomb.
 Polarization charges : Total charges.
 Charge compensation  : None.
 Solution method      : On-the-fly selection.
 Cavity type          : VdW (van der Waals Surface) (Alpha=1.000).
 Cavity algorithm     : GePol (No added spheres)
                        Default sphere list used, NSphG=   32.
                        Lebedev-Laikov grids with approx.  5.0 points / Ang**2.
                        Smoothing algorithm: York/Karplus (Gamma=1.0000).
                        Polarization charges: spherical gaussians, with
                                              point-specific exponents (IZeta= 3).
                        Self-potential: point-specific (ISelfS= 7).
                        Self-field    : sphere-specific E.n sum rule (ISelfD= 2).
 1st derivatives      : Analytical E(r).r(x)/FMM algorithm (CHGder, D1EAlg=3).
                        Cavity 1st derivative terms included.
 Solvent              : Water, Eps=  78.355300 Eps(inf)=   1.777849
 ------------------------------------------------------------------------------
 ------------------------------------------------------------------------------
 Atomic radii for non-electrostatic terms: SMD-CDS.
 ------------------------------------------------------------------------------
 Nuclear repulsion after PCM non-electrostatic terms =     1729.8512868948 Hartrees.
 One-electron integrals computed using PRISM.
 NBasis=   421 RedAO= T EigKep=  1.05D-06  NBF=   421
 NBsUse=   420 1.00D-06 EigRej=  2.30D-07 NBFU=   420
 ExpMin= 4.38D-02 ExpMax= 7.00D+03 ExpMxC= 1.05D+03 IAcc=3 IRadAn=         5 AccDes= 0.00D+00
 Harris functional with IExCor= 1009 and IRadAn=       5 diagonalized for initial guess.
 HarFok:  IExCor= 1009 AccDes= 0.00D+00 IRadAn=         5 IDoV= 1 UseB2=F ITyADJ=14
 ICtDFT=  3500011 ScaDFX=  1.000000  1.000000  1.000000  1.000000
 FoFCou: FMM=F IPFlag=           0 FMFlag=      100000 FMFlg1=           0
         NFxFlg=           0 DoJE=T BraDBF=F KetDBF=T FulRan=T
         wScrn=  0.000000 ICntrl=     500 IOpCl=  0 I1Cent=   200000004 NGrid=           0
         NMat0=    1 NMatS0=      1 NMatT0=    0 NMatD0=    1 NMtDS0=    0 NMtDT0=    0
 Petite list used in FoFCou.
 Requested convergence on RMS density matrix=1.00D-08 within 128 cycles.
 Requested convergence on MAX density matrix=1.00D-06.
 Requested convergence on             energy=1.00D-06.
 No special actions if energy rises.
 Inv3:  Mode=1 IEnd=    18451200.
 Iteration    1 A*A^-1 deviation from unit magnitude is 6.00D-15 for   1896.
 Iteration    1 A*A^-1 deviation from orthogonality  is 2.38D-15 for   2070    154.
 Iteration    1 A^-1*A deviation from unit magnitude is 6.00D-15 for   2479.
 Iteration    1 A^-1*A deviation from orthogonality  is 4.03D-09 for   1612   1610.
 Iteration    2 A*A^-1 deviation from unit magnitude is 3.11D-15 for    222.
 Iteration    2 A*A^-1 deviation from orthogonality  is 3.62D-15 for   2206    430.
 Iteration    2 A^-1*A deviation from unit magnitude is 1.22D-15 for    738.
 Iteration    2 A^-1*A deviation from orthogonality  is 3.36D-16 for   2351   1813.
 Error on total polarization charges =  0.05254
 SCF Done:  E(RM062X) =  -1247.42722673     A.U. after   15 cycles
            NFock= 15  Conv=0.87D-08     -V/T= 2.0086
 SMD-CDS (non-electrostatic) energy       (kcal/mol) =       7.24
 (included in total energy above)

 **********************************************************************

            Population analysis using the SCF density.

 **********************************************************************

 Orbital symmetries:
       Occupied  (A) (A) (A) (A) (A) (A) (A) (A) (A) (A) (A) (A)
                 (A) (A) (A) (A) (A) (A) (A) (A) (A) (A) (A) (A)
                 (A) (A) (A) (A) (A) (A) (A) (A) (A) (A) (A) (A)
                 (A) (A) (A) (A) (A) (A) (A) (A) (A) (A) (A) (A)
                 (A) (A) (A) (A) (A) (A) (A) (A) (A) (A) (A) (A)
                 (A) (A) (A) (A) (A) (A) (A) (A) (A) (A) (A) (A)
                 (A) (A) (A) (A) (A) (A) (A) (A)
       Virtual   (A) (A) (A) (A) (A) (A) (A) (A) (A) (A) (A) (A)
                 (A) (A) (A) (A) (A) (A) (A) (A) (A) (A) (A) (A)
                 (A) (A) (A) (A) (A) (A) (A) (A) (A) (A) (A) (A)
                 (A) (A) (A) (A) (A) (A) (A) (A) (A) (A) (A) (A)
                 (A) (A) (A) (A) (A) (A) (A) (A) (A) (A) (A) (A)
                 (A) (A) (A) (A) (A) (A) (A) (A) (A) (A) (A) (A)
                 (A) (A) (A) (A) (A) (A) (A) (A) (A) (A) (A) (A)
                 (A) (A) (A) (A) (A) (A) (A) (A) (A) (A) (A) (A)
                 (A) (A) (A) (A) (A) (A) (A) (A) (A) (A) (A) (A)
                 (A) (A) (A) (A) (A) (A) (A) (A) (A) (A) (A) (A)
                 (A) (A) (A) (A) (A) (A) (A) (A) (A) (A) (A) (A)
                 (A) (A) (A) (A) (A) (A) (A) (A) (A) (A) (A) (A)
                 (A) (A) (A) (A) (A) (A) (A) (A) (A) (A) (A) (A)
                 (A) (A) (A) (A) (A) (A) (A) (A) (A) (A) (A) (A)
                 (A) (A) (A) (A) (A) (A) (A) (A) (A) (A) (A) (A)
                 (A) (A) (A) (A) (A) (A) (A) (A) (A) (A) (A) (A)
                 (A) (A) (A) (A) (A) (A) (A) (A) (A) (A) (A) (A)
                 (A) (A) (A) (A) (A) (A) (A) (A) (A) (A) (A) (A)
                 (A) (A) (A) (A) (A) (A) (A) (A) (A) (A) (A) (A)
                 (A) (A) (A) (A) (A) (A) (A) (A) (A) (A) (A) (A)
                 (A) (A) (A) (A) (A) (A) (A) (A) (A) (A) (A) (A)
                 (A) (A) (A) (A) (A) (A) (A) (A) (A) (A) (A) (A)
                 (A) (A) (A) (A) (A) (A) (A) (A) (A) (A) (A) (A)
                 (A) (A) (A) (A) (A) (A) (A) (A) (A) (A) (A) (A)
                 (A) (A) (A) (A) (A) (A) (A) (A) (A) (A) (A) (A)
                 (A) (A) (A) (A) (A) (A) (A) (A) (A) (A) (A) (A)
                 (A) (A) (A) (A) (A) (A) (A) (A) (A) (A) (A) (A)
                 (A) (A) (A) (A) (A) (A) (A) (A) (A) (A) (A) (A)
                 (A) (A) (A) (A)
 The electronic state is 1-A.
 Alpha  occ. eigenvalues --  -25.31022 -25.30920 -25.30727 -25.30726 -25.30573
 Alpha  occ. eigenvalues --  -25.30571 -19.58861 -14.76252 -14.70766 -10.82875
 Alpha  occ. eigenvalues --  -10.82546 -10.64678 -10.60025 -10.59800 -10.58775
 Alpha  occ. eigenvalues --  -10.57190 -10.56907 -10.55733 -10.55210 -10.54165
 Alpha  occ. eigenvalues --  -10.53240  -1.45186  -1.44671  -1.37351  -1.37123
 Alpha  occ. eigenvalues --   -1.36860  -1.36716  -1.15735  -1.00841  -0.98925
 Alpha  occ. eigenvalues --   -0.94329  -0.88605  -0.87635  -0.85891  -0.81343
 Alpha  occ. eigenvalues --   -0.79450  -0.75897  -0.72086  -0.71579  -0.68644
 Alpha  occ. eigenvalues --   -0.68600  -0.68354  -0.67955  -0.66771  -0.66310
 Alpha  occ. eigenvalues --   -0.64234  -0.61090  -0.57775  -0.57739  -0.57469
 Alpha  occ. eigenvalues --   -0.56944  -0.56885  -0.54959  -0.54384  -0.54010
 Alpha  occ. eigenvalues --   -0.53661  -0.53453  -0.53355  -0.52303  -0.52105
 Alpha  occ. eigenvalues --   -0.51158  -0.51111  -0.50839  -0.49609  -0.48381
 Alpha  occ. eigenvalues --   -0.47780  -0.45580  -0.45431  -0.43856  -0.43598
 Alpha  occ. eigenvalues --   -0.41923  -0.41255  -0.38981  -0.38779  -0.35286
 Alpha  occ. eigenvalues --   -0.35148  -0.32151  -0.30611  -0.28091  -0.23810
 Alpha virt. eigenvalues --   -0.00580   0.01106   0.02077   0.02942   0.03217
 Alpha virt. eigenvalues --    0.04076   0.04311   0.04325   0.04899   0.05434
 Alpha virt. eigenvalues --    0.05902   0.06128   0.07071   0.07219   0.07610
 Alpha virt. eigenvalues --    0.07867   0.08329   0.09247   0.09434   0.09999
 Alpha virt. eigenvalues --    0.10332   0.10576   0.11502   0.12148   0.12621
 Alpha virt. eigenvalues --    0.12916   0.12931   0.13114   0.13610   0.14015
 Alpha virt. eigenvalues --    0.14684   0.14807   0.15377   0.16040   0.16782
 Alpha virt. eigenvalues --    0.17443   0.17900   0.18712   0.18932   0.19540
 Alpha virt. eigenvalues --    0.19879   0.20215   0.20598   0.20957   0.21441
 Alpha virt. eigenvalues --    0.21562   0.21802   0.22150   0.23277   0.23367
 Alpha virt. eigenvalues --    0.23709   0.23891   0.24149   0.24630   0.24670
 Alpha virt. eigenvalues --    0.25292   0.25436   0.26276   0.26348   0.26572
 Alpha virt. eigenvalues --    0.26945   0.28079   0.28084   0.28534   0.29054
 Alpha virt. eigenvalues --    0.29968   0.30079   0.30491   0.30598   0.31267
 Alpha virt. eigenvalues --    0.31553   0.31607   0.32027   0.32630   0.33369
 Alpha virt. eigenvalues --    0.33414   0.34032   0.34131   0.34654   0.35631
 Alpha virt. eigenvalues --    0.36180   0.36245   0.36445   0.36875   0.37623
 Alpha virt. eigenvalues --    0.37901   0.38330   0.38861   0.39054   0.39913
 Alpha virt. eigenvalues --    0.40273   0.40296   0.41266   0.41786   0.41794
 Alpha virt. eigenvalues --    0.42580   0.43259   0.43733   0.44096   0.44811
 Alpha virt. eigenvalues --    0.45117   0.45904   0.46479   0.47189   0.47509
 Alpha virt. eigenvalues --    0.48732   0.49147   0.50213   0.51481   0.51709
 Alpha virt. eigenvalues --    0.52439   0.54059   0.55205   0.56124   0.58194
 Alpha virt. eigenvalues --    0.60252   0.62387   0.64765   0.68398   0.70493
 Alpha virt. eigenvalues --    0.70762   0.71906   0.74339   0.75125   0.75144
 Alpha virt. eigenvalues --    0.76032   0.77773   0.77944   0.78291   0.80278
 Alpha virt. eigenvalues --    0.80455   0.80688   0.82402   0.83103   0.83915
 Alpha virt. eigenvalues --    0.84719   0.85860   0.86013   0.86436   0.89010
 Alpha virt. eigenvalues --    0.89094   0.90100   0.90302   0.91479   0.92231
 Alpha virt. eigenvalues --    0.94425   0.97350   0.98779   0.98931   1.01110
 Alpha virt. eigenvalues --    1.01402   1.02991   1.04381   1.05874   1.06773
 Alpha virt. eigenvalues --    1.06855   1.10891   1.11545   1.12737   1.12952
 Alpha virt. eigenvalues --    1.13957   1.14097   1.16077   1.17997   1.18900
 Alpha virt. eigenvalues --    1.19925   1.20235   1.21360   1.22393   1.23306
 Alpha virt. eigenvalues --    1.25072   1.25719   1.26735   1.30014   1.30411
 Alpha virt. eigenvalues --    1.33085   1.34625   1.34886   1.37035   1.39655
 Alpha virt. eigenvalues --    1.40441   1.42059   1.42749   1.43524   1.44480
 Alpha virt. eigenvalues --    1.47829   1.48935   1.50443   1.50630   1.51713
 Alpha virt. eigenvalues --    1.53561   1.53703   1.54081   1.58983   1.60475
 Alpha virt. eigenvalues --    1.61247   1.61737   1.62862   1.64350   1.66184
 Alpha virt. eigenvalues --    1.66310   1.67663   1.68299   1.68849   1.72610
 Alpha virt. eigenvalues --    1.72657   1.73012   1.73043   1.74158   1.75258
 Alpha virt. eigenvalues --    1.76079   1.76201   1.76413   1.78102   1.78341
 Alpha virt. eigenvalues --    1.80591   1.81272   1.81542   1.82501   1.84585
 Alpha virt. eigenvalues --    1.84889   1.85270   1.87017   1.87118   1.87174
 Alpha virt. eigenvalues --    1.88146   1.88355   1.88773   1.89081   1.89397
 Alpha virt. eigenvalues --    1.90297   1.90497   1.92166   1.92409   1.93409
 Alpha virt. eigenvalues --    1.94922   1.95739   1.96155   1.98265   1.98320
 Alpha virt. eigenvalues --    1.98887   1.99078   2.00856   2.03137   2.04327
 Alpha virt. eigenvalues --    2.04588   2.04758   2.04930   2.05229   2.06113
 Alpha virt. eigenvalues --    2.06782   2.07267   2.07900   2.07961   2.10077
 Alpha virt. eigenvalues --    2.10250   2.10922   2.13760   2.15014   2.15916
 Alpha virt. eigenvalues --    2.16211   2.17064   2.20197   2.21611   2.22035
 Alpha virt. eigenvalues --    2.24035   2.24091   2.26286   2.27181   2.28698
 Alpha virt. eigenvalues --    2.30351   2.30440   2.31911   2.31996   2.34653
 Alpha virt. eigenvalues --    2.38108   2.39832   2.40082   2.41654   2.41727
 Alpha virt. eigenvalues --    2.43403   2.44739   2.46068   2.52991   2.53906
 Alpha virt. eigenvalues --    2.56026   2.56418   2.59255   2.64256   2.65520
 Alpha virt. eigenvalues --    2.66083   2.67176   2.69436   2.73034   2.75079
 Alpha virt. eigenvalues --    2.76212   2.77176   2.77291   2.80139   2.80667
 Alpha virt. eigenvalues --    2.81682   2.84844   2.86335   2.89408   2.91570
 Alpha virt. eigenvalues --    2.95696   3.02773   3.05538   3.13249   3.15141
 Alpha virt. eigenvalues --    3.16380   3.18063   3.26937   3.28841   3.29369
 Alpha virt. eigenvalues --    3.31140   3.36768   3.39171   3.44197   4.17805
 Alpha virt. eigenvalues --    4.27214   4.28335   4.34456   4.41495   4.42559
 Alpha virt. eigenvalues --    4.44644   4.47018   4.49881   4.52160   4.59131
 Alpha virt. eigenvalues --    4.62009   4.64366   4.69000   4.82936   5.41317
 Alpha virt. eigenvalues --    5.87162   6.22232   6.41177   6.92473   7.11069
          Condensed to atoms (all electrons):
               1          2          3          4          5          6
     1  C    5.659493  -0.092849   0.072245  -0.007839  -0.059893  -0.005552
     2  C   -0.092849   6.222808  -0.495329  -0.066797   0.179686   0.024503
     3  C    0.072245  -0.495329   7.327834   0.302779  -0.683388  -0.130990
     4  N   -0.007839  -0.066797   0.302779   7.720989   0.491441  -0.249622
     5  C   -0.059893   0.179686  -0.683388   0.491441   6.948123   0.428375
     6  O   -0.005552   0.024503  -0.130990  -0.249622   0.428375   8.773654
     7  N   -0.004056   0.008550  -0.126033  -0.333466   0.278740  -0.116798
     8  C   -0.013464   0.015229  -0.585842  -0.244742  -1.302852  -0.172250
     9  C    0.003576   0.010406   0.070986   0.035146   0.854655   0.315012
    10  C   -0.003577   0.008815  -0.183415  -0.109698  -1.669335  -0.105670
    11  C    0.000089  -0.002039   0.014501   0.008473   0.152461   0.008452
    12  C   -0.000352   0.001732  -0.060602  -0.022789  -0.592069   0.015263
    13  C    0.000641   0.001203   0.028095   0.037145   0.246616   0.028529
    14  H    0.414815  -0.089163   0.027334   0.000450  -0.002657   0.000006
    15  H    0.417672  -0.065530  -0.007240   0.000344  -0.001110  -0.000052
    16  H    0.417906  -0.065819  -0.007286   0.000341  -0.001005  -0.000052
    17  H   -0.034071   0.424270  -0.070466   0.005816  -0.009636  -0.000194
    18  H   -0.034121   0.424359  -0.069883   0.005848  -0.010229  -0.000196
    19  H    0.003531  -0.042993   0.432815  -0.057621  -0.029133   0.003423
    20  H    0.002250  -0.041452   0.426346  -0.057332  -0.024407   0.003323
    21  H   -0.004844   0.005872  -0.092635   0.242773   0.033910   0.011095
    22  H   -0.000006  -0.000012   0.003271   0.000835   0.001482  -0.002535
    23  H   -0.000000   0.000033  -0.000934  -0.000204  -0.025117   0.000134
    24  H    0.000000  -0.000000   0.000039   0.000019   0.004970  -0.000001
    25  C    0.000109  -0.000073   0.011977   0.006697   0.144435  -0.007729
    26  C   -0.000019   0.000118  -0.005882  -0.002242  -0.230187   0.001609
    27  F    0.000000   0.000000   0.000003   0.000001   0.000632   0.000002
    28  F   -0.000000   0.000000  -0.000002  -0.000001  -0.000050  -0.000000
    29  F   -0.000000   0.000000  -0.000001  -0.000001  -0.000038  -0.000000
    30  F   -0.000000   0.000008  -0.000024  -0.000056  -0.000698  -0.000838
    31  F   -0.000000  -0.000000  -0.000007  -0.000000  -0.000261  -0.000019
    32  F    0.000000  -0.000000   0.000002   0.000001   0.000328  -0.000016
               7          8          9         10         11         12
     1  C   -0.004056  -0.013464   0.003576  -0.003577   0.000089  -0.000352
     2  C    0.008550   0.015229   0.010406   0.008815  -0.002039   0.001732
     3  C   -0.126033  -0.585842   0.070986  -0.183415   0.014501  -0.060602
     4  N   -0.333466  -0.244742   0.035146  -0.109698   0.008473  -0.022789
     5  C    0.278740  -1.302852   0.854655  -1.669335   0.152461  -0.592069
     6  O   -0.116798  -0.172250   0.315012  -0.105670   0.008452   0.015263
     7  N    7.820954   0.293169  -0.095821  -0.142474   0.060485  -0.035664
     8  C    0.293169  15.524030  -2.448090  -0.256867   0.647497  -0.564822
     9  C   -0.095821  -2.448090  12.156878  -4.375371   0.260570  -2.425549
    10  C   -0.142474  -0.256867  -4.375371  15.052328  -1.460994  -1.216671
    11  C    0.060485   0.647497   0.260570  -1.460994  15.932231   1.684002
    12  C   -0.035664  -0.564822  -2.425549  -1.216671   1.684002  25.646848
    13  C    0.042056  -3.202783   0.864273   0.315522  -9.720432 -10.308080
    14  H    0.000006  -0.000053   0.000004  -0.000002   0.000000  -0.000000
    15  H    0.000010  -0.000026  -0.000028  -0.000001   0.000000  -0.000000
    16  H    0.000012  -0.000024  -0.000023  -0.000001   0.000000  -0.000000
    17  H   -0.000050  -0.000917  -0.000089   0.000050   0.000002  -0.000003
    18  H   -0.000115  -0.000897  -0.000163   0.000064   0.000004  -0.000004
    19  H   -0.000839  -0.004704   0.002344  -0.000661  -0.000034  -0.000001
    20  H   -0.000861  -0.003336   0.002011  -0.000372  -0.000041   0.000026
    21  H    0.027985   0.023577  -0.005276   0.007280  -0.000564   0.000486
    22  H   -0.007730  -0.016226   0.365573   0.024793  -0.032602  -0.037217
    23  H    0.001320  -0.112994  -0.016480   0.505203  -0.086649  -0.001388
    24  H    0.000996   0.015447  -0.001328  -0.126657   0.235751   0.073938
    25  C    0.025123  -1.326805   0.927845   0.638066  -0.465169  -2.306787
    26  C   -0.013663  -0.442523  -1.249465   0.047881  -1.452221  -2.429395
    27  F    0.000022   0.019734   0.060884  -0.003864   0.048587   0.028339
    28  F   -0.000029   0.002045  -0.004334   0.031544  -0.086458   0.225438
    29  F   -0.000033   0.001470  -0.004398   0.031597  -0.088510   0.225025
    30  F   -0.000649   0.110503   0.041984  -0.000043   0.017719   0.066871
    31  F    0.000166   0.031725  -0.005093  -0.005889  -0.006330  -0.168595
    32  F    0.000180   0.033317   0.000641  -0.008826  -0.002180  -0.167581
              13         14         15         16         17         18
     1  C    0.000641   0.414815   0.417672   0.417906  -0.034071  -0.034121
     2  C    0.001203  -0.089163  -0.065530  -0.065819   0.424270   0.424359
     3  C    0.028095   0.027334  -0.007240  -0.007286  -0.070466  -0.069883
     4  N    0.037145   0.000450   0.000344   0.000341   0.005816   0.005848
     5  C    0.246616  -0.002657  -0.001110  -0.001005  -0.009636  -0.010229
     6  O    0.028529   0.000006  -0.000052  -0.000052  -0.000194  -0.000196
     7  N    0.042056   0.000006   0.000010   0.000012  -0.000050  -0.000115
     8  C   -3.202783  -0.000053  -0.000026  -0.000024  -0.000917  -0.000897
     9  C    0.864273   0.000004  -0.000028  -0.000023  -0.000089  -0.000163
    10  C    0.315522  -0.000002  -0.000001  -0.000001   0.000050   0.000064
    11  C   -9.720432   0.000000   0.000000   0.000000   0.000002   0.000004
    12  C  -10.308080  -0.000000  -0.000000  -0.000000  -0.000003  -0.000004
    13  C   28.465702  -0.000000   0.000001   0.000001   0.000002   0.000000
    14  H   -0.000000   0.484240  -0.024023  -0.024041  -0.002994  -0.002997
    15  H    0.000001  -0.024023   0.488689  -0.028483  -0.004574   0.003813
    16  H    0.000001  -0.024041  -0.028483   0.488693   0.003810  -0.004585
    17  H    0.000002  -0.002994  -0.004574   0.003810   0.494249  -0.031001
    18  H    0.000000  -0.002997   0.003813  -0.004585  -0.031001   0.494308
    19  H    0.000051  -0.000058  -0.000330   0.002667   0.003830  -0.005611
    20  H    0.000067  -0.000059   0.002656  -0.000325  -0.005632   0.003828
    21  H   -0.000764  -0.000003  -0.000000  -0.000000   0.000474   0.000474
    22  H   -0.002022  -0.000000   0.000000   0.000000   0.000000   0.000000
    23  H    0.040026  -0.000000  -0.000000  -0.000000  -0.000000  -0.000000
    24  H    0.163144  -0.000000   0.000000   0.000000   0.000000   0.000000
    25  C   -1.616284   0.000000   0.000000   0.000000   0.000000   0.000000
    26  C    1.674433  -0.000000  -0.000000  -0.000000  -0.000000  -0.000000
    27  F   -0.100134  -0.000000  -0.000000  -0.000000  -0.000000  -0.000000
    28  F   -0.100601  -0.000000  -0.000000  -0.000000  -0.000000  -0.000000
    29  F   -0.099244  -0.000000  -0.000000  -0.000000  -0.000000  -0.000000
    30  F   -0.250793   0.000000   0.000000   0.000000  -0.000000  -0.000000
    31  F    0.212559   0.000000   0.000000   0.000000   0.000000   0.000000
    32  F    0.206114   0.000000   0.000000   0.000000   0.000000   0.000000
              19         20         21         22         23         24
     1  C    0.003531   0.002250  -0.004844  -0.000006  -0.000000   0.000000
     2  C   -0.042993  -0.041452   0.005872  -0.000012   0.000033  -0.000000
     3  C    0.432815   0.426346  -0.092635   0.003271  -0.000934   0.000039
     4  N   -0.057621  -0.057332   0.242773   0.000835  -0.000204   0.000019
     5  C   -0.029133  -0.024407   0.033910   0.001482  -0.025117   0.004970
     6  O    0.003423   0.003323   0.011095  -0.002535   0.000134  -0.000001
     7  N   -0.000839  -0.000861   0.027985  -0.007730   0.001320   0.000996
     8  C   -0.004704  -0.003336   0.023577  -0.016226  -0.112994   0.015447
     9  C    0.002344   0.002011  -0.005276   0.365573  -0.016480  -0.001328
    10  C   -0.000661  -0.000372   0.007280   0.024793   0.505203  -0.126657
    11  C   -0.000034  -0.000041  -0.000564  -0.032602  -0.086649   0.235751
    12  C   -0.000001   0.000026   0.000486  -0.037217  -0.001388   0.073938
    13  C    0.000051   0.000067  -0.000764  -0.002022   0.040026   0.163144
    14  H   -0.000058  -0.000059  -0.000003  -0.000000  -0.000000  -0.000000
    15  H   -0.000330   0.002656  -0.000000   0.000000  -0.000000   0.000000
    16  H    0.002667  -0.000325  -0.000000   0.000000  -0.000000   0.000000
    17  H    0.003830  -0.005632   0.000474   0.000000  -0.000000   0.000000
    18  H   -0.005611   0.003828   0.000474   0.000000  -0.000000   0.000000
    19  H    0.514404  -0.042025   0.002138   0.000000  -0.000000  -0.000000
    20  H   -0.042025   0.514347   0.002138  -0.000000  -0.000000  -0.000000
    21  H    0.002138   0.002138   0.278411  -0.000000   0.000003  -0.000000
    22  H    0.000000  -0.000000  -0.000000   0.429396  -0.000113   0.000012
    23  H   -0.000000  -0.000000   0.000003  -0.000113   0.444084  -0.003418
    24  H   -0.000000  -0.000000  -0.000000   0.000012  -0.003418   0.422617
    25  C   -0.000010  -0.000012  -0.000041  -0.019845   0.005580   0.006667
    26  C   -0.000000   0.000000   0.000018   0.007191  -0.000832  -0.067532
    27  F   -0.000000  -0.000000   0.000000   0.000046   0.000011   0.000609
    28  F    0.000000  -0.000000   0.000000   0.000011  -0.000006  -0.000524
    29  F   -0.000000   0.000000   0.000000   0.000011  -0.000006  -0.000529
    30  F   -0.000000  -0.000000   0.000000   0.007565  -0.000001   0.000008
    31  F   -0.000000   0.000000  -0.000000  -0.000220   0.000000  -0.000004
    32  F    0.000000  -0.000000  -0.000000  -0.000215   0.000000  -0.000005
              25         26         27         28         29         30
     1  C    0.000109  -0.000019   0.000000  -0.000000  -0.000000  -0.000000
     2  C   -0.000073   0.000118   0.000000   0.000000   0.000000   0.000008
     3  C    0.011977  -0.005882   0.000003  -0.000002  -0.000001  -0.000024
     4  N    0.006697  -0.002242   0.000001  -0.000001  -0.000001  -0.000056
     5  C    0.144435  -0.230187   0.000632  -0.000050  -0.000038  -0.000698
     6  O   -0.007729   0.001609   0.000002  -0.000000  -0.000000  -0.000838
     7  N    0.025123  -0.013663   0.000022  -0.000029  -0.000033  -0.000649
     8  C   -1.326805  -0.442523   0.019734   0.002045   0.001470   0.110503
     9  C    0.927845  -1.249465   0.060884  -0.004334  -0.004398   0.041984
    10  C    0.638066   0.047881  -0.003864   0.031544   0.031597  -0.000043
    11  C   -0.465169  -1.452221   0.048587  -0.086458  -0.088510   0.017719
    12  C   -2.306787  -2.429395   0.028339   0.225438   0.225025   0.066871
    13  C   -1.616284   1.674433  -0.100134  -0.100601  -0.099244  -0.250793
    14  H    0.000000  -0.000000  -0.000000  -0.000000  -0.000000   0.000000
    15  H    0.000000  -0.000000  -0.000000  -0.000000  -0.000000   0.000000
    16  H    0.000000  -0.000000  -0.000000  -0.000000  -0.000000   0.000000
    17  H    0.000000  -0.000000  -0.000000  -0.000000  -0.000000  -0.000000
    18  H    0.000000  -0.000000  -0.000000  -0.000000  -0.000000  -0.000000
    19  H   -0.000010  -0.000000  -0.000000   0.000000  -0.000000  -0.000000
    20  H   -0.000012   0.000000  -0.000000  -0.000000   0.000000  -0.000000
    21  H   -0.000041   0.000018   0.000000   0.000000   0.000000   0.000000
    22  H   -0.019845   0.007191   0.000046   0.000011   0.000011   0.007565
    23  H    0.005580  -0.000832   0.000011  -0.000006  -0.000006  -0.000001
    24  H    0.006667  -0.067532   0.000609  -0.000524  -0.000529   0.000008
    25  C   10.202094  -2.149512   0.166332   0.011999   0.012171   0.120702
    26  C   -2.149512  10.619445  -0.107449   0.043607   0.045157   0.009123
    27  F    0.166332  -0.107449   9.311066  -0.035265  -0.035268   0.000194
    28  F    0.011999   0.043607  -0.035265   9.242276  -0.048645  -0.000004
    29  F    0.012171   0.045157  -0.035268  -0.048645   9.242315  -0.000004
    30  F    0.120702   0.009123   0.000194  -0.000004  -0.000004   9.290905
    31  F    0.016230   0.059438  -0.012805  -0.001086   0.000260  -0.034209
    32  F    0.017768   0.054000  -0.012930   0.000257  -0.001098  -0.034368
              31         32
     1  C   -0.000000   0.000000
     2  C   -0.000000  -0.000000
     3  C   -0.000007   0.000002
     4  N   -0.000000   0.000001
     5  C   -0.000261   0.000328
     6  O   -0.000019  -0.000016
     7  N    0.000166   0.000180
     8  C    0.031725   0.033317
     9  C   -0.005093   0.000641
    10  C   -0.005889  -0.008826
    11  C   -0.006330  -0.002180
    12  C   -0.168595  -0.167581
    13  C    0.212559   0.206114
    14  H    0.000000   0.000000
    15  H    0.000000   0.000000
    16  H    0.000000   0.000000
    17  H    0.000000   0.000000
    18  H    0.000000   0.000000
    19  H   -0.000000   0.000000
    20  H    0.000000  -0.000000
    21  H   -0.000000  -0.000000
    22  H   -0.000220  -0.000215
    23  H    0.000000   0.000000
    24  H   -0.000004  -0.000005
    25  C    0.016230   0.017768
    26  C    0.059438   0.054000
    27  F   -0.012805  -0.012930
    28  F   -0.001086   0.000257
    29  F    0.000260  -0.001098
    30  F   -0.034209  -0.034368
    31  F    9.238134  -0.047208
    32  F   -0.047208   9.238536
 Mulliken charges:
               1
     1  C   -0.731685
     2  C   -0.365534
     3  C   -0.198266
     4  N   -0.706688
     5  C    0.876209
     6  O   -0.820866
     7  N   -0.681491
     8  C   -0.017527
     9  C    0.658722
    10  C   -0.992755
    11  C    0.333398
    12  C   -1.630398
    13  C   -0.925042
    14  H    0.219195
    15  H    0.218212
    16  H    0.218214
    17  H    0.227124
    18  H    0.227105
    19  H    0.218815
    20  H    0.218864
    21  H    0.467496
    22  H    0.278557
    23  H    0.251747
    24  H    0.275779
    25  C    1.578472
    26  C    1.588899
    27  F   -0.328749
    28  F   -0.280174
    29  F   -0.280232
    30  F   -0.343896
    31  F   -0.276785
    32  F   -0.276719
 Sum of Mulliken charges =  -1.00000
 Mulliken charges with hydrogens summed into heavy atoms:
               1
     1  C   -0.076064
     2  C    0.088695
     3  C    0.239413
     4  N   -0.239192
     5  C    0.876209
     6  O   -0.820866
     7  N   -0.681491
     8  C   -0.017527
     9  C    0.937280
    10  C   -0.741008
    11  C    0.609176
    12  C   -1.630398
    13  C   -0.925042
    25  C    1.578472
    26  C    1.588899
    27  F   -0.328749
    28  F   -0.280174
    29  F   -0.280232
    30  F   -0.343896
    31  F   -0.276785
    32  F   -0.276719
 Electronic spatial extent (au):  <R**2>=           9836.9490
 Charge=             -1.0000 electrons
 Dipole moment (field-independent basis, Debye):
    X=             -0.4860    Y=             -2.4640    Z=             -0.0206  Tot=              2.5115
 Quadrupole moment (field-independent basis, Debye-Ang):
   XX=           -142.9713   YY=           -130.9395   ZZ=           -127.6258
   XY=              2.3045   XZ=              0.0669   YZ=             -0.1000
 Traceless Quadrupole moment (field-independent basis, Debye-Ang):
   XX=             -9.1257   YY=              2.9060   ZZ=              6.2198
   XY=              2.3045   XZ=              0.0669   YZ=             -0.1000
 Octapole moment (field-independent basis, Debye-Ang**2):
  XXX=            -79.3059  YYY=              3.2050  ZZZ=              0.2681  XYY=             42.7275
  XXY=            -22.1203  XXZ=             -0.4783  XZZ=             27.3026  YZZ=             16.8240
  YYZ=              0.0036  XYZ=              0.2471
 Hexadecapole moment (field-independent basis, Debye-Ang**3):
 XXXX=         -10300.0146 YYYY=          -1443.1873 ZZZZ=           -302.7276 XXXY=            257.9883
 XXXZ=              3.0268 YYYX=              0.7922 YYYZ=             -0.5575 ZZZX=              0.0108
 ZZZY=             -0.4409 XXYY=          -2068.6446 XXZZ=          -1849.4454 YYZZ=           -314.4086
 XXYZ=             -0.5772 YYXZ=              0.7807 ZZXY=              5.7747
 N-N= 1.729851286895D+03 E-N=-6.413446296329D+03  KE= 1.236770259175D+03
 D1PCM: PCM CHGder 1st derivatives, ID1Alg=3 FixD1E=F DoIter=F DoCFld=F I1PDM=0.
 Calling FoFJK, ICntrl=      2127 FMM=F ISym2X=0 I1Cent= 0 IOpClX= 0 NMat=1 NMatS=1 NMatT=0.
 ***** Axes restored to original set *****
 -------------------------------------------------------------------
 Center     Atomic                   Forces (Hartrees/Bohr)
 Number     Number              X              Y              Z
 -------------------------------------------------------------------
      1        6          -0.005231768    0.001074351   -0.000217287
      2        6           0.004037081   -0.003909826    0.000474688
      3        6          -0.002855091    0.002522606   -0.000234405
      4        7           0.002779809   -0.029662211    0.002810810
      5        6           0.050800349   -0.030444859    0.004471245
      6        8          -0.018297759    0.071308421   -0.007376678
      7        7           0.024362039   -0.024808190    0.003164976
      8        6          -0.070095917   -0.000662065   -0.002049454
      9        6           0.029425859    0.011501627   -0.000323868
     10        6           0.012721772   -0.001495994    0.000622821
     11        6          -0.007640750    0.005060541   -0.000867673
     12        6           0.000584652    0.017667249   -0.001965462
     13        6          -0.006587751   -0.019254380    0.001900255
     14        1           0.005724873    0.009106770   -0.000734786
     15        1          -0.001076767   -0.003836703    0.009422886
     16        1          -0.000609175   -0.005554945   -0.008602637
     17        1           0.001025892    0.004539674    0.008799273
     18        1           0.001540131    0.002792999   -0.009435178
     19        1          -0.000317497   -0.003810083   -0.009317800
     20        1          -0.000809653   -0.002008471    0.009833933
     21        1           0.000032302    0.016872092   -0.001609695
     22        1          -0.007382213    0.002619633   -0.000530121
     23        1          -0.002805670   -0.001198855    0.000029752
     24        1           0.003039090    0.000406994    0.000060711
     25        6          -0.002731315   -0.002663114    0.000192824
     26        6          -0.010655630    0.002567777   -0.000642456
     27        9           0.001350827   -0.038796133    0.004335894
     28        9          -0.001651206    0.016859203    0.027328564
     29        9           0.000444052    0.010448732   -0.030396782
     30        9           0.035628929   -0.015129195    0.002976099
     31        9          -0.018466708    0.007378638    0.029789722
     32        9          -0.016282788    0.000507716   -0.031910168
 -------------------------------------------------------------------
 Cartesian Forces:  Max     0.071308421 RMS     0.016766582

 GradGradGradGradGradGradGradGradGradGradGradGradGradGradGradGradGradGrad
 Berny optimization.
 FormGI is forming the generalized inverse of G from B-inverse, IUseBI=4.
 GSVD:  received Info=                   1 from GESDD.
 Internal  Forces:  Max     0.072129357 RMS     0.012812520
 Search for a local minimum.
 Step number   1 out of a maximum of  165
 All quantities printed in internal units (Hartrees-Bohrs-Radians)
 Mixed Optimization -- RFO/linear search
 Second derivative matrix not updated -- first step.
 ITU=  0
     Eigenvalues ---    0.00329   0.00423   0.00456   0.00475   0.00994
     Eigenvalues ---    0.01147   0.01249   0.01299   0.01467   0.01803
     Eigenvalues ---    0.01833   0.01892   0.01971   0.02091   0.02115
     Eigenvalues ---    0.02122   0.02147   0.02165   0.02176   0.03755
     Eigenvalues ---    0.04435   0.04933   0.05553   0.05673   0.05783
     Eigenvalues ---    0.08033   0.09179   0.10331   0.10838   0.11121
     Eigenvalues ---    0.11402   0.11975   0.12669   0.16000   0.16000
     Eigenvalues ---    0.16000   0.16000   0.16000   0.16000   0.16000
     Eigenvalues ---    0.21964   0.22000   0.22004   0.22360   0.23482
     Eigenvalues ---    0.24591   0.25000   0.25000   0.25000   0.25000
     Eigenvalues ---    0.25000   0.25000   0.25000   0.25000   0.25000
     Eigenvalues ---    0.25000   0.25000   0.25000   0.29144   0.29805
     Eigenvalues ---    0.30039   0.30172   0.32337   0.32338   0.32404
     Eigenvalues ---    0.32405   0.32503   0.32508   0.32560   0.35518
     Eigenvalues ---    0.35611   0.37220   0.37883   0.39392   0.39424
     Eigenvalues ---    0.40328   0.42440   0.42703   0.44384   0.44843
     Eigenvalues ---    0.46670   0.48227   0.48436   0.48439   0.48495
     Eigenvalues ---    0.48498   0.49547   0.51018   0.52266   0.95195
 RFO step:  Lambda=-5.60541883D-02 EMin= 3.28787594D-03
 Linear search not attempted -- first point.
 Maximum step size (   0.300) exceeded in Quadratic search.
    -- Step size scaled by   0.799
 Iteration  1 RMS(Cart)=  0.08045179 RMS(Int)=  0.00135184
 Iteration  2 RMS(Cart)=  0.00228910 RMS(Int)=  0.00022807
 Iteration  3 RMS(Cart)=  0.00000287 RMS(Int)=  0.00022806
 Iteration  4 RMS(Cart)=  0.00000000 RMS(Int)=  0.00022806
 Variable       Old X    -DE/DX   Delta X   Delta X   Delta X     New X
                                 (Linear)    (Quad)   (Total)
    R1        2.88353   0.00144   0.00000   0.00324   0.00324   2.88678
    R2        2.09831  -0.01043   0.00000  -0.02184  -0.02184   2.07647
    R3        2.09924  -0.00997   0.00000  -0.02092  -0.02092   2.07832
    R4        2.09933  -0.01001   0.00000  -0.02099  -0.02099   2.07834
    R5        2.89704  -0.00686   0.00000  -0.01579  -0.01579   2.88125
    R6        2.10109  -0.00950   0.00000  -0.01997  -0.01997   2.08111
    R7        2.10110  -0.00949   0.00000  -0.01996  -0.01996   2.08115
    R8        2.74536  -0.00083   0.00000  -0.00152  -0.00152   2.74384
    R9        2.10231  -0.00947   0.00000  -0.01995  -0.01995   2.08236
   R10        2.10230  -0.00948   0.00000  -0.01997  -0.01997   2.08233
   R11        2.57646   0.00242   0.00000   0.00334   0.00334   2.57980
   R12        1.95067  -0.01694   0.00000  -0.02819  -0.02819   1.92248
   R13        2.30627   0.07213   0.00000   0.05720   0.05720   2.36347
   R14        2.58852  -0.01733   0.00000  -0.02446  -0.02446   2.56406
   R15        2.72344  -0.05830   0.00000  -0.10349  -0.10349   2.61994
   R16        2.67080   0.00035   0.00000   0.00092   0.00092   2.67172
   R17        2.64550   0.00425   0.00000   0.00767   0.00765   2.65315
   R18        2.67686  -0.02038   0.00000  -0.03424  -0.03421   2.64265
   R19        2.02215   0.00718   0.00000   0.01339   0.01339   2.03554
   R20        2.62603  -0.00624   0.00000  -0.00875  -0.00877   2.61726
   R21        2.04694   0.00169   0.00000   0.00329   0.00329   2.05022
   R22        2.65273  -0.00572   0.00000  -0.00936  -0.00936   2.64337
   R23        2.04843   0.00191   0.00000   0.00371   0.00371   2.05214
   R24        2.70126  -0.01547   0.00000  -0.02763  -0.02761   2.67365
   R25        2.87885  -0.01208   0.00000  -0.02709  -0.02709   2.85176
   R26        2.87622  -0.01014   0.00000  -0.02265  -0.02265   2.85357
   R27        2.61698  -0.03836   0.00000  -0.05696  -0.05696   2.56001
   R28        2.61415  -0.03332   0.00000  -0.04923  -0.04923   2.56492
   R29        2.61412  -0.03333   0.00000  -0.04925  -0.04925   2.56487
   R30        2.60325  -0.03766   0.00000  -0.05458  -0.05458   2.54867
   R31        2.61474  -0.02949   0.00000  -0.04362  -0.04362   2.57111
   R32        2.61477  -0.02948   0.00000  -0.04360  -0.04360   2.57117
    A1        1.91258   0.00328   0.00000   0.01280   0.01274   1.92532
    A2        1.92592   0.00203   0.00000   0.00718   0.00715   1.93307
    A3        1.92566   0.00203   0.00000   0.00719   0.00716   1.93281
    A4        1.89685  -0.00246   0.00000  -0.00847  -0.00853   1.88832
    A5        1.89662  -0.00244   0.00000  -0.00837  -0.00843   1.88819
    A6        1.90572  -0.00260   0.00000  -0.01089  -0.01090   1.89483
    A7        1.94143  -0.00077   0.00000  -0.00049  -0.00049   1.94094
    A8        1.90138   0.00152   0.00000   0.00823   0.00823   1.90961
    A9        1.90079   0.00158   0.00000   0.00854   0.00854   1.90933
   A10        1.91061  -0.00041   0.00000  -0.00319  -0.00321   1.90740
   A11        1.91066  -0.00045   0.00000  -0.00333  -0.00335   1.90731
   A12        1.89844  -0.00148   0.00000  -0.00991  -0.00996   1.88847
   A13        1.93749  -0.00354   0.00000  -0.00836  -0.00834   1.92914
   A14        1.90541   0.00101   0.00000   0.00246   0.00248   1.90789
   A15        1.90578   0.00099   0.00000   0.00228   0.00229   1.90808
   A16        1.90583   0.00201   0.00000   0.00855   0.00855   1.91439
   A17        1.90658   0.00197   0.00000   0.00826   0.00826   1.91484
   A18        1.90242  -0.00244   0.00000  -0.01340  -0.01341   1.88901
   A19        2.12696   0.00103   0.00000   0.00299   0.00299   2.12995
   A20        2.07723  -0.00005   0.00000   0.00023   0.00023   2.07746
   A21        2.07900  -0.00098   0.00000  -0.00322  -0.00322   2.07577
   A22        2.08000  -0.00135   0.00000  -0.00353  -0.00353   2.07647
   A23        2.08403  -0.03530   0.00000  -0.09220  -0.09220   1.99183
   A24        2.11915   0.03665   0.00000   0.09573   0.09573   2.21488
   A25        2.24014  -0.04072   0.00000  -0.10636  -0.10636   2.13378
   A26        2.17777   0.00751   0.00000   0.01840   0.01842   2.19619
   A27        2.04945  -0.00300   0.00000  -0.00905  -0.00904   2.04040
   A28        2.05597  -0.00451   0.00000  -0.00935  -0.00938   2.04659
   A29        2.12812   0.00006   0.00000  -0.00047  -0.00045   2.12767
   A30        2.10533  -0.00325   0.00000  -0.01168  -0.01169   2.09365
   A31        2.04973   0.00319   0.00000   0.01214   0.01213   2.06186
   A32        2.11810  -0.00242   0.00000  -0.00372  -0.00376   2.11434
   A33        2.09910  -0.00139   0.00000  -0.00776  -0.00774   2.09136
   A34        2.06598   0.00381   0.00000   0.01147   0.01150   2.07748
   A35        2.12151   0.00119   0.00000   0.00411   0.00409   2.12560
   A36        2.06280   0.00186   0.00000   0.00703   0.00704   2.06984
   A37        2.09888  -0.00305   0.00000  -0.01115  -0.01113   2.08775
   A38        2.06960  -0.00198   0.00000  -0.00758  -0.00755   2.06205
   A39        2.01155  -0.00790   0.00000  -0.01944  -0.01945   1.99209
   A40        2.20204   0.00988   0.00000   0.02702   0.02700   2.22904
   A41        2.07307   0.00766   0.00000   0.01700   0.01704   2.09011
   A42        2.06807  -0.01329   0.00000  -0.03320  -0.03323   2.03484
   A43        2.14205   0.00563   0.00000   0.01620   0.01618   2.15823
   A44        1.96322   0.00240   0.00000   0.00365   0.00356   1.96678
   A45        1.91676   0.01889   0.00000   0.05065   0.04972   1.96647
   A46        1.91686   0.01892   0.00000   0.05070   0.04978   1.96663
   A47        1.87231  -0.01287   0.00000  -0.03617  -0.03626   1.83605
   A48        1.87234  -0.01290   0.00000  -0.03626  -0.03634   1.83600
   A49        1.92140  -0.01648   0.00000  -0.03786  -0.03940   1.88200
   A50        2.00472   0.01235   0.00000   0.03478   0.03401   2.03873
   A51        1.90238   0.01565   0.00000   0.03966   0.03899   1.94138
   A52        1.90217   0.01568   0.00000   0.03977   0.03909   1.94127
   A53        1.87835  -0.01403   0.00000  -0.03426  -0.03495   1.84340
   A54        1.87826  -0.01403   0.00000  -0.03421  -0.03490   1.84335
   A55        1.89534  -0.01813   0.00000  -0.05272  -0.05321   1.84213
    D1        3.14154  -0.00000   0.00000  -0.00005  -0.00005   3.14149
    D2        1.03391  -0.00000   0.00000  -0.00117  -0.00116   1.03274
    D3       -1.03433  -0.00001   0.00000   0.00110   0.00109  -1.03324
    D4        1.05346  -0.00029   0.00000  -0.00211  -0.00212   1.05134
    D5       -1.05417  -0.00030   0.00000  -0.00323  -0.00324  -1.05741
    D6       -3.12242  -0.00030   0.00000  -0.00096  -0.00098  -3.12339
    D7       -1.05401   0.00031   0.00000   0.00213   0.00214  -1.05187
    D8        3.12154   0.00030   0.00000   0.00101   0.00102   3.12256
    D9        1.05330   0.00030   0.00000   0.00327   0.00328   1.05658
   D10        3.13933   0.00004   0.00000   0.00031   0.00031   3.13964
   D11        1.03748  -0.00088   0.00000  -0.00665  -0.00665   1.03083
   D12       -1.04084   0.00090   0.00000   0.00679   0.00679  -1.03405
   D13       -1.04166   0.00118   0.00000   0.00817   0.00816  -1.03350
   D14        3.13968   0.00026   0.00000   0.00121   0.00120   3.14088
   D15        1.06135   0.00203   0.00000   0.01465   0.01464   1.07599
   D16        1.03783  -0.00114   0.00000  -0.00784  -0.00783   1.03000
   D17       -1.06401  -0.00206   0.00000  -0.01481  -0.01479  -1.07881
   D18        3.14085  -0.00029   0.00000  -0.00136  -0.00135   3.13949
   D19       -3.14072  -0.00002   0.00000  -0.00014  -0.00014  -3.14086
   D20       -0.00039  -0.00002   0.00000  -0.00014  -0.00014  -0.00053
   D21       -1.03913   0.00031   0.00000   0.00322   0.00320  -1.03593
   D22        2.10120   0.00031   0.00000   0.00321   0.00320   2.10440
   D23        1.03992  -0.00029   0.00000  -0.00307  -0.00306   1.03686
   D24       -2.10293  -0.00029   0.00000  -0.00308  -0.00306  -2.10599
   D25       -0.00109  -0.00001   0.00000  -0.00008  -0.00007  -0.00116
   D26        3.13848   0.00006   0.00000   0.00057   0.00057   3.13905
   D27       -3.14142  -0.00001   0.00000  -0.00008  -0.00007  -3.14149
   D28       -0.00185   0.00006   0.00000   0.00057   0.00057  -0.00128
   D29       -3.14041  -0.00018   0.00000  -0.00201  -0.00202   3.14075
   D30       -0.00089  -0.00015   0.00000  -0.00147  -0.00146  -0.00236
   D31       -0.01426  -0.00011   0.00000  -0.00125  -0.00126  -0.01551
   D32        3.12756  -0.00005   0.00000  -0.00059  -0.00059   3.12696
   D33        3.14091   0.00005   0.00000   0.00058   0.00059   3.14150
   D34       -0.00169   0.00005   0.00000   0.00056   0.00057  -0.00112
   D35       -0.00090  -0.00001   0.00000  -0.00008  -0.00008  -0.00098
   D36        3.13969  -0.00001   0.00000  -0.00010  -0.00010   3.13959
   D37       -3.14047  -0.00005   0.00000  -0.00052  -0.00052  -3.14098
   D38        0.00010  -0.00004   0.00000  -0.00043  -0.00042  -0.00032
   D39        0.00133   0.00001   0.00000   0.00009   0.00009   0.00141
   D40       -3.14129   0.00002   0.00000   0.00018   0.00018  -3.14110
   D41       -0.00020   0.00000   0.00000   0.00000   0.00000  -0.00020
   D42        3.14133  -0.00000   0.00000  -0.00006  -0.00006   3.14127
   D43       -3.14082   0.00000   0.00000   0.00003   0.00003  -3.14079
   D44        0.00071  -0.00000   0.00000  -0.00003  -0.00002   0.00068
   D45       -0.00065  -0.00000   0.00000  -0.00003  -0.00003  -0.00068
   D46        3.14074  -0.00000   0.00000  -0.00003  -0.00003   3.14071
   D47       -3.14124  -0.00001   0.00000  -0.00011  -0.00011  -3.14135
   D48        0.00015  -0.00001   0.00000  -0.00011  -0.00011   0.00004
   D49       -0.00050  -0.00000   0.00000  -0.00004  -0.00004  -0.00054
   D50        3.14120  -0.00000   0.00000  -0.00002  -0.00002   3.14118
   D51        3.14131  -0.00000   0.00000  -0.00005  -0.00005   3.14126
   D52       -0.00019  -0.00000   0.00000  -0.00003  -0.00003  -0.00021
   D53        0.00090   0.00001   0.00000   0.00006   0.00006   0.00096
   D54       -3.14063   0.00001   0.00000   0.00013   0.00013  -3.14050
   D55       -3.14080   0.00000   0.00000   0.00004   0.00003  -3.14077
   D56        0.00085   0.00001   0.00000   0.00010   0.00010   0.00095
   D57        3.14145  -0.00001   0.00000  -0.00009  -0.00009   3.14136
   D58        1.03266  -0.00188   0.00000  -0.00888  -0.00894   1.02373
   D59       -1.03323   0.00188   0.00000   0.00881   0.00887  -1.02435
   D60       -0.00003  -0.00001   0.00000  -0.00007  -0.00007  -0.00010
   D61       -2.10882  -0.00188   0.00000  -0.00885  -0.00891  -2.11773
   D62        2.10848   0.00188   0.00000   0.00884   0.00890   2.11738
   D63       -0.00053   0.00000   0.00000  -0.00002  -0.00002  -0.00056
   D64       -2.08437   0.00186   0.00000   0.00888   0.00943  -2.07493
   D65        2.08342  -0.00188   0.00000  -0.00900  -0.00955   2.07387
   D66        3.14099  -0.00000   0.00000  -0.00009  -0.00009   3.14091
   D67        1.05716   0.00186   0.00000   0.00882   0.00937   1.06653
   D68       -1.05824  -0.00188   0.00000  -0.00906  -0.00961  -1.06785
         Item               Value     Threshold  Converged?
 Maximum Force            0.072129     0.000450     NO 
 RMS     Force            0.012813     0.000300     NO 
 Maximum Displacement     0.305498     0.001800     NO 
 RMS     Displacement     0.081656     0.001200     NO 
[...]
 92981,0.00446967,0.00247043,0.00011193,-0.00338280,-0.00247816,0.00097
 340,-0.00236782,-0.00003806,0.00098146,-0.00272117,0.00307601,-0.00349
 780,-0.01262943,-0.02765978,-0.01243518,0.00459921,-0.00105322,0.00151
 285,-0.00002074,0.00000445,0.00000360,-0.00000138,0.00000407,-0.000000
 62,-0.00000207,0.00000086,0.00000181,0.00000289,-0.00000397,-0.0000079
 7,0.00000004,-0.00000802,-0.00000117,-0.00012329,0.00003414,0.00006880
 ,-0.00003649,0.00002175,0.00000710,0.00002084,0.00008449,0.00009433,-0
 .00014009,-0.00005779,0.00004399,-0.00057101,-0.00016816,0.00020171,0.
 00051961,0.00043454,-0.00043719,-0.00585112,-0.00323809,-0.00290582,-0
 .04776005,-0.22136973,-0.06378126,0.02994349,0.35128971,-0.00000317,-0
 .00000581,-0.00000241,-0.00000395,0.00001213,0.00000776,0.00003634,-0.
 00003681,0.00000425,-0.00020452,-0.00001595,-0.00008281,0.00045319,-0.
 00036486,0.00004424,-0.00010858,0.00021681,0.00003322,-0.00077598,-0.0
 0001218,-0.00005064,0.00057520,0.00042631,-0.00007186,-0.00037735,-0.0
 0034544,-0.00011026,0.00024979,-0.00095809,0.00024305,-0.00288197,0.00
 066536,-0.00096265,-0.00058966,-0.01231905,0.00628038,0.00147925,0.000
 33917,0.00086897,-0.00000310,0.00000069,0.00000060,-0.00000005,0.00000
 048,-0.00000019,-0.00000052,0.00000015,0.00000058,0.00000060,-0.000000
 18,-0.00000051,-0.00000026,-0.00000166,-0.00000033,-0.00001724,0.00000
 514,0.00001179,-0.00000514,0.00000335,0.00000143,0.00000327,0.00001461
 ,0.00001205,-0.00001531,-0.00002764,-0.00004717,-0.00030772,-0.0000712
 1,0.00002309,0.00002952,-0.00001723,0.00007435,0.00191527,-0.00068344,
 -0.00230971,-0.02321819,-0.06091077,-0.08953694,0.01607284,0.10694043,
 0.12521415,-0.00003092,-0.00005704,-0.00002580,-0.00003411,0.00012519,
 0.00008330,0.00038995,-0.00037555,0.00013738,-0.00215036,-0.00018190,-
 0.00095895,0.00523099,-0.00427493,0.00091936,-0.00081799,0.00248431,0.
 00010914,-0.00908405,-0.00058707,-0.00115684,0.00717805,0.00373745,0.0
 0064624,-0.00415204,-0.00499607,-0.00057762,-0.00440361,-0.00004914,-0
 .00215054,-0.00012228,0.00653027,0.00050024,-0.02825883,-0.00642029,0.
 03798213,0.00628752,-0.00188142,0.00181942,-0.00003331,0.00000665,0.00
 000555,-0.00000164,0.00000612,-0.00000039,-0.00000329,0.00000169,0.000
 00221,0.00000410,-0.00000621,-0.00001384,0.00000064,-0.00001326,-0.000
 00137,-0.00018854,0.00005664,0.00011349,-0.00005987,0.00003108,0.00001
 298,0.00003655,0.00014206,0.00015155,-0.00017472,-0.00014732,-0.000221
 30,-0.00039788,-0.00039937,-0.00027631,0.00016797,0.00009755,0.0008468
 0,0.00008818,-0.00268591,0.00148070,-0.12037732,-0.00284439,0.07782647
 ,0.01028762,0.01055001,0.01113039,0.12552781,-0.00000614,-0.00001088,-
 0.00000551,-0.00000649,0.00002388,0.00001635,0.00007736,-0.00007391,0.
 00003236,-0.00042114,-0.00003704,-0.00019577,0.00102408,-0.00085560,0.
 00018062,-0.00012418,0.00047721,0.00000522,-0.00174655,-0.00017308,-0.
 00017577,0.00117747,0.00142038,-0.00008052,-0.00148878,-0.00119321,-0.
 00030126,-0.00038094,0.00052769,-0.00053458,0.00149237,0.00044054,-0.0
 0076290,-0.00949789,0.01047770,0.00628624,0.00082222,-0.00103675,0.001
 88178,-0.00000632,0.00000134,0.00000109,-0.00000034,0.00000137,-0.0000
 0022,-0.00000077,0.00000025,0.00000062,0.00000098,-0.00000136,-0.00000
 255,0.00000008,-0.00000242,-0.00000037,-0.00003743,0.00001120,0.000023
 11,-0.00001121,0.00000650,0.00000219,0.00000705,0.00002719,0.00003014,
 -0.00007262,-0.00012151,-0.00018670,0.00004566,-0.00002234,0.00007715,
 0.00011952,0.00009295,0.00018797,-0.00280468,-0.00078758,0.00130390,-0
 .00203832,-0.06412035,0.00424573,0.01814110,-0.01862987,-0.05447467,-0
 .00635926,0.07847680,0.00001704,0.00003138,0.00001390,0.00001868,-0.00
 006892,-0.00004658,-0.00021327,0.00020787,-0.00007873,0.00118314,0.000
 10200,0.00052894,-0.00287007,0.00229774,-0.00049370,0.00048155,-0.0013
 2466,-0.00006175,0.00492161,0.00033226,0.00064933,-0.00384245,-0.00230
 709,-0.00030740,0.00271421,0.00241449,0.00027103,0.00226276,-0.0001127
 6,0.00087349,0.00016500,-0.00299079,0.00008690,0.01836737,0.00252759,-
 0.00923576,-0.00291869,0.00170917,-0.00145907,0.00001852,-0.00000367,-
 0.00000315,0.00000113,-0.00000349,-0.00000001,0.00000138,-0.00000089,-
 0.00000052,-0.00000168,0.00000370,0.00000857,-0.00000057,0.00000688,0.
 00000053,0.00010346,-0.00003095,-0.00006001,0.00003360,-0.00001745,-0.
 00000745,-0.00001928,-0.00007992,-0.00008640,0.00016207,0.00014089,0.0
 0013339,0.00024231,0.00021760,0.00009002,-0.00016878,-0.00036375,-0.00
 032432,0.00150898,0.00139049,-0.00297088,0.07919799,0.00194463,-0.1891
 2591,0.01662211,-0.04127344,-0.05121242,-0.11576103,0.00208823,0.32622
 184,-0.00001952,-0.00003711,-0.00001633,-0.00002319,0.00008134,0.00005
 264,0.00024621,-0.00024817,0.00006990,-0.00136837,-0.00013745,-0.00056
 098,0.00323949,-0.00242455,0.00048571,-0.00085538,0.00140891,0.0001868
 0,-0.00540519,-0.00042379,-0.00076000,0.00417801,0.00274590,-0.0001832
 2,-0.00392912,-0.00016551,0.00003041,-0.00188094,0.00131497,-0.0001537
 0,-0.00065934,0.00183116,-0.00085468,-0.03246067,0.03075220,-0.0293636
 2,-0.00149149,-0.00739030,-0.00069399,-0.00002187,0.00000433,0.0000036
 0,-0.00000085,0.00000380,-0.00000017,-0.00000206,0.00000127,0.00000172
 ,0.00000242,-0.00000406,-0.00000845,-0.00000054,-0.00000934,-0.0000008
 1,-0.00011886,0.00003538,0.00006930,-0.00003668,0.00002197,0.00000924,
 0.00001930,0.00008765,0.00009758,-0.00061468,-0.00030537,0.00044955,-0
 .00013277,-0.00025172,-0.00004914,-0.00322255,-0.00103342,-0.00078543,
 0.00066695,-0.00354765,0.00103891,-0.14848992,0.05969474,-0.06492828,0
 .00978151,0.01933425,0.00203165,0.01772013,-0.00432518,0.00040350,0.16
 517735,0.00000630,0.00001215,0.00000507,0.00000649,-0.00002696,-0.0000
 1687,-0.00008752,0.00007941,-0.00003223,0.00046670,0.00005798,0.000207
 40,-0.00121356,0.00089945,-0.00022398,0.00025733,-0.00052448,-0.000047
 76,0.00194377,0.00027348,0.00031256,-0.00193975,-0.00100630,0.00007739
 ,0.00094841,0.00069885,-0.00026185,0.00085235,0.00093637,-0.00057904,-
 0.00362297,-0.00498363,-0.00043962,0.00721688,0.00098499,0.00644999,-0
 .00102436,0.00201230,0.00060937,0.00000725,-0.00000147,-0.00000112,0.0
 0000019,-0.00000101,-0.00000009,0.00000068,-0.00000053,-0.00000050,-0.
 00000085,0.00000128,0.00000286,0.00000016,0.00000346,0.00000014,0.0000
 4391,-0.00001236,-0.00002345,0.00001257,-0.00000672,-0.00000320,-0.000
 00549,-0.00002914,-0.00003423,0.00013422,0.00003791,-0.00020685,0.0000
 8969,0.00004019,0.00001571,-0.00337338,0.00110258,-0.00087921,-0.00234
 955,0.00073142,-0.00084107,0.06819028,-0.13118906,0.06317818,0.0296325
 6,-0.08082884,0.01855738,0.00127954,-0.00170229,0.03316781,-0.09971237
 ,0.21341202,-0.00000607,-0.00001151,-0.00000477,-0.00000725,0.00002459
 ,0.00001629,0.00007709,-0.00007491,0.00001701,-0.00043155,-0.00004269,
 -0.00018472,0.00103256,-0.00079216,0.00014435,-0.00021953,0.00045382,0
 .00007071,-0.00168142,-0.00014116,-0.00022744,0.00148034,0.00046129,0.
 00020053,-0.00074581,0.00043769,-0.00048983,-0.00090648,-0.00011284,0.
 00019885,0.00171787,0.00263468,-0.00027086,-0.01205704,0.01203695,-0.0
 0224656,-0.00148927,-0.00231747,0.00150697,-0.00000662,0.00000144,0.00
 000111,-0.00000032,0.00000089,-0.00000011,-0.00000086,0.00000043,0.000
 00087,0.00000115,-0.00000104,-0.00000199,0.00000004,-0.00000325,-0.000
 00038,-0.00003662,0.00001168,0.00002416,-0.00001194,0.00000580,0.00000
 303,0.00000620,0.00002945,0.00002664,-0.00024232,-0.00022112,-0.000124
 93,-0.00009605,-0.00006414,-0.00001258,0.00000414,-0.00075448,0.000186
 13,0.00122258,-0.00133972,0.00014132,-0.07126118,0.05907506,-0.1270576
 0,0.00235330,0.00873330,0.01484822,-0.01168991,0.04058419,-0.07586414,
 0.09429542,-0.12000742,0.18917761,0.00000240,0.00000448,0.00000169,0.0
 0000376,-0.00001023,-0.00000659,-0.00003029,0.00003253,-0.00001383,0.0
 0017338,0.00000349,0.00007507,-0.00037953,0.00048128,-0.00005257,-0.00
 002237,-0.00022166,0.00004187,0.00071413,0.00011207,-0.00007127,0.0008
 8491,-0.00050568,0.00084528,-0.00417363,-0.00278344,0.00140633,-0.0002
 1474,-0.00022365,-0.00012884,-0.00050006,0.00051527,-0.00004469,0.0028
 9852,0.00064554,-0.00074613,-0.00632980,0.00672656,-0.00896161,0.00000
 189,-0.00000104,-0.00000068,0.00000107,-0.00000092,0.00000039,0.000000
 18,0.00000038,0.00000042,-0.00000007,0.00000133,0.00000141,-0.00000057
 ,-0.00000097,0.00000054,0.00001533,-0.00000298,-0.00000770,0.00000832,
 -0.00000577,0.00000017,-0.00000405,-0.00001158,-0.00001823,0.00202386,
 -0.00333869,0.00136505,0.00016441,-0.00005898,-0.00000261,0.00008014,0
 .00033594,0.00007138,-0.16683411,0.07118394,-0.07764023,0.00133703,-0.
 00240764,0.00120022,-0.00059324,0.00091671,-0.00058393,-0.00053718,0.0
 0078091,-0.00022412,-0.00053072,0.00055423,-0.00046306,0.27540490,-0.0
 0001187,-0.00002403,-0.00000939,-0.00001645,0.00005072,0.00003480,0.00
 014913,-0.00015850,0.00001892,-0.00084379,-0.00007461,-0.00035451,0.00
 195600,-0.00130724,0.00021775,-0.00071680,0.00079337,0.00019496,-0.002
 90163,-0.00028553,-0.00018668,0.00332649,0.00187887,-0.00022036,-0.000
 56431,-0.00415544,0.00164269,-0.00000585,-0.00045577,0.00031979,0.0022
 6684,-0.00181894,0.00026390,-0.00621059,-0.00404618,0.00228661,0.03408
 093,-0.01806534,0.02551113,-0.00001335,0.00000309,0.00000257,-0.000001
 49,0.00000309,-0.00000063,-0.00000131,0.00000038,0.00000094,0.00000136
 ,-0.00000305,-0.00000517,-0.00000034,-0.00000446,-0.00000109,-0.000066
 58,0.00002224,0.00004309,-0.00002748,0.00001459,0.00000610,0.00001129,
 0.00006002,0.00006088,-0.00004346,-0.00365974,0.00187929,-0.00003118,-
 0.00018477,0.00008710,-0.00018243,-0.00082216,-0.00011328,0.05951448,-
 0.12286026,0.05341769,-0.00318171,0.00004700,-0.00032293,0.00055724,0.
 00045774,0.00031065,0.00081699,-0.00003308,-0.00041583,0.00102426,-0.0
 0029986,0.00045114,-0.08871616,0.12739801,0.00000590,0.00001140,0.0000
 0455,0.00000754,-0.00002259,-0.00001644,-0.00006551,0.00007511,-0.0000
 1636,0.00039883,0.00003184,0.00016995,-0.00092894,0.00063837,-0.000089
 29,0.00031356,-0.00040570,-0.00007067,0.00138716,0.00012080,0.00011757
 ,-0.00132847,-0.00051727,0.00021477,-0.00129866,0.00058067,0.00010914,
 0.00035104,0.00014556,-0.00006606,-0.00160744,0.00045401,-0.00041782,0
 .00344949,0.00305188,0.00009727,-0.01919979,0.01230272,-0.00539327,0.0
 0000615,-0.00000144,-0.00000123,0.00000093,-0.00000173,0.,0.00000024,-
 0.00000015,0.00000034,0.00000016,0.00000210,0.00000352,-0.00000043,0.0
 0000095,0.00000054,0.00003107,-0.00001009,-0.00001800,0.00001369,-0.00
 000789,-0.00000311,-0.00000559,-0.00002670,-0.00003306,0.00052761,0.00
 139648,-0.00048884,0.00005951,0.00006533,-0.00004630,0.00014903,0.0004
 1602,-0.00016979,-0.07166673,0.05844572,-0.12492417,0.00186221,-0.0007
 0878,-0.00006229,-0.00052563,0.00038422,0.00004136,-0.00054946,0.00007
 565,0.00042052,-0.00066275,0.00034997,-0.00031228,0.13203930,-0.065600
 95,0.17095521,-0.00000780,-0.00001467,-0.00000600,-0.00001051,0.000030
 14,0.00002081,0.00008340,-0.00008911,-0.00001480,-0.00048269,-0.000058
 77,-0.00019479,0.00106569,-0.00049948,0.00004683,-0.00050876,0.0002875
 0,0.00015890,-0.00124373,-0.00059799,0.00023806,0.00030587,0.00075946,
 -0.00160084,0.00185778,-0.00390994,0.00239019,0.00065128,-0.00040193,0
 .00034605,-0.00033950,-0.00175039,-0.00037299,-0.00049071,0.00112373,-
 0.00093730,-0.01873148,-0.00505939,0.01763631,-0.00000892,0.00000126,0
 .00000149,0.00000002,0.00000133,0.00000035,-0.00000037,0.00000081,0.00
 000054,0.00000023,-0.00000152,-0.00000349,-0.00000040,-0.00000389,-0.0
 0000015,-0.00003239,0.00001207,0.00002281,-0.00001478,0.00000902,0.000
 00587,0.00000426,0.00004549,0.00004350,0.00068630,0.00052057,0.0004023
 9,0.00005158,-0.00008071,0.00016409,0.00000688,-0.00020390,0.00005232,
 -0.19439024,-0.03771698,0.09264810,-0.00221799,-0.00593217,0.00431153,
 -0.00130374,0.00378187,-0.00485746,-0.00219262,0.00514071,-0.00262590,
 0.00028498,0.00089759,-0.00065324,-0.08651872,0.01517378,0.00743579,0.
 30661665,-0.00000976,-0.00001933,-0.00000753,-0.00001428,0.00003983,0.
 00002733,0.00010995,-0.00011754,-0.00000661,-0.00064460,-0.00004803,-0
 .00025057,0.00149766,-0.00094900,0.00009214,-0.00052466,0.00057847,0.0
 0016587,-0.00202067,-0.00069557,0.00008155,0.00041591,0.00021003,-0.00
 173749,0.00232992,-0.00487646,0.00324798,-0.00044979,-0.00036549,0.000
 25711,-0.00022165,-0.00006363,-0.00030478,-0.00060464,0.00094537,-0.00
 073923,-0.03364165,-0.00125020,0.02097546,-0.00001077,0.00000227,0.000
 00206,-0.00000078,0.00000220,-0.00000037,-0.00000083,0.00000053,0.0000
 0101,0.00000099,-0.00000215,-0.00000394,-0.00000028,-0.00000388,-0.000
 00075,-0.00004739,0.00001559,0.00003252,-0.00002125,0.00001290,0.00000
 548,0.00001224,0.00005697,0.00005125,0.00000626,0.00048448,0.00046709,
 -0.00001741,-0.00009972,0.00007819,0.00005991,-0.00012906,0.00001896,-
 0.02997151,-0.08265239,0.02485140,-0.00166900,-0.00006876,-0.00112894,
 0.00171920,0.00048718,0.00204514,0.00387165,-0.00327979,0.00103543,0.0
 0062609,-0.00033651,0.00044525,0.02288619,0.01028654,-0.00594212,0.014
 19055,0.07625570,0.00000821,0.00001544,0.00000629,0.00001049,-0.000031
 67,-0.00002150,-0.00008621,0.00009215,0.00000528,0.00051329,0.00003939
 ,0.00021069,-0.00118775,0.00069387,-0.00010574,0.00041123,-0.00041757,
 -0.00012433,0.00152458,0.00069043,-0.00003763,0.00026413,-0.00101700,0
 .00077141,-0.00164249,0.00496855,-0.00250780,0.00000636,0.00018453,-0.
 00013602,0.00006692,0.00034290,-0.00005987,0.00014247,-0.00150034,0.00
 135061,0.02432506,0.00329559,-0.00450913,0.00000886,-0.00000149,-0.000
 00160,0.00000035,-0.00000164,-0.00000027,0.00000042,-0.00000064,-0.000
 00012,-0.00000008,0.00000184,0.00000406,0.00000047,0.00000341,0.000000
 21,0.00003632,-0.00001262,-0.00002432,0.00001667,-0.00001013,-0.000005
 62,-0.00001083,-0.00004603,-0.00004361,-0.00020539,-0.00018031,-0.0000
 6782,-0.00000913,0.00009332,-0.00003901,-0.00002848,0.00009915,-0.0000
 5675,0.08823192,0.03133156,-0.12969713,0.00119684,-0.00143149,-0.00255
 025,-0.00361435,0.00298046,-0.00433842,-0.00082419,-0.00009582,0.00150
 412,-0.00052234,0.00048463,-0.00000463,-0.00434620,-0.00423722,0.01895
 051,-0.14635738,-0.01413415,0.18119416,-0.00000205,-0.00000429,-0.0000
 0184,-0.00000193,0.00000806,0.00000505,0.00002259,-0.00002584,0.000002
 90,-0.00012465,-0.00001367,-0.00004476,0.00026633,-0.00008199,0.000038
 57,-0.00013298,0.00005817,0.00001722,-0.00028666,-0.00011597,-0.000089
 07,0.00045824,0.00102778,0.00029920,0.00020611,0.00044113,0.00041929,0
 .00085026,-0.00030009,0.00009472,-0.00039674,-0.00108819,0.00079602,-0
 .00137231,-0.00041326,-0.00096309,0.00923976,-0.00930428,-0.00620640,-
 0.00000254,0.00000023,0.00000033,0.00000018,0.00000037,0.00000014,-0.0
 0000009,0.00000031,0.00000029,0.00000011,-0.00000029,-0.00000089,-0.00
 000044,-0.00000151,0.00000014,-0.00000989,0.00000380,0.00000614,-0.000
 00192,0.00000212,0.00000138,0.00000221,0.00000757,0.00000793,0.0001607
 9,0.00005844,-0.00027052,0.00002664,-0.00004970,-0.00004096,-0.0000555
 0,-0.00010307,0.00016507,-0.06915475,-0.01948130,-0.01971740,-0.000901
 26,-0.00344092,-0.00091844,-0.00446892,0.00552982,-0.00002322,0.000101
 04,0.00049875,0.00021944,-0.00005164,0.00078872,-0.00018416,-0.0170451
 4,-0.01534200,-0.05019981,-0.00311956,0.02214438,0.04207024,0.08579473
 ,-0.00001309,-0.00002556,-0.00001171,-0.00002094,0.00005361,0.00003605
 ,0.00015176,-0.00017137,-0.00000127,-0.00087325,-0.00005003,-0.0003327
 2,0.00192860,-0.00116979,0.00012996,-0.00076538,0.00075435,0.00022805,
 -0.00252494,-0.00064588,-0.00020261,0.00107108,0.00207764,0.00226765,0
 .00374044,-0.00442860,0.00069531,0.00056722,-0.00105847,0.00013700,-0.
 00128569,-0.00118597,0.00186424,-0.00192479,0.00137980,-0.00054847,-0.
 01064917,-0.03139509,-0.03541596,-0.00001455,0.00000328,0.00000278,-0.
 00000105,0.00000292,-0.00000077,-0.00000183,0.00000052,0.00000202,0.00
 000173,-0.00000262,-0.00000431,-0.00000003,-0.00000521,-0.00000114,-0.
 00006443,0.00002269,0.00004748,-0.00002872,0.00001524,0.00000694,0.000
 02137,0.00006668,0.00005804,0.00019843,-0.00021764,-0.00117780,0.00000
 313,-0.00022293,-0.00015500,0.00002767,-0.00029447,0.00021927,-0.01902
 696,-0.16283589,-0.08873793,-0.00336350,-0.00096993,-0.00129518,0.0036
 0699,-0.00117228,0.00070719,0.00154191,0.00009607,-0.00062454,0.001047
 78,-0.00033469,0.00049629,-0.00689144,0.01724331,-0.00530339,0.0143449
 5,0.00557947,-0.02219909,0.01919672,0.17889086,-0.00000441,-0.00000882
 ,-0.00000416,-0.00000811,0.00001840,0.00001242,0.00005485,-0.00005756,
 -0.00000842,-0.00030463,-0.00001969,-0.00011102,0.00069000,-0.00041635
 ,0.00004134,-0.00029123,0.00026393,0.00011599,-0.00092450,-0.00026485,
 -0.00004609,0.00038748,0.00054962,0.00040582,0.00076341,-0.00164850,0.
 00044213,0.00020749,-0.00016178,-0.00003482,0.00002929,-0.00063629,0.0
 0056475,-0.00109160,-0.00004930,-0.00004234,-0.00233986,-0.00882375,-0
 .00097127,-0.00000494,0.00000138,0.00000102,-0.00000018,0.00000053,-0.
 00000047,-0.00000105,0.00000014,0.00000152,0.00000125,-0.00000023,-0.0
 0000014,0.00000004,-0.00000242,-0.00000045,-0.00002363,0.00000766,0.00
 001889,-0.00000922,0.00000462,0.00000213,0.00000632,0.00002472,0.00001
 733,0.00042209,0.00000508,-0.00025581,0.00000821,-0.00009018,-0.000027
 06,-0.00001925,-0.00017088,0.00007227,-0.01858898,-0.09345881,-0.16187
 540,-0.00100675,-0.00134599,-0.00199434,-0.00118833,0.00209824,0.00101
 685,0.00044021,-0.00020592,0.00053563,0.00031796,0.00018005,0.00023903
 ,-0.04373681,-0.01528196,-0.05895627,0.03169840,-0.02962476,-0.0596657
 7,0.03451646,0.14911363,0.28050672\\-0.00000063,0.00000835,0.00000299,
 -0.00000151,0.00000431,-0.00000117,0.00000267,0.00000750,0.00000295,-0
 .00001518,-0.00000840,-0.00000059,0.00001631,0.00000485,-0.00000128,-0
 .00000237,0.00000648,0.00000554,-0.00001105,-0.00000224,-0.00000677,0.
 00001211,0.00000434,0.00000170,-0.00000143,-0.00000422,0.00000145,-0.0
 0000253,-0.00000499,-0.00000585,0.,-0.00000947,-0.00000585,0.00000245,
 -0.00000322,0.00000241,0.00000005,-0.00000551,0.00000276,-0.00000230,0
 .00000965,0.00000213,-0.00000026,0.00000883,0.00000494,-0.00000056,0.0
 0000580,0.00000374,-0.00000364,0.00001028,-0.00000065,-0.00000312,0.00
 000640,-0.00000098,0.00000032,0.00000145,0.00000223,0.00000083,0.00000
 690,0.00000267,-0.00000352,0.00000515,-0.00000290,-0.00000043,0.000000
 23,0.00000312,-0.00000402,-0.00000367,-0.00000615,-0.00000239,-0.00000
 708,-0.00000707,-0.00000096,-0.00000330,-0.00000894,-0.00000003,-0.000
 00271,-0.00000820,0.00000348,-0.00001388,0.00000235,-0.00000074,-0.000
 00512,-0.00000529,0.00000127,-0.00000951,-0.00000089,0.00000823,-0.000
 00062,0.00001163,0.00000405,-0.00000108,0.00000308,0.00000493,-0.00000
 552,0.00000690\\\@


 IT CANNOT BE MY BEAUTY, FOR I HAVE NONE; AND IT CANNOT BE MY WIT,
 FOR HE HAS NOT ENOUGH TO KNOW THAT I HAVE ANY.
 -- CATHARINE SEDLEY, PUZZLED ABOUT WHY SHE WAS MISTRESS TO JAMES II
 Job cpu time:       0 days  4 hours 28 minutes 44.3 seconds.
 File lengths (MBytes):  RWF=    734 Int=      0 D2E=      0 Chk=     24 Scr=      1
 Normal termination of Gaussian 09 at Tue Oct 30 14:08:57 2018.
WARNING: pbs_rusage is deprecated and values produced may not be accurate


=============================================================================
                                     Resource usage:
                                       CPU time:              34:30:54
   JobId:    1827720.r-man2            Elapsed time:          04:21:31
   Project:             q95            Requested time:        42:00:00
   Service Units:     34.87 
                                       Max physical memory:     1515MB
                                       Max virtual memory:      2589MB
                                       Requested memory:           0MB

                                       Number of cpus:               8

                                       Max jobfs disk use:       0.7GB
                                       Requested jobfs:         20.0GB
=============================================================================

