 Entering Gaussian System, Link 0=/apps/gaussian/g09e01/g09/g09
 AtFile(1): /home/507/hio507/Basis/6-31Gd.gbs
 Initial command:
 /apps/gaussian/g09e01/g09/l1.exe "/jobfs/local/9356674.r-man2/Gau-12015.inp" -scrdir="/jobfs/local/9356674.r-man2/"
 Entering Link 1 = /apps/gaussian/g09e01/g09/l1.exe PID=     12018.
  
 Copyright (c) 1988,1990,1992,1993,1995,1998,2003,2009,2015,
            Gaussian, Inc.  All Rights Reserved.
  
 This is part of the Gaussian(R) 09 program.  It is based on
 the Gaussian(R) 03 system (copyright 2003, Gaussian, Inc.),
 the Gaussian(R) 98 system (copyright 1998, Gaussian, Inc.),
 the Gaussian(R) 94 system (copyright 1995, Gaussian, Inc.),
 the Gaussian 92(TM) system (copyright 1992, Gaussian, Inc.),
 the Gaussian 90(TM) system (copyright 1990, Gaussian, Inc.),
 the Gaussian 88(TM) system (copyright 1988, Gaussian, Inc.),
 the Gaussian 86(TM) system (copyright 1986, Carnegie Mellon
 University), and the Gaussian 82(TM) system (copyright 1983,
 Carnegie Mellon University). Gaussian is a federally registered
 trademark of Gaussian, Inc.
  
 This software contains proprietary and confidential information,
 including trade secrets, belonging to Gaussian, Inc.
  
 This software is provided under written license and may be
 used, copied, transmitted, or stored only in accord with that
 written license.
  
 The following legend is applicable only to US Government
 contracts under FAR:
  
                    RESTRICTED RIGHTS LEGEND
  
 Use, reproduction and disclosure by the US Government is
 subject to restrictions as set forth in subparagraphs (a)
 and (c) of the Commercial Computer Software - Restricted
 Rights clause in FAR 52.227-19.
  
 Gaussian, Inc.
 340 Quinnipiac St., Bldg. 40, Wallingford CT 06492
  
  
 ---------------------------------------------------------------
 Warning -- This program may not be used in any manner that
 competes with the business of Gaussian, Inc. or will provide
 assistance to any competitor of Gaussian, Inc.  The licensee
 of this program is prohibited from giving any competitor of
 Gaussian, Inc. access to this program.  By using this program,
 the user acknowledges that Gaussian, Inc. is engaged in the
 business of creating and licensing software in the field of
 computational chemistry and represents and warrants to the
 licensee that it is not a competitor of Gaussian, Inc. and that
 it will not use this program in any manner prohibited above.
 ---------------------------------------------------------------
  

 Cite this work as:
 Gaussian 09, Revision E.01,
 M. J. Frisch, G. W. Trucks, H. B. Schlegel, G. E. Scuseria, 
 M. A. Robb, J. R. Cheeseman, G. Scalmani, V. Barone, B. Mennucci, 
 G. A. Petersson, H. Nakatsuji, M. Caricato, X. Li, H. P. Hratchian, 
 A. F. Izmaylov, J. Bloino, G. Zheng, J. L. Sonnenberg, M. Hada, 
 M. Ehara, K. Toyota, R. Fukuda, J. Hasegawa, M. Ishida, T. Nakajima, 
 Y. Honda, O. Kitao, H. Nakai, T. Vreven, J. A. Montgomery, Jr., 
 J. E. Peralta, F. Ogliaro, M. Bearpark, J. J. Heyd, E. Brothers, 
 K. N. Kudin, V. N. Staroverov, T. Keith, R. Kobayashi, J. Normand, 
 K. Raghavachari, A. Rendell, J. C. Burant, S. S. Iyengar, J. Tomasi, 
 M. Cossi, N. Rega, J. M. Millam, M. Klene, J. E. Knox, J. B. Cross, 
 V. Bakken, C. Adamo, J. Jaramillo, R. Gomperts, R. E. Stratmann, 
 O. Yazyev, A. J. Austin, R. Cammi, C. Pomelli, J. W. Ochterski, 
 R. L. Martin, K. Morokuma, V. G. Zakrzewski, G. A. Voth, 
 P. Salvador, J. J. Dannenberg, S. Dapprich, A. D. Daniels, 
 O. Farkas, J. B. Foresman, J. V. Ortiz, J. Cioslowski, 
 and D. J. Fox, Gaussian, Inc., Wallingford CT, 2013.
 
 ******************************************
 Gaussian 09:  ES64L-G09RevE.01 30-Nov-2015
                21-Aug-2018 
 ******************************************
 %chk=diph.smd.h2o.chk
 %mem=196608000
 %nproc=4
 Will use up to    4 processors via shared memory.
 ----------------------------------------------------------------------
 # M062X/Gen 6D SCF=Tight INT(grid=ultrafine) OPT IOP(2/17=4) SCRF=(SMD
 ,Solvent=h2o) maxdisk=2147483648
 ----------------------------------------------------------------------
 1/14=-1,18=20,19=15,26=4,38=1/1,3;
 2/9=110,12=2,17=4,18=5,40=1/2;
 3/5=7,8=2,11=2,16=1,25=1,30=1,70=32201,71=1,72=1,74=-55,75=-5/1,2,3;
 4//1;
 5/5=2,32=2,38=5,53=1/2;
 6/7=2,8=2,9=2,10=2,28=1/1;
 7//1,2,3,16;
 1/14=-1,18=20,19=15,26=4/3(2);
 2/9=110,17=4/2;
 99//99;
 2/9=110,17=4/2;
 3/5=7,6=1,8=2,11=2,16=1,25=1,30=1,70=32205,71=1,72=1,74=-55,75=-5,82=7/1,2,3;
 4/5=5,16=3,69=1/1;
 5/5=2,32=2,38=5,53=1/2;
 7//1,2,3,16;
 1/14=-1,18=20,19=15,26=4/3(-5);
 2/9=110,17=4/2;
 6/7=2,8=2,9=2,10=2,19=2,28=1/1;
 99/9=1/99;
 ------------
 diph.smd.h2o
 ------------
 Symbolic Z-matrix:
 Charge =  0 Multiplicity = 1
 C                    -3.94982   1.7313    2.15006 
 C                    -3.94588   0.53895   1.42181 
 C                    -2.75666   2.4295    2.35146 
 C                    -1.56056   1.93435   1.8242 
 C                    -1.54667   0.73573   1.09025 
 C                    -2.74856   0.04512   0.89511 
 N                    -0.37262   0.221     0.38971 
 C                     0.89846   0.7115    0.61517 
 O                     1.10411   1.75731   1.21454 
 N                     1.99945   0.06674  -0.21937 
 C                     3.28199   0.44574  -0.02307 
 C                     3.72858   1.6903    0.40293 
 C                     5.08706   2.01763   0.36767 
 C                     6.01966   1.07838  -0.07921 
 C                     5.59317  -0.18699  -0.49034 
 C                     4.23394  -0.51272  -0.45443 
 H                    -4.83347   2.09598   2.5389 
 H                    -4.82691   0.02265   1.27264 
 H                    -2.75834   3.31032   2.88922 
 H                    -0.68104   2.45276   1.97494 
 H                    -2.75088  -0.83604   0.35791 
 H                    -0.44793  -0.65361   0.03572 
 H                     1.68043  -0.79358  -0.45033 
 H                     3.04245   2.38664   0.73364 
 H                     5.40091   2.95259   0.6716 
 H                     7.02287   1.319    -0.10565 
 H                     6.28153  -0.88133  -0.82059 
 H                     3.92394  -1.4487   -0.75916 
 

 GradGradGradGradGradGradGradGradGradGradGradGradGradGradGradGradGradGrad
 Berny optimization.
 Initialization pass.
                           ----------------------------
                           !    Initial Parameters    !
                           ! (Angstroms and Degrees)  !
 --------------------------                            --------------------------
 ! Name  Definition              Value          Derivative Info.                !
 --------------------------------------------------------------------------------
 ! R1    R(1,2)                  1.3972         estimate D2E/DX2                !
 ! R2    R(1,3)                  1.397          estimate D2E/DX2                !
 ! R3    R(1,17)                 1.032          estimate D2E/DX2                !
 ! R4    R(2,6)                  1.3982         estimate D2E/DX2                !
 ! R5    R(2,18)                 1.032          estimate D2E/DX2                !
 ! R6    R(3,4)                  1.3978         estimate D2E/DX2                !
 ! R7    R(3,19)                 1.032          estimate D2E/DX2                !
 ! R8    R(4,5)                  1.4055         estimate D2E/DX2                !
 ! R9    R(4,20)                 1.032          estimate D2E/DX2                !
 ! R10   R(5,6)                  1.3998         estimate D2E/DX2                !
 ! R11   R(5,7)                  1.4609         estimate D2E/DX2                !
 ! R12   R(6,21)                 1.032          estimate D2E/DX2                !
 ! R13   R(7,8)                  1.381          estimate D2E/DX2                !
 ! R14   R(7,22)                 0.9465         estimate D2E/DX2                !
 ! R15   R(8,9)                  1.2228         estimate D2E/DX2                !
 ! R16   R(8,10)                 1.5246         estimate D2E/DX2                !
 ! R17   R(10,11)                1.3517         estimate D2E/DX2                !
 ! R18   R(10,23)                0.9462         estimate D2E/DX2                !
 ! R19   R(11,12)                1.3892         estimate D2E/DX2                !
 ! R20   R(11,16)                1.4181         estimate D2E/DX2                !
 ! R21   R(12,13)                1.3978         estimate D2E/DX2                !
 ! R22   R(12,24)                1.032          estimate D2E/DX2                !
 ! R23   R(13,14)                1.397          estimate D2E/DX2                !
 ! R24   R(13,25)                1.032          estimate D2E/DX2                !
 ! R25   R(14,15)                1.3972         estimate D2E/DX2                !
 ! R26   R(14,26)                1.032          estimate D2E/DX2                !
 ! R27   R(15,16)                1.3982         estimate D2E/DX2                !
 ! R28   R(15,27)                1.032          estimate D2E/DX2                !
 ! R29   R(16,28)                1.032          estimate D2E/DX2                !
 ! A1    A(2,1,3)              119.9503         estimate D2E/DX2                !
 ! A2    A(2,1,17)             120.025          estimate D2E/DX2                !
 ! A3    A(3,1,17)             120.0247         estimate D2E/DX2                !
 ! A4    A(1,2,6)              120.0127         estimate D2E/DX2                !
 ! A5    A(1,2,18)             119.9924         estimate D2E/DX2                !
 ! A6    A(6,2,18)             119.9949         estimate D2E/DX2                !
 ! A7    A(1,3,4)              119.9613         estimate D2E/DX2                !
 ! A8    A(1,3,19)             120.0193         estimate D2E/DX2                !
 ! A9    A(4,3,19)             120.0193         estimate D2E/DX2                !
 ! A10   A(3,4,5)              120.4983         estimate D2E/DX2                !
 ! A11   A(3,4,20)             119.7508         estimate D2E/DX2                !
 ! A12   A(5,4,20)             119.7509         estimate D2E/DX2                !
 ! A13   A(4,5,6)              119.014          estimate D2E/DX2                !
 ! A14   A(4,5,7)              123.9745         estimate D2E/DX2                !
 ! A15   A(6,5,7)              116.7017         estimate D2E/DX2                !
 ! A16   A(2,6,5)              120.5634         estimate D2E/DX2                !
 ! A17   A(2,6,21)             119.7186         estimate D2E/DX2                !
 ! A18   A(5,6,21)             119.718          estimate D2E/DX2                !
 ! A19   A(5,7,8)              122.431          estimate D2E/DX2                !
 ! A20   A(5,7,22)             116.166          estimate D2E/DX2                !
 ! A21   A(8,7,22)             117.5478         estimate D2E/DX2                !
 ! A22   A(7,8,9)              122.5881         estimate D2E/DX2                !
 ! A23   A(7,8,10)             115.158          estimate D2E/DX2                !
 ! A24   A(9,8,10)             120.5674         estimate D2E/DX2                !
 ! A25   A(8,10,11)            119.1526         estimate D2E/DX2                !
 ! A26   A(8,10,23)            105.9418         estimate D2E/DX2                !
 ! A27   A(11,10,23)           127.6117         estimate D2E/DX2                !
 ! A28   A(10,11,12)           126.9242         estimate D2E/DX2                !
 ! A29   A(10,11,16)           113.7825         estimate D2E/DX2                !
 ! A30   A(12,11,16)           118.8813         estimate D2E/DX2                !
 ! A31   A(11,12,13)           120.9634         estimate D2E/DX2                !
 ! A32   A(11,12,24)           119.277          estimate D2E/DX2                !
 ! A33   A(13,12,24)           119.7504         estimate D2E/DX2                !
 ! A34   A(12,13,14)           119.9613         estimate D2E/DX2                !
 ! A35   A(12,13,25)           120.0191         estimate D2E/DX2                !
 ! A36   A(14,13,25)           120.0196         estimate D2E/DX2                !
 ! A37   A(13,14,15)           119.9509         estimate D2E/DX2                !
 ! A38   A(13,14,26)           120.0252         estimate D2E/DX2                !
 ! A39   A(15,14,26)           120.0239         estimate D2E/DX2                !
 ! A40   A(14,15,16)           120.0122         estimate D2E/DX2                !
 ! A41   A(14,15,27)           119.9935         estimate D2E/DX2                !
 ! A42   A(16,15,27)           119.9943         estimate D2E/DX2                !
 ! A43   A(11,16,15)           120.1955         estimate D2E/DX2                !
 ! A44   A(11,16,28)           120.0778         estimate D2E/DX2                !
 ! A45   A(15,16,28)           119.7179         estimate D2E/DX2                !
 ! D1    D(3,1,2,6)             -0.0002         estimate D2E/DX2                !
 ! D2    D(3,1,2,18)           180.0            estimate D2E/DX2                !
 ! D3    D(17,1,2,6)           179.9993         estimate D2E/DX2                !
 ! D4    D(17,1,2,18)           -0.0005         estimate D2E/DX2                !
 ! D5    D(2,1,3,4)             -0.0005         estimate D2E/DX2                !
 ! D6    D(2,1,3,19)          -179.9992         estimate D2E/DX2                !
 ! D7    D(17,1,3,4)          -180.0            estimate D2E/DX2                !
 ! D8    D(17,1,3,19)            0.0013         estimate D2E/DX2                !
 ! D9    D(1,2,6,5)              0.0007         estimate D2E/DX2                !
 ! D10   D(1,2,6,21)           180.0            estimate D2E/DX2                !
 ! D11   D(18,2,6,5)          -179.9994         estimate D2E/DX2                !
 ! D12   D(18,2,6,21)           -0.0001         estimate D2E/DX2                !
 ! D13   D(1,3,4,5)              0.0005         estimate D2E/DX2                !
 ! D14   D(1,3,4,20)           179.9999         estimate D2E/DX2                !
 ! D15   D(19,3,4,5)           179.9993         estimate D2E/DX2                !
 ! D16   D(19,3,4,20)           -0.0014         estimate D2E/DX2                !
 ! D17   D(3,4,5,6)              0.0            estimate D2E/DX2                !
 ! D18   D(3,4,5,7)            173.3889         estimate D2E/DX2                !
 ! D19   D(20,4,5,6)          -179.9993         estimate D2E/DX2                !
 ! D20   D(20,4,5,7)            -6.6104         estimate D2E/DX2                !
 ! D21   D(4,5,6,2)             -0.0007         estimate D2E/DX2                !
 ! D22   D(4,5,6,21)          -179.9999         estimate D2E/DX2                !
 ! D23   D(7,5,6,2)           -173.8656         estimate D2E/DX2                !
 ! D24   D(7,5,6,21)             6.1352         estimate D2E/DX2                !
 ! D25   D(4,5,7,8)             14.1408         estimate D2E/DX2                !
 ! D26   D(4,5,7,22)           171.4633         estimate D2E/DX2                !
 ! D27   D(6,5,7,8)           -172.3302         estimate D2E/DX2                !
 ! D28   D(6,5,7,22)           -15.0077         estimate D2E/DX2                !
 ! D29   D(5,7,8,9)            -13.9847         estimate D2E/DX2                !
 ! D30   D(5,7,8,10)          -179.2377         estimate D2E/DX2                !
 ! D31   D(22,7,8,9)          -171.0126         estimate D2E/DX2                !
 ! D32   D(22,7,8,10)           23.7343         estimate D2E/DX2                !
 ! D33   D(7,8,10,11)         -177.2143         estimate D2E/DX2                !
 ! D34   D(7,8,10,23)          -24.8254         estimate D2E/DX2                !
 ! D35   D(9,8,10,11)           17.2095         estimate D2E/DX2                !
 ! D36   D(9,8,10,23)          169.5983         estimate D2E/DX2                !
 ! D37   D(8,10,11,12)         -29.5692         estimate D2E/DX2                !
 ! D38   D(8,10,11,16)         157.9455         estimate D2E/DX2                !
 ! D39   D(23,10,11,12)       -175.3359         estimate D2E/DX2                !
 ! D40   D(23,10,11,16)         12.1788         estimate D2E/DX2                !
 ! D41   D(10,11,12,13)       -169.9815         estimate D2E/DX2                !
 ! D42   D(10,11,12,24)          8.9121         estimate D2E/DX2                !
 ! D43   D(16,11,12,13)          2.163          estimate D2E/DX2                !
 ! D44   D(16,11,12,24)       -178.9433         estimate D2E/DX2                !
 ! D45   D(10,11,16,15)        170.9973         estimate D2E/DX2                !
 ! D46   D(10,11,16,28)         -7.9198         estimate D2E/DX2                !
 ! D47   D(12,11,16,15)         -2.1452         estimate D2E/DX2                !
 ! D48   D(12,11,16,28)        178.9377         estimate D2E/DX2                !
 ! D49   D(11,12,13,14)         -1.1116         estimate D2E/DX2                !
 ! D50   D(11,12,13,25)        178.8897         estimate D2E/DX2                !
 ! D51   D(24,12,13,14)        179.9999         estimate D2E/DX2                !
 ! D52   D(24,12,13,25)          0.0012         estimate D2E/DX2                !
 ! D53   D(12,13,14,15)          0.0008         estimate D2E/DX2                !
 ! D54   D(12,13,14,26)       -180.0            estimate D2E/DX2                !
 ! D55   D(25,13,14,15)        179.9995         estimate D2E/DX2                !
 ! D56   D(25,13,14,26)         -0.0013         estimate D2E/DX2                !
 ! D57   D(13,14,15,16)         -0.0001         estimate D2E/DX2                !
 ! D58   D(13,14,15,27)        179.9991         estimate D2E/DX2                !
 ! D59   D(26,14,15,16)       -179.9993         estimate D2E/DX2                !
 ! D60   D(26,14,15,27)         -0.0001         estimate D2E/DX2                !
 ! D61   D(14,15,16,11)          1.079          estimate D2E/DX2                !
 ! D62   D(14,15,16,28)        179.9999         estimate D2E/DX2                !
 ! D63   D(27,15,16,11)       -178.9202         estimate D2E/DX2                !
 ! D64   D(27,15,16,28)          0.0007         estimate D2E/DX2                !
 --------------------------------------------------------------------------------
 Trust Radius=3.00D-01 FncErr=1.00D-07 GrdErr=1.00D-06
 Number of steps in this run=    148 maximum allowed number of steps=    168.
 GradGradGradGradGradGradGradGradGradGradGradGradGradGradGradGradGradGrad

                          Input orientation:                          
 ---------------------------------------------------------------------
 Center     Atomic      Atomic             Coordinates (Angstroms)
 Number     Number       Type             X           Y           Z
 ---------------------------------------------------------------------
      1          6           0       -3.949820    1.731300    2.150060
      2          6           0       -3.945880    0.538950    1.421810
      3          6           0       -2.756660    2.429500    2.351460
      4          6           0       -1.560560    1.934350    1.824200
      5          6           0       -1.546670    0.735730    1.090250
      6          6           0       -2.748560    0.045120    0.895110
      7          7           0       -0.372620    0.221000    0.389710
      8          6           0        0.898460    0.711500    0.615170
      9          8           0        1.104110    1.757310    1.214540
     10          7           0        1.999450    0.066740   -0.219370
     11          6           0        3.281990    0.445740   -0.023070
     12          6           0        3.728580    1.690300    0.402930
     13          6           0        5.087060    2.017630    0.367670
     14          6           0        6.019660    1.078380   -0.079210
     15          6           0        5.593170   -0.186990   -0.490340
     16          6           0        4.233940   -0.512720   -0.454430
     17          1           0       -4.833470    2.095980    2.538900
     18          1           0       -4.826910    0.022650    1.272640
     19          1           0       -2.758340    3.310320    2.889220
     20          1           0       -0.681040    2.452760    1.974940
     21          1           0       -2.750880   -0.836040    0.357910
     22          1           0       -0.447930   -0.653610    0.035720
     23          1           0        1.680430   -0.793580   -0.450330
     24          1           0        3.042450    2.386640    0.733640
     25          1           0        5.400910    2.952590    0.671600
     26          1           0        7.022870    1.319000   -0.105650
     27          1           0        6.281530   -0.881330   -0.820590
     28          1           0        3.923940   -1.448700   -0.759160
 ---------------------------------------------------------------------
                    Distance matrix (angstroms):
                    1          2          3          4          5
     1  C    0.000000
     2  C    1.397162   0.000000
     3  C    1.397024   2.419230   0.000000
     4  C    2.419913   2.792635   1.397795   0.000000
     5  C    2.808823   2.429992   2.433841   1.405548   0.000000
     6  C    2.420977   1.398162   2.793974   2.417383   1.399843
     7  N    4.263355   3.732896   3.795996   2.530718   1.460855
     8  C    5.186685   4.914069   4.396149   3.000649   2.490973
     9  O    5.139852   5.199015   4.080438   2.739251   2.843538
    10  N    6.616553   6.185742   5.900202   4.509747   3.838961
    11  C    7.659911   7.371463   6.785204   5.392463   4.963822
    12  C    7.874768   7.826944   6.811866   5.482205   5.404801
    13  C    9.215427   9.213670   8.101173   6.805826   6.794981
    14  C   10.236527  10.092375   9.206382   7.862276   7.663837
    15  C   10.085644   9.755859   9.200082   7.812364   7.370685
    16  C    8.876538   8.457880   8.086913   6.690033   6.112292
    17  H    1.032001   2.111883   2.111755   3.353932   3.840823
    18  H    2.111549   1.032004   3.353016   3.824638   3.361804
    19  H    2.111702   3.353213   1.032004   2.112401   3.366445
    20  H    3.352028   3.824631   2.109622   1.032001   2.116644
    21  H    3.352685   2.109622   3.825967   3.352899   2.111138
    22  H    4.735131   3.947037   4.494269   3.336786   2.061439
    23  H    6.696026   6.077492   6.158412   4.808233   3.889261
    24  H    7.164325   7.261150   6.020702   4.752009   4.890061
    25  H    9.545342   9.682508   8.345148   7.129331   7.304697
    26  H   11.209734  11.102031  10.144447   8.819198   8.672220
    27  H   10.969554  10.566242  10.134711   8.741930   8.218693
    28  H    8.976194   8.404847   8.327473   6.942515   6.174109
                    6          7          8          9         10
     6  C    0.000000
     7  N    2.435458   0.000000
     8  C    3.717954   1.380966   0.000000
     9  O    4.228084   2.285022   1.222806   0.000000
    10  N    4.877103   2.453873   1.524582   2.390765   0.000000
    11  C    6.113189   3.684708   2.481772   2.827553   1.351697
    12  C    6.700910   4.356473   3.002112   2.747916   2.452161
    13  C    8.097279   5.747736   4.394497   4.080300   3.699179
    14  C    8.882489   6.466547   5.181067   5.128096   4.147909
    15  C    8.459185   6.044137   4.906092   5.180596   3.612842
    16  C    7.133565   4.740392   3.710551   4.211215   2.320339
    17  H    3.354836   5.294691   6.202624   6.092904   7.642949
    18  H    2.112480   4.545284   5.804020   6.179759   6.987648
    19  H    3.825977   4.634987   5.029648   4.487194   6.543753
    20  H    3.352223   2.754783   2.715839   2.061218   4.206318
    21  H    1.032004   2.602780   3.972247   4.724429   4.869692
    22  H    2.553365   0.946532   2.003011   3.100158   2.563912
    23  H    4.704209   2.439273   2.003006   3.100158   0.946185
    24  H    6.248567   4.058446   2.723384   2.093916   2.716250
    25  H    8.655472   6.393332   5.029684   4.492880   4.548834
    26  H    9.904804   7.492947   6.196534   6.080028   5.178401
    27  H    9.238207   6.852567   5.794476   6.157098   4.426795
    28  H    7.034939   4.750603   3.963430   4.703768   2.508305
                   11         12         13         14         15
    11  C    0.000000
    12  C    1.389190   0.000000
    13  C    2.425241   1.397804   0.000000
    14  C    2.810378   2.419908   1.397009   0.000000
    15  C    2.441361   2.792641   2.419231   1.397170   0.000000
    16  C    1.418071   2.417385   2.793982   2.420988   1.398176
    17  H    8.668776   8.833779  10.155653  11.210729  11.095182
    18  H    8.222659   8.759787  10.153114  10.981354  10.570247
    19  H    7.291971   7.133459   8.341437   9.531339   9.664384
    20  H    4.870912   4.743133   6.003635   7.141977   7.239585
    21  H    6.179290   6.954698   8.341273   8.987683   8.412132
    22  H    3.889001   4.803331   6.154822   6.696471   6.081888
    23  H    2.069652   3.330560   4.491899   4.740346   3.959683
    24  H    2.096922   1.032004   2.109629   3.352022   3.824640
    25  H    3.355098   2.112403   1.032001   2.111689   3.353212
    26  H    3.842341   3.353933   2.111747   1.032002   2.111879
    27  H    3.375558   3.824635   3.353012   2.111559   1.031994
    28  H    2.131392   3.352900   3.825969   3.352687   2.109622
                   16         17         18         19         20
    16  C    0.000000
    17  H    9.898650   0.000000
    18  H    9.239502   2.429435   0.000000
    19  H    8.642199   2.429714   4.207266   0.000000
    20  H    6.233213   4.205713   4.856634   2.426209   0.000000
    21  H    7.039328   4.206024   2.425692   4.857972   4.208946
    22  H    4.709565   5.749706   4.600300   5.403073   3.669394
    23  H    2.568913   7.727609   6.780880   6.906321   4.690117
    24  H    3.352230   8.085392   8.234428   6.256906   3.925503
    25  H    3.825982  10.438540  10.656177   8.462811   6.240083
    26  H    3.354844  12.172516  11.999896  10.421452   8.060056
    27  H    2.112480  11.987234  11.340028  10.632585   8.210269
    28  H    1.031998  10.006707   9.103321   8.978408   6.625899
                   21         22         23         24         25
    21  H    0.000000
    22  H    2.332523   0.000000
    23  H    4.504616   2.187636   0.000000
    24  H    6.639993   4.681129   3.656594   0.000000
    25  H    8.994654   6.900576   5.397637   2.426207   0.000000
    26  H   10.019245   7.728132   5.755299   4.205711   2.429709
    27  H    9.109080   6.787544   4.616808   4.856634   4.207263
    28  H    6.795323   4.514117   2.357519   4.208956   4.857970
                   26         27         28
    26  H    0.000000
    27  H    2.429440   0.000000
    28  H    4.206020   2.425678   0.000000
 Stoichiometry    C13H12N2O
 Framework group  C1[X(C13H12N2O)]
 Deg. of freedom    78
 Full point group                 C1      NOp   1
 Largest Abelian subgroup         C1      NOp   1
 Largest concise Abelian subgroup C1      NOp   1
                         Standard orientation:                         
 ---------------------------------------------------------------------
 Center     Atomic      Atomic             Coordinates (Angstroms)
 Number     Number       Type             X           Y           Z
 ---------------------------------------------------------------------
      1          6           0       -5.128341   -0.591009   -0.072004
      2          6           0       -4.888858    0.783368    0.004150
      3          6           0       -4.055356   -1.484591   -0.115478
      4          6           0       -2.743708   -1.002575   -0.082743
      5          6           0       -2.492888    0.378292   -0.006178
      6          6           0       -3.576229    1.263778    0.036815
      7          7           0       -1.163812    0.957971    0.171655
      8          6           0       -0.006662    0.224621   -0.002324
      9          8           0       -0.004499   -0.996369   -0.068910
     10          7           0        1.288808    0.990007    0.243224
     11          6           0        2.470698    0.366143    0.040708
     12          6           0        2.732264   -0.991236    0.178374
     13          6           0        4.041763   -1.478727    0.140707
     14          6           0        5.108177   -0.599066   -0.060774
     15          6           0        4.864311    0.766897   -0.224348
     16          6           0        3.553836    1.252806   -0.186377
     17          1           0       -6.097133   -0.945813   -0.096115
     18          1           0       -5.681002    1.444052    0.036298
     19          1           0       -4.231023   -2.499976   -0.171746
     20          1           0       -1.953511   -1.665579   -0.115026
     21          1           0       -3.404557    2.279846    0.093089
     22          1           0       -1.103444    1.898462    0.083583
     23          1           0        1.084162    1.901749    0.094516
     24          1           0        1.946919   -1.643966    0.327408
     25          1           0        4.220675   -2.487880    0.261644
     26          1           0        6.075375   -0.957914   -0.088758
     27          1           0        5.651597    1.417307   -0.373211
     28          1           0        3.378913    2.262607   -0.307721
 ---------------------------------------------------------------------
 Rotational constants (GHZ):      2.2033715      0.2037546      0.1870372
 General basis read from cards:  (6D, 7F)
 There are   264 symmetry adapted cartesian basis functions of A   symmetry.
 There are   264 symmetry adapted basis functions of A   symmetry.
   264 basis functions,   496 primitive gaussians,   264 cartesian basis functions
    56 alpha electrons       56 beta electrons
       nuclear repulsion energy       965.6323093163 Hartrees.
 NAtoms=   28 NActive=   28 NUniq=   28 SFac= 1.00D+00 NAtFMM=   60 NAOKFM=F Big=F
 Integral buffers will be    131072 words long.
 Raffenetti 2 integral format.
 Two-electron integral symmetry is turned on.
 ------------------------------------------------------------------------------
 Polarizable Continuum Model (PCM)
 =================================
 Model                : PCM (using non-symmetric T matrix).
 Atomic radii         : SMD-Coulomb.
 Polarization charges : Total charges.
 Charge compensation  : None.
 Solution method      : On-the-fly selection.
 Cavity type          : VdW (van der Waals Surface) (Alpha=1.000).
 Cavity algorithm     : GePol (No added spheres)
                        Default sphere list used, NSphG=   28.
                        Lebedev-Laikov grids with approx.  5.0 points / Ang**2.
                        Smoothing algorithm: York/Karplus (Gamma=1.0000).
                        Polarization charges: spherical gaussians, with
                                              point-specific exponents (IZeta= 3).
                        Self-potential: point-specific (ISelfS= 7).
                        Self-field    : sphere-specific E.n sum rule (ISelfD= 2).
 1st derivatives      : Analytical E(r).r(x)/FMM algorithm (CHGder, D1EAlg=3).
                        Cavity 1st derivative terms included.
 Solvent              : Water, Eps=  78.355300 Eps(inf)=   1.777849
 ------------------------------------------------------------------------------
 ------------------------------------------------------------------------------
 Atomic radii for non-electrostatic terms: SMD-CDS.
 ------------------------------------------------------------------------------
 Nuclear repulsion after PCM non-electrostatic terms =      965.6411314327 Hartrees.
 One-electron integrals computed using PRISM.
 NBasis=   264 RedAO= T EigKep=  4.50D-04  NBF=   264
 NBsUse=   264 1.00D-06 EigRej= -1.00D+00 NBFU=   264
 ExpMin= 1.61D-01 ExpMax= 5.48D+03 ExpMxC= 8.25D+02 IAcc=3 IRadAn=         5 AccDes= 0.00D+00
 Harris functional with IExCor= 1009 and IRadAn=       5 diagonalized for initial guess.
 HarFok:  IExCor= 1009 AccDes= 0.00D+00 IRadAn=         5 IDoV= 1 UseB2=F ITyADJ=14
 ICtDFT=  3500011 ScaDFX=  1.000000  1.000000  1.000000  1.000000
 FoFCou: FMM=F IPFlag=           0 FMFlag=      100000 FMFlg1=           0
         NFxFlg=           0 DoJE=T BraDBF=F KetDBF=T FulRan=T
         wScrn=  0.000000 ICntrl=     500 IOpCl=  0 I1Cent=   200000004 NGrid=           0
         NMat0=    1 NMatS0=      1 NMatT0=    0 NMatD0=    1 NMtDS0=    0 NMtDT0=    0
 Petite list used in FoFCou.
 Requested convergence on RMS density matrix=1.00D-08 within 128 cycles.
 Requested convergence on MAX density matrix=1.00D-06.
 Requested convergence on             energy=1.00D-06.
 No special actions if energy rises.
 Inv3:  Mode=1 IEnd=    14467248.
 Iteration    1 A*A^-1 deviation from unit magnitude is 6.00D-15 for   2189.
 Iteration    1 A*A^-1 deviation from orthogonality  is 2.58D-15 for   1381   1272.
 Iteration    1 A^-1*A deviation from unit magnitude is 5.77D-15 for   2189.
 Iteration    1 A^-1*A deviation from orthogonality  is 9.07D-12 for   2146   2056.
 Error on total polarization charges =  0.04011
 SCF Done:  E(RM062X) =  -687.032367488     A.U. after   13 cycles
            NFock= 13  Conv=0.58D-08     -V/T= 2.0075
 SMD-CDS (non-electrostatic) energy       (kcal/mol) =       5.54
 (included in total energy above)

 **********************************************************************

            Population analysis using the SCF density.

 **********************************************************************

 Orbital symmetries:
       Occupied  (A) (A) (A) (A) (A) (A) (A) (A) (A) (A) (A) (A)
                 (A) (A) (A) (A) (A) (A) (A) (A) (A) (A) (A) (A)
                 (A) (A) (A) (A) (A) (A) (A) (A) (A) (A) (A) (A)
                 (A) (A) (A) (A) (A) (A) (A) (A) (A) (A) (A) (A)
                 (A) (A) (A) (A) (A) (A) (A) (A)
       Virtual   (A) (A) (A) (A) (A) (A) (A) (A) (A) (A) (A) (A)
                 (A) (A) (A) (A) (A) (A) (A) (A) (A) (A) (A) (A)
                 (A) (A) (A) (A) (A) (A) (A) (A) (A) (A) (A) (A)
                 (A) (A) (A) (A) (A) (A) (A) (A) (A) (A) (A) (A)
                 (A) (A) (A) (A) (A) (A) (A) (A) (A) (A) (A) (A)
                 (A) (A) (A) (A) (A) (A) (A) (A) (A) (A) (A) (A)
                 (A) (A) (A) (A) (A) (A) (A) (A) (A) (A) (A) (A)
                 (A) (A) (A) (A) (A) (A) (A) (A) (A) (A) (A) (A)
                 (A) (A) (A) (A) (A) (A) (A) (A) (A) (A) (A) (A)
                 (A) (A) (A) (A) (A) (A) (A) (A) (A) (A) (A) (A)
                 (A) (A) (A) (A) (A) (A) (A) (A) (A) (A) (A) (A)
                 (A) (A) (A) (A) (A) (A) (A) (A) (A) (A) (A) (A)
                 (A) (A) (A) (A) (A) (A) (A) (A) (A) (A) (A) (A)
                 (A) (A) (A) (A) (A) (A) (A) (A) (A) (A) (A) (A)
                 (A) (A) (A) (A) (A) (A) (A) (A) (A) (A) (A) (A)
                 (A) (A) (A) (A) (A) (A) (A) (A) (A) (A) (A) (A)
                 (A) (A) (A) (A) (A) (A) (A) (A) (A) (A) (A) (A)
                 (A) (A) (A) (A)
 The electronic state is 1-A.
 Alpha  occ. eigenvalues --  -19.62993 -14.80226 -14.78881 -10.70395 -10.60515
 Alpha  occ. eigenvalues --  -10.59264 -10.54707 -10.54563 -10.54448 -10.54192
 Alpha  occ. eigenvalues --  -10.54019 -10.53998 -10.53925 -10.53768 -10.53269
 Alpha  occ. eigenvalues --  -10.53133  -1.18728  -1.06027  -1.04337  -0.95238
 Alpha  occ. eigenvalues --   -0.93762  -0.84846  -0.84428  -0.83949  -0.82149
 Alpha  occ. eigenvalues --   -0.72655  -0.70784  -0.70191  -0.68346  -0.66659
 Alpha  occ. eigenvalues --   -0.62372  -0.62177  -0.59537  -0.57115  -0.56140
 Alpha  occ. eigenvalues --   -0.53670  -0.52230  -0.50945  -0.50565  -0.50195
 Alpha  occ. eigenvalues --   -0.49103  -0.48699  -0.47862  -0.45839  -0.43887
 Alpha  occ. eigenvalues --   -0.42457  -0.41768  -0.40902  -0.40218  -0.38000
 Alpha  occ. eigenvalues --   -0.37448  -0.34317  -0.30504  -0.30036  -0.28356
 Alpha  occ. eigenvalues --   -0.25504
 Alpha virt. eigenvalues --    0.01800   0.03174   0.03588   0.05043   0.09363
 Alpha virt. eigenvalues --    0.14450   0.15916   0.17258   0.19560   0.20273
 Alpha virt. eigenvalues --    0.21601   0.21931   0.22467   0.22922   0.23218
 Alpha virt. eigenvalues --    0.23714   0.25381   0.26434   0.27161   0.28717
 Alpha virt. eigenvalues --    0.29040   0.31980   0.34414   0.35251   0.35789
 Alpha virt. eigenvalues --    0.35944   0.37686   0.39693   0.40245   0.41375
 Alpha virt. eigenvalues --    0.42403   0.43383   0.51950   0.54726   0.55305
 Alpha virt. eigenvalues --    0.57077   0.57459   0.57796   0.59365   0.59685
 Alpha virt. eigenvalues --    0.60801   0.62032   0.62204   0.63760   0.64551
 Alpha virt. eigenvalues --    0.64714   0.64887   0.65175   0.65358   0.66402
 Alpha virt. eigenvalues --    0.66515   0.66750   0.67281   0.67583   0.67721
 Alpha virt. eigenvalues --    0.68261   0.68519   0.70750   0.71367   0.71427
 Alpha virt. eigenvalues --    0.72791   0.74602   0.80811   0.81108   0.81339
 Alpha virt. eigenvalues --    0.85067   0.86745   0.89074   0.89721   0.92709
 Alpha virt. eigenvalues --    0.92949   0.94559   0.94703   0.95330   0.96003
 Alpha virt. eigenvalues --    0.96327   0.96781   0.97742   1.00407   1.00497
 Alpha virt. eigenvalues --    1.00982   1.01521   1.03000   1.03411   1.03878
 Alpha virt. eigenvalues --    1.04971   1.06677   1.07191   1.09964   1.11544
 Alpha virt. eigenvalues --    1.12506   1.14462   1.15776   1.16670   1.19690
 Alpha virt. eigenvalues --    1.20745   1.21792   1.23321   1.28966   1.29236
 Alpha virt. eigenvalues --    1.30345   1.32156   1.33721   1.37044   1.38488
 Alpha virt. eigenvalues --    1.43685   1.43869   1.45730   1.48082   1.49555
 Alpha virt. eigenvalues --    1.50437   1.51915   1.53059   1.53830   1.54416
 Alpha virt. eigenvalues --    1.54696   1.56022   1.56136   1.56974   1.60133
 Alpha virt. eigenvalues --    1.61680   1.63092   1.68429   1.74606   1.79481
 Alpha virt. eigenvalues --    1.82473   1.83476   1.83837   1.85093   1.86127
 Alpha virt. eigenvalues --    1.88149   1.90419   1.93116   1.95255   1.96286
 Alpha virt. eigenvalues --    1.98478   2.01203   2.02331   2.04082   2.06726
 Alpha virt. eigenvalues --    2.09545   2.10023   2.10432   2.10930   2.11986
 Alpha virt. eigenvalues --    2.12893   2.15930   2.17578   2.18159   2.18546
 Alpha virt. eigenvalues --    2.19702   2.20115   2.21015   2.24632   2.26396
 Alpha virt. eigenvalues --    2.29912   2.32151   2.33168   2.33467   2.34477
 Alpha virt. eigenvalues --    2.34878   2.40687   2.43751   2.48484   2.48882
 Alpha virt. eigenvalues --    2.53175   2.57123   2.59299   2.63458   2.64561
 Alpha virt. eigenvalues --    2.64811   2.65476   2.67566   2.69948   2.71861
 Alpha virt. eigenvalues --    2.72652   2.76874   2.77236   2.78912   2.79321
 Alpha virt. eigenvalues --    2.79562   2.80861   2.84758   2.88127   2.92164
 Alpha virt. eigenvalues --    2.97955   3.00494   3.02410   3.24676   3.29214
 Alpha virt. eigenvalues --    3.45469   3.47069   4.07231   4.11150   4.12839
 Alpha virt. eigenvalues --    4.13660   4.15670   4.16396   4.17096   4.21612
 Alpha virt. eigenvalues --    4.22725   4.30664   4.37274   4.37825   4.41968
 Alpha virt. eigenvalues --    4.46312   4.73655   4.75412
          Condensed to atoms (all electrons):
               1          2          3          4          5          6
     1  C    4.915929   0.547655   0.543317  -0.041365  -0.037707  -0.043207
     2  C    0.547655   4.882008  -0.033599  -0.042555  -0.021195   0.541152
     3  C    0.543317  -0.033599   4.920957   0.515173  -0.022111  -0.042435
     4  C   -0.041365  -0.042555   0.515173   5.012639   0.563500  -0.057567
     5  C   -0.037707  -0.021195  -0.022111   0.563500   4.570715   0.542363
     6  C   -0.043207   0.541152  -0.042435  -0.057567   0.542363   5.010136
     7  N    0.000188   0.004086   0.004114  -0.062151   0.247232  -0.061713
     8  C    0.000003  -0.000092   0.000219  -0.004436  -0.021766   0.004020
     9  O   -0.000008  -0.000006   0.000925  -0.018650  -0.001643   0.000432
    10  N    0.000000   0.000000   0.000002   0.000159   0.003023  -0.000136
    11  C    0.000000  -0.000000  -0.000000   0.000000   0.000013   0.000001
    12  C   -0.000000   0.000000   0.000000   0.000008   0.000002  -0.000000
    13  C    0.000000   0.000000  -0.000000   0.000000  -0.000000  -0.000000
    14  C    0.000000  -0.000000   0.000000  -0.000000   0.000000   0.000000
    15  C   -0.000000   0.000000  -0.000000   0.000000  -0.000000   0.000000
    16  C    0.000000   0.000000   0.000000  -0.000000   0.000001  -0.000000
    17  H    0.380502  -0.041453  -0.041018   0.004537   0.000525   0.004789
    18  H   -0.040216   0.380580   0.004495   0.000506   0.003751  -0.038529
    19  H   -0.040756   0.004525   0.381085  -0.037977   0.003527   0.000543
    20  H    0.004665   0.000053  -0.041974   0.364445  -0.033646   0.005568
    21  H    0.004541  -0.036662   0.000192   0.005615  -0.040255   0.372294
    22  H   -0.000005   0.000025  -0.000023   0.003661  -0.018071  -0.004067
    23  H   -0.000000   0.000000  -0.000000  -0.000001  -0.000212   0.000004
    24  H    0.000000  -0.000000   0.000000  -0.000024   0.000010   0.000000
    25  H   -0.000000   0.000000   0.000000   0.000000  -0.000000  -0.000000
    26  H    0.000000   0.000000  -0.000000   0.000000  -0.000000  -0.000000
    27  H    0.000000   0.000000   0.000000  -0.000000   0.000000  -0.000000
    28  H    0.000000  -0.000000  -0.000000  -0.000000   0.000000   0.000000
               7          8          9         10         11         12
     1  C    0.000188   0.000003  -0.000008   0.000000   0.000000  -0.000000
     2  C    0.004086  -0.000092  -0.000006   0.000000  -0.000000   0.000000
     3  C    0.004114   0.000219   0.000925   0.000002  -0.000000   0.000000
     4  C   -0.062151  -0.004436  -0.018650   0.000159   0.000000   0.000008
     5  C    0.247232  -0.021766  -0.001643   0.003023   0.000013   0.000002
     6  C   -0.061713   0.004020   0.000432  -0.000136   0.000001  -0.000000
     7  N    7.191152   0.293599  -0.092464  -0.085596   0.003338   0.000293
     8  C    0.293599   4.182112   0.545909   0.293338  -0.026314  -0.006202
     9  O   -0.092464   0.545909   8.182389  -0.084251   0.000248  -0.016099
    10  N   -0.085596   0.293338  -0.084251   7.230906   0.244396  -0.070355
    11  C    0.003338  -0.026314   0.000248   0.244396   4.532096   0.571392
    12  C    0.000293  -0.006202  -0.016099  -0.070355   0.571392   5.018129
    13  C    0.000002   0.000174   0.000742   0.004804  -0.017904   0.516142
    14  C    0.000000   0.000003  -0.000008   0.000350  -0.037591  -0.045137
    15  C    0.000001  -0.000080  -0.000003   0.005423  -0.021454  -0.041436
    16  C   -0.000231   0.003973   0.000302  -0.081044   0.535547  -0.056207
    17  H    0.000004   0.000000   0.000000   0.000000  -0.000000  -0.000000
    18  H   -0.000094   0.000001  -0.000000  -0.000000   0.000000   0.000000
    19  H   -0.000081  -0.000000  -0.000004  -0.000000  -0.000000   0.000000
    20  H   -0.008390  -0.000560   0.020489   0.000211   0.000002  -0.000019
    21  H   -0.007511   0.000087   0.000004   0.000005   0.000000  -0.000000
    22  H    0.310112  -0.015011   0.002619   0.000455  -0.000169  -0.000002
    23  H    0.002828  -0.018446   0.002463   0.313711  -0.022619   0.004210
    24  H    0.000097  -0.001178   0.017483  -0.008095  -0.035997   0.366525
    25  H   -0.000000  -0.000004  -0.000004  -0.000098   0.003574  -0.038534
    26  H    0.000000   0.000000   0.000000   0.000005   0.000534   0.004687
    27  H   -0.000000   0.000001  -0.000000  -0.000147   0.003750   0.000558
    28  H    0.000000   0.000075   0.000005  -0.008112  -0.041462   0.005379
              13         14         15         16         17         18
     1  C    0.000000   0.000000  -0.000000   0.000000   0.380502  -0.040216
     2  C    0.000000  -0.000000   0.000000   0.000000  -0.041453   0.380580
     3  C   -0.000000   0.000000  -0.000000   0.000000  -0.041018   0.004495
     4  C    0.000000  -0.000000   0.000000  -0.000000   0.004537   0.000506
     5  C   -0.000000   0.000000  -0.000000   0.000001   0.000525   0.003751
     6  C   -0.000000   0.000000   0.000000  -0.000000   0.004789  -0.038529
     7  N    0.000002   0.000000   0.000001  -0.000231   0.000004  -0.000094
     8  C    0.000174   0.000003  -0.000080   0.003973   0.000000   0.000001
     9  O    0.000742  -0.000008  -0.000003   0.000302   0.000000  -0.000000
    10  N    0.004804   0.000350   0.005423  -0.081044   0.000000  -0.000000
    11  C   -0.017904  -0.037591  -0.021454   0.535547  -0.000000   0.000000
    12  C    0.516142  -0.045137  -0.041436  -0.056207  -0.000000   0.000000
    13  C    4.914997   0.549406  -0.033236  -0.044248  -0.000000   0.000000
    14  C    0.549406   4.934652   0.544858  -0.045581   0.000000  -0.000000
    15  C   -0.033236   0.544858   4.887134   0.543229  -0.000000   0.000000
    16  C   -0.044248  -0.045581   0.543229   5.050059   0.000000  -0.000000
    17  H   -0.000000   0.000000  -0.000000   0.000000   0.510724  -0.004721
    18  H    0.000000  -0.000000   0.000000  -0.000000  -0.004721   0.500144
    19  H    0.000000  -0.000000   0.000000  -0.000000  -0.004616  -0.000163
    20  H   -0.000000   0.000000  -0.000000   0.000000  -0.000135   0.000012
    21  H   -0.000000   0.000000  -0.000000   0.000000  -0.000147  -0.004845
    22  H   -0.000000  -0.000000   0.000000  -0.000002  -0.000000  -0.000007
    23  H   -0.000027  -0.000005   0.000125  -0.005592  -0.000000   0.000000
    24  H   -0.043290   0.004839   0.000021   0.005939  -0.000000  -0.000000
    25  H    0.380614  -0.041468   0.004577   0.000604  -0.000000  -0.000000
    26  H   -0.041900   0.380432  -0.042612   0.004829  -0.000000   0.000000
    27  H    0.004567  -0.041365   0.378556  -0.038405   0.000000  -0.000000
    28  H    0.000266   0.004592  -0.037316   0.374387  -0.000000  -0.000000
              19         20         21         22         23         24
     1  C   -0.040756   0.004665   0.004541  -0.000005  -0.000000   0.000000
     2  C    0.004525   0.000053  -0.036662   0.000025   0.000000  -0.000000
     3  C    0.381085  -0.041974   0.000192  -0.000023  -0.000000   0.000000
     4  C   -0.037977   0.364445   0.005615   0.003661  -0.000001  -0.000024
     5  C    0.003527  -0.033646  -0.040255  -0.018071  -0.000212   0.000010
     6  C    0.000543   0.005568   0.372294  -0.004067   0.000004   0.000000
     7  N   -0.000081  -0.008390  -0.007511   0.310112   0.002828   0.000097
     8  C   -0.000000  -0.000560   0.000087  -0.015011  -0.018446  -0.001178
     9  O   -0.000004   0.020489   0.000004   0.002619   0.002463   0.017483
    10  N   -0.000000   0.000211   0.000005   0.000455   0.313711  -0.008095
    11  C   -0.000000   0.000002   0.000000  -0.000169  -0.022619  -0.035997
    12  C    0.000000  -0.000019  -0.000000  -0.000002   0.004210   0.366525
    13  C    0.000000  -0.000000  -0.000000  -0.000000  -0.000027  -0.043290
    14  C   -0.000000   0.000000   0.000000  -0.000000  -0.000005   0.004839
    15  C    0.000000  -0.000000  -0.000000   0.000000   0.000125   0.000021
    16  C   -0.000000   0.000000   0.000000  -0.000002  -0.005592   0.005939
    17  H   -0.004616  -0.000135  -0.000147  -0.000000  -0.000000  -0.000000
    18  H   -0.000163   0.000012  -0.004845  -0.000007   0.000000  -0.000000
    19  H    0.500217  -0.005161   0.000014   0.000002   0.000000  -0.000000
    20  H   -0.005161   0.481706  -0.000132  -0.000176  -0.000010   0.000112
    21  H    0.000014  -0.000132   0.498772   0.004294  -0.000005   0.000000
    22  H    0.000002  -0.000176   0.004294   0.305679   0.002335  -0.000009
    23  H    0.000000  -0.000010  -0.000005   0.002335   0.318544  -0.000183
    24  H   -0.000000   0.000112   0.000000  -0.000009  -0.000183   0.499060
    25  H    0.000000  -0.000000  -0.000000   0.000000   0.000002  -0.005230
    26  H   -0.000000  -0.000000  -0.000000  -0.000000  -0.000000  -0.000144
    27  H   -0.000000   0.000000   0.000000  -0.000000  -0.000013   0.000014
    28  H   -0.000000   0.000000   0.000000  -0.000005   0.004056  -0.000141
              25         26         27         28
     1  C   -0.000000   0.000000   0.000000   0.000000
     2  C    0.000000   0.000000   0.000000  -0.000000
     3  C    0.000000  -0.000000   0.000000  -0.000000
     4  C    0.000000   0.000000  -0.000000  -0.000000
     5  C   -0.000000  -0.000000   0.000000   0.000000
     6  C   -0.000000  -0.000000  -0.000000   0.000000
     7  N   -0.000000   0.000000  -0.000000   0.000000
     8  C   -0.000004   0.000000   0.000001   0.000075
     9  O   -0.000004   0.000000  -0.000000   0.000005
    10  N   -0.000098   0.000005  -0.000147  -0.008112
    11  C    0.003574   0.000534   0.003750  -0.041462
    12  C   -0.038534   0.004687   0.000558   0.005379
    13  C    0.380614  -0.041900   0.004567   0.000266
    14  C   -0.041468   0.380432  -0.041365   0.004592
    15  C    0.004577  -0.042612   0.378556  -0.037316
    16  C    0.000604   0.004829  -0.038405   0.374387
    17  H   -0.000000  -0.000000   0.000000  -0.000000
    18  H   -0.000000   0.000000  -0.000000  -0.000000
    19  H    0.000000  -0.000000  -0.000000  -0.000000
    20  H   -0.000000  -0.000000   0.000000   0.000000
    21  H   -0.000000  -0.000000   0.000000   0.000000
    22  H    0.000000  -0.000000  -0.000000  -0.000005
    23  H    0.000002  -0.000000  -0.000013   0.004056
    24  H   -0.005230  -0.000144   0.000014  -0.000141
    25  H    0.508152  -0.004746  -0.000168   0.000014
    26  H   -0.004746   0.522257  -0.004911  -0.000157
    27  H   -0.000168  -0.004911   0.511485  -0.004791
    28  H    0.000014  -0.000157  -0.004791   0.509719
 Mulliken charges:
               1
     1  C   -0.193534
     2  C   -0.184523
     3  C   -0.189318
     4  C   -0.205516
     5  C    0.261944
     6  C   -0.233645
     7  N   -0.738814
     8  C    0.770576
     9  O   -0.560871
    10  N   -0.758954
    11  C    0.308620
    12  C   -0.213333
    13  C   -0.191108
    14  C   -0.207978
    15  C   -0.187788
    16  C   -0.247559
    17  H    0.191009
    18  H    0.199086
    19  H    0.198845
    20  H    0.212940
    21  H    0.203737
    22  H    0.408365
    23  H    0.398834
    24  H    0.200190
    25  H    0.192714
    26  H    0.181725
    27  H    0.190866
    28  H    0.193489
 Sum of Mulliken charges =  -0.00000
 Mulliken charges with hydrogens summed into heavy atoms:
               1
     1  C   -0.002525
     2  C    0.014563
     3  C    0.009527
     4  C    0.007423
     5  C    0.261944
     6  C   -0.029908
     7  N   -0.330449
     8  C    0.770576
     9  O   -0.560871
    10  N   -0.360120
    11  C    0.308620
    12  C   -0.013143
    13  C    0.001606
    14  C   -0.026252
    15  C    0.003078
    16  C   -0.054070
 Electronic spatial extent (au):  <R**2>=           5460.3580
 Charge=             -0.0000 electrons
 Dipole moment (field-independent basis, Debye):
    X=             -1.9735    Y=              5.4540    Z=             -0.5788  Tot=              5.8289
 Quadrupole moment (field-independent basis, Debye-Ang):
   XX=            -78.7239   YY=            -74.9512   ZZ=            -99.2730
   XY=             -0.4329   XZ=             -0.7611   YZ=             -1.5955
 Traceless Quadrupole moment (field-independent basis, Debye-Ang):
   XX=              5.5921   YY=              9.3649   ZZ=            -14.9569
   XY=             -0.4329   XZ=             -0.7611   YZ=             -1.5955
 Octapole moment (field-independent basis, Debye-Ang**2):
  XXX=            -39.0208  YYY=             21.2510  ZZZ=             -0.0535  XYY=             -5.0864
  XXY=              7.0620  XXZ=             -6.1369  XZZ=             -0.6299  YZZ=              0.6003
  YYZ=             -0.0723  XYZ=             -6.6430
 Hexadecapole moment (field-independent basis, Debye-Ang**3):
 XXXX=          -5844.7985 YYYY=           -589.4639 ZZZZ=           -111.5304 XXXY=             -0.8626
 XXXZ=            -29.5426 YYYX=             -1.9527 YYYZ=             -3.0319 ZZZX=             -0.5444
 ZZZY=             -0.3502 XXYY=          -1057.2658 XXZZ=          -1266.2212 YYZZ=           -145.0372
 XXYZ=            -10.7499 YYXZ=              0.5230 ZZXY=              0.7181
 N-N= 9.656411314327D+02 E-N=-3.528411423086D+03  KE= 6.819107150006D+02
 D1PCM: PCM CHGder 1st derivatives, ID1Alg=3 FixD1E=F DoIter=F DoCFld=F I1PDM=0.
 Calling FoFJK, ICntrl=      2127 FMM=F ISym2X=0 I1Cent= 0 IOpClX= 0 NMat=1 NMatS=1 NMatT=0.
 ***** Axes restored to original set *****
 -------------------------------------------------------------------
 Center     Atomic                   Forces (Hartrees/Bohr)
 Number     Number              X              Y              Z
 -------------------------------------------------------------------
      1        6           0.037054090   -0.014388587   -0.015935266
      2        6           0.045079338    0.024362487    0.007949879
      3        6          -0.002287028   -0.048499765   -0.027356667
      4        6          -0.029738864   -0.018555461   -0.005229359
      5        6           0.010047870   -0.001609438   -0.014675874
      6        6          -0.002505083    0.035565408    0.023957163
      7        7           0.007822722    0.075658551    0.053490547
      8        6           0.026776793    0.005088420   -0.047136710
      9        8           0.003339272   -0.014787561    0.004352018
     10        7          -0.096110763    0.098978981    0.072914349
     11        6           0.047417832   -0.028287592   -0.017777620
     12        6           0.024765459   -0.009806655   -0.008245347
     13        6          -0.011847516   -0.053530980   -0.015000750
     14        6          -0.040308497   -0.005329740    0.002216570
     15        6          -0.039444247    0.029768274    0.016684089
     16        6           0.027856415    0.048881054    0.015547690
     17        1          -0.037751206    0.015425672    0.016207821
     18        1          -0.036496206   -0.022764315   -0.006940097
     19        1           0.001611938    0.037185073    0.022467884
     20        1           0.030783381    0.020540038    0.005809408
     21        1           0.000236435   -0.037770179   -0.024111525
     22        1          -0.008952786   -0.069306434   -0.029569829
     23        1          -0.001760272   -0.075401819   -0.024890704
     24        1          -0.023467756    0.028235081    0.010571089
     25        1           0.011718207    0.039768919    0.013467707
     26        1           0.042712448    0.010210198   -0.001480560
     27        1           0.028736020   -0.030322591   -0.013859456
     28        1          -0.015287996   -0.039307039   -0.013426447
 -------------------------------------------------------------------
 Cartesian Forces:  Max     0.098978981 RMS     0.033237397

 GradGradGradGradGradGradGradGradGradGradGradGradGradGradGradGradGradGrad
 Berny optimization.
 FormGI is forming the generalized inverse of G from B-inverse, IUseBI=4.
 GSVD:  received Info=                   1 from GESDD.
 Internal  Forces:  Max     0.075815062 RMS     0.017403391
 Search for a local minimum.
 Step number   1 out of a maximum of  148
 All quantities printed in internal units (Hartrees-Bohrs-Radians)
 Mixed Optimization -- RFO/linear search
 Second derivative matrix not updated -- first step.
 ITU=  0
     Eigenvalues ---    0.00230   0.00887   0.01320   0.01718   0.01742
     Eigenvalues ---    0.01944   0.01958   0.02011   0.02051   0.02072
     Eigenvalues ---    0.02102   0.02110   0.02111   0.02119   0.02119
     Eigenvalues ---    0.02123   0.02123   0.02124   0.02124   0.02127
     Eigenvalues ---    0.02127   0.02159   0.02179   0.02196   0.02331
     Eigenvalues ---    0.14672   0.15367   0.15997   0.15997   0.16000
     Eigenvalues ---    0.16000   0.16000   0.16000   0.16000   0.16000
     Eigenvalues ---    0.16000   0.16000   0.21994   0.22000   0.22000
     Eigenvalues ---    0.22000   0.22198   0.22240   0.23401   0.23430
     Eigenvalues ---    0.24403   0.24779   0.24837   0.25000   0.29929
     Eigenvalues ---    0.36858   0.40458   0.41443   0.41750   0.42048
     Eigenvalues ---    0.42477   0.42477   0.42477   0.42477   0.42477
     Eigenvalues ---    0.42477   0.42477   0.42477   0.42478   0.42478
     Eigenvalues ---    0.44545   0.45214   0.45833   0.45954   0.45957
     Eigenvalues ---    0.46079   0.46080   0.47043   0.48926   0.54662
     Eigenvalues ---    0.58474   0.58554   0.94151
 RFO step:  Lambda=-8.72486196D-02 EMin= 2.30000000D-03
 Linear search not attempted -- first point.
 Maximum step size (   0.300) exceeded in Quadratic search.
    -- Step size scaled by   0.699
 Iteration  1 RMS(Cart)=  0.16886522 RMS(Int)=  0.00447492
 Iteration  2 RMS(Cart)=  0.01784485 RMS(Int)=  0.00021898
 Iteration  3 RMS(Cart)=  0.00012430 RMS(Int)=  0.00021468
 Iteration  4 RMS(Cart)=  0.00000002 RMS(Int)=  0.00021468
 Variable       Old X    -DE/DX   Delta X   Delta X   Delta X     New X
                                 (Linear)    (Quad)   (Total)
    R1        2.64025  -0.00428   0.00000  -0.00556  -0.00557   2.63468
    R2        2.63999  -0.00346   0.00000  -0.00442  -0.00442   2.63557
    R3        1.95020   0.04388   0.00000   0.05994   0.05994   2.01014
    R4        2.64214  -0.00718   0.00000  -0.00929  -0.00929   2.63285
    R5        1.95020   0.04356   0.00000   0.05950   0.05950   2.00970
    R6        2.64145  -0.00344   0.00000  -0.00430  -0.00430   2.63715
    R7        1.95021   0.04343   0.00000   0.05933   0.05933   2.00954
    R8        2.65610  -0.00496   0.00000  -0.00639  -0.00638   2.64972
    R9        1.95020   0.03740   0.00000   0.05108   0.05108   2.00128
   R10        2.64532  -0.00174   0.00000  -0.00223  -0.00223   2.64309
   R11        2.76062  -0.02519   0.00000  -0.03865  -0.03865   2.72196
   R12        1.95020   0.04481   0.00000   0.06121   0.06121   2.01141
   R13        2.60965  -0.01317   0.00000  -0.01598  -0.01598   2.59367
   R14        1.78869   0.07582   0.00000   0.07891   0.07891   1.86760
   R15        2.31077  -0.00995   0.00000  -0.00677  -0.00677   2.30400
   R16        2.88104  -0.05853   0.00000  -0.10591  -0.10591   2.77514
   R17        2.55434   0.04582   0.00000   0.05056   0.05056   2.60490
   R18        1.78803   0.07523   0.00000   0.07820   0.07820   1.86623
   R19        2.62519   0.01200   0.00000   0.01552   0.01552   2.64071
   R20        2.67977  -0.00274   0.00000  -0.00359  -0.00358   2.67618
   R21        2.64147  -0.00164   0.00000  -0.00164  -0.00163   2.63983
   R22        1.95021   0.03805   0.00000   0.05197   0.05197   2.00218
   R23        2.63997  -0.00556   0.00000  -0.00722  -0.00722   2.63274
   R24        1.95020   0.04357   0.00000   0.05951   0.05951   2.00971
   R25        2.64027  -0.00182   0.00000  -0.00292  -0.00293   2.63734
   R26        1.95020   0.04394   0.00000   0.06002   0.06002   2.01022
   R27        2.64217  -0.00880   0.00000  -0.01172  -0.01172   2.63045
   R28        1.95019   0.04400   0.00000   0.06010   0.06010   2.01029
   R29        1.95019   0.04420   0.00000   0.06037   0.06037   2.01057
    A1        2.09353  -0.00295   0.00000  -0.00687  -0.00687   2.08665
    A2        2.09483   0.00119   0.00000   0.00263   0.00264   2.09747
    A3        2.09483   0.00176   0.00000   0.00424   0.00424   2.09906
    A4        2.09462   0.00093   0.00000   0.00180   0.00179   2.09641
    A5        2.09426   0.00087   0.00000   0.00287   0.00287   2.09713
    A6        2.09431  -0.00180   0.00000  -0.00467  -0.00466   2.08964
    A7        2.09372   0.00519   0.00000   0.01201   0.01201   2.10573
    A8        2.09473  -0.00095   0.00000  -0.00135  -0.00136   2.09338
    A9        2.09473  -0.00424   0.00000  -0.01065  -0.01066   2.08408
   A10        2.10309  -0.00558   0.00000  -0.01231  -0.01230   2.09080
   A11        2.09005   0.00090   0.00000   0.00080   0.00079   2.09084
   A12        2.09005   0.00468   0.00000   0.01151   0.01150   2.10155
   A13        2.07719   0.00262   0.00000   0.00597   0.00596   2.08314
   A14        2.16376   0.01037   0.00000   0.02180   0.02178   2.18554
   A15        2.03683  -0.01280   0.00000  -0.02648  -0.02653   2.01030
   A16        2.10423  -0.00021   0.00000  -0.00060  -0.00060   2.10363
   A17        2.08948   0.00058   0.00000   0.00163   0.00163   2.09112
   A18        2.08947  -0.00037   0.00000  -0.00104  -0.00104   2.08844
   A19        2.13682   0.02508   0.00000   0.05698   0.05698   2.19380
   A20        2.02748  -0.01402   0.00000  -0.03271  -0.03273   1.99475
   A21        2.05160  -0.00946   0.00000  -0.01949  -0.01948   2.03212
   A22        2.13957   0.01855   0.00000   0.04311   0.04240   2.18197
   A23        2.00989  -0.02832   0.00000  -0.05463  -0.05538   1.95451
   A24        2.10430   0.01190   0.00000   0.02840   0.02762   2.13191
   A25        2.07961   0.02792   0.00000   0.06350   0.06378   2.14339
   A26        1.84903   0.00716   0.00000   0.03094   0.03151   1.88055
   A27        2.22724  -0.03334   0.00000  -0.09247  -0.09269   2.13456
   A28        2.21525  -0.00290   0.00000  -0.00633  -0.00636   2.20889
   A29        1.98588   0.00828   0.00000   0.01699   0.01698   2.00286
   A30        2.07487  -0.00521   0.00000  -0.00950  -0.00951   2.06536
   A31        2.11121  -0.00441   0.00000  -0.00830  -0.00829   2.10292
   A32        2.08178   0.00488   0.00000   0.01174   0.01174   2.09352
   A33        2.09004  -0.00046   0.00000  -0.00339  -0.00340   2.08664
   A34        2.09372   0.00618   0.00000   0.01448   0.01448   2.10820
   A35        2.09473  -0.00471   0.00000  -0.01182  -0.01182   2.08291
   A36        2.09474  -0.00147   0.00000  -0.00266  -0.00266   2.09208
   A37        2.09354  -0.00384   0.00000  -0.01024  -0.01025   2.08329
   A38        2.09483   0.00206   0.00000   0.00551   0.00552   2.10035
   A39        2.09481   0.00178   0.00000   0.00473   0.00473   2.09954
   A40        2.09461   0.00234   0.00000   0.00322   0.00321   2.09782
   A41        2.09428  -0.00031   0.00000   0.00081   0.00081   2.09509
   A42        2.09430  -0.00202   0.00000  -0.00403  -0.00403   2.09027
   A43        2.09781   0.00497   0.00000   0.01056   0.01056   2.10837
   A44        2.09575  -0.00447   0.00000  -0.01088  -0.01088   2.08487
   A45        2.08947  -0.00049   0.00000   0.00039   0.00039   2.08986
    D1       -0.00000  -0.00011   0.00000  -0.00105  -0.00106  -0.00106
    D2        3.14159  -0.00018   0.00000  -0.00094  -0.00093   3.14067
    D3        3.14158  -0.00007   0.00000  -0.00072  -0.00073   3.14085
    D4       -0.00001  -0.00014   0.00000  -0.00062  -0.00060  -0.00061
    D5       -0.00001   0.00027   0.00000   0.00151   0.00149   0.00149
    D6       -3.14158   0.00006   0.00000   0.00071   0.00073  -3.14085
    D7       -3.14159   0.00023   0.00000   0.00118   0.00117  -3.14042
    D8        0.00002   0.00002   0.00000   0.00039   0.00040   0.00043
    D9        0.00001   0.00001   0.00000   0.00052   0.00055   0.00057
   D10        3.14159  -0.00033   0.00000  -0.00112  -0.00106   3.14053
   D11       -3.14158   0.00008   0.00000   0.00042   0.00042  -3.14116
   D12       -0.00000  -0.00027   0.00000  -0.00122  -0.00119  -0.00119
   D13        0.00001  -0.00032   0.00000  -0.00145  -0.00142  -0.00141
   D14        3.14159  -0.00013   0.00000   0.00034   0.00040  -3.14120
   D15        3.14158  -0.00011   0.00000  -0.00066  -0.00066   3.14092
   D16       -0.00002   0.00009   0.00000   0.00113   0.00116   0.00113
   D17        0.00000   0.00022   0.00000   0.00092   0.00089   0.00089
   D18        3.02621   0.00147   0.00000   0.01285   0.01302   3.03923
   D19       -3.14158   0.00002   0.00000  -0.00087  -0.00093   3.14067
   D20       -0.11537   0.00127   0.00000   0.01106   0.01120  -0.10417
   D21       -0.00001  -0.00007   0.00000  -0.00046  -0.00047  -0.00048
   D22       -3.14159   0.00028   0.00000   0.00119   0.00114  -3.14045
   D23       -3.03453  -0.00267   0.00000  -0.01453  -0.01437  -3.04890
   D24        0.10708  -0.00232   0.00000  -0.01289  -0.01275   0.09432
   D25        0.24680  -0.00074   0.00000  -0.00190  -0.00181   0.24499
   D26        2.99260   0.00103   0.00000   0.00583   0.00581   2.99841
   D27       -3.00773   0.00138   0.00000   0.01166   0.01169  -2.99604
   D28       -0.26193   0.00314   0.00000   0.01939   0.01931  -0.24262
   D29       -0.24408   0.00474   0.00000   0.03424   0.03449  -0.20959
   D30       -3.12829  -0.00567   0.00000  -0.04130  -0.04145   3.11345
   D31       -2.98473   0.00378   0.00000   0.02890   0.02905  -2.95569
   D32        0.41424  -0.00663   0.00000  -0.04664  -0.04689   0.36735
   D33       -3.09297   0.00984   0.00000   0.05153   0.05068  -3.04229
   D34       -0.43329   0.00148   0.00000   0.02431   0.02487  -0.40841
   D35        0.30036  -0.00157   0.00000  -0.02505  -0.02561   0.27475
   D36        2.96005  -0.00993   0.00000  -0.05227  -0.05142   2.90863
   D37       -0.51608   0.00241   0.00000   0.00049  -0.00014  -0.51622
   D38        2.75667   0.00113   0.00000  -0.00957  -0.01027   2.74640
   D39       -3.06019  -0.00558   0.00000  -0.01858  -0.01788  -3.07807
   D40        0.21256  -0.00686   0.00000  -0.02864  -0.02801   0.18455
   D41       -2.96674  -0.00345   0.00000  -0.02020  -0.02011  -2.98685
   D42        0.15555  -0.00294   0.00000  -0.01707  -0.01698   0.13856
   D43        0.03775  -0.00121   0.00000  -0.00792  -0.00789   0.02986
   D44       -3.12315  -0.00071   0.00000  -0.00478  -0.00477  -3.12792
   D45        2.98447   0.00213   0.00000   0.01525   0.01532   2.99979
   D46       -0.13823   0.00150   0.00000   0.01074   0.01079  -0.12743
   D47       -0.03744   0.00088   0.00000   0.00601   0.00603  -0.03141
   D48        3.12305   0.00025   0.00000   0.00151   0.00151   3.12456
   D49       -0.01940   0.00076   0.00000   0.00547   0.00551  -0.01390
   D50        3.12221   0.00055   0.00000   0.00361   0.00362   3.12583
   D51        3.14159   0.00019   0.00000   0.00216   0.00222  -3.13937
   D52        0.00002  -0.00002   0.00000   0.00030   0.00033   0.00035
   D53        0.00001  -0.00022   0.00000  -0.00156  -0.00157  -0.00156
   D54       -3.14159  -0.00022   0.00000  -0.00180  -0.00183   3.13976
   D55        3.14158  -0.00001   0.00000   0.00030   0.00033  -3.14127
   D56       -0.00002  -0.00001   0.00000   0.00006   0.00007   0.00005
   D57       -0.00000   0.00010   0.00000   0.00014   0.00010   0.00010
   D58        3.14158   0.00021   0.00000   0.00110   0.00108  -3.14053
   D59       -3.14158   0.00010   0.00000   0.00038   0.00036  -3.14122
   D60       -0.00000   0.00021   0.00000   0.00134   0.00134   0.00134
   D61        0.01883  -0.00030   0.00000  -0.00216  -0.00217   0.01666
   D62        3.14159   0.00028   0.00000   0.00221   0.00225  -3.13935
   D63       -3.12275  -0.00041   0.00000  -0.00312  -0.00315  -3.12590
   D64        0.00001   0.00017   0.00000   0.00125   0.00127   0.00128
         Item               Value     Threshold  Converged?
 Maximum Force            0.075815     0.000450     NO 
 RMS     Force            0.017403     0.000300     NO 
 Maximum Displacement     0.544816     0.001800     NO 
 RMS     Displacement     0.181485     0.001200     NO 
 Predicted change in Energy=-4.429806D-02
 GradGradGradGradGradGradGradGradGradGradGradGradGradGradGradGradGradGrad

                          Input orientation:                          
 ---------------------------------------------------------------------
 Center     Atomic      Atomic             Coordinates (Angstroms)
 Number     Number       Type             X           Y           Z
 ---------------------------------------------------------------------
      1          6           0       -4.054773    1.572835    2.110501
      2          6           0       -3.907068    0.400021    1.371228
      3          6           0       -2.941101    2.375261    2.357474
      4          6           0       -1.683495    2.016183    1.870683
      5          6           0       -1.534966    0.836726    1.127106
      6          6           0       -2.654522    0.034853    0.882443
      7          7           0       -0.324187    0.415705    0.470214
      8          6           0        0.926169    0.940401    0.682548
      9          8           0        1.158854    1.967166    1.297465
     10          7           0        1.951077    0.261052   -0.120358
     11          6           0        3.297146    0.531095    0.003371
     12          6           0        3.870666    1.747936    0.381667
     13          6           0        5.251332    1.939678    0.289827
     14          6           0        6.084445    0.919325   -0.163801
     15          6           0        5.527903   -0.307684   -0.527763
     16          6           0        4.153275   -0.507278   -0.437508
     17          1           0       -5.010745    1.852905    2.483564
     18          1           0       -4.749670   -0.219392    1.177958
     19          1           0       -3.046644    3.270743    2.921204
     20          1           0       -0.846932    2.635335    2.066550
     21          1           0       -2.547092   -0.862044    0.319441
     22          1           0       -0.359986   -0.499716    0.099489
     23          1           0        1.611703   -0.639439   -0.342245
     24          1           0        3.255154    2.538011    0.727329
     25          1           0        5.666871    2.877977    0.569008
     26          1           0        7.134709    1.073680   -0.232475
     27          1           0        6.154136   -1.094555   -0.874651
     28          1           0        3.736953   -1.446261   -0.714939
 ---------------------------------------------------------------------
                    Distance matrix (angstroms):
                    1          2          3          4          5
     1  C    0.000000
     2  C    1.394214   0.000000
     3  C    1.394685   2.409843   0.000000
     4  C    2.424259   2.793870   1.395520   0.000000
     5  C    2.803274   2.424288   2.420353   1.402172   0.000000
     6  C    2.415413   1.393245   2.781251   2.417681   1.398666
     7  N    4.236361   3.694469   3.774897   2.523997   1.440400
     8  C    5.220039   4.911870   4.451964   3.062567   2.503112
     9  O    5.291354   5.303296   4.254385   2.899988   2.926360
    10  N    6.539705   6.046652   5.877324   4.500538   3.747007
    11  C    7.718544   7.334092   6.917982   5.522601   4.970462
    12  C    8.113698   7.955454   7.120219   5.756546   5.532345
    13  C    9.489627   9.349666   8.460547   7.113142   6.926138
    14  C   10.411688  10.122071   9.483515   8.104511   7.728434
    15  C   10.115555   9.650165   9.340600   7.947147   7.343867
    16  C    8.842583   8.310466   8.151756   6.764871   6.050657
    17  H    1.063719   2.136882   2.138265   3.387163   3.866993
    18  H    2.136492   1.063487   3.375560   3.857343   3.384124
    19  H    2.134586   3.373989   1.063400   2.129717   3.380591
    20  H    3.379509   3.852860   2.130216   1.059033   2.142648
    21  H    3.377814   2.132744   3.845642   3.381766   2.136010
    22  H    4.689466   3.874098   4.475058   3.349411   2.054910
    23  H    6.558892   5.871397   6.091381   4.775741   3.773537
    24  H    7.501984   7.502202   6.409169   5.096059   5.098965
    25  H    9.929248   9.921902   8.806164   7.514315   7.506307
    26  H   11.443041  11.177948  10.484460   9.114401   8.778831
    27  H   10.965761  10.416600  10.257173   8.868033   8.176746
    28  H    8.820943   8.135840   8.284935   6.932186   6.033099
                    6          7          8          9         10
     6  C    0.000000
     7  N    2.396964   0.000000
     8  C    3.698827   1.372510   0.000000
     9  O    4.295103   2.300171   1.219226   0.000000
    10  N    4.718931   2.355742   1.468540   2.355560   0.000000
    11  C    6.036668   3.653123   2.500068   2.882580   1.378453
    12  C    6.764872   4.402212   3.068012   2.870657   2.479451
    13  C    8.153654   5.782858   4.456436   4.214792   3.725282
    14  C    8.845702   6.459580   5.227290   5.243540   4.185683
    15  C    8.310119   5.980486   4.919199   5.253093   3.644602
    16  C    6.955736   4.660850   3.710055   4.254358   2.353846
    17  H    3.379451   5.299334   6.270827   6.283616   7.601405
    18  H    2.131107   4.526494   5.814268   6.301268   6.842256
    19  H    3.844645   4.644391   5.121067   4.692767   6.579252
    20  H    3.381124   2.783578   2.816408   2.249693   4.271843
    21  H    1.064394   2.568400   3.929911   4.763926   4.657069
    22  H    2.482675   0.988289   2.016951   3.134889   2.442972
    23  H    4.489454   2.349700   2.004009   3.112573   0.987569
    24  H    6.419824   4.169170   2.824630   2.246196   2.757487
    25  H    8.799271   6.478065   5.122631   4.656442   4.596809
    26  H    9.907131   7.520760   6.277021   6.232967   5.248140
    27  H    9.052921   6.786621   5.822160   6.248605   4.480216
    28  H    6.752501   4.622160   3.943302   4.727351   2.541219
                   11         12         13         14         15
    11  C    0.000000
    12  C    1.397403   0.000000
    13  C    2.425903   1.396939   0.000000
    14  C    2.819168   2.425891   1.393188   0.000000
    15  C    2.441706   2.792682   2.407401   1.395621   0.000000
    16  C    1.416175   2.415969   2.778910   2.416512   1.391972
    17  H    8.770381   9.127346  10.494295  11.444795  11.171362
    18  H    8.166648   8.877762  10.269879  10.976113  10.418531
    19  H    7.500873   7.524451   8.806378   9.920847   9.910771
    20  H    5.085068   5.087439   6.389797   7.480852   7.485342
    21  H    6.016299   6.928454   8.286492   8.826677   8.138219
    22  H    3.800845   4.798956   6.121582   6.604066   5.924319
    23  H    2.080941   3.365489   4.505359   4.739937   3.934603
    24  H    2.133914   1.059507   2.129351   3.379222   3.852093
    25  H    3.382809   2.130362   1.063494   2.132531   3.372039
    26  H    3.882900   3.389066   2.137723   1.063765   2.139436
    27  H    3.402360   3.856466   3.373075   2.136792   1.063798
    28  H    2.149264   3.379840   3.842848   3.377939   2.130468
                   16         17         18         19         20
    16  C    0.000000
    17  H    9.903655   0.000000
    18  H    9.052903   2.463165   0.000000
    19  H    8.797342   2.461602   4.256789   0.000000
    20  H    6.414701   4.257162   4.916343   2.443954   0.000000
    21  H    6.752314   4.257224   2.449776   4.909038   4.263167
    22  H    4.545101   5.731335   4.528908   5.421861   3.732960
    23  H    2.546788   7.619304   6.553971   6.902161   4.750929
    24  H    3.381901   8.478138   8.478417   6.712872   4.316260
    25  H    3.842395  10.896228  10.884340   9.033961   6.688135
    26  H    3.380890  12.469808  12.037435  10.882681   8.451679
    27  H    2.130594  12.025793  11.129785  10.868243   8.460360
    28  H    1.063946   9.881150   8.781289   9.027118   6.738554
                   21         22         23         24         25
    21  H    0.000000
    22  H    2.227800   0.000000
    23  H    4.216985   2.025391   0.000000
    24  H    6.737419   4.763529   3.733780   0.000000
    25  H    9.028800   6.924757   5.444904   2.440701   0.000000
    26  H    9.888827   7.665261   5.783634   4.256340   2.460164
    27  H    8.785857   6.613362   4.596116   4.915890   4.254713
    28  H    6.395348   4.283007   2.303595   4.264585   4.906336
                   26         27         28
    26  H    0.000000
    27  H    2.464784   0.000000
    28  H    4.257654   2.447852   0.000000
 Stoichiometry    C13H12N2O
 Framework group  C1[X(C13H12N2O)]
 Deg. of freedom    78
 Full point group                 C1      NOp   1
 Largest Abelian subgroup         C1      NOp   1
 Largest concise Abelian subgroup C1      NOp   1
                         Standard orientation:                         
 ---------------------------------------------------------------------
 Center     Atomic      Atomic             Coordinates (Angstroms)
 Number     Number       Type             X           Y           Z
 ---------------------------------------------------------------------
      1          6           0       -5.211241   -0.389878   -0.095082
      2          6           0       -4.831106    0.948528   -0.005647
      3          6           0       -4.231928   -1.382212   -0.132046
      4          6           0       -2.878077   -1.047984   -0.078629
      5          6           0       -2.495776    0.298056    0.011416
      6          6           0       -3.481358    1.289815    0.047591
      7          7           0       -1.146417    0.768041    0.193342
      8          6           0       -0.008719    0.016235    0.037733
      9          8           0        0.018037   -1.197694   -0.072582
     10          7           0        1.208020    0.807630    0.261006
     11          6           0        2.474521    0.305507    0.051287
     12          6           0        2.872727   -1.027984    0.177651
     13          6           0        4.224999   -1.372809    0.115238
     14          6           0        5.200442   -0.399515   -0.090153
     15          6           0        4.816286    0.934188   -0.236508
     16          6           0        3.470742    1.285737   -0.177282
     17          1           0       -6.241489   -0.651574   -0.135103
     18          1           0       -5.569868    1.713023    0.022342
     19          1           0       -4.514970   -2.404938   -0.200899
     20          1           0       -2.145747   -1.812432   -0.108003
     21          1           0       -3.196548    2.313189    0.114850
     22          1           0       -1.041894    1.747055    0.107772
     23          1           0        0.983470    1.756182    0.102522
     24          1           0        2.147452   -1.783795    0.336654
     25          1           0        4.508790   -2.391508    0.228080
     26          1           0        6.228305   -0.669884   -0.134809
     27          1           0        5.552065    1.686019   -0.394768
     28          1           0        3.185850    2.304410   -0.291835
 ---------------------------------------------------------------------
 Rotational constants (GHZ):      2.2489818      0.1996508      0.1839388
 Basis read from rwf:  (6D, 7F)
 There are   264 symmetry adapted cartesian basis functions of A   symmetry.
 There are   264 symmetry adapted basis functions of A   symmetry.
   264 basis functions,   496 primitive gaussians,   264 cartesian basis functions
    56 alpha electrons       56 beta electrons
       nuclear repulsion energy       961.2337193395 Hartrees.
 NAtoms=   28 NActive=   28 NUniq=   28 SFac= 1.00D+00 NAtFMM=   60 NAOKFM=F Big=F
 Integral buffers will be    131072 words long.
 Raffenetti 2 integral format.
 Two-electron integral symmetry is turned on.
 ------------------------------------------------------------------------------
 Polarizable Continuum Model (PCM)
 =================================
 Model                : PCM (using non-symmetric T matrix).
 Atomic radii         : SMD-Coulomb.
 Polarization charges : Total charges.
 Charge compensation  : None.
 Solution method      : On-the-fly selection.
 Cavity type          : VdW (van der Waals Surface) (Alpha=1.000).
 Cavity algorithm     : GePol (No added spheres)
                        Default sphere list used, NSphG=   28.
                        Lebedev-Laikov grids with approx.  5.0 points / Ang**2.
                        Smoothing algorithm: York/Karplus (Gamma=1.0000).
                        Polarization charges: spherical gaussians, with
                                              point-specific exponents (IZeta= 3).
                        Self-potential: point-specific (ISelfS= 7).
[...]
 .00001982,-0.00001989,-0.00044785,0.00013938,0.00012046,0.00009256,-0.
 00006442,-0.00001514,-0.00025455,-0.00112083,-0.00000036,0.08387077,-0
 .00048492,0.00042138,0.00040389,0.00072292,-0.00041688,0.00005965,-0.0
 0035339,-0.00043683,-0.00072046,0.00012257,0.00200927,-0.00017289,0.00
 414398,-0.00608393,-0.00243640,-0.00239002,0.00137310,0.00198121,-0.03
 961121,-0.27412367,-0.21780171,0.00186960,-0.00767135,-0.00030431,-0.0
 0033133,0.00429975,-0.00151578,0.00144300,-0.00024044,0.00001750,-0.00
 073086,-0.00039934,0.00036052,0.00001657,0.00001785,0.00003305,0.00003
 386,-0.00000117,0.00001684,0.00003559,0.00006695,0.00003268,-0.0000815
 3,-0.00007765,-0.00006331,0.00027872,-0.00001864,-0.00002213,-0.000005
 59,0.00001143,-0.00003533,-0.00003686,-0.00003471,-0.00000987,0.000113
 10,0.00001603,0.00001966,-0.00009844,-0.00002359,0.00019013,0.00015313
 ,-0.00005597,-0.00008974,0.03281691,0.27862002,0.00016645,0.00021156,0
 .00005879,-0.00019002,-0.00030097,-0.00025499,-0.00015621,-0.00054892,
 0.00077407,0.00129189,0.00062173,0.00054192,-0.00123993,-0.01088851,-0
 .00963430,-0.00196497,0.00057930,0.00087557,-0.00965245,-0.20676362,-0
 .18000579,-0.00933345,-0.00240717,-0.00838713,0.00139968,-0.00095844,0
 .00629740,0.00346082,-0.00032269,-0.00187372,-0.00134988,0.00042724,-0
 .00079182,0.00037319,0.00009738,0.00004199,-0.00012224,0.00001041,0.00
 008285,0.00015314,-0.00003426,-0.00001686,-0.00000868,0.00002412,0.000
 01784,0.00019644,-0.00001996,0.00000034,-0.00002710,0.00006525,-0.0000
 0918,-0.00013210,0.00003440,0.00004169,0.00004576,0.00006183,-0.000096
 31,-0.00003567,-0.00003286,-0.00019844,0.00051243,0.00070567,-0.000201
 81,0.01357113,0.21899491,0.19026495,-0.00001899,-0.00002343,0.00000612
 ,-0.00002150,0.00004649,0.00000417,0.00001463,-0.00009760,-0.00001031,
 0.00011250,0.00010910,-0.00014847,-0.00013022,-0.00023508,-0.00035202,
 0.00006034,-0.00002065,0.00006616,-0.00225367,0.00056842,0.00041473,0.
 01710501,0.01949221,0.01008329,-0.00415834,0.00355995,0.00657077,-0.10
 091009,-0.08392534,-0.05243236,-0.00873762,-0.02881239,-0.01855188,-0.
 00552968,0.00187226,-0.00021103,0.00035998,-0.00166543,-0.00001524,-0.
 00002845,0.00040318,0.00002958,-0.00024191,-0.00016657,0.00013823,0.00
 109210,-0.00201977,-0.00057595,-0.00000121,-0.00000321,0.00000016,0.00
 000456,0.00000016,-0.00000630,0.00001165,0.00000110,-0.00001201,0.0000
 2001,-0.00008746,0.00000574,-0.00000197,-0.00000775,0.00000423,-0.0079
 0986,0.00239401,0.00299544,0.11170411,-0.00002261,0.00006490,0.0000481
 3,0.00003831,-0.00008963,-0.00008680,-0.00000074,0.00003138,0.00003591
 ,-0.00008821,-0.00000097,0.00009417,0.00088869,-0.00032898,-0.00006014
 ,-0.00028223,0.00002325,0.00009026,-0.00157718,-0.00016673,0.00105354,
 -0.00553337,-0.01046899,-0.00135314,0.00090953,0.00362666,-0.00208186,
 -0.08213943,-0.28625207,-0.20024846,-0.00475270,-0.00184394,0.00233358
 ,0.00087507,0.00176836,-0.00014100,-0.00007352,-0.00029797,-0.00070845
 ,0.00069658,0.00032701,0.00013723,-0.00066413,-0.00030522,0.00035465,0
 .00322694,0.00137999,0.00076778,-0.00000805,0.00000559,-0.00000306,-0.
 00002320,-0.00000144,0.00001079,-0.00002078,0.00001071,0.00001121,0.00
 004645,0.00001495,-0.00003230,0.00001091,-0.00000409,-0.00000182,0.001
 45711,0.00274755,0.00042627,0.08721944,0.28992648,-0.00017168,-0.00000
 673,0.00005697,0.00003333,0.00001407,0.00000787,0.00016126,0.00001611,
 0.00002231,-0.00039042,0.00012049,0.00027737,0.00116417,0.00038142,-0.
 00131046,-0.00023871,0.00001016,0.00006957,-0.00323857,-0.00071208,-0.
 00119272,-0.00239131,-0.01347513,-0.01765815,0.00344253,-0.00264322,0.
 00380005,-0.05540630,-0.18707645,-0.13954558,-0.00014021,0.00137421,-0
 .00063003,0.00161016,-0.00003037,0.00107678,0.00029048,0.00021442,0.00
 079393,-0.00014960,0.00005746,0.00008849,0.00017669,-0.00031048,-0.000
 35711,0.00173553,0.00120051,0.00015762,-0.00001042,0.00000269,0.000005
 03,-0.00003242,-0.00000891,0.00001119,-0.00003116,0.00002468,0.0000195
 8,-0.00001531,0.00003968,-0.00001646,0.00002180,0.00000817,-0.00000533
 ,0.00191459,0.00106773,0.00249629,0.05187286,0.19952419,0.15229293,0.0
 0000743,-0.00000391,-0.00000668,-0.00000087,-0.00000032,0.00000817,0.0
 0000164,-0.00000200,0.00000670,0.00000492,0.00001749,-0.00001504,-0.00
 008794,0.00005141,0.00001835,0.00002568,-0.00000749,-0.00000744,0.0000
 9053,0.00019115,-0.00005772,-0.00082634,-0.00110544,-0.00043323,-0.003
 68754,-0.00058715,0.00228533,0.00056607,0.00123546,0.00071408,0.012025
 58,-0.01170166,-0.00339578,-0.15847169,0.13874808,0.04148888,-0.012758
 29,0.02400744,0.00790916,-0.00459594,-0.00191564,-0.00082282,-0.000542
 25,-0.00081496,-0.00021056,-0.00091623,-0.00261333,-0.00076604,0.00000
 060,0.00000005,-0.00000081,0.00000215,0.00000128,-0.00000208,0.0000017
 8,-0.00000161,-0.00000176,-0.00000755,0.00000037,-0.00000471,-0.000001
 75,0.00000064,-0.00000065,0.00001034,-0.00005198,-0.00000255,0.0000922
 9,0.00014909,-0.00011091,0.16756604,0.00002674,-0.00001068,-0.00002027
 ,-0.00000461,0.00000705,0.00001239,0.00000475,0.00001690,0.00001111,0.
 00003800,-0.00006118,-0.00003419,-0.00030417,0.00008491,0.00013232,0.0
 0006173,-0.00000869,-0.00001814,0.00056098,0.00045718,0.00055453,-0.00
 149846,-0.00308854,-0.00255100,0.00301359,0.00227907,0.00006486,0.0001
 0692,0.00087039,0.00216325,0.01720442,-0.01494157,-0.00620149,0.135401
 30,-0.23951319,-0.06363906,-0.00381366,0.00733954,0.00134944,-0.001380
 82,0.00196723,-0.00193160,-0.00102555,-0.00012079,0.00022698,-0.003409
 67,-0.00239811,-0.00302969,0.00000423,0.00000129,-0.00000262,0.0000067
 5,0.00000233,-0.00000238,0.00000548,-0.00000559,-0.00000352,0.00000507
 ,0.00004899,0.00000204,-0.00000216,0.00000067,-0.00000166,0.00008922,0
 .00000130,0.00000261,0.00002504,-0.00003306,-0.00005979,-0.14609048,0.
 24762499,0.00000128,-0.00002618,-0.00001428,-0.00002535,0.00002094,0.0
 0001089,0.00001644,0.00001903,-0.00002425,-0.00000887,-0.00001643,-0.0
 0002257,-0.00009826,-0.00001846,0.00015612,0.00004425,0.00001411,-0.00
 002035,0.00052264,-0.00026469,0.00017512,-0.00036532,0.00063284,0.0002
 7429,0.00174798,0.00065361,-0.00060061,0.00125845,0.00189897,-0.003229
 60,0.00642333,-0.00713224,0.00132485,0.04079665,-0.06667493,-0.0569930
 0,-0.00147807,0.00278279,0.00388789,-0.00092558,-0.00206913,0.00680768
 ,-0.00032089,0.00008686,-0.00055282,-0.00127115,-0.00313108,0.00508490
 ,0.00000265,-0.00000207,0.00000376,0.00000168,0.00000073,0.00000011,0.
 00000189,-0.00000143,-0.00000145,0.00001701,-0.00000206,0.00002229,0.0
 0000160,-0.00000136,0.00000446,-0.00001716,-0.00000543,-0.00002025,-0.
 00011038,0.00013540,-0.00016107,-0.04666779,0.07141862,0.04844267,-0.0
 0001332,0.00000346,0.00000754,0.00000248,-0.00000411,-0.00000522,0.000
 00584,-0.00000332,-0.00000088,-0.00002468,0.00001839,0.00001824,0.0001
 0258,-0.00004768,-0.00007870,-0.00003523,0.00000671,0.00001420,-0.0003
 6052,0.00003299,0.00006117,0.00065954,-0.00039216,-0.00057040,-0.00011
 184,0.00021859,0.00026314,-0.00077101,-0.00157975,-0.00054223,-0.00484
 492,0.00106994,-0.00008890,-0.00831005,-0.02798721,-0.00939880,-0.1059
 6303,-0.09992292,-0.03513477,0.01207877,0.01726371,0.00603803,-0.00189
 348,0.00309390,0.00105437,-0.00100731,0.00057167,0.00017306,-0.0000014
 3,0.00000013,0.00000065,-0.00000372,-0.00000062,0.00000139,-0.00000264
 ,0.00000256,0.00000179,0.00000048,-0.00000726,-0.00000355,0.00000183,-
 0.00000012,0.00000032,0.00003562,0.00001469,0.00003116,-0.00046241,-0.
 00002081,0.00013599,0.00154792,0.00028576,0.00023720,0.10783958,-0.000
 01028,0.00000197,0.00000575,0.00000169,-0.00000075,-0.00000354,0.00000
 389,-0.00000370,-0.00000189,-0.00001667,0.00001306,0.00001149,0.000076
 98,-0.00003436,-0.00005374,-0.00002298,0.00000368,0.00000959,-0.000238
 35,-0.00000522,0.00000763,0.00040882,-0.00024656,-0.00025154,-0.000131
 69,0.00007526,0.00014206,-0.00054105,-0.00000420,0.00000252,0.00078634
 ,0.00248669,-0.00177004,0.00081214,0.00186058,-0.00066947,-0.10013367,
 -0.27522147,-0.08222750,-0.01178058,-0.01497018,-0.00664072,0.00391937
 ,-0.00143189,-0.00285990,0.00057471,0.00027409,0.00034955,-0.00000113,
 0.00000007,0.00000061,-0.00000256,-0.00000067,0.00000084,-0.00000158,0
 .00000209,0.00000124,0.00000054,-0.00000497,-0.00000162,0.00000136,-0.
 00000016,0.00000055,0.00000873,0.00000589,0.00001865,-0.00003994,0.000
 04715,0.00008598,-0.00011527,0.00008635,0.00153831,0.10735522,0.287512
 50,-0.00000163,0.00000086,0.00000104,0.00000098,-0.00000051,-0.0000012
 1,0.00000059,-0.00000074,-0.00000013,-0.00000233,0.00000242,0.00000341
 ,0.00001179,-0.00000861,-0.00001007,-0.00000556,0.00000004,0.00000211,
 -0.00005057,0.00003032,0.00001812,0.00008940,-0.00010760,-0.00010672,0
 .00006756,0.00008983,0.00005804,-0.00002528,0.00017259,0.00029819,-0.0
 0006320,-0.00217546,0.00686603,0.00067903,-0.00081443,0.00321731,-0.03
 598934,-0.08192150,-0.06767825,-0.00366993,-0.00695487,0.00138306,0.00
 147729,-0.00266782,0.00625265,0.00000207,0.00032512,-0.00054299,-0.000
 00016,0.00000006,0.00000007,-0.00000042,-0.00000014,0.00000016,-0.0000
 0005,0.00000026,0.00000039,0.00000040,-0.00000026,-0.00000078,0.000000
 20,-0.00000016,0.00000024,0.00000676,-0.00000078,-0.00000082,0.0000611
 0,0.00004822,-0.00010844,-0.00007977,0.00154754,-0.00390415,0.03773555
 ,0.09078564,0.05877841,-0.00000684,0.00000172,0.00000414,0.00000124,-0
 .00000182,-0.00000295,0.00000229,-0.00000262,-0.00000143,-0.00001100,0
 .00001100,0.00000890,0.00005536,-0.00002812,-0.00003924,-0.00001809,0.
 00000309,0.00000755,-0.00018026,-0.00000416,0.00000378,0.00027220,-0.0
 0004372,-0.00013188,-0.00020726,-0.00001146,0.00012368,-0.00024034,-0.
 00000022,0.00007659,0.00071759,0.00025723,0.00006783,0.00009884,0.0031
 6880,0.00097496,-0.01291408,-0.00406968,-0.00160232,-0.34895494,-0.027
 80686,-0.01327865,-0.00744839,0.00113592,0.00032026,0.00105681,-0.0020
 6552,-0.00082976,-0.00000095,0.00000003,0.00000050,-0.00000202,-0.0000
 0050,0.00000066,-0.00000114,0.00000145,0.00000089,0.00000013,-0.000004
 81,-0.00000141,0.00000091,-0.00000019,0.00000022,0.00000608,0.00000474
 ,0.00001118,-0.00000892,-0.00000341,0.00003455,-0.00066247,-0.00029463
 ,-0.00015358,0.00085918,-0.00012326,0.00001452,0.36740722,0.00000112,0
 .00000180,0.00000031,0.00000185,-0.00000180,-0.00000042,-0.00000115,-0
 .00000050,0.00000245,0.00000304,-0.00000227,-0.00000002,-0.00000469,0.
 00000103,-0.00000642,-0.00000221,-0.00000082,0.00000108,-0.00001076,0.
 00004211,0.00001571,-0.00008711,-0.00018180,-0.00013126,0.00023809,0.0
 0012937,-0.00001872,-0.00014459,0.00014414,0.00047560,0.00018259,-0.00
 118011,-0.00026100,0.00231268,-0.00284379,-0.00342126,0.02511810,0.006
 73186,0.00166931,-0.02779988,-0.05931659,-0.00874647,-0.02798686,0.002
 07295,-0.00049014,-0.00128631,-0.00361368,-0.00389217,-0.00000005,0.00
 000029,-0.00000041,0.00000003,0.00000004,-0.00000001,0.00000005,-0.000
 00006,0.,-0.00000058,0.00000207,-0.00000127,-0.00000013,0.00000018,-0.
 00000052,0.00000356,0.00000354,0.00000036,0.00011104,-0.00000157,0.000
 01586,0.00113389,0.00025608,0.00010613,-0.00077737,0.00059707,0.001667
 92,0.02975834,0.05642071,-0.00000218,-0.00000550,-0.00000191,-0.000005
 63,0.00000462,0.00000117,0.00000448,0.00000307,-0.00000585,-0.00000744
 ,0.00000126,-0.00000250,-0.00000426,-0.00001499,0.00002480,0.00000434,
 0.00000441,-0.00000233,0.00003636,-0.00006218,0.00005124,0.00010698,0.
 00010378,-0.00011560,-0.00014549,0.00002530,0.00005450,-0.00001388,0.0
 0071165,-0.00081714,0.00011137,-0.00045571,-0.00045955,0.00032544,-0.0
 0353761,0.00589497,0.00896259,0.00126857,0.00307552,-0.01327560,-0.008
 52242,-0.03941948,-0.01020643,-0.00035744,0.00228948,-0.00021050,-0.00
 379954,0.00580722,0.00000035,-0.00000052,0.00000103,-0.00000021,0.0000
 0003,0.00000020,0.00000002,0.00000005,0.00000002,0.00000215,-0.0000015
 2,0.00000400,0.00000075,-0.00000040,0.00000153,0.00000071,-0.00000611,
 -0.00000098,-0.00000683,-0.00003845,-0.00002862,0.00047431,0.00003119,
 0.00029122,-0.00025965,0.00162317,-0.00360083,0.01431206,0.01135207,0.
 03019587,-0.00001651,0.00000324,0.00000913,0.00000021,-0.00000690,-0.0
 0000792,0.00000717,-0.00000293,-0.00000284,-0.00002635,0.00002069,0.00
 002013,0.00011488,-0.00010113,-0.00009694,-0.00005033,0.00001471,0.000
 02397,-0.00049056,0.00005885,0.00016824,0.00034397,-0.00049452,-0.0009
 3289,-0.00003421,0.00024617,0.00028735,-0.00146873,0.00153215,0.000983
 89,-0.00395281,-0.00221517,-0.00079005,-0.00068419,-0.00072345,-0.0002
 3617,-0.00043047,-0.00269478,-0.00103655,0.01214905,-0.01121972,-0.004
 00720,-0.15700319,0.12937825,0.04520686,-0.01334558,0.02516231,0.00862
 334,-0.00000175,0.00000017,0.00000112,-0.00000572,-0.00000059,0.000002
 17,-0.00000292,0.00000301,0.00000215,0.00000139,-0.00000717,-0.0000024
 8,0.00000254,-0.00000074,0.00000054,0.00002591,0.00001962,0.00002722,0
 .00006191,0.00003047,0.00012485,0.00013279,0.00013986,0.00006483,0.000
 49686,-0.00064133,-0.00020240,0.00068097,0.00067585,0.00031425,0.16201
 738,0.00000656,-0.00000128,-0.00000352,-0.00000173,-0.00000056,0.00000
 210,-0.00000240,0.00000280,0.00000084,0.00001029,-0.00000776,-0.000006
 87,-0.00005023,0.00001487,0.00003113,0.00001188,-0.00000075,-0.0000052
 3,0.00012667,-0.00001079,0.00002322,-0.00033957,0.00018405,0.00013220,
 0.00006184,-0.00007368,-0.00010245,0.00030541,0.00014527,0.00000009,-0
 .00179026,0.00184721,-0.00217486,-0.00064589,0.00002751,0.00028907,-0.
 00354462,-0.00253260,-0.00348739,0.01744122,-0.01469098,-0.00646627,0.
 12978491,-0.22971536,-0.06735487,-0.00382747,0.00637469,0.00097992,0.0
 0000068,-0.00000003,-0.00000033,0.00000137,0.00000055,-0.00000037,0.00
 000074,-0.00000111,-0.00000067,-0.00000088,0.00000327,0.00000153,-0.00
 000089,0.00000028,-0.00000039,-0.00000729,-0.00000313,-0.00001080,0.00
 002349,-0.00004546,0.00001192,0.00015991,-0.00008800,0.00038188,0.0009
 2713,-0.00089210,-0.00032861,0.00000193,0.00072351,0.00173876,-0.13899
 891,0.23869644,0.00000166,-0.00000083,-0.00000130,-0.00000088,0.000000
 47,0.00000080,-0.00000031,0.00000096,0.00000004,0.00000210,-0.00000538
 ,-0.00000313,-0.00001784,0.00000446,0.00001184,0.00000553,-0.00000016,
 -0.00000104,0.00006073,0.00003038,-0.00000530,-0.00013616,0.00014476,0
 .00008064,-0.00000604,-0.00004964,-0.00004044,0.00017938,0.00008538,0.
 00015040,-0.00071612,-0.00197781,0.00705778,-0.00038380,0.00013412,-0.
 00066037,-0.00147006,-0.00342248,0.00598299,0.00625343,-0.00698697,0.0
 0134500,0.04542737,-0.06729386,-0.06242963,-0.00130447,0.00129975,0.00
 384515,0.00000024,-0.00000004,0.,0.00000043,0.00000014,0.,0.00000018,-
 0.00000030,-0.00000014,0.00000138,0.00000036,0.00000022,-0.00000012,-0
 .00000002,-0.00000008,0.00000190,-0.00000001,-0.00000367,0.00000685,-0
 .00002512,-0.00002502,0.00003134,0.00034162,-0.00097178,0.00035430,-0.
 00038698,-0.00003927,0.00004829,0.00176662,-0.00350225,-0.04847020,0.0
 7476447,0.05305509,0.00000711,-0.00000094,-0.00000345,-0.00000053,0.00
 000138,0.00000261,-0.00000451,0.00000068,0.00000060,0.00001174,-0.0000
 0770,-0.00000916,-0.00004774,0.00002821,0.00004604,0.00001931,-0.00000
 300,-0.00000905,0.00017663,-0.00000703,-0.00005858,-0.00007725,0.00027
 923,0.00034226,-0.00005105,-0.00012334,-0.00011823,0.00178828,0.001365
 93,0.00064133,0.00899179,0.01642773,0.00580943,-0.00197921,0.00281561,
 0.00089585,-0.00098076,0.00050153,0.00020498,-0.00541730,0.00086437,0.
 00021839,-0.00754910,-0.02795277,-0.00994320,-0.10752903,-0.10194685,-
 0.03624670,0.00000065,-0.00000014,-0.00000043,0.00000209,0.00000044,-0
 .00000084,0.00000121,-0.00000123,-0.00000082,-0.00000107,0.00000162,0.
 00000082,-0.00000083,0.00000018,-0.00000014,-0.00001509,-0.00000686,-0
 .00002068,-0.00022426,-0.00033822,-0.00039180,0.00048308,0.00084438,0.
 00030452,0.00017489,-0.00014944,-0.00005660,-0.00050210,-0.00143854,-0
 .00051807,0.00147830,0.00034611,0.00013088,0.11124475,0.00000044,0.000
 00010,-0.00000036,0.00000056,0.00000038,0.00000147,0.00000048,-0.00000
 004,0.00000177,0.00000092,-0.00000045,-0.00000008,-0.00000802,0.000014
 63,-0.00001095,0.00000223,-0.00000317,-0.00000088,0.00003813,-0.000000
 85,-0.00001209,0.00007794,0.00002078,0.00000154,0.00006897,0.00015354,
 0.00014868,-0.00189429,0.00045433,0.00160580,-0.01169058,-0.01576440,-
 0.00716218,0.00376518,-0.00150754,-0.00254950,0.00086109,0.00019250,0.
 00030196,0.00000398,0.00242269,-0.00174894,0.00076774,0.00233158,-0.00
 031082,-0.10091414,-0.27007011,-0.08258552,0.00000006,0.00000013,-0.00
 000024,0.00000045,0.00000015,-0.00000022,-0.00000004,-0.00000004,-0.00
 000011,-0.00000069,0.00000074,-0.00000047,-0.00000009,0.00000137,-0.00
 000018,0.00001005,-0.00000675,0.00000652,0.00127872,-0.00013386,0.0001
 5343,-0.00068499,-0.00077488,-0.00034472,-0.00012150,-0.00015022,0.000
 31067,0.00011673,0.00001625,-0.00006551,-0.00017800,0.00004312,0.00157
 609,0.10849867,0.28276001,-0.00001007,-0.00000282,0.00000354,-0.000004
 20,0.00000698,-0.00000654,0.00000504,0.00000088,-0.00001019,-0.0000161
 2,0.00000810,0.00000682,0.00007160,-0.00006553,0.00002481,-0.00001437,
 0.00000410,0.00000635,-0.00017729,-0.00013368,0.00000715,0.00070666,0.
 00015101,-0.00084340,0.00004767,0.00013112,0.00023800,-0.00047958,0.00
 250056,-0.00218154,-0.00550054,-0.00712852,0.00163156,0.00148585,-0.00
 258600,0.00468228,0.00038521,0.00023002,-0.00044800,-0.00008004,-0.001
 63380,0.00682245,0.00005332,-0.00029349,0.00269553,-0.03498919,-0.0829
 8776,-0.06551419,0.00000011,-0.00000068,0.00000191,-0.00000168,-0.0000
 0048,0.00000057,-0.00000070,0.00000116,0.00000082,0.00000284,-0.000003
 45,0.00000392,0.00000232,-0.00000075,0.00000404,-0.00000153,0.00000650
 ,0.00000237,0.00017336,-0.00029074,-0.00013697,-0.00034999,-0.00036310
 ,0.00002993,-0.00004501,0.00028336,-0.00088560,0.00003067,-0.00010334,
 0.00026429,-0.00007440,0.00158549,-0.00384654,0.03878005,0.09068484,0.
 05744663\\0.00000094,0.00000750,0.00000981,0.00000578,-0.00001303,0.00
 000115,-0.00001139,-0.00000237,0.00000590,0.00000256,-0.00001005,-0.00
 000682,0.00001374,0.00000500,0.00001022,-0.00001010,-0.00000463,0.0000
 0923,-0.00001794,-0.00001105,-0.00001212,0.00001730,0.00001417,0.00002
 035,-0.00000451,-0.00000171,-0.00000844,-0.00001923,-0.00000853,-0.000
 00983,0.00003252,0.00000434,-0.00000193,-0.00000596,0.00000500,-0.0000
 0492,-0.00000236,0.00001147,-0.00000491,-0.00000057,0.00000196,-0.0000
 0849,0.00000817,0.00000309,-0.00000067,-0.00001250,0.00000043,-0.00000
 079,0.00000342,-0.00000468,0.00000276,0.00000495,-0.00000477,0.0000092
 3,0.00000199,-0.00000162,-0.00000300,-0.00000365,-0.00000047,-0.000000
 72,0.00000126,-0.00000459,0.00000753,0.00000282,-0.00000478,0.00000688
 ,-0.00000314,0.00000094,0.00000227,-0.00000331,-0.00000029,-0.00000644
 ,-0.00000238,0.00000385,-0.00001022,-0.00000293,0.00000762,-0.00000778
 ,0.00000013,0.00000632,-0.00000095,0.00000438,0.00000090,0.00000272\\\
 @


 IT MATTERS NOT HOW DEEP YOU PLOW,
 BUT HOW LONG YOU STAY IN THE FURROW.
 Job cpu time:       0 days  1 hours 28 minutes 27.1 seconds.
 File lengths (MBytes):  RWF=    322 Int=      0 D2E=      0 Chk=     14 Scr=      1
 Normal termination of Gaussian 09 at Tue Aug 21 19:51:40 2018.
WARNING: pbs_rusage is deprecated and values produced may not be accurate


=============================================================================
                                     Resource usage:
                                       CPU time:              07:03:21
   JobId:    9356674.r-man2            Elapsed time:          02:18:39
   Project:             q95            Requested time:        32:00:00
   Service Units:      9.24 
                                       Max physical memory:      443MB
                                       Max virtual memory:      1122MB
                                       Requested memory:           0MB

                                       Number of cpus:               4

                                       Max jobfs disk use:       0.3GB
                                       Requested jobfs:         16.0GB
=============================================================================

