 Entering Gaussian System, Link 0=/apps/gaussian/g09e01/g09/g09
 AtFile(1): /home/507/hio507/Basis/6-31Gd.gbs
 Initial command:
 /apps/gaussian/g09e01/g09/l1.exe "/jobfs/local/9356665.r-man2/Gau-12016.inp" -scrdir="/jobfs/local/9356665.r-man2/"
 Entering Link 1 = /apps/gaussian/g09e01/g09/l1.exe PID=     12017.
  
 Copyright (c) 1988,1990,1992,1993,1995,1998,2003,2009,2015,
            Gaussian, Inc.  All Rights Reserved.
  
 This is part of the Gaussian(R) 09 program.  It is based on
 the Gaussian(R) 03 system (copyright 2003, Gaussian, Inc.),
 the Gaussian(R) 98 system (copyright 1998, Gaussian, Inc.),
 the Gaussian(R) 94 system (copyright 1995, Gaussian, Inc.),
 the Gaussian 92(TM) system (copyright 1992, Gaussian, Inc.),
 the Gaussian 90(TM) system (copyright 1990, Gaussian, Inc.),
 the Gaussian 88(TM) system (copyright 1988, Gaussian, Inc.),
 the Gaussian 86(TM) system (copyright 1986, Carnegie Mellon
 University), and the Gaussian 82(TM) system (copyright 1983,
 Carnegie Mellon University). Gaussian is a federally registered
 trademark of Gaussian, Inc.
  
 This software contains proprietary and confidential information,
 including trade secrets, belonging to Gaussian, Inc.
  
 This software is provided under written license and may be
 used, copied, transmitted, or stored only in accord with that
 written license.
  
 The following legend is applicable only to US Government
 contracts under FAR:
  
                    RESTRICTED RIGHTS LEGEND
  
 Use, reproduction and disclosure by the US Government is
 subject to restrictions as set forth in subparagraphs (a)
 and (c) of the Commercial Computer Software - Restricted
 Rights clause in FAR 52.227-19.
  
 Gaussian, Inc.
 340 Quinnipiac St., Bldg. 40, Wallingford CT 06492
  
  
 ---------------------------------------------------------------
 Warning -- This program may not be used in any manner that
 competes with the business of Gaussian, Inc. or will provide
 assistance to any competitor of Gaussian, Inc.  The licensee
 of this program is prohibited from giving any competitor of
 Gaussian, Inc. access to this program.  By using this program,
 the user acknowledges that Gaussian, Inc. is engaged in the
 business of creating and licensing software in the field of
 computational chemistry and represents and warrants to the
 licensee that it is not a competitor of Gaussian, Inc. and that
 it will not use this program in any manner prohibited above.
 ---------------------------------------------------------------
  

 Cite this work as:
 Gaussian 09, Revision E.01,
 M. J. Frisch, G. W. Trucks, H. B. Schlegel, G. E. Scuseria, 
 M. A. Robb, J. R. Cheeseman, G. Scalmani, V. Barone, B. Mennucci, 
 G. A. Petersson, H. Nakatsuji, M. Caricato, X. Li, H. P. Hratchian, 
 A. F. Izmaylov, J. Bloino, G. Zheng, J. L. Sonnenberg, M. Hada, 
 M. Ehara, K. Toyota, R. Fukuda, J. Hasegawa, M. Ishida, T. Nakajima, 
 Y. Honda, O. Kitao, H. Nakai, T. Vreven, J. A. Montgomery, Jr., 
 J. E. Peralta, F. Ogliaro, M. Bearpark, J. J. Heyd, E. Brothers, 
 K. N. Kudin, V. N. Staroverov, T. Keith, R. Kobayashi, J. Normand, 
 K. Raghavachari, A. Rendell, J. C. Burant, S. S. Iyengar, J. Tomasi, 
 M. Cossi, N. Rega, J. M. Millam, M. Klene, J. E. Knox, J. B. Cross, 
 V. Bakken, C. Adamo, J. Jaramillo, R. Gomperts, R. E. Stratmann, 
 O. Yazyev, A. J. Austin, R. Cammi, C. Pomelli, J. W. Ochterski, 
 R. L. Martin, K. Morokuma, V. G. Zakrzewski, G. A. Voth, 
 P. Salvador, J. J. Dannenberg, S. Dapprich, A. D. Daniels, 
 O. Farkas, J. B. Foresman, J. V. Ortiz, J. Cioslowski, 
 and D. J. Fox, Gaussian, Inc., Wallingford CT, 2013.
 
 ******************************************
 Gaussian 09:  ES64L-G09RevE.01 30-Nov-2015
                21-Aug-2018 
 ******************************************
 %chk=diph.M062X.chk
 %mem=196608000
 %nproc=4
 Will use up to    4 processors via shared memory.
 ----------------------------------------------------------------------
 # M062X/Gen 6D SCF=Tight INT(grid=ultrafine) OPT IOP(2/17=4) maxdisk=2
 147483648
 ----------------------------------------------------------------------
 1/14=-1,18=20,19=15,26=4,38=1/1,3;
 2/9=110,12=2,17=4,18=5,40=1/2;
 3/5=7,8=2,11=2,16=1,25=1,30=1,71=1,74=-55,75=-5/1,2,3;
 4//1;
 5/5=2,32=2,38=5/2;
 6/7=2,8=2,9=2,10=2,28=1/1;
 7//1,2,3,16;
 1/14=-1,18=20,19=15,26=4/3(2);
 2/9=110,17=4/2;
 99//99;
 2/9=110,17=4/2;
 3/5=7,6=1,8=2,11=2,16=1,25=1,30=1,71=1,74=-55,75=-5,82=7/1,2,3;
 4/5=5,16=3,69=1/1;
 5/5=2,32=2,38=5/2;
 7//1,2,3,16;
 1/14=-1,18=20,19=15,26=4/3(-5);
 2/9=110,17=4/2;
 6/7=2,8=2,9=2,10=2,19=2,28=1/1;
 99/9=1/99;
 ----------
 diph.M062X
 ----------
 Symbolic Z-matrix:
 Charge =  0 Multiplicity = 1
 C                    -3.94982   1.7313    2.15006 
 C                    -3.94588   0.53895   1.42181 
 C                    -2.75666   2.4295    2.35146 
 C                    -1.56056   1.93435   1.8242 
 C                    -1.54667   0.73573   1.09025 
 C                    -2.74856   0.04512   0.89511 
 N                    -0.37262   0.221     0.38971 
 C                     0.89846   0.7115    0.61517 
 O                     1.10411   1.75731   1.21454 
 N                     1.99945   0.06674  -0.21937 
 C                     3.28199   0.44574  -0.02307 
 C                     3.72858   1.6903    0.40293 
 C                     5.08706   2.01763   0.36767 
 C                     6.01966   1.07838  -0.07921 
 C                     5.59317  -0.18699  -0.49034 
 C                     4.23394  -0.51272  -0.45443 
 H                    -4.83347   2.09598   2.5389 
 H                    -4.82691   0.02265   1.27264 
 H                    -2.75834   3.31032   2.88922 
 H                    -0.68104   2.45276   1.97494 
 H                    -2.75088  -0.83604   0.35791 
 H                    -0.44793  -0.65361   0.03572 
 H                     1.68043  -0.79358  -0.45033 
 H                     3.04245   2.38664   0.73364 
 H                     5.40091   2.95259   0.6716 
 H                     7.02287   1.319    -0.10565 
 H                     6.28153  -0.88133  -0.82059 
 H                     3.92394  -1.4487   -0.75916 
 

 GradGradGradGradGradGradGradGradGradGradGradGradGradGradGradGradGradGrad
 Berny optimization.
 Initialization pass.
                           ----------------------------
                           !    Initial Parameters    !
                           ! (Angstroms and Degrees)  !
 --------------------------                            --------------------------
 ! Name  Definition              Value          Derivative Info.                !
 --------------------------------------------------------------------------------
 ! R1    R(1,2)                  1.3972         estimate D2E/DX2                !
 ! R2    R(1,3)                  1.397          estimate D2E/DX2                !
 ! R3    R(1,17)                 1.032          estimate D2E/DX2                !
 ! R4    R(2,6)                  1.3982         estimate D2E/DX2                !
 ! R5    R(2,18)                 1.032          estimate D2E/DX2                !
 ! R6    R(3,4)                  1.3978         estimate D2E/DX2                !
 ! R7    R(3,19)                 1.032          estimate D2E/DX2                !
 ! R8    R(4,5)                  1.4055         estimate D2E/DX2                !
 ! R9    R(4,20)                 1.032          estimate D2E/DX2                !
 ! R10   R(5,6)                  1.3998         estimate D2E/DX2                !
 ! R11   R(5,7)                  1.4609         estimate D2E/DX2                !
 ! R12   R(6,21)                 1.032          estimate D2E/DX2                !
 ! R13   R(7,8)                  1.381          estimate D2E/DX2                !
 ! R14   R(7,22)                 0.9465         estimate D2E/DX2                !
 ! R15   R(8,9)                  1.2228         estimate D2E/DX2                !
 ! R16   R(8,10)                 1.5246         estimate D2E/DX2                !
 ! R17   R(10,11)                1.3517         estimate D2E/DX2                !
 ! R18   R(10,23)                0.9462         estimate D2E/DX2                !
 ! R19   R(11,12)                1.3892         estimate D2E/DX2                !
 ! R20   R(11,16)                1.4181         estimate D2E/DX2                !
 ! R21   R(12,13)                1.3978         estimate D2E/DX2                !
 ! R22   R(12,24)                1.032          estimate D2E/DX2                !
 ! R23   R(13,14)                1.397          estimate D2E/DX2                !
 ! R24   R(13,25)                1.032          estimate D2E/DX2                !
 ! R25   R(14,15)                1.3972         estimate D2E/DX2                !
 ! R26   R(14,26)                1.032          estimate D2E/DX2                !
 ! R27   R(15,16)                1.3982         estimate D2E/DX2                !
 ! R28   R(15,27)                1.032          estimate D2E/DX2                !
 ! R29   R(16,28)                1.032          estimate D2E/DX2                !
 ! A1    A(2,1,3)              119.9503         estimate D2E/DX2                !
 ! A2    A(2,1,17)             120.025          estimate D2E/DX2                !
 ! A3    A(3,1,17)             120.0247         estimate D2E/DX2                !
 ! A4    A(1,2,6)              120.0127         estimate D2E/DX2                !
 ! A5    A(1,2,18)             119.9924         estimate D2E/DX2                !
 ! A6    A(6,2,18)             119.9949         estimate D2E/DX2                !
 ! A7    A(1,3,4)              119.9613         estimate D2E/DX2                !
 ! A8    A(1,3,19)             120.0193         estimate D2E/DX2                !
 ! A9    A(4,3,19)             120.0193         estimate D2E/DX2                !
 ! A10   A(3,4,5)              120.4983         estimate D2E/DX2                !
 ! A11   A(3,4,20)             119.7508         estimate D2E/DX2                !
 ! A12   A(5,4,20)             119.7509         estimate D2E/DX2                !
 ! A13   A(4,5,6)              119.014          estimate D2E/DX2                !
 ! A14   A(4,5,7)              123.9745         estimate D2E/DX2                !
 ! A15   A(6,5,7)              116.7017         estimate D2E/DX2                !
 ! A16   A(2,6,5)              120.5634         estimate D2E/DX2                !
 ! A17   A(2,6,21)             119.7186         estimate D2E/DX2                !
 ! A18   A(5,6,21)             119.718          estimate D2E/DX2                !
 ! A19   A(5,7,8)              122.431          estimate D2E/DX2                !
 ! A20   A(5,7,22)             116.166          estimate D2E/DX2                !
 ! A21   A(8,7,22)             117.5478         estimate D2E/DX2                !
 ! A22   A(7,8,9)              122.5881         estimate D2E/DX2                !
 ! A23   A(7,8,10)             115.158          estimate D2E/DX2                !
 ! A24   A(9,8,10)             120.5674         estimate D2E/DX2                !
 ! A25   A(8,10,11)            119.1526         estimate D2E/DX2                !
 ! A26   A(8,10,23)            105.9418         estimate D2E/DX2                !
 ! A27   A(11,10,23)           127.6117         estimate D2E/DX2                !
 ! A28   A(10,11,12)           126.9242         estimate D2E/DX2                !
 ! A29   A(10,11,16)           113.7825         estimate D2E/DX2                !
 ! A30   A(12,11,16)           118.8813         estimate D2E/DX2                !
 ! A31   A(11,12,13)           120.9634         estimate D2E/DX2                !
 ! A32   A(11,12,24)           119.277          estimate D2E/DX2                !
 ! A33   A(13,12,24)           119.7504         estimate D2E/DX2                !
 ! A34   A(12,13,14)           119.9613         estimate D2E/DX2                !
 ! A35   A(12,13,25)           120.0191         estimate D2E/DX2                !
 ! A36   A(14,13,25)           120.0196         estimate D2E/DX2                !
 ! A37   A(13,14,15)           119.9509         estimate D2E/DX2                !
 ! A38   A(13,14,26)           120.0252         estimate D2E/DX2                !
 ! A39   A(15,14,26)           120.0239         estimate D2E/DX2                !
 ! A40   A(14,15,16)           120.0122         estimate D2E/DX2                !
 ! A41   A(14,15,27)           119.9935         estimate D2E/DX2                !
 ! A42   A(16,15,27)           119.9943         estimate D2E/DX2                !
 ! A43   A(11,16,15)           120.1955         estimate D2E/DX2                !
 ! A44   A(11,16,28)           120.0778         estimate D2E/DX2                !
 ! A45   A(15,16,28)           119.7179         estimate D2E/DX2                !
 ! D1    D(3,1,2,6)             -0.0002         estimate D2E/DX2                !
 ! D2    D(3,1,2,18)           180.0            estimate D2E/DX2                !
 ! D3    D(17,1,2,6)           179.9993         estimate D2E/DX2                !
 ! D4    D(17,1,2,18)           -0.0005         estimate D2E/DX2                !
 ! D5    D(2,1,3,4)             -0.0005         estimate D2E/DX2                !
 ! D6    D(2,1,3,19)          -179.9992         estimate D2E/DX2                !
 ! D7    D(17,1,3,4)          -180.0            estimate D2E/DX2                !
 ! D8    D(17,1,3,19)            0.0013         estimate D2E/DX2                !
 ! D9    D(1,2,6,5)              0.0007         estimate D2E/DX2                !
 ! D10   D(1,2,6,21)           180.0            estimate D2E/DX2                !
 ! D11   D(18,2,6,5)          -179.9994         estimate D2E/DX2                !
 ! D12   D(18,2,6,21)           -0.0001         estimate D2E/DX2                !
 ! D13   D(1,3,4,5)              0.0005         estimate D2E/DX2                !
 ! D14   D(1,3,4,20)           179.9999         estimate D2E/DX2                !
 ! D15   D(19,3,4,5)           179.9993         estimate D2E/DX2                !
 ! D16   D(19,3,4,20)           -0.0014         estimate D2E/DX2                !
 ! D17   D(3,4,5,6)              0.0            estimate D2E/DX2                !
 ! D18   D(3,4,5,7)            173.3889         estimate D2E/DX2                !
 ! D19   D(20,4,5,6)          -179.9993         estimate D2E/DX2                !
 ! D20   D(20,4,5,7)            -6.6104         estimate D2E/DX2                !
 ! D21   D(4,5,6,2)             -0.0007         estimate D2E/DX2                !
 ! D22   D(4,5,6,21)          -179.9999         estimate D2E/DX2                !
 ! D23   D(7,5,6,2)           -173.8656         estimate D2E/DX2                !
 ! D24   D(7,5,6,21)             6.1352         estimate D2E/DX2                !
 ! D25   D(4,5,7,8)             14.1408         estimate D2E/DX2                !
 ! D26   D(4,5,7,22)           171.4633         estimate D2E/DX2                !
 ! D27   D(6,5,7,8)           -172.3302         estimate D2E/DX2                !
 ! D28   D(6,5,7,22)           -15.0077         estimate D2E/DX2                !
 ! D29   D(5,7,8,9)            -13.9847         estimate D2E/DX2                !
 ! D30   D(5,7,8,10)          -179.2377         estimate D2E/DX2                !
 ! D31   D(22,7,8,9)          -171.0126         estimate D2E/DX2                !
 ! D32   D(22,7,8,10)           23.7343         estimate D2E/DX2                !
 ! D33   D(7,8,10,11)         -177.2143         estimate D2E/DX2                !
 ! D34   D(7,8,10,23)          -24.8254         estimate D2E/DX2                !
 ! D35   D(9,8,10,11)           17.2095         estimate D2E/DX2                !
 ! D36   D(9,8,10,23)          169.5983         estimate D2E/DX2                !
 ! D37   D(8,10,11,12)         -29.5692         estimate D2E/DX2                !
 ! D38   D(8,10,11,16)         157.9455         estimate D2E/DX2                !
 ! D39   D(23,10,11,12)       -175.3359         estimate D2E/DX2                !
 ! D40   D(23,10,11,16)         12.1788         estimate D2E/DX2                !
 ! D41   D(10,11,12,13)       -169.9815         estimate D2E/DX2                !
 ! D42   D(10,11,12,24)          8.9121         estimate D2E/DX2                !
 ! D43   D(16,11,12,13)          2.163          estimate D2E/DX2                !
 ! D44   D(16,11,12,24)       -178.9433         estimate D2E/DX2                !
 ! D45   D(10,11,16,15)        170.9973         estimate D2E/DX2                !
 ! D46   D(10,11,16,28)         -7.9198         estimate D2E/DX2                !
 ! D47   D(12,11,16,15)         -2.1452         estimate D2E/DX2                !
 ! D48   D(12,11,16,28)        178.9377         estimate D2E/DX2                !
 ! D49   D(11,12,13,14)         -1.1116         estimate D2E/DX2                !
 ! D50   D(11,12,13,25)        178.8897         estimate D2E/DX2                !
 ! D51   D(24,12,13,14)        179.9999         estimate D2E/DX2                !
 ! D52   D(24,12,13,25)          0.0012         estimate D2E/DX2                !
 ! D53   D(12,13,14,15)          0.0008         estimate D2E/DX2                !
 ! D54   D(12,13,14,26)       -180.0            estimate D2E/DX2                !
 ! D55   D(25,13,14,15)        179.9995         estimate D2E/DX2                !
 ! D56   D(25,13,14,26)         -0.0013         estimate D2E/DX2                !
 ! D57   D(13,14,15,16)         -0.0001         estimate D2E/DX2                !
 ! D58   D(13,14,15,27)        179.9991         estimate D2E/DX2                !
 ! D59   D(26,14,15,16)       -179.9993         estimate D2E/DX2                !
 ! D60   D(26,14,15,27)         -0.0001         estimate D2E/DX2                !
 ! D61   D(14,15,16,11)          1.079          estimate D2E/DX2                !
 ! D62   D(14,15,16,28)        179.9999         estimate D2E/DX2                !
 ! D63   D(27,15,16,11)       -178.9202         estimate D2E/DX2                !
 ! D64   D(27,15,16,28)          0.0007         estimate D2E/DX2                !
 --------------------------------------------------------------------------------
 Trust Radius=3.00D-01 FncErr=1.00D-07 GrdErr=1.00D-06
 Number of steps in this run=    148 maximum allowed number of steps=    168.
 GradGradGradGradGradGradGradGradGradGradGradGradGradGradGradGradGradGrad

                          Input orientation:                          
 ---------------------------------------------------------------------
 Center     Atomic      Atomic             Coordinates (Angstroms)
 Number     Number       Type             X           Y           Z
 ---------------------------------------------------------------------
      1          6           0       -3.949820    1.731300    2.150060
      2          6           0       -3.945880    0.538950    1.421810
      3          6           0       -2.756660    2.429500    2.351460
      4          6           0       -1.560560    1.934350    1.824200
      5          6           0       -1.546670    0.735730    1.090250
      6          6           0       -2.748560    0.045120    0.895110
      7          7           0       -0.372620    0.221000    0.389710
      8          6           0        0.898460    0.711500    0.615170
      9          8           0        1.104110    1.757310    1.214540
     10          7           0        1.999450    0.066740   -0.219370
     11          6           0        3.281990    0.445740   -0.023070
     12          6           0        3.728580    1.690300    0.402930
     13          6           0        5.087060    2.017630    0.367670
     14          6           0        6.019660    1.078380   -0.079210
     15          6           0        5.593170   -0.186990   -0.490340
     16          6           0        4.233940   -0.512720   -0.454430
     17          1           0       -4.833470    2.095980    2.538900
     18          1           0       -4.826910    0.022650    1.272640
     19          1           0       -2.758340    3.310320    2.889220
     20          1           0       -0.681040    2.452760    1.974940
     21          1           0       -2.750880   -0.836040    0.357910
     22          1           0       -0.447930   -0.653610    0.035720
     23          1           0        1.680430   -0.793580   -0.450330
     24          1           0        3.042450    2.386640    0.733640
     25          1           0        5.400910    2.952590    0.671600
     26          1           0        7.022870    1.319000   -0.105650
     27          1           0        6.281530   -0.881330   -0.820590
     28          1           0        3.923940   -1.448700   -0.759160
 ---------------------------------------------------------------------
                    Distance matrix (angstroms):
                    1          2          3          4          5
     1  C    0.000000
     2  C    1.397162   0.000000
     3  C    1.397024   2.419230   0.000000
     4  C    2.419913   2.792635   1.397795   0.000000
     5  C    2.808823   2.429992   2.433841   1.405548   0.000000
     6  C    2.420977   1.398162   2.793974   2.417383   1.399843
     7  N    4.263355   3.732896   3.795996   2.530718   1.460855
     8  C    5.186685   4.914069   4.396149   3.000649   2.490973
     9  O    5.139852   5.199015   4.080438   2.739251   2.843538
    10  N    6.616553   6.185742   5.900202   4.509747   3.838961
    11  C    7.659911   7.371463   6.785204   5.392463   4.963822
    12  C    7.874768   7.826944   6.811866   5.482205   5.404801
    13  C    9.215427   9.213670   8.101173   6.805826   6.794981
    14  C   10.236527  10.092375   9.206382   7.862276   7.663837
    15  C   10.085644   9.755859   9.200082   7.812364   7.370685
    16  C    8.876538   8.457880   8.086913   6.690033   6.112292
    17  H    1.032001   2.111883   2.111755   3.353932   3.840823
    18  H    2.111549   1.032004   3.353016   3.824638   3.361804
    19  H    2.111702   3.353213   1.032004   2.112401   3.366445
    20  H    3.352028   3.824631   2.109622   1.032001   2.116644
    21  H    3.352685   2.109622   3.825967   3.352899   2.111138
    22  H    4.735131   3.947037   4.494269   3.336786   2.061439
    23  H    6.696026   6.077492   6.158412   4.808233   3.889261
    24  H    7.164325   7.261150   6.020702   4.752009   4.890061
    25  H    9.545342   9.682508   8.345148   7.129331   7.304697
    26  H   11.209734  11.102031  10.144447   8.819198   8.672220
    27  H   10.969554  10.566242  10.134711   8.741930   8.218693
    28  H    8.976194   8.404847   8.327473   6.942515   6.174109
                    6          7          8          9         10
     6  C    0.000000
     7  N    2.435458   0.000000
     8  C    3.717954   1.380966   0.000000
     9  O    4.228084   2.285022   1.222806   0.000000
    10  N    4.877103   2.453873   1.524582   2.390765   0.000000
    11  C    6.113189   3.684708   2.481772   2.827553   1.351697
    12  C    6.700910   4.356473   3.002112   2.747916   2.452161
    13  C    8.097279   5.747736   4.394497   4.080300   3.699179
    14  C    8.882489   6.466547   5.181067   5.128096   4.147909
    15  C    8.459185   6.044137   4.906092   5.180596   3.612842
    16  C    7.133565   4.740392   3.710551   4.211215   2.320339
    17  H    3.354836   5.294691   6.202624   6.092904   7.642949
    18  H    2.112480   4.545284   5.804020   6.179759   6.987648
    19  H    3.825977   4.634987   5.029648   4.487194   6.543753
    20  H    3.352223   2.754783   2.715839   2.061218   4.206318
    21  H    1.032004   2.602780   3.972247   4.724429   4.869692
    22  H    2.553365   0.946532   2.003011   3.100158   2.563912
    23  H    4.704209   2.439273   2.003006   3.100158   0.946185
    24  H    6.248567   4.058446   2.723384   2.093916   2.716250
    25  H    8.655472   6.393332   5.029684   4.492880   4.548834
    26  H    9.904804   7.492947   6.196534   6.080028   5.178401
    27  H    9.238207   6.852567   5.794476   6.157098   4.426795
    28  H    7.034939   4.750603   3.963430   4.703768   2.508305
                   11         12         13         14         15
    11  C    0.000000
    12  C    1.389190   0.000000
    13  C    2.425241   1.397804   0.000000
    14  C    2.810378   2.419908   1.397009   0.000000
    15  C    2.441361   2.792641   2.419231   1.397170   0.000000
    16  C    1.418071   2.417385   2.793982   2.420988   1.398176
    17  H    8.668776   8.833779  10.155653  11.210729  11.095182
    18  H    8.222659   8.759787  10.153114  10.981354  10.570247
    19  H    7.291971   7.133459   8.341437   9.531339   9.664384
    20  H    4.870912   4.743133   6.003635   7.141977   7.239585
    21  H    6.179290   6.954698   8.341273   8.987683   8.412132
    22  H    3.889001   4.803331   6.154822   6.696471   6.081888
    23  H    2.069652   3.330560   4.491899   4.740346   3.959683
    24  H    2.096922   1.032004   2.109629   3.352022   3.824640
    25  H    3.355098   2.112403   1.032001   2.111689   3.353212
    26  H    3.842341   3.353933   2.111747   1.032002   2.111879
    27  H    3.375558   3.824635   3.353012   2.111559   1.031994
    28  H    2.131392   3.352900   3.825969   3.352687   2.109622
                   16         17         18         19         20
    16  C    0.000000
    17  H    9.898650   0.000000
    18  H    9.239502   2.429435   0.000000
    19  H    8.642199   2.429714   4.207266   0.000000
    20  H    6.233213   4.205713   4.856634   2.426209   0.000000
    21  H    7.039328   4.206024   2.425692   4.857972   4.208946
    22  H    4.709565   5.749706   4.600300   5.403073   3.669394
    23  H    2.568913   7.727609   6.780880   6.906321   4.690117
    24  H    3.352230   8.085392   8.234428   6.256906   3.925503
    25  H    3.825982  10.438540  10.656177   8.462811   6.240083
    26  H    3.354844  12.172516  11.999896  10.421452   8.060056
    27  H    2.112480  11.987234  11.340028  10.632585   8.210269
    28  H    1.031998  10.006707   9.103321   8.978408   6.625899
                   21         22         23         24         25
    21  H    0.000000
    22  H    2.332523   0.000000
    23  H    4.504616   2.187636   0.000000
    24  H    6.639993   4.681129   3.656594   0.000000
    25  H    8.994654   6.900576   5.397637   2.426207   0.000000
    26  H   10.019245   7.728132   5.755299   4.205711   2.429709
    27  H    9.109080   6.787544   4.616808   4.856634   4.207263
    28  H    6.795323   4.514117   2.357519   4.208956   4.857970
                   26         27         28
    26  H    0.000000
    27  H    2.429440   0.000000
    28  H    4.206020   2.425678   0.000000
 Stoichiometry    C13H12N2O
 Framework group  C1[X(C13H12N2O)]
 Deg. of freedom    78
 Full point group                 C1      NOp   1
 Largest Abelian subgroup         C1      NOp   1
 Largest concise Abelian subgroup C1      NOp   1
                         Standard orientation:                         
 ---------------------------------------------------------------------
 Center     Atomic      Atomic             Coordinates (Angstroms)
 Number     Number       Type             X           Y           Z
 ---------------------------------------------------------------------
      1          6           0       -5.128341   -0.591009   -0.072004
      2          6           0       -4.888858    0.783368    0.004150
      3          6           0       -4.055356   -1.484591   -0.115478
      4          6           0       -2.743708   -1.002575   -0.082743
      5          6           0       -2.492888    0.378292   -0.006178
      6          6           0       -3.576229    1.263778    0.036815
      7          7           0       -1.163812    0.957971    0.171655
      8          6           0       -0.006662    0.224621   -0.002324
      9          8           0       -0.004499   -0.996369   -0.068910
     10          7           0        1.288808    0.990007    0.243224
     11          6           0        2.470698    0.366143    0.040708
     12          6           0        2.732264   -0.991236    0.178374
     13          6           0        4.041763   -1.478727    0.140707
     14          6           0        5.108177   -0.599066   -0.060774
     15          6           0        4.864311    0.766897   -0.224348
     16          6           0        3.553836    1.252806   -0.186377
     17          1           0       -6.097133   -0.945813   -0.096115
     18          1           0       -5.681002    1.444052    0.036298
     19          1           0       -4.231023   -2.499976   -0.171746
     20          1           0       -1.953511   -1.665579   -0.115026
     21          1           0       -3.404557    2.279846    0.093089
     22          1           0       -1.103444    1.898462    0.083583
     23          1           0        1.084162    1.901749    0.094516
     24          1           0        1.946919   -1.643966    0.327408
     25          1           0        4.220675   -2.487880    0.261644
     26          1           0        6.075375   -0.957914   -0.088758
     27          1           0        5.651597    1.417307   -0.373211
     28          1           0        3.378913    2.262607   -0.307721
 ---------------------------------------------------------------------
 Rotational constants (GHZ):      2.2033715      0.2037546      0.1870372
 General basis read from cards:  (6D, 7F)
 There are   264 symmetry adapted cartesian basis functions of A   symmetry.
 There are   264 symmetry adapted basis functions of A   symmetry.
   264 basis functions,   496 primitive gaussians,   264 cartesian basis functions
    56 alpha electrons       56 beta electrons
       nuclear repulsion energy       965.6323093163 Hartrees.
 NAtoms=   28 NActive=   28 NUniq=   28 SFac= 1.00D+00 NAtFMM=   60 NAOKFM=F Big=F
 Integral buffers will be    131072 words long.
 Raffenetti 2 integral format.
 Two-electron integral symmetry is turned on.
 One-electron integrals computed using PRISM.
 NBasis=   264 RedAO= T EigKep=  4.50D-04  NBF=   264
 NBsUse=   264 1.00D-06 EigRej= -1.00D+00 NBFU=   264
 ExpMin= 1.61D-01 ExpMax= 5.48D+03 ExpMxC= 8.25D+02 IAcc=3 IRadAn=         5 AccDes= 0.00D+00
 Harris functional with IExCor= 1009 and IRadAn=       5 diagonalized for initial guess.
 HarFok:  IExCor= 1009 AccDes= 0.00D+00 IRadAn=         5 IDoV= 1 UseB2=F ITyADJ=14
 ICtDFT=  3500011 ScaDFX=  1.000000  1.000000  1.000000  1.000000
 FoFCou: FMM=F IPFlag=           0 FMFlag=      100000 FMFlg1=           0
         NFxFlg=           0 DoJE=T BraDBF=F KetDBF=T FulRan=T
         wScrn=  0.000000 ICntrl=     500 IOpCl=  0 I1Cent=   200000004 NGrid=           0
         NMat0=    1 NMatS0=      1 NMatT0=    0 NMatD0=    1 NMtDS0=    0 NMtDT0=    0
 Petite list used in FoFCou.
 Requested convergence on RMS density matrix=1.00D-08 within 128 cycles.
 Requested convergence on MAX density matrix=1.00D-06.
 Requested convergence on             energy=1.00D-06.
 No special actions if energy rises.
 Integral accuracy reduced to 1.0D-05 until final iterations.
 Initial convergence to 1.0D-05 achieved.  Increase integral accuracy.
 SCF Done:  E(RM062X) =  -687.013704295     A.U. after   15 cycles
            NFock= 15  Conv=0.54D-08     -V/T= 2.0076

 **********************************************************************

            Population analysis using the SCF density.

 **********************************************************************

 Orbital symmetries:
       Occupied  (A) (A) (A) (A) (A) (A) (A) (A) (A) (A) (A) (A)
                 (A) (A) (A) (A) (A) (A) (A) (A) (A) (A) (A) (A)
                 (A) (A) (A) (A) (A) (A) (A) (A) (A) (A) (A) (A)
                 (A) (A) (A) (A) (A) (A) (A) (A) (A) (A) (A) (A)
                 (A) (A) (A) (A) (A) (A) (A) (A)
       Virtual   (A) (A) (A) (A) (A) (A) (A) (A) (A) (A) (A) (A)
                 (A) (A) (A) (A) (A) (A) (A) (A) (A) (A) (A) (A)
                 (A) (A) (A) (A) (A) (A) (A) (A) (A) (A) (A) (A)
                 (A) (A) (A) (A) (A) (A) (A) (A) (A) (A) (A) (A)
                 (A) (A) (A) (A) (A) (A) (A) (A) (A) (A) (A) (A)
                 (A) (A) (A) (A) (A) (A) (A) (A) (A) (A) (A) (A)
                 (A) (A) (A) (A) (A) (A) (A) (A) (A) (A) (A) (A)
                 (A) (A) (A) (A) (A) (A) (A) (A) (A) (A) (A) (A)
                 (A) (A) (A) (A) (A) (A) (A) (A) (A) (A) (A) (A)
                 (A) (A) (A) (A) (A) (A) (A) (A) (A) (A) (A) (A)
                 (A) (A) (A) (A) (A) (A) (A) (A) (A) (A) (A) (A)
                 (A) (A) (A) (A) (A) (A) (A) (A) (A) (A) (A) (A)
                 (A) (A) (A) (A) (A) (A) (A) (A) (A) (A) (A) (A)
                 (A) (A) (A) (A) (A) (A) (A) (A) (A) (A) (A) (A)
                 (A) (A) (A) (A) (A) (A) (A) (A) (A) (A) (A) (A)
                 (A) (A) (A) (A) (A) (A) (A) (A) (A) (A) (A) (A)
                 (A) (A) (A) (A) (A) (A) (A) (A) (A) (A) (A) (A)
                 (A) (A) (A) (A)
 The electronic state is 1-A.
 Alpha  occ. eigenvalues --  -19.62398 -14.81185 -14.79452 -10.70137 -10.60869
 Alpha  occ. eigenvalues --  -10.58806 -10.55490 -10.55192 -10.54770 -10.54412
 Alpha  occ. eigenvalues --  -10.54238 -10.53730 -10.53654 -10.53464 -10.52752
 Alpha  occ. eigenvalues --  -10.52547  -1.18185  -1.06558  -1.04869  -0.95480
 Alpha  occ. eigenvalues --   -0.93340  -0.85215  -0.84717  -0.83449  -0.82102
 Alpha  occ. eigenvalues --   -0.73062  -0.71246  -0.70266  -0.68610  -0.67197
 Alpha  occ. eigenvalues --   -0.63049  -0.62332  -0.59698  -0.57454  -0.56339
 Alpha  occ. eigenvalues --   -0.53321  -0.51941  -0.51430  -0.50629  -0.50302
 Alpha  occ. eigenvalues --   -0.49244  -0.48727  -0.47556  -0.45674  -0.43423
 Alpha  occ. eigenvalues --   -0.42800  -0.41773  -0.41205  -0.40075  -0.37971
 Alpha  occ. eigenvalues --   -0.36938  -0.33786  -0.30529  -0.29147  -0.28325
 Alpha  occ. eigenvalues --   -0.25147
 Alpha virt. eigenvalues --    0.02026   0.03054   0.04342   0.05413   0.09531
 Alpha virt. eigenvalues --    0.09945   0.14418   0.16146   0.17428   0.19693
 Alpha virt. eigenvalues --    0.21036   0.21213   0.21595   0.22208   0.22681
 Alpha virt. eigenvalues --    0.22849   0.24386   0.26008   0.26324   0.27927
 Alpha virt. eigenvalues --    0.28612   0.31732   0.34077   0.34479   0.35297
 Alpha virt. eigenvalues --    0.35847   0.37189   0.39042   0.40218   0.41274
 Alpha virt. eigenvalues --    0.42230   0.43060   0.51718   0.54802   0.55522
 Alpha virt. eigenvalues --    0.57376   0.57662   0.58278   0.59500   0.60139
 Alpha virt. eigenvalues --    0.61191   0.61630   0.62031   0.63572   0.64224
 Alpha virt. eigenvalues --    0.64712   0.65263   0.65839   0.66055   0.66156
 Alpha virt. eigenvalues --    0.66576   0.66980   0.67292   0.67444   0.68179
 Alpha virt. eigenvalues --    0.68563   0.68866   0.71214   0.71418   0.72047
 Alpha virt. eigenvalues --    0.73144   0.75084   0.80962   0.81163   0.81875
 Alpha virt. eigenvalues --    0.85081   0.86649   0.88779   0.90339   0.91950
 Alpha virt. eigenvalues --    0.92613   0.93988   0.94155   0.94770   0.95546
 Alpha virt. eigenvalues --    0.96278   0.96355   0.96946   0.99510   0.99893
 Alpha virt. eigenvalues --    1.00877   1.01069   1.02646   1.02771   1.03606
 Alpha virt. eigenvalues --    1.04650   1.06513   1.06941   1.09936   1.12477
 Alpha virt. eigenvalues --    1.12571   1.14808   1.16107   1.17178   1.19401
 Alpha virt. eigenvalues --    1.20904   1.21810   1.23776   1.28906   1.29683
 Alpha virt. eigenvalues --    1.30322   1.32065   1.34072   1.36867   1.38350
 Alpha virt. eigenvalues --    1.43831   1.44288   1.45838   1.47820   1.49882
 Alpha virt. eigenvalues --    1.50842   1.52168   1.53128   1.53898   1.54485
 Alpha virt. eigenvalues --    1.55032   1.55779   1.56674   1.57718   1.60367
 Alpha virt. eigenvalues --    1.61600   1.63170   1.68428   1.74430   1.79538
 Alpha virt. eigenvalues --    1.82481   1.83827   1.84138   1.85177   1.86600
 Alpha virt. eigenvalues --    1.88376   1.90578   1.92963   1.95863   1.96365
 Alpha virt. eigenvalues --    1.98411   2.01357   2.02684   2.03708   2.06962
 Alpha virt. eigenvalues --    2.09316   2.09973   2.10305   2.11138   2.12241
 Alpha virt. eigenvalues --    2.12865   2.16147   2.17406   2.18334   2.18988
 Alpha virt. eigenvalues --    2.19747   2.20616   2.21382   2.24421   2.26834
 Alpha virt. eigenvalues --    2.29998   2.32000   2.32936   2.33614   2.34744
 Alpha virt. eigenvalues --    2.35095   2.40548   2.43750   2.48075   2.48664
 Alpha virt. eigenvalues --    2.52944   2.56940   2.59431   2.63372   2.64433
 Alpha virt. eigenvalues --    2.65360   2.65545   2.67697   2.70119   2.71900
 Alpha virt. eigenvalues --    2.72505   2.76492   2.77635   2.78628   2.79316
 Alpha virt. eigenvalues --    2.79691   2.81078   2.84841   2.87986   2.92315
 Alpha virt. eigenvalues --    2.97962   3.00369   3.03167   3.24720   3.29142
 Alpha virt. eigenvalues --    3.45075   3.47426   4.06772   4.10807   4.12541
 Alpha virt. eigenvalues --    4.13933   4.15382   4.16705   4.17329   4.21868
 Alpha virt. eigenvalues --    4.23493   4.30700   4.36928   4.38353   4.42032
 Alpha virt. eigenvalues --    4.46406   4.73361   4.75811
          Condensed to atoms (all electrons):
               1          2          3          4          5          6
     1  C    4.868766   0.560008   0.548448  -0.036902  -0.037319  -0.040791
     2  C    0.560008   4.828609  -0.029483  -0.042797  -0.017426   0.552289
     3  C    0.548448  -0.029483   4.887734   0.515430  -0.020098  -0.042775
     4  C   -0.036902  -0.042797   0.515430   4.958807   0.578200  -0.056932
     5  C   -0.037319  -0.017426  -0.020098   0.578200   4.540142   0.540997
     6  C   -0.040791   0.552289  -0.042775  -0.056932   0.540997   4.992889
     7  N    0.000259   0.004123   0.004196  -0.059070   0.240377  -0.061366
     8  C   -0.000001  -0.000072   0.000266  -0.004221  -0.021596   0.004329
     9  O   -0.000010  -0.000005   0.000985  -0.016543  -0.002524   0.000449
    10  N    0.000000   0.000000   0.000002   0.000195   0.002983  -0.000144
    11  C    0.000000  -0.000000  -0.000000  -0.000003   0.000044   0.000001
    12  C   -0.000000   0.000000   0.000000   0.000007   0.000001  -0.000000
    13  C    0.000000   0.000000  -0.000000   0.000000  -0.000000  -0.000000
    14  C    0.000000  -0.000000   0.000000  -0.000000   0.000000   0.000000
    15  C   -0.000000   0.000000  -0.000000   0.000000  -0.000000   0.000000
    16  C    0.000000   0.000000   0.000000  -0.000000   0.000001  -0.000000
    17  H    0.375904  -0.043292  -0.042440   0.004535   0.000670   0.005071
    18  H   -0.041432   0.375962   0.004584   0.000643   0.003831  -0.040819
    19  H   -0.043280   0.004619   0.377470  -0.038327   0.003445   0.000728
    20  H    0.004462   0.000170  -0.042370   0.362323  -0.027815   0.005455
    21  H    0.004814  -0.036734   0.000351   0.005921  -0.047847   0.363919
    22  H   -0.000010  -0.000009  -0.000020   0.004358  -0.022376  -0.004930
    23  H   -0.000000   0.000000  -0.000000  -0.000005  -0.000275   0.000004
    24  H    0.000000  -0.000000   0.000000  -0.000022   0.000011   0.000000
    25  H   -0.000000   0.000000   0.000000   0.000000  -0.000000  -0.000000
    26  H   -0.000000   0.000000  -0.000000   0.000000  -0.000000  -0.000000
    27  H    0.000000   0.000000   0.000000  -0.000000   0.000000  -0.000000
    28  H    0.000000  -0.000000  -0.000000  -0.000000   0.000000   0.000000
               7          8          9         10         11         12
     1  C    0.000259  -0.000001  -0.000010   0.000000   0.000000  -0.000000
     2  C    0.004123  -0.000072  -0.000005   0.000000  -0.000000   0.000000
     3  C    0.004196   0.000266   0.000985   0.000002  -0.000000   0.000000
     4  C   -0.059070  -0.004221  -0.016543   0.000195  -0.000003   0.000007
     5  C    0.240377  -0.021596  -0.002524   0.002983   0.000044   0.000001
     6  C   -0.061366   0.004329   0.000449  -0.000144   0.000001  -0.000000
     7  N    7.238058   0.260020  -0.090246  -0.088514   0.003205   0.000325
     8  C    0.260020   4.230898   0.554222   0.275142  -0.026685  -0.006152
     9  O   -0.090246   0.554222   8.113009  -0.081812  -0.000585  -0.014626
    10  N   -0.088514   0.275142  -0.081812   7.253387   0.235485  -0.066612
    11  C    0.003205  -0.026685  -0.000585   0.235485   4.507462   0.584901
    12  C    0.000325  -0.006152  -0.014626  -0.066612   0.584901   4.955625
    13  C    0.000002   0.000197   0.000739   0.004859  -0.014606   0.518911
    14  C    0.000000   0.000002  -0.000008   0.000432  -0.037358  -0.039988
    15  C    0.000001  -0.000066  -0.000003   0.005380  -0.017248  -0.041663
    16  C   -0.000247   0.004293   0.000332  -0.078534   0.534817  -0.056413
    17  H    0.000005   0.000000   0.000000   0.000000  -0.000000  -0.000000
    18  H   -0.000105   0.000001  -0.000000  -0.000000   0.000000   0.000000
    19  H   -0.000089  -0.000001  -0.000000  -0.000000  -0.000000   0.000000
    20  H   -0.008166  -0.001135   0.018908   0.000193   0.000005  -0.000018
    21  H   -0.008911   0.000059   0.000004   0.000006   0.000000  -0.000000
    22  H    0.307460  -0.017867   0.003300   0.000794  -0.000220  -0.000003
    23  H    0.003708  -0.022275   0.003104   0.310079  -0.028085   0.004982
    24  H    0.000072  -0.001638   0.014907  -0.007861  -0.030390   0.364482
    25  H   -0.000000  -0.000005  -0.000000  -0.000107   0.003503  -0.039299
    26  H    0.000000   0.000000   0.000000   0.000005   0.000681   0.004728
    27  H   -0.000000   0.000001  -0.000000  -0.000164   0.003845   0.000708
    28  H    0.000000   0.000061   0.000004  -0.009337  -0.048957   0.005634
              13         14         15         16         17         18
     1  C    0.000000   0.000000  -0.000000   0.000000   0.375904  -0.041432
     2  C    0.000000  -0.000000   0.000000   0.000000  -0.043292   0.375962
     3  C   -0.000000   0.000000  -0.000000   0.000000  -0.042440   0.004584
     4  C    0.000000  -0.000000   0.000000  -0.000000   0.004535   0.000643
     5  C   -0.000000   0.000000  -0.000000   0.000001   0.000670   0.003831
     6  C   -0.000000   0.000000   0.000000  -0.000000   0.005071  -0.040819
     7  N    0.000002   0.000000   0.000001  -0.000247   0.000005  -0.000105
     8  C    0.000197   0.000002  -0.000066   0.004293   0.000000   0.000001
     9  O    0.000739  -0.000008  -0.000003   0.000332   0.000000  -0.000000
    10  N    0.004859   0.000432   0.005380  -0.078534   0.000000  -0.000000
    11  C   -0.014606  -0.037358  -0.017248   0.534817  -0.000000   0.000000
    12  C    0.518911  -0.039988  -0.041663  -0.056413  -0.000000   0.000000
    13  C    4.875641   0.554762  -0.028752  -0.044285  -0.000000   0.000000
    14  C    0.554762   4.880138   0.557453  -0.042421   0.000000   0.000000
    15  C   -0.028752   0.557453   4.830141   0.554307  -0.000000   0.000000
    16  C   -0.044285  -0.042421   0.554307   5.024287   0.000000  -0.000000
    17  H   -0.000000   0.000000  -0.000000   0.000000   0.548594  -0.005176
    18  H    0.000000   0.000000   0.000000  -0.000000  -0.005176   0.542454
    19  H    0.000000  -0.000000   0.000000  -0.000000  -0.005010  -0.000190
    20  H   -0.000000   0.000000  -0.000000   0.000000  -0.000144   0.000013
    21  H   -0.000000   0.000000  -0.000000   0.000000  -0.000182  -0.005597
    22  H   -0.000000  -0.000000   0.000000  -0.000004  -0.000000  -0.000008
    23  H   -0.000026  -0.000009   0.000126  -0.007008  -0.000000   0.000000
    24  H   -0.043722   0.004653   0.000158   0.005844  -0.000000  -0.000000
    25  H    0.376547  -0.043993   0.004695   0.000790  -0.000000  -0.000000
    26  H   -0.043404   0.375329  -0.044489   0.005103  -0.000000   0.000000
    27  H    0.004675  -0.042804   0.373357  -0.040859   0.000000  -0.000000
    28  H    0.000431   0.004875  -0.037405   0.365241  -0.000000  -0.000000
              19         20         21         22         23         24
     1  C   -0.043280   0.004462   0.004814  -0.000010  -0.000000   0.000000
     2  C    0.004619   0.000170  -0.036734  -0.000009   0.000000  -0.000000
     3  C    0.377470  -0.042370   0.000351  -0.000020  -0.000000   0.000000
     4  C   -0.038327   0.362323   0.005921   0.004358  -0.000005  -0.000022
     5  C    0.003445  -0.027815  -0.047847  -0.022376  -0.000275   0.000011
     6  C    0.000728   0.005455   0.363919  -0.004930   0.000004   0.000000
     7  N   -0.000089  -0.008166  -0.008911   0.307460   0.003708   0.000072
     8  C   -0.000001  -0.001135   0.000059  -0.017867  -0.022275  -0.001638
     9  O   -0.000000   0.018908   0.000004   0.003300   0.003104   0.014907
    10  N   -0.000000   0.000193   0.000006   0.000794   0.310079  -0.007861
    11  C   -0.000000   0.000005   0.000000  -0.000220  -0.028085  -0.030390
    12  C    0.000000  -0.000018  -0.000000  -0.000003   0.004982   0.364482
    13  C    0.000000  -0.000000  -0.000000  -0.000000  -0.000026  -0.043722
    14  C   -0.000000   0.000000   0.000000  -0.000000  -0.000009   0.004653
    15  C    0.000000  -0.000000  -0.000000   0.000000   0.000126   0.000158
    16  C   -0.000000   0.000000   0.000000  -0.000004  -0.007008   0.005844
    17  H   -0.005010  -0.000144  -0.000182  -0.000000  -0.000000  -0.000000
    18  H   -0.000190   0.000013  -0.005597  -0.000008   0.000000  -0.000000
    19  H    0.534884  -0.005135   0.000018   0.000003   0.000000  -0.000000
    20  H   -0.005135   0.468464  -0.000151  -0.000213  -0.000012   0.000117
    21  H    0.000018  -0.000151   0.566797   0.005821  -0.000008   0.000000
    22  H    0.000003  -0.000213   0.005821   0.374296   0.002910  -0.000010
    23  H    0.000000  -0.000012  -0.000008   0.002910   0.390215  -0.000238
    24  H   -0.000000   0.000117   0.000000  -0.000010  -0.000238   0.491204
    25  H    0.000000  -0.000000  -0.000000   0.000000   0.000003  -0.005289
    26  H    0.000000  -0.000000  -0.000000  -0.000000  -0.000000  -0.000156
    27  H   -0.000000   0.000000   0.000000  -0.000000  -0.000017   0.000016
    28  H   -0.000000   0.000000   0.000000  -0.000008   0.005525  -0.000164
              25         26         27         28
     1  C   -0.000000  -0.000000   0.000000   0.000000
     2  C    0.000000   0.000000   0.000000  -0.000000
     3  C    0.000000  -0.000000   0.000000  -0.000000
     4  C    0.000000   0.000000  -0.000000  -0.000000
     5  C   -0.000000  -0.000000   0.000000   0.000000
     6  C   -0.000000  -0.000000  -0.000000   0.000000
     7  N   -0.000000   0.000000  -0.000000   0.000000
     8  C   -0.000005   0.000000   0.000001   0.000061
     9  O   -0.000000   0.000000  -0.000000   0.000004
    10  N   -0.000107   0.000005  -0.000164  -0.009337
    11  C    0.003503   0.000681   0.003845  -0.048957
    12  C   -0.039299   0.004728   0.000708   0.005634
    13  C    0.376547  -0.043404   0.004675   0.000431
    14  C   -0.043993   0.375329  -0.042804   0.004875
    15  C    0.004695  -0.044489   0.373357  -0.037405
    16  C    0.000790   0.005103  -0.040859   0.365241
    17  H   -0.000000  -0.000000   0.000000  -0.000000
    18  H   -0.000000   0.000000  -0.000000  -0.000000
    19  H    0.000000   0.000000  -0.000000  -0.000000
    20  H   -0.000000  -0.000000   0.000000   0.000000
    21  H   -0.000000  -0.000000   0.000000   0.000000
    22  H    0.000000  -0.000000  -0.000000  -0.000008
    23  H    0.000003  -0.000000  -0.000017   0.005525
    24  H   -0.005289  -0.000156   0.000016  -0.000164
    25  H    0.545784  -0.005206  -0.000196   0.000018
    26  H   -0.005206   0.561050  -0.005431  -0.000192
    27  H   -0.000196  -0.005431   0.555805  -0.005600
    28  H    0.000018  -0.000192  -0.005600   0.577768
 Mulliken charges:
               1
     1  C   -0.162917
     2  C   -0.155961
     3  C   -0.162280
     4  C   -0.175598
     5  C    0.286573
     6  C   -0.218374
     7  N   -0.745097
     8  C    0.772220
     9  O   -0.503601
    10  N   -0.755859
    11  C    0.330187
    12  C   -0.175532
    13  C   -0.161969
    14  C   -0.171062
    15  C   -0.155992
    16  C   -0.225244
    17  H    0.161464
    18  H    0.165838
    19  H    0.170863
    20  H    0.225048
    21  H    0.151719
    22  H    0.346737
    23  H    0.337301
    24  H    0.208027
    25  H    0.162757
    26  H    0.151982
    27  H    0.156664
    28  H    0.142106
 Sum of Mulliken charges =  -0.00000
 Mulliken charges with hydrogens summed into heavy atoms:
               1
     1  C   -0.001453
     2  C    0.009876
     3  C    0.008583
     4  C    0.049450
     5  C    0.286573
     6  C   -0.066656
     7  N   -0.398360
     8  C    0.772220
     9  O   -0.503601
    10  N   -0.418557
    11  C    0.330187
    12  C    0.032495
    13  C    0.000788
    14  C   -0.019081
    15  C    0.000673
    16  C   -0.083138
 Electronic spatial extent (au):  <R**2>=           5465.3497
 Charge=              0.0000 electrons
 Dipole moment (field-independent basis, Debye):
    X=             -1.5726    Y=              3.3444    Z=             -0.4613  Tot=              3.7243
 Quadrupole moment (field-independent basis, Debye-Ang):
   XX=            -82.3251   YY=            -78.4172   ZZ=            -98.9197
   XY=             -0.2709   XZ=             -0.4713   YZ=             -1.4378
 Traceless Quadrupole moment (field-independent basis, Debye-Ang):
   XX=              4.2289   YY=              8.1368   ZZ=            -12.3657
   XY=             -0.2709   XZ=             -0.4713   YZ=             -1.4378
 Octapole moment (field-independent basis, Debye-Ang**2):
  XXX=            -31.0494  YYY=             12.3363  ZZZ=              0.0940  XYY=             -4.3825
  XXY=             -3.2440  XXZ=             -4.5061  XZZ=             -0.4049  YZZ=             -0.4644
  YYZ=              0.0480  XYZ=             -5.6838
 Hexadecapole moment (field-independent basis, Debye-Ang**3):
 XXXX=          -6072.8670 YYYY=           -618.8636 ZZZZ=           -110.6802 XXXY=              0.2884
 XXXZ=            -23.3872 YYYX=             -0.9030 YYYZ=             -2.3338 ZZZX=             -0.0098
 ZZZY=             -0.1933 XXYY=          -1102.8141 XXZZ=          -1262.6890 YYZZ=           -145.8860
 XXYZ=             -8.5617 YYXZ=              1.2541 ZZXY=              0.6256
 N-N= 9.656323093163D+02 E-N=-3.527636349520D+03  KE= 6.818540686676D+02
 Calling FoFJK, ICntrl=      2127 FMM=F ISym2X=0 I1Cent= 0 IOpClX= 0 NMat=1 NMatS=1 NMatT=0.
 ***** Axes restored to original set *****
 -------------------------------------------------------------------
 Center     Atomic                   Forces (Hartrees/Bohr)
 Number     Number              X              Y              Z
 -------------------------------------------------------------------
      1        6           0.037713510   -0.015138870   -0.016492785
      2        6           0.044975892    0.024631527    0.008155631
      3        6          -0.002316792   -0.050187091   -0.028420160
      4        6          -0.029794039   -0.017854929   -0.004761914
      5        6           0.007372801   -0.001207358   -0.014204199
      6        6          -0.001751108    0.037151740    0.024985312
      7        7           0.002800924    0.068426052    0.050571324
      8        6           0.035384515    0.024042720   -0.036400054
      9        8          -0.000074028   -0.027120977   -0.003003962
     10        7          -0.100018932    0.093054346    0.071485053
     11        6           0.053456823   -0.027588274   -0.018345300
     12        6           0.024636618   -0.009434854   -0.008478768
     13        6          -0.012651561   -0.055342034   -0.015646426
     14        6          -0.041595863   -0.006334321    0.002010820
     15        6          -0.039147169    0.030484420    0.016926746
     16        6           0.027325478    0.051054369    0.016513773
     17        1          -0.037703471    0.015217438    0.016062694
     18        1          -0.036390701   -0.022620435   -0.006858041
     19        1           0.001766278    0.036921954    0.022275235
     20        1           0.032026512    0.019787206    0.005115188
     21        1          -0.000598551   -0.037946013   -0.024235452
     22        1          -0.009946013   -0.065402036   -0.028023984
     23        1           0.000971038   -0.071713671   -0.024687540
     24        1          -0.024440386    0.027474501    0.011020793
     25        1           0.011467695    0.039484990    0.013406865
     26        1           0.042566008    0.010001838   -0.001528208
     27        1           0.028678066   -0.030145835   -0.013790588
     28        1          -0.014713543   -0.039696403   -0.013652053
 -------------------------------------------------------------------
 Cartesian Forces:  Max     0.100018932 RMS     0.033077487

 GradGradGradGradGradGradGradGradGradGradGradGradGradGradGradGradGradGrad
 Berny optimization.
 FormGI is forming the generalized inverse of G from B-inverse, IUseBI=4.
 GSVD:  received Info=                   1 from GESDD.
 Internal  Forces:  Max     0.071704489 RMS     0.017141537
 Search for a local minimum.
 Step number   1 out of a maximum of  148
 All quantities printed in internal units (Hartrees-Bohrs-Radians)
 Mixed Optimization -- RFO/linear search
 Second derivative matrix not updated -- first step.
 ITU=  0
     Eigenvalues ---    0.00230   0.00887   0.01320   0.01718   0.01742
     Eigenvalues ---    0.01944   0.01958   0.02011   0.02051   0.02072
     Eigenvalues ---    0.02102   0.02110   0.02111   0.02119   0.02119
     Eigenvalues ---    0.02123   0.02123   0.02124   0.02124   0.02127
     Eigenvalues ---    0.02127   0.02159   0.02179   0.02196   0.02331
     Eigenvalues ---    0.14672   0.15367   0.15997   0.15997   0.16000
     Eigenvalues ---    0.16000   0.16000   0.16000   0.16000   0.16000
     Eigenvalues ---    0.16000   0.16000   0.21994   0.22000   0.22000
     Eigenvalues ---    0.22000   0.22198   0.22240   0.23401   0.23430
     Eigenvalues ---    0.24403   0.24779   0.24837   0.25000   0.29929
     Eigenvalues ---    0.36858   0.40458   0.41443   0.41750   0.42048
     Eigenvalues ---    0.42477   0.42477   0.42477   0.42477   0.42477
     Eigenvalues ---    0.42477   0.42477   0.42477   0.42478   0.42478
     Eigenvalues ---    0.44545   0.45214   0.45833   0.45954   0.45957
     Eigenvalues ---    0.46079   0.46080   0.47043   0.48926   0.54662
     Eigenvalues ---    0.58474   0.58554   0.94151
 RFO step:  Lambda=-8.47618379D-02 EMin= 2.30000000D-03
 Linear search not attempted -- first point.
 Maximum step size (   0.300) exceeded in Quadratic search.
    -- Step size scaled by   0.707
 Iteration  1 RMS(Cart)=  0.15746548 RMS(Int)=  0.00392410
 Iteration  2 RMS(Cart)=  0.01421977 RMS(Int)=  0.00024261
 Iteration  3 RMS(Cart)=  0.00007840 RMS(Int)=  0.00024127
 Iteration  4 RMS(Cart)=  0.00000001 RMS(Int)=  0.00024127
 Variable       Old X    -DE/DX   Delta X   Delta X   Delta X     New X
                                 (Linear)    (Quad)   (Total)
    R1        2.64025  -0.00585   0.00000  -0.00768  -0.00768   2.63257
    R2        2.63999  -0.00389   0.00000  -0.00505  -0.00505   2.63494
    R3        1.95020   0.04371   0.00000   0.06070   0.06070   2.01089
    R4        2.64214  -0.00810   0.00000  -0.01061  -0.01062   2.63153
    R5        1.95020   0.04338   0.00000   0.06023   0.06023   2.01043
    R6        2.64145  -0.00474   0.00000  -0.00607  -0.00607   2.63538
    R7        1.95021   0.04312   0.00000   0.05987   0.05987   2.01007
    R8        2.65610  -0.00702   0.00000  -0.00925  -0.00924   2.64686
    R9        1.95020   0.03798   0.00000   0.05274   0.05274   2.00294
   R10        2.64532  -0.00238   0.00000  -0.00310  -0.00309   2.64223
   R11        2.76062  -0.02507   0.00000  -0.03913  -0.03913   2.72148
   R12        1.95020   0.04502   0.00000   0.06251   0.06251   2.01271
   R13        2.60965  -0.00526   0.00000  -0.00649  -0.00649   2.60316
   R14        1.78869   0.07170   0.00000   0.07577   0.07577   1.86446
   R15        2.31077  -0.02468   0.00000  -0.01701  -0.01701   2.29375
   R16        2.88104  -0.05546   0.00000  -0.10216  -0.10216   2.77888
   R17        2.55434   0.04825   0.00000   0.05406   0.05406   2.60840
   R18        1.78803   0.07090   0.00000   0.07484   0.07484   1.86287
   R19        2.62519   0.00935   0.00000   0.01239   0.01240   2.63759
   R20        2.67977  -0.00412   0.00000  -0.00556  -0.00556   2.67420
   R21        2.64147  -0.00328   0.00000  -0.00380  -0.00380   2.63767
   R22        1.95021   0.03832   0.00000   0.05321   0.05321   2.00341
   R23        2.63997  -0.00615   0.00000  -0.00809  -0.00809   2.63187
   R24        1.95020   0.04321   0.00000   0.06000   0.06000   2.01019
   R25        2.64027  -0.00391   0.00000  -0.00565  -0.00566   2.63461
   R26        1.95020   0.04375   0.00000   0.06075   0.06075   2.01095
   R27        2.64217  -0.00991   0.00000  -0.01335  -0.01335   2.62882
   R28        1.95019   0.04382   0.00000   0.06085   0.06085   2.01104
   R29        1.95019   0.04445   0.00000   0.06172   0.06172   2.01192
    A1        2.09353  -0.00279   0.00000  -0.00659  -0.00660   2.08693
    A2        2.09483   0.00094   0.00000   0.00197   0.00197   2.09680
    A3        2.09483   0.00185   0.00000   0.00462   0.00463   2.09945
    A4        2.09462   0.00033   0.00000   0.00054   0.00053   2.09515
    A5        2.09426   0.00107   0.00000   0.00329   0.00330   2.09756
    A6        2.09431  -0.00140   0.00000  -0.00383  -0.00383   2.09048
    A7        2.09372   0.00573   0.00000   0.01348   0.01349   2.10721
    A8        2.09473  -0.00106   0.00000  -0.00153  -0.00153   2.09320
    A9        2.09473  -0.00467   0.00000  -0.01195  -0.01196   2.08278
   A10        2.10309  -0.00649   0.00000  -0.01470  -0.01468   2.08841
   A11        2.09005   0.00282   0.00000   0.00611   0.00610   2.09615
   A12        2.09005   0.00367   0.00000   0.00859   0.00858   2.09863
   A13        2.07719   0.00344   0.00000   0.00784   0.00782   2.08501
   A14        2.16376   0.00694   0.00000   0.01493   0.01491   2.17867
   A15        2.03683  -0.01017   0.00000  -0.02140  -0.02145   2.01538
   A16        2.10423  -0.00022   0.00000  -0.00057  -0.00056   2.10366
   A17        2.08948  -0.00022   0.00000  -0.00068  -0.00068   2.08880
   A18        2.08947   0.00044   0.00000   0.00125   0.00124   2.09072
   A19        2.13682   0.02216   0.00000   0.05149   0.05147   2.18829
   A20        2.02748  -0.01376   0.00000  -0.03337  -0.03342   1.99406
   A21        2.05160  -0.00687   0.00000  -0.01291  -0.01290   2.03870
   A22        2.13957   0.01723   0.00000   0.04107   0.04035   2.17991
   A23        2.00989  -0.02771   0.00000  -0.05440  -0.05516   1.95473
   A24        2.10430   0.01255   0.00000   0.03035   0.02955   2.13385
   A25        2.07961   0.02660   0.00000   0.06207   0.06235   2.14195
   A26        1.84903   0.00932   0.00000   0.03815   0.03878   1.88781
   A27        2.22724  -0.03400   0.00000  -0.09641  -0.09671   2.13053
   A28        2.21525  -0.00558   0.00000  -0.01210  -0.01214   2.20311
   A29        1.98588   0.00991   0.00000   0.02084   0.02083   2.00671
   A30        2.07487  -0.00415   0.00000  -0.00746  -0.00747   2.06740
   A31        2.11121  -0.00545   0.00000  -0.01094  -0.01093   2.10028
   A32        2.08178   0.00429   0.00000   0.01002   0.01002   2.09179
   A33        2.09004   0.00117   0.00000   0.00100   0.00099   2.09103
   A34        2.09372   0.00667   0.00000   0.01594   0.01594   2.10966
   A35        2.09473  -0.00510   0.00000  -0.01306  -0.01306   2.08167
   A36        2.09474  -0.00158   0.00000  -0.00288  -0.00288   2.09185
   A37        2.09354  -0.00363   0.00000  -0.00986  -0.00986   2.08367
   A38        2.09483   0.00214   0.00000   0.00587   0.00587   2.10071
   A39        2.09481   0.00149   0.00000   0.00399   0.00399   2.09881
   A40        2.09461   0.00163   0.00000   0.00175   0.00174   2.09635
   A41        2.09428  -0.00003   0.00000   0.00139   0.00140   2.09568
   A42        2.09430  -0.00160   0.00000  -0.00315  -0.00314   2.09115
   A43        2.09781   0.00496   0.00000   0.01078   0.01078   2.10858
   A44        2.09575  -0.00380   0.00000  -0.00919  -0.00919   2.08656
   A45        2.08947  -0.00115   0.00000  -0.00152  -0.00152   2.08795
    D1       -0.00000  -0.00012   0.00000  -0.00106  -0.00107  -0.00107
    D2        3.14159  -0.00014   0.00000  -0.00082  -0.00081   3.14078
    D3        3.14158  -0.00009   0.00000  -0.00080  -0.00080   3.14078
    D4       -0.00001  -0.00011   0.00000  -0.00056  -0.00054  -0.00055
    D5       -0.00001   0.00023   0.00000   0.00143   0.00142   0.00141
    D6       -3.14158   0.00007   0.00000   0.00079   0.00080  -3.14078
    D7       -3.14159   0.00021   0.00000   0.00116   0.00116  -3.14043
    D8        0.00002   0.00004   0.00000   0.00053   0.00054   0.00056
    D9        0.00001   0.00005   0.00000   0.00063   0.00065   0.00067
   D10        3.14159  -0.00021   0.00000  -0.00066  -0.00061   3.14098
   D11       -3.14158   0.00007   0.00000   0.00039   0.00039  -3.14119
   D12       -0.00000  -0.00019   0.00000  -0.00090  -0.00087  -0.00087
   D13        0.00001  -0.00029   0.00000  -0.00137  -0.00134  -0.00133
   D14        3.14159  -0.00004   0.00000   0.00067   0.00072  -3.14088
   D15        3.14158  -0.00012   0.00000  -0.00073  -0.00073   3.14085
   D16       -0.00002   0.00013   0.00000   0.00131   0.00133   0.00131
   D17        0.00000   0.00022   0.00000   0.00093   0.00090   0.00090
   D18        3.02621   0.00169   0.00000   0.01410   0.01424   3.04045
   D19       -3.14158  -0.00003   0.00000  -0.00111  -0.00116   3.14045
   D20       -0.11537   0.00144   0.00000   0.01206   0.01218  -0.10320
   D21       -0.00001  -0.00010   0.00000  -0.00056  -0.00057  -0.00058
   D22       -3.14159   0.00016   0.00000   0.00073   0.00070  -3.14089
   D23       -3.03453  -0.00252   0.00000  -0.01501  -0.01489  -3.04941
   D24        0.10708  -0.00226   0.00000  -0.01372  -0.01362   0.09346
   D25        0.24680  -0.00123   0.00000  -0.00494  -0.00483   0.24197
   D26        2.99260   0.00100   0.00000   0.00554   0.00550   2.99810
   D27       -3.00773   0.00101   0.00000   0.00965   0.00970  -2.99803
   D28       -0.26193   0.00324   0.00000   0.02014   0.02003  -0.24190
   D29       -0.24408   0.00468   0.00000   0.03535   0.03559  -0.20849
   D30       -3.12829  -0.00558   0.00000  -0.04111  -0.04120   3.11370
   D31       -2.98473   0.00377   0.00000   0.02880   0.02888  -2.95585
   D32        0.41424  -0.00649   0.00000  -0.04766  -0.04790   0.36634
   D33       -3.09297   0.00960   0.00000   0.05138   0.05043  -3.04254
   D34       -0.43329   0.00146   0.00000   0.02636   0.02711  -0.40618
   D35        0.30036  -0.00135   0.00000  -0.02547  -0.02621   0.27415
   D36        2.96005  -0.00949   0.00000  -0.05049  -0.04954   2.91051
   D37       -0.51608   0.00352   0.00000   0.00699   0.00623  -0.50985
   D38        2.75667   0.00204   0.00000  -0.00437  -0.00518   2.75148
   D39       -3.06019  -0.00552   0.00000  -0.01841  -0.01760  -3.07778
   D40        0.21256  -0.00700   0.00000  -0.02977  -0.02901   0.18355
   D41       -2.96674  -0.00361   0.00000  -0.02135  -0.02123  -2.98797
   D42        0.15555  -0.00281   0.00000  -0.01639  -0.01629   0.13926
   D43        0.03775  -0.00114   0.00000  -0.00763  -0.00760   0.03015
   D44       -3.12315  -0.00034   0.00000  -0.00267  -0.00266  -3.12581
   D45        2.98447   0.00193   0.00000   0.01535   0.01547   2.99993
   D46       -0.13823   0.00140   0.00000   0.01118   0.01127  -0.12696
   D47       -0.03744   0.00080   0.00000   0.00558   0.00560  -0.03184
   D48        3.12305   0.00027   0.00000   0.00142   0.00141   3.12446
   D49       -0.01940   0.00073   0.00000   0.00553   0.00556  -0.01384
   D50        3.12221   0.00061   0.00000   0.00412   0.00411   3.12633
   D51        3.14159  -0.00011   0.00000   0.00045   0.00052  -3.14107
   D52        0.00002  -0.00022   0.00000  -0.00097  -0.00093  -0.00091
   D53        0.00001  -0.00023   0.00000  -0.00183  -0.00186  -0.00184
   D54       -3.14159  -0.00019   0.00000  -0.00174  -0.00177   3.13982
   D55        3.14158  -0.00012   0.00000  -0.00042  -0.00040   3.14119
   D56       -0.00002  -0.00007   0.00000  -0.00032  -0.00031  -0.00033
   D57       -0.00000   0.00014   0.00000   0.00033   0.00030   0.00029
   D58        3.14158   0.00021   0.00000   0.00127   0.00127  -3.14034
   D59       -3.14158   0.00009   0.00000   0.00024   0.00021  -3.14137
   D60       -0.00000   0.00017   0.00000   0.00118   0.00118   0.00118
   D61        0.01883  -0.00031   0.00000  -0.00204  -0.00204   0.01679
   D62        3.14159   0.00019   0.00000   0.00203   0.00208  -3.13952
   D63       -3.12275  -0.00038   0.00000  -0.00298  -0.00301  -3.12575
   D64        0.00001   0.00011   0.00000   0.00109   0.00111   0.00112
         Item               Value     Threshold  Converged?
 Maximum Force            0.071704     0.000450     NO 
 RMS     Force            0.017142     0.000300     NO 
 Maximum Displacement     0.492388     0.001800     NO 
 RMS     Displacement     0.166332     0.001200     NO 
 Predicted change in Energy=-4.324489D-02
 GradGradGradGradGradGradGradGradGradGradGradGradGradGradGradGradGradGrad

                          Input orientation:                          
 ---------------------------------------------------------------------
 Center     Atomic      Atomic             Coordinates (Angstroms)
 Number     Number       Type             X           Y           Z
 ---------------------------------------------------------------------
      1          6           0       -4.045075    1.584581    2.114836
      2          6           0       -3.911680    0.409616    1.378372
      3          6           0       -2.923714    2.378172    2.353528
      4          6           0       -1.671845    2.009360    1.861932
      5          6           0       -1.538616    0.827910    1.121479
      6          6           0       -2.665006    0.034181    0.884375
      7          7           0       -0.330805    0.401654    0.463055
      8          6           0        0.923168    0.930419    0.676493
      9          8           0        1.150350    1.954054    1.287948
     10          7           0        1.951520    0.250093   -0.124804
     11          6           0        3.298398    0.524356    0.001454
     12          6           0        3.859570    1.743236    0.385561
     13          6           0        5.238162    1.943404    0.298059
     14          6           0        6.079917    0.931127   -0.156286
     15          6           0        5.534684   -0.297724   -0.525578
     16          6           0        4.161975   -0.506263   -0.439733
     17          1           0       -4.997144    1.873295    2.492408
     18          1           0       -4.760679   -0.203544    1.191114
     19          1           0       -3.018900    3.276078    2.915784
     20          1           0       -0.826019    2.619808    2.049916
     21          1           0       -2.569532   -0.865591    0.322509
     22          1           0       -0.371364   -0.512477    0.094060
     23          1           0        1.619603   -0.650349   -0.350224
     24          1           0        3.234469    2.525704    0.733314
     25          1           0        5.646246    2.883794    0.582127
     26          1           0        7.129649    1.093154   -0.221252
     27          1           0        6.167872   -1.079233   -0.873179
     28          1           0        3.754006   -1.448294   -0.721940
 ---------------------------------------------------------------------
                    Distance matrix (angstroms):
                    1          2          3          4          5
     1  C    0.000000
     2  C    1.393096   0.000000
     3  C    1.394350   2.408780   0.000000
     4  C    2.424174   2.794614   1.394584   0.000000
     5  C    2.800294   2.423303   2.416558   1.400659   0.000000
     6  C    2.412958   1.392544   2.778423   2.417296   1.398206
     7  N    4.233616   3.696016   3.768778   2.517929   1.440147
     8  C    5.213463   4.913209   4.439249   3.050159   2.503777
     9  O    5.273775   5.293167   4.232415   2.880504   2.920009
    10  N    6.538807   6.054924   5.868455   4.491205   3.750753
    11  C    7.714730   7.341273   6.905329   5.510892   4.974264
    12  C    8.093144   7.947109   7.091472   5.731234   5.524473
    13  C    9.466146   9.340192   8.427942   7.085073   6.917157
    14  C   10.397138  10.122212   9.458250   8.082427   7.725632
    15  C   10.113686   9.662254   9.327067   7.934539   7.349247
    16  C    8.846080   8.326358   8.144278   6.757180   6.059219
    17  H    1.064120   2.135805   2.138527   3.387274   3.864413
    18  H    2.136057   1.063875   3.375041   3.858475   3.383849
    19  H    2.134412   3.373025   1.063686   2.128317   3.377025
    20  H    3.382046   3.854507   2.133282   1.059909   2.140254
    21  H    3.375353   2.131281   3.843499   3.382456   2.137542
    22  H    4.687999   3.877311   4.469400   3.343095   2.052974
    23  H    6.569628   5.891235   6.092942   4.775072   3.784905
    24  H    7.469008   7.480734   6.369465   5.060861   5.080898
    25  H    9.897417   9.905025   8.765713   7.480441   7.492650
    26  H   11.426866  11.177521  10.457097   9.090951   8.775654
    27  H   10.969432  10.434726  10.248035   8.858973   8.185708
    28  H    8.835796   8.162467   8.288081   6.933370   6.049061
                    6          7          8          9         10
     6  C    0.000000
     7  N    2.400218   0.000000
     8  C    3.704248   1.377532   0.000000
     9  O    4.290190   2.298742   1.213803   0.000000
    10  N    4.730473   2.361685   1.470520   2.353981   0.000000
    11  C    6.048306   3.660498   2.502455   2.883264   1.380305
    12  C    6.763119   4.400578   3.060681   2.863323   2.476005
    13  C    8.151624   5.780796   4.448429   4.205972   3.721308
    14  C    8.852185   6.462297   5.223561   5.237636   4.184312
    15  C    8.326647   5.989197   4.921320   5.251834   3.646887
    16  C    6.975171   4.671660   3.714820   4.255341   2.357406
    17  H    3.377422   5.297048   6.263917   6.264896   7.600560
    18  H    2.131301   4.529914   5.818661   6.293240   6.855001
    19  H    3.842104   4.637246   5.104551   4.666931   6.565580
    20  H    3.380211   2.771925   2.792844   2.220328   4.249668
    21  H    1.065081   2.576347   3.943337   4.766549   4.678114
    22  H    2.486810   0.986630   2.024103   3.134447   2.454630
    23  H    4.511174   2.360555   2.009477   3.112350   0.985788
    24  H    6.405804   4.158823   2.808964   2.231133   2.749679
    25  H    8.791392   6.473047   5.111951   4.644963   4.592073
    26  H    9.913582   7.523618   6.273184   6.226624   5.247197
    27  H    9.074603   6.797893   5.826415   6.248746   4.483837
    28  H    6.780980   4.638124   3.953168   4.732298   2.547556
                   11         12         13         14         15
    11  C    0.000000
    12  C    1.395750   0.000000
    13  C    2.421643   1.395794   0.000000
    14  C    2.815527   2.425503   1.392726   0.000000
    15  C    2.440196   2.793152   2.406025   1.394177   0.000000
    16  C    1.415128   2.415120   2.775497   2.413490   1.391111
    17  H    8.765871   9.104784  10.468121  11.428235  11.168749
    18  H    8.178866   8.873982  10.265659  10.982782  10.437931
    19  H    7.481547   7.487655   8.763994   9.885590   9.888318
    20  H    5.059439   5.049079   6.348292   7.443852   7.456789
    21  H    6.038843   6.938537   8.297658   8.847057   8.168234
    22  H    3.814545   4.803542   6.126969   6.615565   5.942347
    23  H    2.078933   3.359774   4.499088   4.736358   3.934839
    24  H    2.131924   1.060160   2.131503   3.380923   3.853251
    25  H    3.378834   2.128785   1.063749   2.132190   3.370684
    26  H    3.879641   3.388842   2.137833   1.064148   2.138006
    27  H    3.401524   3.857333   3.372313   2.136169   1.064195
    28  H    2.149936   3.379876   3.840147   3.375126   2.129128
                   16         17         18         19         20
    16  C    0.000000
    17  H    9.907028   0.000000
    18  H    9.075519   2.462222   0.000000
    19  H    8.782401   2.461807   4.256295   0.000000
    20  H    6.391459   4.260442   4.918374   2.447273   0.000000
    21  H    6.784048   4.254792   2.448246   4.907181   4.262837
    22  H    4.564662   5.730778   4.534870   5.415230   3.720657
    23  H    2.548025   7.630902   6.579008   6.899228   4.736630
    24  H    3.380700   8.442719   8.460542   6.665648   4.269644
    25  H    3.839238  10.860572  10.872286   8.982461   6.641860
    26  H    3.378307  12.451172  12.043924  10.844317   8.413176
    27  H    2.130679  12.029222  11.156225  10.849966   8.434566
    28  H    1.064661   9.896848   8.815272   9.023579   6.723783
                   21         22         23         24         25
    21  H    0.000000
    22  H    2.238039   0.000000
    23  H    4.248264   2.044590   0.000000
    24  H    6.734692   4.758280   3.724133   0.000000
    25  H    9.034616   6.927085   5.438134   2.442899   0.000000
    26  H    9.909918   7.677414   5.780748   4.258617   2.460141
    27  H    8.821425   6.634635   4.598280   4.917443   4.253892
    28  H    6.435646   4.308165   2.308802   4.263842   4.903892
                   26         27         28
    26  H    0.000000
    27  H    2.463593   0.000000
    28  H    4.254952   2.446595   0.000000
 Stoichiometry    C13H12N2O
 Framework group  C1[X(C13H12N2O)]
 Deg. of freedom    78
 Full point group                 C1      NOp   1
 Largest Abelian subgroup         C1      NOp   1
 Largest concise Abelian subgroup C1      NOp   1
                         Standard orientation:                         
 ---------------------------------------------------------------------
 Center     Atomic      Atomic             Coordinates (Angstroms)
 Number     Number       Type             X           Y           Z
 ---------------------------------------------------------------------
      1          6           0       -5.203055   -0.406846   -0.096267
      2          6           0       -4.837656    0.934630   -0.008841
      3          6           0       -4.213650   -1.388749   -0.130281
      4          6           0       -2.863807   -1.042557   -0.076075
      5          6           0       -2.497286    0.306430    0.011918
      6          6           0       -3.491926    1.288548    0.045316
      7          7           0       -1.150300    0.782635    0.193250
      8          6           0       -0.009373    0.026315    0.038781
      9          8           0        0.013282   -1.182564   -0.068065
     10          7           0        1.210199    0.817798    0.259303
     11          6           0        2.476831    0.310833    0.049849
     12          6           0        2.861888   -1.024880    0.175242
     13          6           0        4.210750   -1.378484    0.113802
     14          6           0        5.194079   -0.413331   -0.089247
     15          6           0        4.821948    0.922359   -0.234786
     16          6           0        3.479709    1.283204   -0.176684
     17          1           0       -6.230967   -0.679039   -0.136989
     18          1           0       -5.584537    1.691815    0.017026
     19          1           0       -4.486190   -2.414711   -0.197734
     20          1           0       -2.120001   -1.797156   -0.103284
     21          1           0       -3.219072    2.315954    0.111530
     22          1           0       -1.051075    1.760449    0.106807
     23          1           0        0.993499    1.766505    0.101902
     24          1           0        2.127437   -1.773394    0.330963
     25          1           0        4.486286   -2.399847    0.225419
     26          1           0        6.220198   -0.691837   -0.133112
     27          1           0        5.564180    1.668702   -0.391547
     28          1           0        3.203984    2.305201   -0.290694
 ---------------------------------------------------------------------
 Rotational constants (GHZ):      2.2506823      0.1999459      0.1841908
 Basis read from rwf:  (6D, 7F)
 There are   264 symmetry adapted cartesian basis functions of A   symmetry.
 There are   264 symmetry adapted basis functions of A   symmetry.
   264 basis functions,   496 primitive gaussians,   264 cartesian basis functions
    56 alpha electrons       56 beta electrons
       nuclear repulsion energy       961.7748464989 Hartrees.
 NAtoms=   28 NActive=   28 NUniq=   28 SFac= 1.00D+00 NAtFMM=   60 NAOKFM=F Big=F
 Integral buffers will be    131072 words long.
 Raffenetti 2 integral format.
 Two-electron integral symmetry is turned on.
 One-electron integrals computed using PRISM.
 NBasis=   264 RedAO= T EigKep=  4.51D-04  NBF=   264
 NBsUse=   264 1.00D-06 EigRej= -1.00D+00 NBFU=   264
 Initial guess from the checkpoint file:  "diph.M062X.chk"
 B after Tr=     0.000000    0.000000    0.000000
         Rot=    0.999966   -0.008271   -0.000562   -0.000463 Ang=  -0.95 deg.
 ExpMin= 1.61D-01 ExpMax= 5.48D+03 ExpMxC= 8.25D+02 IAcc=2 IRadAn=         4 AccDes= 0.00D+00
 Harris functional with IExCor= 1009 and IRadAn=       4 diagonalized for initial guess.
 HarFok:  IExCor= 1009 AccDes= 0.00D+00 IRadAn=         4 IDoV= 1 UseB2=F ITyADJ=14
 ICtDFT=  3500011 ScaDFX=  1.000000  1.000000  1.000000  1.000000
 FoFCou: FMM=F IPFlag=           0 FMFlag=      100000 FMFlg1=           0
         NFxFlg=           0 DoJE=T BraDBF=F KetDBF=T FulRan=T
         wScrn=  0.000000 ICntrl=     500 IOpCl=  0 I1Cent=   200000004 NGrid=           0
         NMat0=    1 NMatS0=      1 NMatT0=    0 NMatD0=    1 NMtDS0=    0 NMtDT0=    0
 Petite list used in FoFCou.
 Requested convergence on RMS density matrix=1.00D-08 within 128 cycles.
 Requested convergence on MAX density matrix=1.00D-06.
 Requested convergence on             energy=1.00D-06.
 No special actions if energy rises.
 Integral accuracy reduced to 1.0D-05 until final iterations.
 Initial convergence to 1.0D-05 achieved.  Increase integral accuracy.
 SCF Done:  E(RM062X) =  -687.055591457     A.U. after   13 cycles
            NFock= 13  Conv=0.41D-08     -V/T= 2.0084
 Calling FoFJK, ICntrl=      2127 FMM=F ISym2X=0 I1Cent= 0 IOpClX= 0 NMat=1 NMatS=1 NMatT=0.
 ***** Axes restored to original set *****
 -------------------------------------------------------------------
 Center     Atomic                   Forces (Hartrees/Bohr)
 Number     Number              X              Y              Z
 -------------------------------------------------------------------
      1        6           0.013987396   -0.002849558   -0.004852556
      2        6           0.016410699    0.009763485    0.003691380
      3        6           0.000442844   -0.020245957   -0.010950947
      4        6          -0.008590057   -0.007939247   -0.002313053
      5        6           0.006946487   -0.002472128   -0.012830470
      6        6          -0.004723058    0.013134579    0.011083795
      7        7          -0.005740607    0.023051058    0.028115501
      8        6           0.030130235    0.005468971   -0.030992443
      9        8          -0.002489133   -0.008828905    0.002271757
     10        7          -0.061762212    0.046317949    0.046846777
     11        6           0.028488184   -0.020795135   -0.014637448
     12        6           0.005555448   -0.003274652   -0.003305674
     13        6          -0.006914101   -0.022206830   -0.004537068
     14        6          -0.014599472   -0.000221661    0.001249828
     15        6          -0.013670599    0.012331609    0.007347478
     16        6           0.010085864    0.021237012    0.006743101
[...]
 0010450,0.00012092,-0.00009583,-0.00007148,-0.00005472,-0.00120892,-0.
 00180946,-0.00091800,0.07734461,-0.00017285,0.00033380,0.00015283,0.00
 025893,-0.00062096,0.00008917,-0.00040855,-0.00030237,-0.00080272,0.00
 087131,0.00211635,0.00027084,0.00098652,-0.01039511,-0.00577085,-0.002
 49359,0.00174606,0.00213506,-0.02677735,-0.32477790,-0.19842709,0.0013
 8686,-0.01421928,-0.00515608,-0.00314869,0.00258181,-0.00148606,0.0037
 1368,0.00005832,0.00062008,-0.00105843,-0.00045018,0.00080686,0.000165
 19,-0.00001457,0.00000768,-0.00009601,0.00002116,0.00002090,0.00009417
 ,-0.00000437,-0.00001102,-0.00005385,-0.00001387,-0.00002426,0.0002713
 8,0.00006592,0.00000244,0.00001385,0.00000014,-0.00001281,-0.00006755,
 -0.00000408,0.00002987,0.00017648,-0.00005152,0.00005075,-0.00007994,-
 0.00014824,0.00010303,0.00035354,0.00025398,-0.00043882,0.02543449,0.3
 4170775,-0.00007121,0.00028209,0.00034555,0.00027584,0.00016797,-0.000
 72864,-0.00038436,-0.00109175,0.00040505,0.00184617,0.00016045,0.00151
 206,-0.00042966,-0.00869665,-0.00787269,-0.00187911,0.00117403,0.00011
 953,-0.00671126,-0.20479437,-0.13374294,0.00043775,0.00369199,-0.00428
 469,0.00144117,-0.00085916,0.00504051,0.00099314,0.00075574,-0.0018912
 2,-0.00028018,0.00039572,-0.00058508,0.00002967,-0.00006483,-0.0000816
 2,-0.00003258,0.00005465,0.00002443,0.00000353,-0.00001160,-0.00001462
 ,0.00000918,-0.00000206,0.00001143,-0.00000263,0.00004187,-0.00007044,
 0.00001802,0.00001383,0.00001895,-0.00003266,0.00001177,-0.00002147,0.
 00015440,0.00006299,-0.00016340,-0.00016616,0.00015966,-0.00018072,0.0
 0050916,-0.00011125,0.00069740,0.00351813,0.20892420,0.13827899,0.0000
 0971,-0.00002169,-0.00002385,-0.00007731,0.00000536,0.00002983,-0.0000
 8328,-0.00013899,-0.00011535,0.00038102,-0.00003520,-0.00003215,-0.000
 76629,-0.00018551,-0.00021282,0.00014794,0.00014126,0.00004091,-0.0020
 2214,-0.00079089,0.00026735,0.01708430,0.02342292,0.00322422,-0.004755
 66,0.00442880,0.00474237,-0.09082304,-0.08564624,-0.01383913,-0.006614
 47,-0.03383916,-0.01109418,-0.00616813,0.00128306,0.00159960,0.0007973
 1,-0.00178028,-0.00050818,0.00007524,0.00065068,0.00022245,-0.00058167
 ,0.00030574,0.00006832,0.00082682,-0.00312222,-0.00135822,0.00000047,-
 0.00001998,-0.00000332,0.00001376,-0.00000156,0.00000075,0.00003675,-0
 .00001708,-0.00001407,0.00021315,-0.00009925,-0.00008843,-0.00006061,-
 0.00007675,-0.00005400,-0.00456200,0.00063485,0.00069370,0.09806822,-0
 .00007308,0.00000317,0.00001886,0.00004670,-0.00002239,-0.00001538,0.0
 0013091,0.00007450,0.00004177,-0.00026327,-0.00003283,0.00001979,0.001
 13570,-0.00013147,-0.00012764,-0.00020444,0.00001864,0.00010441,-0.002
 56614,0.00074523,0.00149387,-0.00886555,-0.01569958,-0.00137157,0.0030
 2749,0.00127921,-0.00256377,-0.08601675,-0.39584187,-0.12473757,-0.003
 50360,-0.00629328,-0.00047529,0.00041826,0.00217142,0.00007772,0.00000
 898,-0.00047603,-0.00055468,0.00031450,0.00032011,0.00000184,-0.000353
 61,-0.00053755,0.00014129,0.00357365,0.00248536,0.00052797,-0.00000363
 ,0.00001047,-0.00000143,-0.00003105,0.00000298,-0.00000191,-0.00003079
 ,0.00001633,0.00001468,-0.00005074,0.00010278,0.00002672,0.00003575,0.
 00002669,-0.00002879,0.00090732,0.00204948,-0.00024015,0.09260805,0.41
 005475,-0.00006774,0.00002526,0.00001448,0.00004985,-0.00003896,0.0000
 0034,0.00005716,-0.00000739,-0.00000579,-0.00013877,0.00009628,0.00000
 191,0.00067513,0.00022325,-0.00116166,-0.00020980,0.00008926,0.0000082
 6,-0.00178797,0.00170526,-0.00119794,-0.00681480,-0.01201665,-0.009456
 00,0.00398957,-0.00318996,0.00374859,-0.01381586,-0.11812356,-0.044952
 07,-0.00073440,0.00361907,-0.00064059,0.00161920,0.00007413,0.00137179
 ,-0.00002082,-0.00015593,0.00098627,0.00008310,-0.00013797,0.00008579,
 -0.00004027,0.00000305,-0.00079817,0.00095202,0.00175505,-0.00050878,-
 0.00000243,-0.00000615,0.00001356,-0.00002062,-0.00000949,0.00001386,-
 0.00000996,0.00000812,0.00001035,0.00002587,-0.00007756,0.00015075,0.0
 0000918,-0.00003385,0.00003603,0.00069699,-0.00096363,0.00295618,0.015
 42149,0.12781564,0.04920918,0.00006310,-0.00001826,-0.00002130,-0.0000
 2290,0.00000769,-0.00000117,-0.00001499,0.00007536,0.00002953,0.000025
 85,-0.00011044,-0.00008261,-0.00057433,0.00018000,0.00021443,0.0001308
 7,-0.00001403,-0.00003560,0.00074850,0.00124352,0.00048976,-0.00019592
 ,-0.00754859,-0.00348147,-0.00687605,0.00346941,0.00333740,-0.00234799
 ,0.00274644,0.00100709,0.01528325,-0.01081320,-0.00542270,-0.16218115,
 0.13316914,0.06590690,-0.01212351,0.02143959,0.00993642,-0.00426769,-0
 .00249718,0.00116132,-0.00036290,-0.00101159,-0.00029343,-0.00106465,-
 0.00296944,0.00029330,0.00002003,-0.00000233,0.00000095,0.00002097,0.0
 0000593,0.00000200,0.00000614,-0.00001449,-0.00000833,-0.00009958,0.00
 004603,0.00010520,-0.00001079,-0.00000321,0.00000651,0.00024869,-0.000
 03681,0.00004666,-0.00002640,0.00018069,-0.00007378,0.17274262,0.00005
 268,-0.00001680,-0.00001527,-0.00001696,-0.00000159,0.00000549,-0.0000
 0673,0.00004757,0.00004296,0.00008113,-0.00011970,-0.00007404,-0.00042
 795,0.00013797,0.00013097,0.00009416,-0.00001516,-0.00002128,0.0006148
 6,0.00070579,0.00012876,-0.00170587,-0.00418055,-0.00148288,0.00338844
 ,0.00194171,0.00003113,0.00022849,0.00141858,0.00186036,0.01805136,-0.
 01489056,-0.00975658,0.12845803,-0.22049420,-0.08438188,-0.00506960,0.
 00969339,0.00314192,-0.00243946,0.00158448,-0.00160552,-0.00113454,-0.
 00029143,0.00022676,-0.00350339,-0.00291103,-0.00243225,0.00001235,0.0
 0000181,-0.00000383,0.00001256,0.00000328,-0.00000055,0.00001063,-0.00
 000903,-0.00001321,-0.00004884,0.00009829,0.00004631,-0.00000783,-0.00
 000237,-0.00000404,0.00009298,0.00007658,-0.00000437,0.00008538,-0.000
 11266,0.00001300,-0.13790821,0.22775030,0.00000006,0.00000560,-0.00000
 079,-0.00000252,0.00000524,-0.00002037,-0.00001644,0.00001482,-0.00003
 527,0.00002989,0.00002122,-0.00002235,0.00004130,-0.00003995,0.0000657
 5,-0.00000805,0.00000022,-0.00001491,0.00010447,-0.00034921,0.00014811
 ,-0.00081877,0.00113957,0.00067814,0.00276779,-0.00018254,-0.00152258,
 0.00037438,0.00115703,-0.00345494,0.00416290,-0.00479872,0.00201065,0.
 06468443,-0.08633836,-0.07813280,0.00075532,-0.00092532,0.00255816,0.0
 0101200,-0.00160114,0.00655734,-0.00037046,0.00015519,-0.00019126,0.00
 003201,-0.00246311,0.00500699,-0.00000171,-0.00000666,0.00000928,-0.00
 000199,-0.00000290,0.00000105,0.00000541,-0.00000334,0.00000397,0.0000
 4967,-0.00002414,0.00005064,0.00000082,-0.00001344,0.00001000,-0.00001
 578,-0.00007882,0.00014142,0.00000362,0.00003773,-0.00028573,-0.072125
 99,0.09273342,0.07078449,-0.00001807,0.00000671,0.00000611,0.00000939,
 -0.00000183,-0.00000257,0.00001039,-0.00000672,-0.00000717,-0.00003797
 ,0.00002444,0.00001932,0.00014978,-0.00006773,-0.00006510,-0.00004292,
 0.00000580,0.00000976,-0.00032241,0.00007903,0.00009217,0.00062361,-0.
 00057516,-0.00038892,-0.00003854,0.00036440,0.00017339,-0.00040236,-0.
 00150038,-0.00035996,-0.00522515,-0.00034357,0.00194420,-0.00733270,-0
 .02859899,-0.00780328,-0.10021591,-0.09732745,-0.02265672,0.01195150,0
 .01794058,0.00469915,-0.00175390,0.00281222,0.00244805,-0.00118500,0.0
 0064158,0.00034506,-0.00000267,0.00000041,0.00000117,-0.00000431,-0.00
 000040,0.00000081,-0.00000595,0.00000391,0.00000495,0.00000577,-0.0000
 1582,-0.00000826,0.00000458,0.00000370,0.00000228,0.00005090,0.0000202
 2,0.00001269,-0.00050138,-0.00009565,0.00002567,0.00093015,0.00053697,
 -0.00074040,0.10215835,-0.00001752,0.00000399,0.00000533,0.00000822,0.
 00000012,-0.00000010,0.00000896,-0.00001051,-0.00000755,-0.00002792,0.
 00002415,0.00002199,0.00013673,-0.00006195,-0.00006190,-0.00003795,0.0
 0000313,0.00000876,-0.00028730,-0.00001294,0.00005922,0.00047498,-0.00
 026380,-0.00022116,-0.00012390,0.00013997,0.00009112,-0.00044113,-0.00
 004320,0.00001315,-0.00031419,0.00241703,-0.00169727,-0.00017262,-0.00
 046427,-0.00134064,-0.09760952,-0.28821443,-0.06829013,-0.01116061,-0.
 01514345,-0.00451486,0.00355790,-0.00116745,-0.00335648,0.00067220,0.0
 0057308,0.00022835,-0.00000372,0.00000079,0.00000067,-0.00000451,-0.00
 000107,-0.00000023,-0.00000310,0.00000427,0.00000267,0.00000969,-0.000
 00951,-0.00001247,0.00000385,0.00000305,0.00000066,0.00001506,0.000012
 08,0.00000137,-0.00002492,0.00001291,0.00007142,0.00018829,0.00011608,
 0.00151798,0.10541644,0.30281206,-0.00000254,-0.00000005,-0.00000097,-
 0.00000010,0.00000098,-0.00000046,0.00000068,-0.00000007,-0.00000316,-
 0.00000076,0.00000586,-0.00000038,0.00001373,-0.00001100,-0.00000172,-
 0.00000432,0.00000133,-0.00000164,-0.00003841,0.00000195,-0.00001632,0
 .00006487,-0.00001127,0.00004775,0.00000613,-0.00001719,0.00001292,-0.
 00002515,0.00023464,0.00028331,0.00203862,-0.00175530,0.00660336,0.001
 87299,0.00343784,0.00432647,-0.02286740,-0.06834280,-0.05804781,-0.005
 15130,-0.00948970,0.00128787,0.00269325,-0.00319139,0.00540224,0.00033
 986,0.00021544,-0.00041851,-0.00000068,-0.00000047,0.00000101,-0.00000
 079,-0.00000097,0.00000053,0.00000114,-0.00000078,0.00000160,0.0000046
 4,-0.00000246,0.00000482,0.00000052,-0.00000133,0.00000097,-0.00000179
 ,-0.00000206,0.00000045,0.00006187,0.00008319,-0.00015823,-0.00093747,
 0.00151673,-0.00379535,0.02305723,0.07602028,0.04873146,-0.00001657,0.
 00000293,0.00000398,0.00000670,0.00000031,-0.00000107,0.00000776,-0.00
 001171,-0.00000995,-0.00002213,0.00002933,0.00002239,0.00013490,-0.000
 06069,-0.00005419,-0.00003646,0.00000329,0.00000724,-0.00025754,-0.000
 06244,0.00003819,0.00034417,0.00022508,-0.00000321,-0.00033970,-0.0001
 1786,0.00004151,-0.00001350,0.00008723,-0.00012494,0.00063612,0.000398
 98,-0.00001568,0.00008994,0.00313813,0.00221007,-0.01364456,-0.0057289
 1,0.00071943,-0.33787036,-0.04929442,0.03449515,-0.00741589,0.00055369
 ,0.00177107,0.00143350,-0.00245440,0.00008777,-0.00000478,0.00000042,0
 .00000131,-0.00000528,-0.00000181,-0.00000023,-0.00000155,0.00000360,0
 .00000278,0.00001565,-0.00001182,-0.00001184,0.00000398,0.00000161,0.0
 0000085,0.00000798,0.00000379,0.00000221,0.00003199,-0.00002793,-0.000
 00859,-0.00055747,-0.00042838,-0.00001552,0.00061290,0.00039618,-0.000
 65637,0.35682520,0.00000046,-0.00000052,0.00000009,0.00000115,-0.00000
 024,0.00000118,0.00000208,0.00000156,0.00000385,-0.00000253,-0.0000043
 5,-0.00000141,-0.00000366,0.00000026,-0.00000747,-0.00000119,-0.000001
 96,0.00000072,-0.00000472,0.00007639,0.00000163,0.00002007,-0.00039802
 ,-0.00013331,0.00024027,0.00024775,0.00005103,-0.00010916,0.00029369,0
 .00049332,0.00028110,-0.00140212,-0.00046748,0.00206965,-0.00263546,-0
 .00359526,0.02372180,0.00864887,-0.00180264,-0.04915849,-0.06596187,-0
 .00235587,-0.02888580,0.00027477,0.00431636,-0.00147850,-0.00409909,-0
 .00350882,0.00000025,0.00000085,-0.00000050,0.00000008,0.00000019,-0.0
 0000020,-0.00000035,0.00000029,-0.00000016,-0.00000377,0.00000402,0.00
 000026,0.00000078,0.00000172,-0.00000009,0.00001580,0.00000289,-0.0000
 0229,0.00015884,-0.00002788,-0.00004286,0.00095888,0.00041213,-0.00011
 092,-0.00031088,0.00033875,0.00154929,0.05330797,0.06388329,0.00000308
 ,0.00000070,-0.00000105,-0.00000075,0.00000189,-0.00000430,-0.00000371
 ,0.00000726,-0.00000582,0.00000331,-0.00000233,-0.00000721,-0.00001652
 ,-0.00000136,0.00003102,0.00000469,0.00000139,-0.00000622,0.00006593,-
 0.00000348,0.00008551,-0.00006879,-0.00005654,-0.00019933,0.00005347,0
 .00010741,-0.00003094,-0.00020003,0.00049207,-0.00084750,-0.00002772,-
 0.00055039,-0.00030846,0.00178248,-0.00380072,0.00526858,0.01082607,0.
 00315576,0.00137708,0.03450108,-0.00230051,-0.04143296,-0.00827663,-0.
 00068467,0.00311527,0.00046843,-0.00331715,0.00570914,0.00000106,-0.00
 000152,0.00000220,0.00000084,-0.00000029,0.00000073,0.00000054,-0.0000
 0123,0.00000039,-0.00000008,-0.00000500,0.00001146,-0.00000004,-0.0000
 0249,0.00000297,0.00001252,-0.00000860,0.00001364,0.00004625,-0.000006
 08,0.00000190,0.00051366,0.00008140,0.00033266,-0.00090074,0.00143024,
 -0.00341023,-0.03790530,0.00413361,0.03326121,-0.00002245,0.00000219,0
 .00000474,0.00000482,-0.00000395,-0.00000316,0.00001313,-0.00001048,-0
 .00000964,-0.00003147,0.00003143,0.00002555,0.00015593,-0.00012003,-0.
 00009272,-0.00005697,0.00001820,0.00002207,-0.00048545,0.00010120,0.00
 015552,0.00028641,-0.00065214,-0.00042097,-0.00002161,0.00022667,0.000
 11623,-0.00116162,0.00161465,0.00091107,-0.00409790,-0.00293675,0.0009
 7495,-0.00068595,-0.00086272,-0.00027326,-0.00009843,-0.00310244,0.000
 15755,0.01196260,-0.00978085,-0.00481328,-0.15801354,0.12149473,0.0619
 0201,-0.01318057,0.02428019,0.01093121,-0.00000443,0.00000061,0.000001
 05,-0.00000871,-0.00000091,0.00000055,-0.00000276,0.00000397,0.0000031
 0,0.00001443,-0.00001085,-0.00001137,0.00000515,-0.00000003,-0.0000012
 9,0.00002342,0.00002881,0.00000832,0.00001827,0.00006574,0.00002940,0.
 00005002,0.00016842,-0.00014010,0.00048373,-0.00060519,-0.00026091,0.0
 0050934,0.00074902,-0.00050439,0.16349952,0.00001093,-0.00000020,-0.00
 000144,-0.00000379,-0.00000226,-0.00000143,-0.00000592,0.00000672,0.00
 000562,0.00001451,-0.00001565,-0.00001290,-0.00008200,0.00002636,0.000
 03212,0.00001800,-0.00000071,-0.00000359,0.00014584,0.00003944,0.00001
 489,-0.00038238,0.00002067,0.00006220,0.00010950,-0.00002244,-0.000050
 01,0.00020701,0.00029033,-0.00004076,-0.00239363,0.00167515,-0.0015860
 6,-0.00095467,-0.00009355,0.00034856,-0.00401075,-0.00344041,-0.002894
 38,0.01913866,-0.01446031,-0.00933648,0.12194147,-0.21236908,-0.080401
 51,-0.00475446,0.00737424,0.00240480,0.00000267,-0.00000031,-0.0000007
 3,0.00000307,0.00000139,0.00000024,0.00000017,-0.00000179,-0.00000135,
 -0.00000915,0.00000488,0.00000610,-0.00000241,-0.00000037,-0.00000033,
 -0.00000553,-0.00000487,-0.00000479,-0.00000040,-0.00001270,0.00001235
 ,0.00014966,-0.00006838,0.00034130,0.00101278,-0.00090861,-0.00053244,
 0.00002153,0.00049502,0.00152885,-0.13076124,0.22122503,0.00000744,-0.
 00000064,-0.00000257,-0.00000299,0.00000073,-0.00000043,-0.00000421,0.
 00000495,0.00000206,0.00000994,-0.00001046,-0.00001105,-0.00005703,0.0
 0003101,0.00002630,0.00001694,-0.00000223,-0.00000442,0.00013278,0.000
 03326,-0.00007934,-0.00019900,0.00015458,0.00009970,0.00004210,-0.0000
 7420,-0.00000568,0.00036171,-0.00028671,0.00016433,0.00116552,-0.00148
 204,0.00680143,-0.00034013,0.00030862,-0.00047429,-0.00017023,-0.00304
 169,0.00605774,0.00507100,-0.00447740,0.00097955,0.06204087,-0.0803042
 7,-0.07537096,0.00110972,-0.00250771,0.00163330,0.00000177,-0.00000077
 ,0.00000037,0.00000238,0.00000020,0.00000066,0.00000083,-0.00000198,-0
 .00000030,-0.00000465,0.00000193,0.00000599,-0.00000142,-0.00000181,0.
 00000187,-0.00000252,-0.00001415,0.00001206,-0.00000929,-0.00000426,-0
 .00003508,-0.00017049,0.00033137,-0.00097467,0.00028904,-0.00026381,0.
 00001627,-0.00075954,0.00141174,-0.00339630,-0.06786148,0.08868623,0.0
 6815725,0.00001607,-0.00000185,-0.00000391,-0.00000693,0.00000095,-0.0
 0000047,-0.00001017,0.00000606,0.00000317,0.00002651,-0.00001844,-0.00
 001729,-0.00011927,0.00005781,0.00007142,0.00003929,-0.00000329,-0.000
 01055,0.00028954,-0.00004671,-0.00007589,-0.00024968,0.00052263,0.0001
 5212,-0.00003963,-0.00026071,-0.00007424,0.00239233,0.00203933,-0.0003
 4308,0.00815539,0.01590391,0.00467578,-0.00163303,0.00254011,0.0020142
 2,-0.00113887,0.00062814,0.00035861,-0.00544827,0.00013902,0.00219374,
 -0.00674911,-0.02977375,-0.00863652,-0.09871737,-0.09523609,-0.0212280
 5,0.00000299,-0.00000126,-0.00000045,0.00000557,0.00000076,0.00000024,
 0.00000209,-0.00000308,-0.00000195,-0.00000845,0.00000429,0.00000807,-
 0.00000507,-0.00000301,0.00000077,-0.00003877,-0.00002043,-0.00000993,
 -0.00066254,-0.00036750,0.00011116,0.00045614,0.00080930,0.00023367,0.
 00009820,-0.00005442,-0.00020758,-0.00047435,-0.00156914,-0.00037870,0
 .00084508,0.00059054,-0.00066905,0.10297228,-0.00000686,0.00000609,0.0
 0000491,0.00001332,0.00000149,0.00000165,0.00000480,-0.00000111,0.0000
 0173,-0.00002605,0.00000827,0.00000858,0.00009312,-0.00000033,-0.00004
 186,-0.00002178,-0.00001638,-0.00000507,0.00001309,0.00008579,0.000002
 27,0.00064354,-0.00051055,-0.00016007,0.00006622,0.00076060,0.00028516
 ,-0.00166803,0.00108087,0.00192263,-0.01312981,-0.01666048,-0.00473179
 ,0.00399470,-0.00137288,-0.00292413,0.00098327,0.00043538,0.00010004,-
 0.00113964,0.00267363,-0.00132868,-0.00038152,-0.00133870,-0.00113443,
 -0.09487971,-0.28077467,-0.06774038,-0.00000216,0.00000196,0.00000079,
 -0.00000073,-0.00000066,-0.00000071,-0.00000404,0.00000354,0.00000315,
 -0.00000180,-0.00000450,-0.00000449,0.00000621,0.00001040,0.00000351,0
 .00010118,-0.00001900,-0.00001505,0.00207518,-0.00018581,-0.00070717,-
 0.00091285,-0.00087452,-0.00019075,-0.00002462,-0.00016027,0.00029175,
 0.00002632,-0.00015091,-0.00019823,0.00006177,0.00024242,0.00150950,0.
 10411686,0.29676032,-0.00000782,0.00000347,0.00000173,0.00000566,0.000
 00591,-0.00000810,0.00000204,0.00000318,-0.00001431,-0.00001637,0.0000
 1406,0.00000490,0.00008851,-0.00005611,0.00003915,-0.00001851,0.000004
 50,-0.00000729,-0.00008201,-0.00000472,0.00006175,0.00023621,0.0000033
 2,-0.00099316,0.00009259,0.00025331,0.00027622,-0.00152577,0.00141279,
 -0.00276426,-0.00549264,-0.00979836,0.00140653,0.00257799,-0.00269667,
 0.00385801,0.00045435,0.00015796,-0.00036416,0.00175944,-0.00155282,0.
 00631410,0.00137149,0.00388871,0.00320517,-0.02096564,-0.06766099,-0.0
 5279712,-0.00000117,-0.00000164,0.00000371,-0.00000184,-0.00000186,0.0
 0000173,-0.00000130,0.00000075,0.00000297,0.00000558,-0.00001444,0.000
 00978,0.00000383,-0.00000346,0.00000978,0.00003342,-0.00001675,0.00005
 988,0.00093026,-0.00027694,0.00059080,-0.00039678,-0.00049489,0.000092
 38,-0.00019793,0.00029337,-0.00086625,0.00016247,0.00006620,0.00043656
 ,-0.00085076,0.00142495,-0.00360379,0.02183469,0.07504714,0.04504331\\
 0.00000148,0.00000165,0.00000105,0.00000106,-0.00000127,-0.00000128,-0
 .00000205,-0.00000032,0.00000052,0.00000123,-0.00000129,-0.00000129,-0
 .00000053,0.00000247,-0.00000006,-0.00000167,-0.00000067,0.00000048,-0
 .00000090,-0.00000182,0.00000088,0.00000045,0.00000204,0.00000066,0.00
 000019,-0.00000099,-0.00000038,-0.00000075,-0.00000106,-0.00000067,0.0
 0000141,0.00000350,0.00000091,-0.00000261,-0.00000231,0.,0.00000319,-0
 .00000091,-0.00000112,-0.00000072,0.00000319,0.00000110,-0.00000212,-0
 .00000198,-0.00000010,0.00000233,-0.00000094,-0.00000105,-0.00000014,-
 0.00000021,0.,-0.00000012,0.00000011,0.00000029,0.00000023,0.00000001,
 0.00000006,-0.00000023,0.00000013,0.00000039,0.00000033,-0.00000007,0.
 00000013,0.00000003,0.00000014,-0.00000035,0.,0.00000003,0.00000015,0.
 00000015,0.00000028,-0.00000003,-0.00000026,0.00000014,0.00000002,0.00
 000010,-0.00000027,-0.00000027,0.00000037,0.00000034,-0.00000009,-0.00
 000046,0.00000008,0.00000005\\\@


 Mondays are the potholes in the road of life.
                                -- Tom Wilson
 Job cpu time:       0 days  1 hours 17 minutes 11.6 seconds.
 File lengths (MBytes):  RWF=    230 Int=      0 D2E=      0 Chk=      7 Scr=      1
 Normal termination of Gaussian 09 at Tue Aug 21 18:35:32 2018.
WARNING: pbs_rusage is deprecated and values produced may not be accurate


=============================================================================
                                     Resource usage:
                                       CPU time:              04:03:08
   JobId:    9356665.r-man2            Elapsed time:          01:02:45
   Project:             q95            Requested time:        32:00:00
   Service Units:      4.18 
                                       Max physical memory:      431MB
                                       Max virtual memory:       875MB
                                       Requested memory:           0MB

                                       Number of cpus:               4

                                       Max jobfs disk use:       0.2GB
                                       Requested jobfs:         16.0GB
=============================================================================

