 Entering Gaussian System, Link 0=/apps/gaussian/g09e01/g09/g09
 AtFile(1): /home/507/hio507/Basis/6-31pGd.gbs
 Initial command:
 /apps/gaussian/g09e01/g09/l1.exe "/jobfs/local/6002222.r-man2/Gau-8263.inp" -scrdir="/jobfs/local/6002222.r-man2/"
 Entering Link 1 = /apps/gaussian/g09e01/g09/l1.exe PID=      8264.
  
 Copyright (c) 1988,1990,1992,1993,1995,1998,2003,2009,2015,
            Gaussian, Inc.  All Rights Reserved.
  
 This is part of the Gaussian(R) 09 program.  It is based on
 the Gaussian(R) 03 system (copyright 2003, Gaussian, Inc.),
 the Gaussian(R) 98 system (copyright 1998, Gaussian, Inc.),
 the Gaussian(R) 94 system (copyright 1995, Gaussian, Inc.),
 the Gaussian 92(TM) system (copyright 1992, Gaussian, Inc.),
 the Gaussian 90(TM) system (copyright 1990, Gaussian, Inc.),
 the Gaussian 88(TM) system (copyright 1988, Gaussian, Inc.),
 the Gaussian 86(TM) system (copyright 1986, Carnegie Mellon
 University), and the Gaussian 82(TM) system (copyright 1983,
 Carnegie Mellon University). Gaussian is a federally registered
 trademark of Gaussian, Inc.
  
 This software contains proprietary and confidential information,
 including trade secrets, belonging to Gaussian, Inc.
  
 This software is provided under written license and may be
 used, copied, transmitted, or stored only in accord with that
 written license.
  
 The following legend is applicable only to US Government
 contracts under FAR:
  
                    RESTRICTED RIGHTS LEGEND
  
 Use, reproduction and disclosure by the US Government is
 subject to restrictions as set forth in subparagraphs (a)
 and (c) of the Commercial Computer Software - Restricted
 Rights clause in FAR 52.227-19.
  
 Gaussian, Inc.
 340 Quinnipiac St., Bldg. 40, Wallingford CT 06492
  
  
 ---------------------------------------------------------------
 Warning -- This program may not be used in any manner that
 competes with the business of Gaussian, Inc. or will provide
 assistance to any competitor of Gaussian, Inc.  The licensee
 of this program is prohibited from giving any competitor of
 Gaussian, Inc. access to this program.  By using this program,
 the user acknowledges that Gaussian, Inc. is engaged in the
 business of creating and licensing software in the field of
 computational chemistry and represents and warrants to the
 licensee that it is not a competitor of Gaussian, Inc. and that
 it will not use this program in any manner prohibited above.
 ---------------------------------------------------------------
  

 Cite this work as:
 Gaussian 09, Revision E.01,
 M. J. Frisch, G. W. Trucks, H. B. Schlegel, G. E. Scuseria, 
 M. A. Robb, J. R. Cheeseman, G. Scalmani, V. Barone, B. Mennucci, 
 G. A. Petersson, H. Nakatsuji, M. Caricato, X. Li, H. P. Hratchian, 
 A. F. Izmaylov, J. Bloino, G. Zheng, J. L. Sonnenberg, M. Hada, 
 M. Ehara, K. Toyota, R. Fukuda, J. Hasegawa, M. Ishida, T. Nakajima, 
 Y. Honda, O. Kitao, H. Nakai, T. Vreven, J. A. Montgomery, Jr., 
 J. E. Peralta, F. Ogliaro, M. Bearpark, J. J. Heyd, E. Brothers, 
 K. N. Kudin, V. N. Staroverov, T. Keith, R. Kobayashi, J. Normand, 
 K. Raghavachari, A. Rendell, J. C. Burant, S. S. Iyengar, J. Tomasi, 
 M. Cossi, N. Rega, J. M. Millam, M. Klene, J. E. Knox, J. B. Cross, 
 V. Bakken, C. Adamo, J. Jaramillo, R. Gomperts, R. E. Stratmann, 
 O. Yazyev, A. J. Austin, R. Cammi, C. Pomelli, J. W. Ochterski, 
 R. L. Martin, K. Morokuma, V. G. Zakrzewski, G. A. Voth, 
 P. Salvador, J. J. Dannenberg, S. Dapprich, A. D. Daniels, 
 O. Farkas, J. B. Foresman, J. V. Ortiz, J. Cioslowski, 
 and D. J. Fox, Gaussian, Inc., Wallingford CT, 2013.
 
 ******************************************
 Gaussian 09:  ES64L-G09RevE.01 30-Nov-2015
                22-Feb-2019 
 ******************************************
 %chk=3Chloro4TFM.M062X_6-31pGd_opt_Pentadecane.chk
 %mem=196608000
 %nproc=4
 Will use up to    4 processors via shared memory.
 ----------------------------------------------------------------------
 # M062X/Gen 6D SCF=Tight INT(grid=ultrafine) OPT IOP(2/17=4) SCRF=(SMD
 ,Solvent=n-Pentadecane) maxdisk=2147483648
 ----------------------------------------------------------------------
 1/14=-1,18=20,19=15,26=4,38=1/1,3;
 2/9=110,12=2,17=4,18=5,40=1/2;
 3/5=7,8=2,11=2,16=1,25=1,30=1,70=32201,71=1,72=151,74=-55,75=-5/1,2,3;
 4//1;
 5/5=2,32=2,38=5,53=151/2;
 6/7=2,8=2,9=2,10=2,28=1/1;
 7//1,2,3,16;
 1/14=-1,18=20,19=15,26=4/3(2);
 2/9=110,17=4/2;
 99//99;
 2/9=110,17=4/2;
 3/5=7,6=1,8=2,11=2,16=1,25=1,30=1,70=32205,71=1,72=151,74=-55,75=-5,82=7/1,2,3;
 4/5=5,16=3,69=1/1;
 5/5=2,32=2,38=5,53=151/2;
 7//1,2,3,16;
 1/14=-1,18=20,19=15,26=4/3(-5);
 2/9=110,17=4/2;
 6/7=2,8=2,9=2,10=2,19=2,28=1/1;
 99/9=1/99;
 -----------------------------------------
 3Chloro4TFM.M062X_6-31pGd_opt_Pentadecane
 -----------------------------------------
 Symbolic Z-matrix:
 Charge =  0 Multiplicity = 1
 C                    -2.0044    1.86671  -0.13769 
 C                    -0.65659   1.16315  -0.00812 
 C                     0.50216   2.16352  -0.09068 
 N                     1.78266   1.48865   0.03331 
 C                     2.96264   2.16987  -0.01323 
 O                     2.94594   3.38106  -0.16321 
 N                     4.14116   1.48342   0.10925 
 C                     5.48171   2.00896   0.08438 
 C                     5.80506   3.38441   0.03649 
 C                     6.5418    1.08878   0.10815 
 C                     7.86945   1.51187   0.08586 
 C                     8.19611   2.87545   0.03828 
 C                     7.13914   3.82004   0.01343 
 H                    -2.82237   1.1184   -0.07521 
 H                    -2.07467   2.38964  -1.1153 
 H                    -2.13468   2.60539   0.68173 
 H                    -0.55982   0.41603  -0.82585 
 H                    -0.61932   0.63213   0.96798 
 H                     0.40066   2.9096    0.72829 
 H                     0.45966   2.6915   -1.06898 
 H                     1.79889   0.46428   0.1595 
 H                     4.06062   0.46219   0.2353 
 H                     5.05655   4.15418   0.01473 
 H                     6.34019   0.02523   0.1447 
 H                     8.6529    0.76343   0.10582 
 Cl                    7.39301   5.56388  -0.04695 
 C                     9.67232   3.22687   0.01687 
 F                     9.92152   4.58415   0.02198 
 F                     10.24951   2.69138  -1.12064 
 F                     10.28578   2.67619   1.12783 
 

 GradGradGradGradGradGradGradGradGradGradGradGradGradGradGradGradGradGrad
 Berny optimization.
 Initialization pass.
                           ----------------------------
                           !    Initial Parameters    !
                           ! (Angstroms and Degrees)  !
 --------------------------                            --------------------------
 ! Name  Definition              Value          Derivative Info.                !
 --------------------------------------------------------------------------------
 ! R1    R(1,2)                  1.5259         estimate D2E/DX2                !
 ! R2    R(1,14)                 1.1104         estimate D2E/DX2                !
 ! R3    R(1,15)                 1.1109         estimate D2E/DX2                !
 ! R4    R(1,16)                 1.1109         estimate D2E/DX2                !
 ! R5    R(2,3)                  1.5331         estimate D2E/DX2                !
 ! R6    R(2,17)                 1.1119         estimate D2E/DX2                !
 ! R7    R(2,18)                 1.1118         estimate D2E/DX2                !
 ! R8    R(3,4)                  1.4528         estimate D2E/DX2                !
 ! R9    R(3,19)                 1.1125         estimate D2E/DX2                !
 ! R10   R(3,20)                 1.1125         estimate D2E/DX2                !
 ! R11   R(4,5)                  1.3633         estimate D2E/DX2                !
 ! R12   R(4,21)                 1.0322         estimate D2E/DX2                !
 ! R13   R(5,6)                  1.2206         estimate D2E/DX2                !
 ! R14   R(5,7)                  1.3694         estimate D2E/DX2                !
 ! R15   R(7,8)                  1.4401         estimate D2E/DX2                !
 ! R16   R(7,22)                 1.0321         estimate D2E/DX2                !
 ! R17   R(8,9)                  1.4138         estimate D2E/DX2                !
 ! R18   R(8,10)                 1.404          estimate D2E/DX2                !
 ! R19   R(9,13)                 1.4036         estimate D2E/DX2                !
 ! R20   R(9,23)                 1.0739         estimate D2E/DX2                !
 ! R21   R(10,11)                1.3936         estimate D2E/DX2                !
 ! R22   R(10,24)                1.0831         estimate D2E/DX2                !
 ! R23   R(11,12)                1.403          estimate D2E/DX2                !
 ! R24   R(11,25)                1.0837         estimate D2E/DX2                !
 ! R25   R(12,13)                1.4178         estimate D2E/DX2                !
 ! R26   R(12,27)                1.5176         estimate D2E/DX2                !
 ! R27   R(13,26)                1.7633         estimate D2E/DX2                !
 ! R28   R(27,28)                1.38           estimate D2E/DX2                !
 ! R29   R(27,29)                1.3834         estimate D2E/DX2                !
 ! R30   R(27,30)                1.3834         estimate D2E/DX2                !
 ! A1    A(2,1,14)             109.5829         estimate D2E/DX2                !
 ! A2    A(2,1,15)             110.3429         estimate D2E/DX2                !
 ! A3    A(2,1,16)             110.3373         estimate D2E/DX2                !
 ! A4    A(14,1,15)            108.6721         estimate D2E/DX2                !
 ! A5    A(14,1,16)            108.6765         estimate D2E/DX2                !
 ! A6    A(15,1,16)            109.1896         estimate D2E/DX2                !
 ! A7    A(1,2,3)              111.2345         estimate D2E/DX2                !
 ! A8    A(1,2,17)             108.9201         estimate D2E/DX2                !
 ! A9    A(1,2,18)             108.9277         estimate D2E/DX2                !
 ! A10   A(3,2,17)             109.4559         estimate D2E/DX2                !
 ! A11   A(3,2,18)             109.4875         estimate D2E/DX2                !
 ! A12   A(17,2,18)            108.7737         estimate D2E/DX2                !
 ! A13   A(2,3,4)              111.0078         estimate D2E/DX2                !
 ! A14   A(2,3,19)             109.2086         estimate D2E/DX2                !
 ! A15   A(2,3,20)             109.1577         estimate D2E/DX2                !
 ! A16   A(4,3,19)             109.2159         estimate D2E/DX2                !
 ! A17   A(4,3,20)             109.2199         estimate D2E/DX2                !
 ! A18   A(19,3,20)            109.0015         estimate D2E/DX2                !
 ! A19   A(3,4,5)              121.8614         estimate D2E/DX2                !
 ! A20   A(3,4,21)             119.0318         estimate D2E/DX2                !
 ! A21   A(5,4,21)             119.1069         estimate D2E/DX2                !
 ! A22   A(4,5,6)              119.2226         estimate D2E/DX2                !
 ! A23   A(4,5,7)              119.4307         estimate D2E/DX2                !
 ! A24   A(6,5,7)              121.3467         estimate D2E/DX2                !
 ! A25   A(5,7,8)              128.0729         estimate D2E/DX2                !
 ! A26   A(5,7,22)             116.0891         estimate D2E/DX2                !
 ! A27   A(8,7,22)             115.838          estimate D2E/DX2                !
 ! A28   A(7,8,9)              124.6482         estimate D2E/DX2                !
 ! A29   A(7,8,10)             117.6068         estimate D2E/DX2                !
 ! A30   A(9,8,10)             117.7449         estimate D2E/DX2                !
 ! A31   A(8,9,13)             121.3258         estimate D2E/DX2                !
 ! A32   A(8,9,23)             122.5911         estimate D2E/DX2                !
 ! A33   A(13,9,23)            116.0831         estimate D2E/DX2                !
 ! A34   A(8,10,11)            121.3379         estimate D2E/DX2                !
 ! A35   A(8,10,24)            120.2389         estimate D2E/DX2                !
 ! A36   A(11,10,24)           118.4232         estimate D2E/DX2                !
 ! A37   A(10,11,12)           121.1597         estimate D2E/DX2                !
 ! A38   A(10,11,25)           118.6049         estimate D2E/DX2                !
 ! A39   A(12,11,25)           120.2354         estimate D2E/DX2                !
 ! A40   A(11,12,13)           118.3307         estimate D2E/DX2                !
 ! A41   A(11,12,27)           116.8734         estimate D2E/DX2                !
 ! A42   A(13,12,27)           124.7959         estimate D2E/DX2                !
 ! A43   A(9,13,12)            120.101          estimate D2E/DX2                !
 ! A44   A(9,13,26)            116.3824         estimate D2E/DX2                !
 ! A45   A(12,13,26)           123.5166         estimate D2E/DX2                !
 ! A46   A(12,27,28)           113.7882         estimate D2E/DX2                !
 ! A47   A(12,27,29)           109.1357         estimate D2E/DX2                !
 ! A48   A(12,27,30)           109.1377         estimate D2E/DX2                !
 ! A49   A(28,27,29)           107.9637         estimate D2E/DX2                !
 ! A50   A(28,27,30)           107.9666         estimate D2E/DX2                !
 ! A51   A(29,27,30)           108.7369         estimate D2E/DX2                !
 ! D1    D(14,1,2,3)           179.9516         estimate D2E/DX2                !
 ! D2    D(14,1,2,17)           59.225          estimate D2E/DX2                !
 ! D3    D(14,1,2,18)          -59.2777         estimate D2E/DX2                !
 ! D4    D(15,1,2,3)            60.3274         estimate D2E/DX2                !
 ! D5    D(15,1,2,17)          -60.3991         estimate D2E/DX2                !
 ! D6    D(15,1,2,18)         -178.9018         estimate D2E/DX2                !
 ! D7    D(16,1,2,3)           -60.4223         estimate D2E/DX2                !
 ! D8    D(16,1,2,17)          178.8512         estimate D2E/DX2                !
 ! D9    D(16,1,2,18)           60.3485         estimate D2E/DX2                !
 ! D10   D(1,2,3,4)            179.9953         estimate D2E/DX2                !
 ! D11   D(1,2,3,19)            59.5217         estimate D2E/DX2                !
 ! D12   D(1,2,3,20)           -59.5591         estimate D2E/DX2                !
 ! D13   D(17,2,3,4)           -59.5939         estimate D2E/DX2                !
 ! D14   D(17,2,3,19)          179.9325         estimate D2E/DX2                !
 ! D15   D(17,2,3,20)           60.8517         estimate D2E/DX2                !
 ! D16   D(18,2,3,4)            59.5542         estimate D2E/DX2                !
 ! D17   D(18,2,3,19)          -60.9194         estimate D2E/DX2                !
 ! D18   D(18,2,3,20)          179.9998         estimate D2E/DX2                !
 ! D19   D(2,3,4,5)            179.8397         estimate D2E/DX2                !
 ! D20   D(2,3,4,21)            -0.1145         estimate D2E/DX2                !
 ! D21   D(19,3,4,5)           -59.691          estimate D2E/DX2                !
 ! D22   D(19,3,4,21)          120.3548         estimate D2E/DX2                !
 ! D23   D(20,3,4,5)            59.431          estimate D2E/DX2                !
 ! D24   D(20,3,4,21)         -120.5232         estimate D2E/DX2                !
 ! D25   D(3,4,5,6)              0.0003         estimate D2E/DX2                !
 ! D26   D(3,4,5,7)            179.9855         estimate D2E/DX2                !
 ! D27   D(21,4,5,6)           179.9544         estimate D2E/DX2                !
 ! D28   D(21,4,5,7)            -0.0603         estimate D2E/DX2                !
 ! D29   D(4,5,7,8)            179.8646         estimate D2E/DX2                !
 ! D30   D(4,5,7,22)            -0.1459         estimate D2E/DX2                !
 ! D31   D(6,5,7,8)             -0.1505         estimate D2E/DX2                !
 ! D32   D(6,5,7,22)           179.839          estimate D2E/DX2                !
 ! D33   D(5,7,8,9)              5.6299         estimate D2E/DX2                !
 ! D34   D(5,7,8,10)          -174.3067         estimate D2E/DX2                !
 ! D35   D(22,7,8,9)          -174.3595         estimate D2E/DX2                !
 ! D36   D(22,7,8,10)            5.7038         estimate D2E/DX2                !
 ! D37   D(7,8,9,13)          -179.9407         estimate D2E/DX2                !
 ! D38   D(7,8,9,23)             0.0014         estimate D2E/DX2                !
 ! D39   D(10,8,9,13)           -0.0041         estimate D2E/DX2                !
 ! D40   D(10,8,9,23)          179.938          estimate D2E/DX2                !
 ! D41   D(7,8,10,11)          179.9602         estimate D2E/DX2                !
 ! D42   D(7,8,10,24)           -0.0487         estimate D2E/DX2                !
 ! D43   D(9,8,10,11)            0.0191         estimate D2E/DX2                !
 ! D44   D(9,8,10,24)         -179.9898         estimate D2E/DX2                !
 ! D45   D(8,9,13,12)           -0.0073         estimate D2E/DX2                !
 ! D46   D(8,9,13,26)          179.9759         estimate D2E/DX2                !
 ! D47   D(23,9,13,12)        -179.9531         estimate D2E/DX2                !
 ! D48   D(23,9,13,26)           0.0302         estimate D2E/DX2                !
 ! D49   D(8,10,11,12)          -0.0228         estimate D2E/DX2                !
 ! D50   D(8,10,11,25)         179.992          estimate D2E/DX2                !
 ! D51   D(24,10,11,12)        179.9859         estimate D2E/DX2                !
 ! D52   D(24,10,11,25)          0.0007         estimate D2E/DX2                !
 ! D53   D(10,11,12,13)          0.0107         estimate D2E/DX2                !
 ! D54   D(10,11,12,27)       -179.9745         estimate D2E/DX2                !
 ! D55   D(25,11,12,13)        179.9956         estimate D2E/DX2                !
 ! D56   D(25,11,12,27)          0.0105         estimate D2E/DX2                !
 ! D57   D(11,12,13,9)           0.0041         estimate D2E/DX2                !
 ! D58   D(11,12,13,26)       -179.9779         estimate D2E/DX2                !
 ! D59   D(27,12,13,9)         179.988          estimate D2E/DX2                !
 ! D60   D(27,12,13,26)          0.006          estimate D2E/DX2                !
 ! D61   D(11,12,27,28)       -177.6425         estimate D2E/DX2                !
 ! D62   D(11,12,27,29)         61.7127         estimate D2E/DX2                !
 ! D63   D(11,12,27,30)        -56.9928         estimate D2E/DX2                !
 ! D64   D(13,12,27,28)          2.3733         estimate D2E/DX2                !
 ! D65   D(13,12,27,29)       -118.2714         estimate D2E/DX2                !
 ! D66   D(13,12,27,30)        123.0231         estimate D2E/DX2                !
 --------------------------------------------------------------------------------
 Trust Radius=3.00D-01 FncErr=1.00D-07 GrdErr=1.00D-06
 Number of steps in this run=    157 maximum allowed number of steps=    180.
 GradGradGradGradGradGradGradGradGradGradGradGradGradGradGradGradGradGrad

                          Input orientation:                          
 ---------------------------------------------------------------------
 Center     Atomic      Atomic             Coordinates (Angstroms)
 Number     Number       Type             X           Y           Z
 ---------------------------------------------------------------------
      1          6           0       -2.004400    1.866710   -0.137690
      2          6           0       -0.656590    1.163150   -0.008120
      3          6           0        0.502160    2.163520   -0.090680
      4          7           0        1.782660    1.488650    0.033310
      5          6           0        2.962640    2.169870   -0.013230
      6          8           0        2.945940    3.381060   -0.163210
      7          7           0        4.141160    1.483420    0.109250
      8          6           0        5.481710    2.008960    0.084380
      9          6           0        5.805060    3.384410    0.036490
     10          6           0        6.541800    1.088780    0.108150
     11          6           0        7.869450    1.511870    0.085860
     12          6           0        8.196110    2.875450    0.038280
     13          6           0        7.139140    3.820040    0.013430
     14          1           0       -2.822370    1.118400   -0.075210
     15          1           0       -2.074670    2.389640   -1.115300
     16          1           0       -2.134680    2.605390    0.681730
     17          1           0       -0.559820    0.416030   -0.825850
     18          1           0       -0.619320    0.632130    0.967980
     19          1           0        0.400660    2.909600    0.728290
     20          1           0        0.459660    2.691500   -1.068980
     21          1           0        1.798890    0.464280    0.159500
     22          1           0        4.060620    0.462190    0.235300
     23          1           0        5.056550    4.154180    0.014730
     24          1           0        6.340190    0.025230    0.144700
     25          1           0        8.652900    0.763430    0.105820
     26         17           0        7.393010    5.563880   -0.046950
     27          6           0        9.672320    3.226870    0.016870
     28          9           0        9.921520    4.584150    0.021980
     29          9           0       10.249510    2.691380   -1.120640
     30          9           0       10.285780    2.676190    1.127830
 ---------------------------------------------------------------------
                    Distance matrix (angstroms):
                    1          2          3          4          5
     1  C    0.000000
     2  C    1.525902   0.000000
     3  C    2.524510   1.533055   0.000000
     4  N    3.809724   2.461221   1.452757   0.000000
     5  C    4.977839   3.756639   2.461707   1.363297   0.000000
     6  O    5.176850   4.233367   2.731250   2.230035   1.220555
     7  N    6.162451   4.809860   3.707402   2.359728   1.369352
     8  C    7.490754   6.196989   4.985023   3.735813   2.526091
     9  C    7.957476   6.832928   5.443114   4.446754   3.091429
    10  C    8.585054   7.199713   6.137740   4.776496   3.740839
    11  C    9.882753   8.533686   7.398160   6.087061   4.951724
    12  C   10.251777   9.016896   7.727894   6.561675   5.281070
    13  C    9.351078   8.236075   6.841374   5.841888   4.490760
    14  H    1.110381   2.167281   3.484970   4.621165   5.880117
    15  H    1.110907   2.177401   2.782271   4.124328   5.161138
    16  H    1.110887   2.177315   2.782947   4.124695   5.162879
    17  H    2.159826   1.111861   2.173016   2.715858   4.017963
    18  H    2.159894   1.111819   2.173392   2.716016   4.019683
    19  H    2.760771   2.170291   1.112497   2.100481   2.767814
    20  H    2.760285   2.169629   1.112493   2.100529   2.766155
    21  H    4.064498   2.558495   2.152096   1.032241   2.072001
    22  H    6.236687   4.775214   3.957704   2.506695   2.045360
    23  H    7.423797   6.448779   4.971550   4.221818   2.884914
    24  H    8.550028   7.090356   6.221759   4.788015   4.004031
    25  H   10.717022   9.318764   8.272450   6.908791   5.862705
    26  Cl  10.098941   9.174094   7.684281   6.934693   5.581095
    27  C   11.756688  10.533088   9.232232   8.078887   6.792493
    28  F   12.232642  11.117579   9.726072   8.707657   7.365867
    29  F   12.320900  11.068704   9.815818   8.629352   7.388965
    30  F   12.381653  11.104735   9.872528   8.655130   7.428779
                    6          7          8          9         10
     6  O    0.000000
     7  N    2.259164   0.000000
     8  C    2.893802   1.440099   0.000000
     9  C    2.866088   2.527374   1.413758   0.000000
    10  C    4.272984   2.432861   1.403954   2.412020   0.000000
    11  C    5.272273   3.728472   2.438935   2.787571   1.393613
    12  C    5.278307   4.287820   2.849719   2.444619   2.435942
    13  C    4.219814   3.802218   2.456037   1.403593   2.797422
    14  H    6.196836   6.975530   8.353222   8.920753   9.366012
    15  H    5.205374   6.399789   7.660485   8.025356   8.799581
    16  H    5.208482   6.400993   7.663025   8.003916   8.826687
    17  H    4.639057   4.910493   6.313955   7.075776   7.194300
    18  H    4.641905   4.911648   6.316564   7.050913   7.226996
    19  H    2.737791   4.050746   5.200273   5.469147   6.435337
    20  H    2.734502   4.049830   5.197796   5.502317   6.398967
    21  H    3.150789   2.554878   3.994351   4.959001   4.784123
    22  H    3.149782   1.032127   2.105890   3.409100   2.562233
    23  H    2.254784   2.824860   2.188054   1.073912   3.407546
    24  H    4.783026   2.638808   2.162362   3.403258   1.083107
    25  H    6.284406   4.568829   3.407088   3.870986   2.136025
    26  Cl   4.955265   5.220065   4.038288   2.697895   4.557975
    27  C    6.730557   5.800162   4.364525   3.870517   3.792086
    28  F    7.080991   6.560084   5.132973   4.287753   4.862874
    29  F    7.398274   6.346947   4.964845   4.644607   4.222010
    30  F    7.485778   6.341653   4.961156   4.665774   4.192494
                   11         12         13         14         15
    11  C    0.000000
    12  C    1.402969   0.000000
    13  C    2.422034   1.417764   0.000000
    14  H   10.700270  11.158271  10.321744   0.000000
    15  H   10.054789  10.346771   9.392251   1.804687   0.000000
    16  H   10.081342  10.354332   9.376872   1.804720   1.810930
    17  H    8.548957   9.135742   8.459649   2.485139   2.504733
    18  H    8.579702   9.143776   8.442016   2.485585   3.089812
    19  H    7.625562   7.826003   6.837181   3.773848   3.129927
    20  H    7.591454   7.817450   6.860078   3.772790   2.552664
    21  H    6.160728   6.837606   6.308782   4.673222   4.509611
    22  H    3.953650   4.792173   4.560885   6.921169   6.571223
    23  H    3.859957   3.390065   2.109226   8.444017   7.432689
    24  H    2.133588   3.402869   3.880224   9.230162   8.831076
    25  H    1.083676   2.161908   3.412165  11.482186  10.918629
    26  Cl   4.082085   2.807114   1.763257  11.140785  10.042616
    27  C    2.489242   1.517613   2.601704  12.671677  11.831084
    28  F    3.695129   2.428366   2.885407  13.207104  12.248178
    29  F    2.917460   2.365043   3.497769  13.207620  12.327874
    30  F    2.877498   2.365068   3.528686  13.255098  12.565607
                   16         17         18         19         20
    16  H    0.000000
    17  H    3.089705   0.000000
    18  H    2.504398   1.807779   0.000000
    19  H    2.553950   3.091240   2.506926   0.000000
    20  H    3.130974   2.505238   3.091021   1.811416   0.000000
    21  H    4.508886   2.556708   2.555299   2.873701   2.874580
    22  H    6.570719   4.740953   4.739993   4.430368   4.431465
    23  H    7.386300   6.798820   6.747520   4.871905   4.944215
    24  H    8.875193   6.978885   7.034266   6.628588   6.569829
    25  H   10.958849   9.266224   9.313143   8.549443   8.498635
    26  Cl  10.003025   9.505501   9.463069   7.519252   7.574065
    27  C   11.842024  10.644608  10.656225   9.304325   9.291867
    28  F   12.235306  11.311522  11.297021   9.692769   9.710773
    29  F   12.514955  11.050146  11.257633  10.023273   9.789986
    30  F   12.428670  11.249543  11.096168   9.895944  10.068706
                   21         22         23         24         25
    21  H    0.000000
    22  H    2.263001   0.000000
    23  H    4.924294   3.830316   0.000000
    24  H    4.562498   2.322839   4.325835   0.000000
    25  H    6.860745   4.603971   4.943604   2.427978   0.000000
    26  Cl   7.572498   6.100142   2.729488   5.641082   4.965378
    27  C    8.345247   6.259580   4.707998   4.622762   2.667521
    28  F    9.108752   7.168417   4.883939   5.798684   4.026702
    29  F    8.832424   6.716414   5.513228   4.898186   2.787536
    30  F    8.823690   6.667160   5.546917   4.854051   2.714674
                   26         27         28         29         30
    26  Cl   0.000000
    27  C    3.265110   0.000000
    28  F    2.712561   1.379977   0.000000
    29  F    4.190902   1.383411   2.235114   0.000000
    30  F    4.252879   1.383407   2.235151   2.248814   0.000000
 Stoichiometry    C11H12ClF3N2O
 Framework group  C1[X(C11H12ClF3N2O)]
 Deg. of freedom    84
 Full point group                 C1      NOp   1
 Largest Abelian subgroup         C1      NOp   1
 Largest concise Abelian subgroup C1      NOp   1
                         Standard orientation:                         
 ---------------------------------------------------------------------
 Center     Atomic      Atomic             Coordinates (Angstroms)
 Number     Number       Type             X           Y           Z
 ---------------------------------------------------------------------
      1          6           0        7.549081    0.498803    0.054881
      2          6           0        6.355960   -0.449372   -0.021285
      3          6           0        5.031004    0.319706    0.035880
      4          7           0        3.898668   -0.587484   -0.037087
      5          6           0        2.612364   -0.137229   -0.001419
      6          8           0        2.403046    1.061413    0.094479
      7          7           0        1.582381   -1.036665   -0.074037
      8          6           0        0.167349   -0.770179   -0.050488
      9          6           0       -0.407558    0.521384   -0.058264
     10          6           0       -0.701748   -1.872256   -0.016096
     11          6           0       -2.084937   -1.704015    0.009202
     12          6           0       -2.660874   -0.424733    0.001696
     13          6           0       -1.799406    0.700766   -0.032646
     14          1           0        8.492239   -0.085644    0.012198
     15          1           0        7.527788    1.070609    1.007089
     16          1           0        7.532266    1.209838   -0.798475
     17          1           0        6.407259   -1.162510    0.830207
     18          1           0        6.411196   -1.022883   -0.972168
     19          1           0        4.984536    1.032649   -0.816883
     20          1           0        4.981492    0.891313    0.989009
     21          1           0        4.073636   -1.601605   -0.117504
     22          1           0        1.851816   -2.029624   -0.156040
     23          1           0        0.183646    1.417575   -0.082892
     24          1           0       -0.304763   -2.879962   -0.008810
     25          1           0       -2.714442   -2.585717    0.035257
     26         17           0       -2.374978    2.367387   -0.045401
     27          6           0       -4.176569   -0.354609    0.031725
     28          9           0       -4.675651    0.930504   -0.029403
     29          9           0       -4.634314   -0.934912    1.201146
     30          9           0       -4.684676   -1.061312   -1.043548
 ---------------------------------------------------------------------
 Rotational constants (GHZ):      1.0611549      0.1229161      0.1127919
 General basis read from cards:  (6D, 7F)
 There are   370 symmetry adapted cartesian basis functions of A   symmetry.
 There are   370 symmetry adapted basis functions of A   symmetry.
   370 basis functions,   648 primitive gaussians,   370 cartesian basis functions
    72 alpha electrons       72 beta electrons
       nuclear repulsion energy      1413.4263362217 Hartrees.
 NAtoms=   30 NActive=   30 NUniq=   30 SFac= 1.00D+00 NAtFMM=   60 NAOKFM=F Big=F
 Integral buffers will be    131072 words long.
 Raffenetti 2 integral format.
 Two-electron integral symmetry is turned on.
 ------------------------------------------------------------------------------
 Polarizable Continuum Model (PCM)
 =================================
 Model                : PCM (using non-symmetric T matrix).
 Atomic radii         : SMD-Coulomb.
 Polarization charges : Total charges.
 Charge compensation  : None.
 Solution method      : On-the-fly selection.
 Cavity type          : VdW (van der Waals Surface) (Alpha=1.000).
 Cavity algorithm     : GePol (No added spheres)
                        Default sphere list used, NSphG=   30.
                        Lebedev-Laikov grids with approx.  5.0 points / Ang**2.
                        Smoothing algorithm: York/Karplus (Gamma=1.0000).
                        Polarization charges: spherical gaussians, with
                                              point-specific exponents (IZeta= 3).
                        Self-potential: point-specific (ISelfS= 7).
                        Self-field    : sphere-specific E.n sum rule (ISelfD= 2).
 1st derivatives      : Analytical E(r).r(x)/FMM algorithm (CHGder, D1EAlg=3).
                        Cavity 1st derivative terms included.
 Solvent              : n-Pentadecane, Eps=   2.033300 Eps(inf)=   2.049192
 ------------------------------------------------------------------------------
 ------------------------------------------------------------------------------
 Atomic radii for non-electrostatic terms: SMD-CDS.
 ------------------------------------------------------------------------------
 Nuclear repulsion after PCM non-electrostatic terms =     1413.4190611008 Hartrees.
 One-electron integrals computed using PRISM.
 NBasis=   370 RedAO= T EigKep=  1.19D-06  NBF=   370
 NBsUse=   369 1.00D-06 EigRej=  6.78D-07 NBFU=   369
 ExpMin= 4.38D-02 ExpMax= 2.52D+04 ExpMxC= 3.78D+03 IAcc=3 IRadAn=         5 AccDes= 0.00D+00
 Harris functional with IExCor= 1009 and IRadAn=       5 diagonalized for initial guess.
 HarFok:  IExCor= 1009 AccDes= 0.00D+00 IRadAn=         5 IDoV= 1 UseB2=F ITyADJ=14
 ICtDFT=  3500011 ScaDFX=  1.000000  1.000000  1.000000  1.000000
 FoFCou: FMM=F IPFlag=           0 FMFlag=      100000 FMFlg1=           0
         NFxFlg=           0 DoJE=T BraDBF=F KetDBF=T FulRan=T
         wScrn=  0.000000 ICntrl=     500 IOpCl=  0 I1Cent=   200000004 NGrid=           0
         NMat0=    1 NMatS0=      1 NMatT0=    0 NMatD0=    1 NMtDS0=    0 NMtDT0=    0
 Petite list used in FoFCou.
 Requested convergence on RMS density matrix=1.00D-08 within 128 cycles.
 Requested convergence on MAX density matrix=1.00D-06.
 Requested convergence on             energy=1.00D-06.
 No special actions if energy rises.
 Inv3:  Mode=1 IEnd=    18645147.
 Iteration    1 A*A^-1 deviation from unit magnitude is 3.44D-15 for     91.
 Iteration    1 A*A^-1 deviation from orthogonality  is 3.93D-15 for   2484    378.
 Iteration    1 A^-1*A deviation from unit magnitude is 3.44D-15 for    100.
 Iteration    1 A^-1*A deviation from orthogonality  is 2.10D-15 for   2476   2343.
 Error on total polarization charges =  0.02092
 SCF Done:  E(RM062X) =  -1370.53203831     A.U. after   15 cycles
            NFock= 15  Conv=0.77D-08     -V/T= 2.0069
 SMD-CDS (non-electrostatic) energy       (kcal/mol) =      -4.57
 (included in total energy above)

 **********************************************************************

            Population analysis using the SCF density.

 **********************************************************************

 Orbital symmetries:
       Occupied  (A) (A) (A) (A) (A) (A) (A) (A) (A) (A) (A) (A)
                 (A) (A) (A) (A) (A) (A) (A) (A) (A) (A) (A) (A)
                 (A) (A) (A) (A) (A) (A) (A) (A) (A) (A) (A) (A)
                 (A) (A) (A) (A) (A) (A) (A) (A) (A) (A) (A) (A)
                 (A) (A) (A) (A) (A) (A) (A) (A) (A) (A) (A) (A)
                 (A) (A) (A) (A) (A) (A) (A) (A) (A) (A) (A) (A)
       Virtual   (A) (A) (A) (A) (A) (A) (A) (A) (A) (A) (A) (A)
                 (A) (A) (A) (A) (A) (A) (A) (A) (A) (A) (A) (A)
                 (A) (A) (A) (A) (A) (A) (A) (A) (A) (A) (A) (A)
                 (A) (A) (A) (A) (A) (A) (A) (A) (A) (A) (A) (A)
                 (A) (A) (A) (A) (A) (A) (A) (A) (A) (A) (A) (A)
                 (A) (A) (A) (A) (A) (A) (A) (A) (A) (A) (A) (A)
                 (A) (A) (A) (A) (A) (A) (A) (A) (A) (A) (A) (A)
                 (A) (A) (A) (A) (A) (A) (A) (A) (A) (A) (A) (A)
                 (A) (A) (A) (A) (A) (A) (A) (A) (A) (A) (A) (A)
                 (A) (A) (A) (A) (A) (A) (A) (A) (A) (A) (A) (A)
                 (A) (A) (A) (A) (A) (A) (A) (A) (A) (A) (A) (A)
                 (A) (A) (A) (A) (A) (A) (A) (A) (A) (A) (A) (A)
                 (A) (A) (A) (A) (A) (A) (A) (A) (A) (A) (A) (A)
                 (A) (A) (A) (A) (A) (A) (A) (A) (A) (A) (A) (A)
                 (A) (A) (A) (A) (A) (A) (A) (A) (A) (A) (A) (A)
                 (A) (A) (A) (A) (A) (A) (A) (A) (A) (A) (A) (A)
                 (A) (A) (A) (A) (A) (A) (A) (A) (A) (A) (A) (A)
                 (A) (A) (A) (A) (A) (A) (A) (A) (A) (A) (A) (A)
                 (A) (A) (A) (A) (A) (A) (A) (A) (A) (A) (A) (A)
                 (A) (A) (A) (A) (A) (A) (A) (A) (A) (A) (A) (A)
                 (A) (A) (A) (A) (A) (A) (A) (A) (A) (A) (A) (A)
                 (A) (A) (A) (A) (A) (A) (A) (A) (A) (A) (A) (A)
                 (A) (A) (A) (A) (A) (A) (A) (A) (A) (A) (A) (A)
                 (A) (A) (A) (A) (A) (A) (A) (A) (A) (A) (A) (A)
                 (A) (A) (A) (A) (A) (A) (A) (A) (A)
 The electronic state is 1-A.
 Alpha  occ. eigenvalues -- -102.67873 -25.30524 -25.30474 -25.30472 -19.60921
 Alpha  occ. eigenvalues --  -14.82030 -14.79468 -10.82710 -10.68953 -10.64457
 Alpha  occ. eigenvalues --  -10.63824 -10.60052 -10.58900 -10.58891 -10.57986
 Alpha  occ. eigenvalues --  -10.57578 -10.55904 -10.54626  -9.82477  -7.54901
 Alpha  occ. eigenvalues --   -7.54217  -7.54173  -1.44649  -1.36761  -1.36723
 Alpha  occ. eigenvalues --   -1.18542  -1.06100  -1.03389  -1.00461  -0.94807
 Alpha  occ. eigenvalues --   -0.90020  -0.88198  -0.85040  -0.81330  -0.77962
 Alpha  occ. eigenvalues --   -0.73555  -0.72009  -0.68733  -0.68294  -0.68216
 Alpha  occ. eigenvalues --   -0.67158  -0.65878  -0.63822  -0.61306  -0.57164
 Alpha  occ. eigenvalues --   -0.56895  -0.56381  -0.55253  -0.55102  -0.54118
 Alpha  occ. eigenvalues --   -0.53464  -0.52834  -0.52669  -0.51522  -0.51163
 Alpha  occ. eigenvalues --   -0.51053  -0.49587  -0.48404  -0.46982  -0.46251
 Alpha  occ. eigenvalues --   -0.45428  -0.43909  -0.42835  -0.42145  -0.40551
 Alpha  occ. eigenvalues --   -0.40343  -0.37908  -0.37850  -0.34708  -0.32556
 Alpha  occ. eigenvalues --   -0.31580  -0.29292
 Alpha virt. eigenvalues --   -0.01151  -0.00289  -0.00124   0.02104   0.02453
 Alpha virt. eigenvalues --    0.03034   0.03786   0.03922   0.04290   0.05235
 Alpha virt. eigenvalues --    0.05586   0.05844   0.06228   0.06857   0.07024
 Alpha virt. eigenvalues --    0.07615   0.07678   0.08551   0.08980   0.09451
 Alpha virt. eigenvalues --    0.09664   0.10003   0.10284   0.10459   0.11560
 Alpha virt. eigenvalues --    0.12198   0.12416   0.12470   0.12628   0.13558
 Alpha virt. eigenvalues --    0.14056   0.14598   0.15101   0.15287   0.15844
 Alpha virt. eigenvalues --    0.16515   0.17285   0.17711   0.18159   0.19023
 Alpha virt. eigenvalues --    0.19234   0.19249   0.20209   0.20413   0.20657
 Alpha virt. eigenvalues --    0.21531   0.21813   0.21951   0.22367   0.22660
 Alpha virt. eigenvalues --    0.23339   0.23568   0.23742   0.24282   0.24434
 Alpha virt. eigenvalues --    0.24771   0.24946   0.25099   0.25767   0.26526
 Alpha virt. eigenvalues --    0.26826   0.27684   0.28411   0.28871   0.29164
 Alpha virt. eigenvalues --    0.29430   0.29565   0.30179   0.30606   0.30920
 Alpha virt. eigenvalues --    0.31587   0.31840   0.31955   0.32924   0.33527
 Alpha virt. eigenvalues --    0.33982   0.34473   0.34874   0.35750   0.36407
 Alpha virt. eigenvalues --    0.36924   0.37209   0.37947   0.38941   0.39333
 Alpha virt. eigenvalues --    0.39818   0.40199   0.41186   0.41368   0.42074
 Alpha virt. eigenvalues --    0.42792   0.43183   0.44775   0.44994   0.46120
 Alpha virt. eigenvalues --    0.46385   0.49053   0.50160   0.51457   0.52474
 Alpha virt. eigenvalues --    0.52846   0.54415   0.57937   0.59957   0.60864
 Alpha virt. eigenvalues --    0.66000   0.67356   0.68501   0.68956   0.69957
 Alpha virt. eigenvalues --    0.70674   0.71924   0.72630   0.72848   0.74085
 Alpha virt. eigenvalues --    0.75281   0.75596   0.76702   0.78158   0.78759
 Alpha virt. eigenvalues --    0.79326   0.79528   0.80994   0.82063   0.82969
 Alpha virt. eigenvalues --    0.83276   0.85119   0.85196   0.85975   0.86911
 Alpha virt. eigenvalues --    0.88478   0.88836   0.90465   0.92607   0.94761
 Alpha virt. eigenvalues --    0.95190   0.95336   0.97365   0.99140   0.99545
 Alpha virt. eigenvalues --    1.01327   1.01824   1.02310   1.03454   1.03733
 Alpha virt. eigenvalues --    1.04426   1.04910   1.06298   1.08375   1.10294
 Alpha virt. eigenvalues --    1.10493   1.10968   1.12430   1.13817   1.14398
 Alpha virt. eigenvalues --    1.14947   1.16484   1.17743   1.19401   1.20287
 Alpha virt. eigenvalues --    1.21413   1.22782   1.23596   1.27378   1.27701
 Alpha virt. eigenvalues --    1.30375   1.30847   1.31868   1.35418   1.35588
 Alpha virt. eigenvalues --    1.38877   1.39118   1.40824   1.41408   1.44033
 Alpha virt. eigenvalues --    1.44683   1.46453   1.46696   1.48092   1.49100
 Alpha virt. eigenvalues --    1.50995   1.51133   1.55616   1.56554   1.57341
 Alpha virt. eigenvalues --    1.57690   1.58925   1.59938   1.64648   1.66854
 Alpha virt. eigenvalues --    1.67234   1.68903   1.69236   1.73520   1.73615
 Alpha virt. eigenvalues --    1.74757   1.74968   1.76689   1.78503   1.79427
 Alpha virt. eigenvalues --    1.80957   1.83076   1.84451   1.85685   1.86782
 Alpha virt. eigenvalues --    1.86925   1.87125   1.88002   1.88433   1.88695
 Alpha virt. eigenvalues --    1.90783   1.91151   1.91952   1.92610   1.94259
 Alpha virt. eigenvalues --    1.96579   1.97860   1.99178   2.01651   2.02734
 Alpha virt. eigenvalues --    2.03362   2.04112   2.04207   2.05228   2.06015
 Alpha virt. eigenvalues --    2.07436   2.08441   2.08934   2.09293   2.11664
 Alpha virt. eigenvalues --    2.13189   2.14343   2.16044   2.16489   2.19677
 Alpha virt. eigenvalues --    2.19762   2.22673   2.23447   2.24869   2.25806
 Alpha virt. eigenvalues --    2.28236   2.28929   2.30664   2.35460   2.36352
 Alpha virt. eigenvalues --    2.37478   2.38555   2.39413   2.40896   2.41129
 Alpha virt. eigenvalues --    2.47518   2.47640   2.48983   2.56101   2.59177
 Alpha virt. eigenvalues --    2.63355   2.63627   2.65383   2.66618   2.69890
 Alpha virt. eigenvalues --    2.73473   2.74029   2.77077   2.77614   2.78719
 Alpha virt. eigenvalues --    2.79361   2.83405   2.85371   2.91289   2.94662
 Alpha virt. eigenvalues --    2.98716   3.10186   3.12021   3.13796   3.26434
 Alpha virt. eigenvalues --    3.26811   3.27844   3.33159   3.39044   4.14274
 Alpha virt. eigenvalues --    4.24848   4.25860   4.29378   4.33841   4.39432
 Alpha virt. eigenvalues --    4.40709   4.41286   4.45514   4.47185   4.50230
 Alpha virt. eigenvalues --    4.57985   4.61613   4.67666   4.77638   5.44981
 Alpha virt. eigenvalues --    6.09719   6.86550
          Condensed to atoms (all electrons):
               1          2          3          4          5          6
     1  C    5.583463  -0.012962   0.004041  -0.003027  -0.036242  -0.002716
     2  C   -0.012962   6.142843  -0.389297  -0.086890   0.129482   0.019404
     3  C    0.004041  -0.389297   6.823884   0.358658  -0.512651  -0.089421
     4  N   -0.003027  -0.086890   0.358658   7.716692   0.362432  -0.206647
     5  C   -0.036242   0.129482  -0.512651   0.362432   6.621058   0.648273
     6  O   -0.002716   0.019404  -0.089421  -0.206647   0.648273   8.329920
     7  N   -0.002680   0.017567  -0.145787  -0.410167   0.098315  -0.082453
     8  C   -0.006474   0.018770  -0.344852  -0.205678  -0.672491  -0.451584
     9  C   -0.001701  -0.006889  -0.058210   0.081077   0.524282   0.462529
    10  C   -0.001290   0.005924  -0.082261  -0.106717  -1.466577  -0.113941
    11  C    0.000165  -0.000483   0.022033   0.011920   0.286617  -0.003462
    12  C   -0.000249   0.001526  -0.044821  -0.012882  -0.529361  -0.006178
    13  C   -0.000239  -0.000184  -0.023896   0.009986  -0.097784   0.101205
    14  H    0.411153  -0.086052   0.027815   0.000541  -0.002411   0.000009
    15  H    0.416300  -0.064476  -0.008643   0.000587   0.000830  -0.000061
    16  H    0.417185  -0.064236  -0.008809   0.000580  -0.000163  -0.000059
    17  H   -0.027050   0.414979  -0.069109   0.007171  -0.011666  -0.000238
    18  H   -0.034544   0.422652  -0.085600   0.007063   0.002960  -0.000216
    19  H    0.003581  -0.050739   0.416489  -0.056945  -0.005262   0.001550
    20  H    0.006384  -0.052099   0.434771  -0.056530  -0.019945   0.001780
    21  H   -0.002492   0.000668  -0.078821   0.237998   0.030763   0.008498
    22  H   -0.000114   0.000118  -0.000772   0.021871  -0.032283   0.007251
    23  H    0.000001   0.000033   0.001335   0.000156   0.004123  -0.000620
    24  H   -0.000001   0.000016  -0.000430   0.000753  -0.008144   0.000006
    25  H    0.000000   0.000000   0.000027   0.000007   0.003484   0.000000
    26  Cl   0.000008  -0.000038   0.001691   0.001118   0.014046  -0.001173
    27  C   -0.000014   0.000071  -0.003764   0.000230  -0.157214   0.001321
    28  F   -0.000000   0.000000   0.000000  -0.000000   0.000341   0.000001
    29  F   -0.000000  -0.000000  -0.000001  -0.000000   0.000086  -0.000001
    30  F   -0.000000   0.000000  -0.000002  -0.000000  -0.000130  -0.000000
               7          8          9         10         11         12
     1  C   -0.002680  -0.006474  -0.001701  -0.001290   0.000165  -0.000249
     2  C    0.017567   0.018770  -0.006889   0.005924  -0.000483   0.001526
     3  C   -0.145787  -0.344852  -0.058210  -0.082261   0.022033  -0.044821
     4  N   -0.410167  -0.205678   0.081077  -0.106717   0.011920  -0.012882
     5  C    0.098315  -0.672491   0.524282  -1.466577   0.286617  -0.529361
     6  O   -0.082453  -0.451584   0.462529  -0.113941  -0.003462  -0.006178
     7  N    7.824636   0.135306  -0.432637   0.321272   0.114732  -0.036676
     8  C    0.135306  14.079245  -2.083287   0.568389  -0.391552  -2.335910
     9  C   -0.432637  -2.083287  12.874103  -6.045395   1.097836  -0.740505
    10  C    0.321272   0.568389  -6.045395  15.492753  -1.186062  -0.316310
    11  C    0.114732  -0.391552   1.097836  -1.186062  13.611282   2.545580
    12  C   -0.036676  -2.335910  -0.740505  -0.316310   2.545580  21.235940
    13  C    0.006391  -1.386854   0.018871  -0.668274  -9.249312  -9.960828
    14  H    0.000009  -0.000044   0.000001  -0.000001   0.000000  -0.000000
    15  H    0.000017   0.000007  -0.000017  -0.000002   0.000000   0.000000
    16  H    0.000016  -0.000016  -0.000038   0.000001   0.000000  -0.000000
    17  H   -0.000149  -0.001027  -0.000267  -0.000029   0.000012  -0.000008
    18  H    0.000344  -0.000250   0.000011   0.000105  -0.000000   0.000001
    19  H    0.000136  -0.001337   0.002125  -0.000327  -0.000034   0.000056
    20  H    0.000261  -0.006723   0.003278  -0.001321   0.000018  -0.000067
    21  H    0.028701   0.020500  -0.001198   0.001297  -0.000058   0.000052
    22  H    0.231399  -0.024653   0.063369  -0.059634   0.018023   0.008955
    23  H   -0.015016   0.046702   0.240130   0.058696  -0.032275   0.048036
    24  H   -0.011712   0.078945   0.054872   0.156111   0.002377   0.019234
    25  H    0.000383  -0.000165  -0.024876  -0.093002   0.209309   0.129027
    26  Cl   0.000623  -0.018078  -0.010079   0.066340   0.023458  -0.290817
    27  C   -0.011885  -1.057412  -0.692509   0.364678  -1.387760  -2.449621
    28  F   -0.000015   0.019677   0.026333  -0.010579   0.071747   0.193914
    29  F   -0.000042   0.007927  -0.009829   0.012760  -0.101828   0.273394
    30  F   -0.000007   0.005285  -0.010603   0.028444  -0.065488   0.265056
              13         14         15         16         17         18
     1  C   -0.000239   0.411153   0.416300   0.417185  -0.027050  -0.034544
     2  C   -0.000184  -0.086052  -0.064476  -0.064236   0.414979   0.422652
     3  C   -0.023896   0.027815  -0.008643  -0.008809  -0.069109  -0.085600
     4  N    0.009986   0.000541   0.000587   0.000580   0.007171   0.007063
     5  C   -0.097784  -0.002411   0.000830  -0.000163  -0.011666   0.002960
     6  O    0.101205   0.000009  -0.000061  -0.000059  -0.000238  -0.000216
     7  N    0.006391   0.000009   0.000017   0.000016  -0.000149   0.000344
     8  C   -1.386854  -0.000044   0.000007  -0.000016  -0.001027  -0.000250
     9  C    0.018871   0.000001  -0.000017  -0.000038  -0.000267   0.000011
    10  C   -0.668274  -0.000001  -0.000002   0.000001  -0.000029   0.000105
    11  C   -9.249312   0.000000   0.000000   0.000000   0.000012  -0.000000
    12  C   -9.960828  -0.000000   0.000000  -0.000000  -0.000008   0.000001
    13  C   25.848651  -0.000000   0.000001  -0.000001  -0.000009   0.000004
    14  H   -0.000000   0.487110  -0.023950  -0.023936  -0.003050  -0.003043
    15  H    0.000001  -0.023950   0.488960  -0.027795  -0.004756   0.003884
    16  H   -0.000001  -0.023936  -0.027795   0.489077   0.003885  -0.004768
    17  H   -0.000009  -0.003050  -0.004756   0.003885   0.504851  -0.033199
    18  H    0.000004  -0.003043   0.003884  -0.004768  -0.033199   0.504989
    19  H    0.000268  -0.000059  -0.000328   0.002640   0.003815  -0.005344
    20  H    0.000107  -0.000060   0.002662  -0.000321  -0.005354   0.003817
    21  H   -0.000122  -0.000003   0.000001   0.000001   0.000828   0.000931
    22  H    0.002913  -0.000000  -0.000000  -0.000000   0.000002   0.000001
    23  H   -0.050342  -0.000000  -0.000000   0.000000  -0.000000  -0.000000
    24  H   -0.006707  -0.000000  -0.000000   0.000000   0.000000  -0.000000
    25  H    0.101516  -0.000000   0.000000   0.000000  -0.000000   0.000000
    26  Cl  -0.084472   0.000000  -0.000000  -0.000000  -0.000000   0.000000
    27  C    1.857024  -0.000000  -0.000000  -0.000000  -0.000000  -0.000000
    28  F   -0.208685  -0.000000  -0.000000  -0.000000  -0.000000  -0.000000
    29  F   -0.134098  -0.000000  -0.000000   0.000000  -0.000000  -0.000000
    30  F   -0.168955  -0.000000   0.000000  -0.000000  -0.000000   0.000000
              19         20         21         22         23         24
     1  C    0.003581   0.006384  -0.002492  -0.000114   0.000001  -0.000001
     2  C   -0.050739  -0.052099   0.000668   0.000118   0.000033   0.000016
     3  C    0.416489   0.434771  -0.078821  -0.000772   0.001335  -0.000430
     4  N   -0.056945  -0.056530   0.237998   0.021871   0.000156   0.000753
     5  C   -0.005262  -0.019945   0.030763  -0.032283   0.004123  -0.008144
     6  O    0.001550   0.001780   0.008498   0.007251  -0.000620   0.000006
     7  N    0.000136   0.000261   0.028701   0.231399  -0.015016  -0.011712
     8  C   -0.001337  -0.006723   0.020500  -0.024653   0.046702   0.078945
     9  C    0.002125   0.003278  -0.001198   0.063369   0.240130   0.054872
    10  C   -0.000327  -0.001321   0.001297  -0.059634   0.058696   0.156111
    11  C   -0.000034   0.000018  -0.000058   0.018023  -0.032275   0.002377
    12  C    0.000056  -0.000067   0.000052   0.008955   0.048036   0.019234
    13  C    0.000268   0.000107  -0.000122   0.002913  -0.050342  -0.006707
    14  H   -0.000059  -0.000060  -0.000003  -0.000000  -0.000000  -0.000000
    15  H   -0.000328   0.002662   0.000001  -0.000000  -0.000000  -0.000000
    16  H    0.002640  -0.000321   0.000001  -0.000000   0.000000   0.000000
    17  H    0.003815  -0.005354   0.000828   0.000002  -0.000000   0.000000
    18  H   -0.005344   0.003817   0.000931   0.000001  -0.000000  -0.000000
    19  H    0.492701  -0.035569   0.002567   0.000003  -0.000001   0.000000
    20  H   -0.035569   0.491981   0.002569   0.000006  -0.000000   0.000000
    21  H    0.002567   0.002569   0.318304   0.002348  -0.000000   0.000004
    22  H    0.000003   0.000006   0.002348   0.313356  -0.000113   0.005703
    23  H   -0.000001  -0.000000  -0.000000  -0.000113   0.402790  -0.000097
    24  H    0.000000   0.000000   0.000004   0.005703  -0.000097   0.474582
    25  H   -0.000000  -0.000000  -0.000000  -0.000008   0.000010  -0.003643
    26  Cl   0.000000   0.000003   0.000003   0.000043   0.000482  -0.000104
    27  C    0.000000  -0.000002  -0.000001   0.001276   0.004085   0.011976
    28  F   -0.000000  -0.000000  -0.000000  -0.000000   0.000076   0.000012
    29  F    0.000000  -0.000000   0.000000   0.000000   0.000007   0.000015
    30  F   -0.000000   0.000000   0.000000   0.000000   0.000007   0.000020
              25         26         27         28         29         30
     1  C    0.000000   0.000008  -0.000014  -0.000000  -0.000000  -0.000000
     2  C    0.000000  -0.000038   0.000071   0.000000  -0.000000   0.000000
     3  C    0.000027   0.001691  -0.003764   0.000000  -0.000001  -0.000002
     4  N    0.000007   0.001118   0.000230  -0.000000  -0.000000  -0.000000
     5  C    0.003484   0.014046  -0.157214   0.000341   0.000086  -0.000130
     6  O    0.000000  -0.001173   0.001321   0.000001  -0.000001  -0.000000
     7  N    0.000383   0.000623  -0.011885  -0.000015  -0.000042  -0.000007
     8  C   -0.000165  -0.018078  -1.057412   0.019677   0.007927   0.005285
     9  C   -0.024876  -0.010079  -0.692509   0.026333  -0.009829  -0.010603
    10  C   -0.093002   0.066340   0.364678  -0.010579   0.012760   0.028444
    11  C    0.209309   0.023458  -1.387760   0.071747  -0.101828  -0.065488
    12  C    0.129027  -0.290817  -2.449621   0.193914   0.273394   0.265056
    13  C    0.101516  -0.084472   1.857024  -0.208685  -0.134098  -0.168955
    14  H   -0.000000   0.000000  -0.000000  -0.000000  -0.000000  -0.000000
    15  H    0.000000  -0.000000  -0.000000  -0.000000  -0.000000   0.000000
    16  H    0.000000  -0.000000  -0.000000  -0.000000   0.000000  -0.000000
    17  H   -0.000000  -0.000000  -0.000000  -0.000000  -0.000000  -0.000000
    18  H    0.000000   0.000000  -0.000000  -0.000000  -0.000000   0.000000
    19  H   -0.000000   0.000000   0.000000  -0.000000   0.000000  -0.000000
    20  H   -0.000000   0.000003  -0.000002  -0.000000  -0.000000   0.000000
    21  H   -0.000000   0.000003  -0.000001  -0.000000   0.000000   0.000000
    22  H   -0.000008   0.000043   0.001276  -0.000000   0.000000   0.000000
    23  H    0.000010   0.000482   0.004085   0.000076   0.000007   0.000007
    24  H   -0.003643  -0.000104   0.011976   0.000012   0.000015   0.000020
    25  H    0.438471   0.000307  -0.022637   0.000416   0.000018   0.000300
    26  Cl   0.000307  16.972239   0.058915  -0.022531   0.004805   0.005015
    27  C   -0.022637   0.058915   7.872458   0.024495   0.077198   0.070363
    28  F    0.000416  -0.022531   0.024495   9.294334  -0.039269  -0.038643
    29  F    0.000018   0.004805   0.077198  -0.039269   9.226953  -0.050895
    30  F    0.000300   0.005015   0.070363  -0.038643  -0.050895   9.231970
 Mulliken charges:
               1
     1  C   -0.710487
     2  C   -0.359709
     3  C   -0.143596
     4  N   -0.673355
     5  C    0.825233
     6  O   -0.622976
     7  N   -0.630883
     8  C    0.007631
     9  C    0.669223
    10  C   -0.925048
    11  C    0.403206
    12  C   -1.996536
    13  C    0.093824
    14  H    0.215970
    15  H    0.216778
    16  H    0.216756
    17  H    0.220368
    18  H    0.220202
    19  H    0.230015
    20  H    0.230352
    21  H    0.426663
    22  H    0.440938
    23  H    0.291794
    24  H    0.226211
    25  H    0.261055
    26  Cl   0.278199
    27  C    1.438729
    28  F   -0.311625
    29  F   -0.267200
    30  F   -0.271736
 Sum of Mulliken charges =  -0.00000
 Mulliken charges with hydrogens summed into heavy atoms:
               1
     1  C   -0.060982
     2  C    0.080862
     3  C    0.316772
     4  N   -0.246692
     5  C    0.825233
     6  O   -0.622976
     7  N   -0.189945
     8  C    0.007631
     9  C    0.961017
    10  C   -0.698836
    11  C    0.664261
    12  C   -1.996536
    13  C    0.093824
    26  Cl   0.278199
    27  C    1.438729
    28  F   -0.311625
    29  F   -0.267200
    30  F   -0.271736
 Electronic spatial extent (au):  <R**2>=           8894.2002
 Charge=             -0.0000 electrons
 Dipole moment (field-independent basis, Debye):
    X=              6.8318    Y=             -6.1392    Z=             -0.4119  Tot=              9.1942
 Quadrupole moment (field-independent basis, Debye-Ang):
   XX=           -105.7467   YY=           -104.2776   ZZ=           -115.9018
   XY=             -9.2375   XZ=             -0.9048   YZ=              0.1655
 Traceless Quadrupole moment (field-independent basis, Debye-Ang):
   XX=              2.8953   YY=              4.3644   ZZ=             -7.2598
   XY=             -9.2375   XZ=             -0.9048   YZ=              0.1655
 Octapole moment (field-independent basis, Debye-Ang**2):
  XXX=            151.4317  YYY=            -31.8960  ZZZ=              1.0450  XYY=            -16.7156
  XXY=            -33.7182  XXZ=             -2.4825  XZZ=            -16.2523  YZZ=              6.6345
  YYZ=             -1.3698  XYZ=              0.8153
 Hexadecapole moment (field-independent basis, Debye-Ang**3):
 XXXX=          -9555.3541 YYYY=          -1006.0864 ZZZZ=           -218.4571 XXXY=           -133.7857
 XXXZ=             -9.1720 YYYX=            -32.0312 YYYZ=              0.7407 ZZZX=              0.1522
 ZZZY=              0.3208 XXYY=          -1813.7519 XXZZ=          -1722.8694 YYZZ=           -230.9159
 XXYZ=              1.0576 YYXZ=             -8.0738 ZZXY=             -0.8771
 N-N= 1.413419061101D+03 E-N=-6.051489900231D+03  KE= 1.361201536447D+03
 D1PCM: PCM CHGder 1st derivatives, ID1Alg=3 FixD1E=F DoIter=F DoCFld=F I1PDM=0.
 Calling FoFJK, ICntrl=      2127 FMM=F ISym2X=0 I1Cent= 0 IOpClX= 0 NMat=1 NMatS=1 NMatT=0.
 ***** Axes restored to original set *****
 -------------------------------------------------------------------
 Center     Atomic                   Forces (Hartrees/Bohr)
 Number     Number              X              Y              Z
 -------------------------------------------------------------------
      1        6          -0.005073954    0.001195915   -0.000302849
      2        6           0.004836846   -0.005380174    0.000768028
      3        6          -0.005675357    0.006656518   -0.001033172
      4        7           0.013308200   -0.034855275    0.004592155
      5        6          -0.014526779    0.022745343   -0.002827565
      6        8           0.002942457    0.016047938   -0.001957540
      7        7           0.026405535   -0.023173572    0.004586423
      8        6          -0.015055363    0.002309272   -0.000874824
      9        6           0.005037777   -0.001781082    0.000025791
     10        6           0.003963597    0.001624549    0.000247110
     11        6          -0.010661605    0.006679263    0.000194012
     12        6          -0.002739490    0.014720651    0.000101959
     13        6           0.003982167   -0.015050327    0.000378034
     14        1           0.005923178    0.009229075   -0.000901642
     15        1          -0.001378166   -0.003633229    0.009793438
     16        1          -0.000781948   -0.005855716   -0.008736368
     17        1           0.000701926    0.004396976    0.008308758
     18        1           0.001284719    0.002280424   -0.009004976
     19        1           0.001590199   -0.004590891   -0.009721956
     20        1           0.000982809   -0.002111648    0.010623899
     21        1          -0.003463005    0.015876213   -0.002041317
     22        1           0.006381412    0.014774656   -0.002271121
     23        1          -0.008732674   -0.000732433   -0.000119063
     24        1          -0.001603427   -0.002273676   -0.000060664
     25        1           0.002616287    0.000479884   -0.000012090
     26       17          -0.006211365   -0.010754318    0.000279751
     27        6          -0.000736470    0.007127144   -0.000237929
     28        9           0.004259102   -0.043985402    0.000000628
     29        9          -0.003199771    0.013822312    0.031079583
     30        9          -0.004376837    0.014211610   -0.030876490
 -------------------------------------------------------------------
 Cartesian Forces:  Max     0.043985402 RMS     0.010861843

 GradGradGradGradGradGradGradGradGradGradGradGradGradGradGradGradGradGrad
 Berny optimization.
 FormGI is forming the generalized inverse of G from B-inverse, IUseBI=4.
 GSVD:  received Info=                   1 from GESDD.
 Internal  Forces:  Max     0.042492279 RMS     0.008759334
 Search for a local minimum.
 Step number   1 out of a maximum of  157
 All quantities printed in internal units (Hartrees-Bohrs-Radians)
 Mixed Optimization -- RFO/linear search
 Second derivative matrix not updated -- first step.
 ITU=  0
     Eigenvalues ---    0.00329   0.00423   0.00533   0.00994   0.01161
     Eigenvalues ---    0.01368   0.01468   0.01630   0.01719   0.01915
     Eigenvalues ---    0.01950   0.01975   0.01994   0.02090   0.02095
     Eigenvalues ---    0.02097   0.02122   0.02136   0.02177   0.03755
     Eigenvalues ---    0.04436   0.04933   0.05553   0.05673   0.05783
     Eigenvalues ---    0.08033   0.09179   0.10584   0.11426   0.11975
     Eigenvalues ---    0.12668   0.16000   0.16000   0.16000   0.16000
     Eigenvalues ---    0.16000   0.16000   0.16000   0.16000   0.21964
     Eigenvalues ---    0.22000   0.22000   0.22004   0.22365   0.23480
     Eigenvalues ---    0.24600   0.25000   0.25000   0.25000   0.25000
     Eigenvalues ---    0.25000   0.25000   0.25000   0.25000   0.29143
     Eigenvalues ---    0.29239   0.29805   0.30598   0.32337   0.32338
     Eigenvalues ---    0.32404   0.32408   0.32504   0.32506   0.32560
     Eigenvalues ---    0.35554   0.35622   0.36740   0.37886   0.39572
     Eigenvalues ---    0.40464   0.40874   0.42441   0.42458   0.43705
     Eigenvalues ---    0.44335   0.45049   0.46213   0.48484   0.48485
     Eigenvalues ---    0.49107   0.51101   0.52287   0.95138
 RFO step:  Lambda=-2.98537151D-02 EMin= 3.28692208D-03
 Linear search not attempted -- first point.
 Iteration  1 RMS(Cart)=  0.08543941 RMS(Int)=  0.00216049
 Iteration  2 RMS(Cart)=  0.00400732 RMS(Int)=  0.00028496
 Iteration  3 RMS(Cart)=  0.00000927 RMS(Int)=  0.00028491
 Iteration  4 RMS(Cart)=  0.00000001 RMS(Int)=  0.00028491
 Variable       Old X    -DE/DX   Delta X   Delta X   Delta X     New X
                                 (Linear)    (Quad)   (Total)
    R1        2.88354   0.00160   0.00000   0.00488   0.00488   2.88842
    R2        2.09832  -0.01063   0.00000  -0.02991  -0.02991   2.06840
    R3        2.09931  -0.01025   0.00000  -0.02887  -0.02887   2.07044
    R4        2.09927  -0.01024   0.00000  -0.02886  -0.02886   2.07041
    R5        2.89705  -0.00562   0.00000  -0.01751  -0.01751   2.87955
    R6        2.10111  -0.00901   0.00000  -0.02545  -0.02545   2.07567
    R7        2.10103  -0.00895   0.00000  -0.02529  -0.02529   2.07575
    R8        2.74531  -0.00110   0.00000  -0.00268  -0.00268   2.74263
    R9        2.10231  -0.01038   0.00000  -0.02938  -0.02938   2.07293
   R10        2.10231  -0.01039   0.00000  -0.02940  -0.02940   2.07291
   R11        2.57626  -0.00213   0.00000  -0.00386  -0.00386   2.57240
   R12        1.95065  -0.01606   0.00000  -0.03535  -0.03535   1.91530
   R13        2.30651   0.01612   0.00000   0.01643   0.01643   2.32295
   R14        2.58770   0.01066   0.00000   0.01972   0.01972   2.60742
   R15        2.72139  -0.03611   0.00000  -0.08485  -0.08485   2.63654
   R16        1.95044  -0.01539   0.00000  -0.03387  -0.03387   1.91656
   R17        2.67162  -0.01760   0.00000  -0.03805  -0.03803   2.63359
   R18        2.65309  -0.00680   0.00000  -0.01411  -0.01408   2.63901
   R19        2.65241  -0.00954   0.00000  -0.02004  -0.02005   2.63236
   R20        2.02940   0.00556   0.00000   0.01401   0.01401   2.04341
   R21        2.63355  -0.01069   0.00000  -0.02133  -0.02133   2.61222
   R22        2.04678   0.00253   0.00000   0.00655   0.00655   2.05333
   R23        2.65123  -0.00715   0.00000  -0.01474  -0.01476   2.63647
   R24        2.04785   0.00156   0.00000   0.00405   0.00405   2.05190
   R25        2.67918  -0.01085   0.00000  -0.02377  -0.02380   2.65539
   R26        2.86787  -0.00599   0.00000  -0.01782  -0.01782   2.85005
   R27        3.33207  -0.01154   0.00000  -0.03581  -0.03581   3.29626
   R28        2.60778  -0.04249   0.00000  -0.08157  -0.08157   2.52621
   R29        2.61427  -0.03224   0.00000  -0.06264  -0.06264   2.55163
   R30        2.61426  -0.03240   0.00000  -0.06294  -0.06294   2.55132
    A1        1.91258   0.00327   0.00000   0.01839   0.01825   1.93083
    A2        1.92585   0.00230   0.00000   0.01153   0.01145   1.93730
    A3        1.92575   0.00232   0.00000   0.01166   0.01158   1.93733
    A4        1.89669  -0.00260   0.00000  -0.01255  -0.01268   1.88401
    A5        1.89676  -0.00262   0.00000  -0.01268  -0.01281   1.88395
    A6        1.90572  -0.00285   0.00000  -0.01720  -0.01723   1.88848
    A7        1.94141  -0.00092   0.00000  -0.00062  -0.00061   1.94079
    A8        1.90101   0.00139   0.00000   0.01130   0.01130   1.91231
    A9        1.90115   0.00137   0.00000   0.01113   0.01113   1.91228
   A10        1.91037  -0.00018   0.00000  -0.00298  -0.00301   1.90736
   A11        1.91092  -0.00018   0.00000  -0.00309  -0.00311   1.90780
   A12        1.89846  -0.00149   0.00000  -0.01605  -0.01612   1.88234
   A13        1.93745  -0.00450   0.00000  -0.01528  -0.01523   1.92223
   A14        1.90605   0.00241   0.00000   0.01354   0.01353   1.91958
   A15        1.90516   0.00249   0.00000   0.01417   0.01416   1.91932
   A16        1.90618   0.00113   0.00000   0.00368   0.00373   1.90991
   A17        1.90625   0.00110   0.00000   0.00366   0.00372   1.90997
   A18        1.90244  -0.00263   0.00000  -0.02002  -0.02007   1.88236
   A19        2.12688  -0.00470   0.00000  -0.01880  -0.01880   2.10808
   A20        2.07750  -0.00078   0.00000  -0.00710  -0.00710   2.07040
   A21        2.07881   0.00548   0.00000   0.02590   0.02590   2.10471
   A22        2.08083   0.01692   0.00000   0.06045   0.06045   2.14128
   A23        2.08446  -0.02654   0.00000  -0.09483  -0.09483   1.98963
   A24        2.11790   0.00962   0.00000   0.03438   0.03438   2.15228
   A25        2.23529  -0.00599   0.00000  -0.02396  -0.02396   2.21133
   A26        2.02614   0.00805   0.00000   0.03859   0.03859   2.06473
   A27        2.02175  -0.00206   0.00000  -0.01463  -0.01463   2.00712
   A28        2.17552  -0.00625   0.00000  -0.02257  -0.02260   2.15292
   A29        2.05263  -0.00117   0.00000  -0.00443  -0.00446   2.04817
   A30        2.05504   0.00742   0.00000   0.02701   0.02706   2.08209
   A31        2.11753  -0.00522   0.00000  -0.02082  -0.02081   2.09673
   A32        2.13962  -0.00426   0.00000  -0.02577  -0.02578   2.11384
   A33        2.02603   0.00948   0.00000   0.04659   0.04658   2.07261
   A34        2.11775  -0.00562   0.00000  -0.02136  -0.02133   2.09642
   A35        2.09857   0.00163   0.00000   0.00447   0.00446   2.10302
   A36        2.06687   0.00399   0.00000   0.01689   0.01687   2.08375
   A37        2.11464   0.00217   0.00000   0.00989   0.00987   2.12451
   A38        2.07005   0.00112   0.00000   0.00668   0.00669   2.07673
   A39        2.09850  -0.00329   0.00000  -0.01657  -0.01656   2.08194
   A40        2.06526  -0.00320   0.00000  -0.01078  -0.01083   2.05443
   A41        2.03983  -0.01329   0.00000  -0.04781  -0.04778   1.99205
   A42        2.17810   0.01649   0.00000   0.05859   0.05861   2.23671
   A43        2.09616   0.00446   0.00000   0.01607   0.01604   2.11219
   A44        2.03126  -0.00989   0.00000  -0.03540  -0.03539   1.99587
   A45        2.15577   0.00543   0.00000   0.01934   0.01935   2.17512
   A46        1.98598   0.01727   0.00000   0.06754   0.06573   2.05171
   A47        1.90478   0.01261   0.00000   0.04264   0.04147   1.94625
   A48        1.90481   0.01215   0.00000   0.04027   0.03922   1.94403
   A49        1.88432  -0.01372   0.00000  -0.04276  -0.04444   1.83989
   A50        1.88437  -0.01391   0.00000  -0.04475  -0.04625   1.83812
   A51        1.89782  -0.01644   0.00000  -0.07102  -0.07126   1.82655
    D1        3.14075   0.00001   0.00000   0.00012   0.00012   3.14087
    D2        1.03367  -0.00010   0.00000  -0.00320  -0.00320   1.03048
    D3       -1.03459   0.00010   0.00000   0.00320   0.00320  -1.03139
    D4        1.05291  -0.00027   0.00000  -0.00311  -0.00314   1.04977
    D5       -1.05416  -0.00038   0.00000  -0.00643  -0.00646  -1.06062
    D6       -3.12243  -0.00018   0.00000  -0.00004  -0.00007  -3.12249
    D7       -1.05457   0.00028   0.00000   0.00327   0.00330  -1.05127
    D8        3.12154   0.00017   0.00000  -0.00005  -0.00002   3.12152
    D9        1.05328   0.00037   0.00000   0.00635   0.00637   1.05965
   D10        3.14151  -0.00002   0.00000  -0.00047  -0.00047   3.14104
   D11        1.03885  -0.00016   0.00000  -0.00422  -0.00419   1.03466
   D12       -1.03950   0.00014   0.00000   0.00367   0.00364  -1.03587
   D13       -1.04011   0.00100   0.00000   0.01128   0.01126  -1.02885
   D14        3.14041   0.00086   0.00000   0.00754   0.00755  -3.13522
   D15        1.06206   0.00116   0.00000   0.01542   0.01537   1.07743
   D16        1.03942  -0.00103   0.00000  -0.01194  -0.01193   1.02749
   D17       -1.06324  -0.00117   0.00000  -0.01569  -0.01564  -1.07888
   D18        3.14159  -0.00087   0.00000  -0.00780  -0.00782   3.13377
   D19        3.13879   0.00004   0.00000   0.00065   0.00065   3.13944
   D20       -0.00200   0.00002   0.00000   0.00008   0.00008  -0.00192
   D21       -1.04180   0.00094   0.00000   0.01024   0.01024  -1.03157
   D22        2.10059   0.00091   0.00000   0.00966   0.00967   2.11026
   D23        1.03727  -0.00093   0.00000  -0.00971  -0.00971   1.02755
   D24       -2.10353  -0.00096   0.00000  -0.01028  -0.01028  -2.11381
   D25        0.00000  -0.00005   0.00000  -0.00103  -0.00104  -0.00103
   D26        3.14134   0.00000   0.00000  -0.00002  -0.00002   3.14132
   D27        3.14080  -0.00003   0.00000  -0.00048  -0.00048   3.14032
   D28       -0.00105   0.00002   0.00000   0.00054   0.00054  -0.00051
   D29        3.13923  -0.00009   0.00000  -0.00187  -0.00189   3.13734
   D30       -0.00255   0.00004   0.00000   0.00087   0.00089  -0.00166
   D31       -0.00263  -0.00004   0.00000  -0.00084  -0.00086  -0.00349
   D32        3.13878   0.00009   0.00000   0.00190   0.00192   3.14070
   D33        0.09826  -0.00025   0.00000  -0.00655  -0.00659   0.09167
   D34       -3.04223  -0.00043   0.00000  -0.01022  -0.01021  -3.05244
   D35       -3.04315  -0.00038   0.00000  -0.00929  -0.00930  -3.05244
   D36        0.09955  -0.00056   0.00000  -0.01296  -0.01291   0.08663
   D37       -3.14056  -0.00016   0.00000  -0.00333  -0.00333   3.13930
   D38        0.00002  -0.00025   0.00000  -0.00534  -0.00531  -0.00528
   D39       -0.00007   0.00001   0.00000   0.00033   0.00034   0.00027
   D40        3.14051  -0.00008   0.00000  -0.00169  -0.00164   3.13887
   D41        3.14090   0.00020   0.00000   0.00423   0.00428  -3.13800
   D42       -0.00085   0.00019   0.00000   0.00399   0.00403   0.00318
   D43        0.00033   0.00005   0.00000   0.00085   0.00085   0.00118
   D44       -3.14141   0.00003   0.00000   0.00062   0.00059  -3.14082
   D45       -0.00013  -0.00005   0.00000  -0.00103  -0.00105  -0.00118
   D46        3.14117  -0.00015   0.00000  -0.00313  -0.00314   3.13804
   D47       -3.14077   0.00005   0.00000   0.00090   0.00093  -3.13985
   D48        0.00053  -0.00006   0.00000  -0.00121  -0.00116  -0.00063
   D49       -0.00040  -0.00008   0.00000  -0.00136  -0.00137  -0.00177
   D50        3.14145   0.00000   0.00000   0.00014   0.00012   3.14157
   D51        3.14135  -0.00006   0.00000  -0.00112  -0.00112   3.14023
   D52        0.00001   0.00002   0.00000   0.00037   0.00038   0.00039
   D53        0.00019   0.00004   0.00000   0.00064   0.00067   0.00086
   D54       -3.14115   0.00016   0.00000   0.00336   0.00328  -3.13787
   D55        3.14152  -0.00004   0.00000  -0.00087  -0.00082   3.14069
   D56        0.00018   0.00008   0.00000   0.00185   0.00179   0.00197
   D57        0.00007   0.00002   0.00000   0.00054   0.00054   0.00062
   D58       -3.14121   0.00013   0.00000   0.00281   0.00287  -3.13834
   D59        3.14138  -0.00011   0.00000  -0.00244  -0.00250   3.13888
   D60        0.00010   0.00000   0.00000  -0.00016  -0.00018  -0.00008
   D61       -3.10045   0.00029   0.00000   0.00469   0.00474  -3.09571
   D62        1.07709  -0.00268   0.00000  -0.01611  -0.01663   1.06046
   D63       -0.99471   0.00270   0.00000   0.02125   0.02168  -0.97303
   D64        0.04142   0.00042   0.00000   0.00762   0.00769   0.04911
   D65       -2.06422  -0.00256   0.00000  -0.01318  -0.01367  -2.07790
   D66        2.14716   0.00283   0.00000   0.02418   0.02463   2.17179
         Item               Value     Threshold  Converged?
 Maximum Force            0.042492     0.000450     NO 
 RMS     Force            0.008759     0.000300     NO 
 Maximum Displacement     0.309761     0.001800     NO 
 RMS     Displacement     0.086584     0.001200     NO 
 Predicted change in Energy=-1.627213D-02
 GradGradGradGradGradGradGradGradGradGradGradGradGradGradGradGradGradGrad

                          Input orientation:                          
 ---------------------------------------------------------------------
 Center     Atomic      Atomic             Coordinates (Angstroms)
 Number     Number       Type             X           Y           Z
 ---------------------------------------------------------------------
      1          6           0       -1.950230    1.783699   -0.122478
      2          6           0       -0.566711    1.144595   -0.005490
      3          6           0        0.534304    2.194521   -0.091278
      4          7           0        1.836321    1.563580    0.022961
      5          6           0        2.976750    2.305052   -0.028572
      6          8           0        2.968932    3.525777   -0.172889
      7          7           0        4.134025    1.563843    0.094449
      8          6           0        5.441669    2.049847    0.073315
      9          6           0        5.753938    3.407202    0.025461
     10          6           0        6.475496    1.111553    0.105336
     11          6           0        7.792819    1.530219    0.090953
     12          6           0        8.132337    2.882570    0.042602
     13          6           0        7.084729    3.818481    0.009590
     14          1           0       -2.733506    1.021679   -0.060462
     15          1           0       -2.061990    2.305603   -1.079311
     16          1           0       -2.118170    2.506713    0.683388
     17          1           0       -0.431346    0.410358   -0.811122
     18          1           0       -0.487181    0.612291    0.952057
     19          1           0        0.413753    2.930737    0.712928
     20          1           0        0.469792    2.727715   -1.047734
     21          1           0        1.879835    0.557990    0.141898
     22          1           0        4.051781    0.559752    0.211236
     23          1           0        4.976919    4.158672   -0.002751
     24          1           0        6.254244    0.048379    0.142079
     25          1           0        8.582121    0.784997    0.116404
     26         17           0        7.302413    5.547876   -0.056835
     27          6           0        9.617364    3.145464    0.028754
     28          9           0       10.019802    4.420232    0.037312
     29          9           0       10.208555    2.589626   -1.050485
     30          9           0       10.228823    2.571337    1.086707
 ---------------------------------------------------------------------
                    Distance matrix (angstroms):
                    1          2          3          4          5
     1  C    0.000000
     2  C    1.528484   0.000000
     3  C    2.518463   1.523791   0.000000
     4  N    3.795731   2.439452   1.451339   0.000000
     5  C    4.955377   3.728715   2.445750   1.361255   0.000000
     6  O    5.218767   4.266008   2.776025   2.274067   1.229251
     7  N    6.092088   4.720453   3.659267   2.298815   1.379786
     8  C    7.399279   6.076704   4.912255   3.638341   2.480189
     9  C    7.874760   6.713491   5.359926   4.329742   2.988382
    10  C    8.455563   7.043157   6.042288   4.661873   3.699135
    11  C    9.748682   8.368975   7.291127   5.956979   4.879464
    12  C   10.143614   8.871094   7.630297   6.432723   5.188320
    13  C    9.262195   8.105210   6.749480   5.712314   4.378060
    14  H    1.094551   2.170975   3.472044   4.602601   5.852785
    15  H    1.095630   2.176440   2.780160   4.118547   5.147131
    16  H    1.095615   2.176452   2.780862   4.118697   5.148375
    17  H    2.160395   1.098395   2.152648   2.677299   3.977106
    18  H    2.160401   1.098439   2.153005   2.677094   3.978177
    19  H    2.757175   2.160495   1.096949   2.090185   2.740485
    20  H    2.757494   2.160297   1.096935   2.090215   2.739010
    21  H    4.030093   2.520202   2.131445   1.013534   2.069906
    22  H    6.134619   4.660417   3.890582   2.439545   2.063801
    23  H    7.323948   6.310032   4.858246   4.074127   2.727131
    24  H    8.390155   6.910057   6.113762   4.672051   3.982921
    25  H   10.582291   9.156708   8.172958   6.791225   5.809627
    26  Cl   9.989230   9.017463   7.553375   6.764550   5.406298
    27  C   11.648455  10.378826   9.133492   7.940215   6.693828
    28  F   12.257998  11.081782   9.743972   8.667758   7.354108
    29  F   12.220751  10.921835   9.729713   8.502902   7.309192
    30  F   12.264250  10.944041   9.773092   8.519461   7.342160
                    6          7          8          9         10
     6  O    0.000000
     7  N    2.297410   0.000000
     8  C    2.890228   1.395199   0.000000
     9  C    2.794577   2.454965   1.393634   0.000000
    10  C    4.266366   2.384780   1.396502   2.407703   0.000000
    11  C    5.227021   3.658950   2.407951   2.772073   1.382326
    12  C    5.207773   4.210490   2.816747   2.435634   2.426017
    13  C    4.130225   3.714464   2.414906   1.392984   2.776291
    14  H    6.229041   6.890640   8.240662   8.816735   9.210933
    15  H    5.255530   6.349686   7.595976   7.970117   8.701598
    16  H    5.258357   6.350259   7.598163   7.950713   8.725349
    17  H    4.655649   4.795122   6.161368   6.923777   7.002574
    18  H    4.658178   4.795465   6.163604   6.900846   7.031719
    19  H    2.769059   4.011401   5.144416   5.405295   6.357935
    20  H    2.765494   4.010708   5.141577   5.434671   6.325348
    21  H    3.176946   2.468879   3.862253   4.810430   4.629025
    22  H    3.180790   1.014201   2.042350   3.322623   2.487990
    23  H    2.112229   2.730028   2.160769   1.081324   3.397403
    24  H    4.794244   2.606575   2.161221   3.397882   1.086573
    25  H    6.253275   4.515822   3.385873   3.857829   2.131813
    26  Cl   4.783451   5.092552   3.964280   2.643299   4.515645
    27  C    6.662353   5.707263   4.317266   3.872283   3.743526
[...]
 0,-0.00000291,-0.00000421,-0.00000630,-0.00000899,0.00000055,0.0000053
 3,-0.00000375,-0.00000658,-0.00000792,-0.00001274,0.00001110,0.0000080
 2,-0.00000451,0.00001036,-0.00001036,0.00005302,-0.00047960,0.00038571
 ,0.00052241,0.00017964,0.00012981,-0.00014781,-0.01134673,-0.05682982,
 0.03409695,-0.00000545,-0.00001308,-0.00000020,-0.00001273,0.00002906,
 -0.00000071,0.00003222,-0.00006634,0.00001433,-0.00027548,0.00006005,-
 0.00004565,0.00017072,-0.00055992,0.00018613,-0.00000610,0.00017599,-0
 .00004588,-0.00108762,0.00127554,-0.00032404,-0.00363417,-0.00259475,0
 .00023133,-0.00035478,-0.00088049,0.00016444,-0.01561354,0.02061254,-0
 .00429245,-0.20832598,0.14550448,-0.03100545,0.01000917,-0.00529861,0.
 00112269,0.00016204,-0.00171404,0.00018533,-0.00000642,0.00000106,-0.0
 0000059,0.00000083,0.00000071,0.00000027,0.00000055,0.00000087,-0.0000
 0011,0.00000088,-0.00000129,-0.00000216,-0.00000023,-0.00000263,0.0000
 0305,-0.00001397,0.00000801,0.00000207,-0.00000163,0.00000381,0.000000
 33,0.00000799,0.00002549,-0.00000262,0.00001095,0.00007579,-0.00001556
 ,0.00001115,0.00009011,-0.00000698,0.00109893,0.00000019,0.00013883,0.
 22075783,-0.00000168,-0.00000281,0.00000019,-0.00000474,0.00000615,0.0
 0000062,-0.00000160,-0.00001930,0.00000253,-0.00005953,0.00004492,-0.0
 0001837,-0.00012223,-0.00015132,0.00001792,0.00002603,0.00002747,0.000
 00263,-0.00020484,0.00059039,-0.00014073,-0.00288904,0.00037286,0.0012
 4354,-0.00067450,-0.00022056,-0.00017326,-0.00824017,0.01072103,-0.001
 36848,0.14417645,-0.19775193,0.03283150,0.02100930,-0.01499484,0.00412
 870,-0.00273181,-0.00303093,0.00157444,-0.00000123,0.00000053,-0.00000
 013,0.00000009,0.00000005,-0.00000010,0.00000040,-0.00000032,-0.000000
 18,0.00000019,-0.00000022,-0.00000098,0.00000020,0.00000034,0.00000063
 ,-0.00000106,0.00000034,0.00000026,0.00000035,0.00000048,-0.00000095,0
 .00000232,0.00000451,0.00000066,0.00002623,-0.00000524,0.00001165,0.00
 006809,0.00002972,-0.00009101,0.00026017,0.00052770,-0.00093265,-0.153
 11817,0.20505856,-0.00000012,0.00000041,0.00000029,0.00000099,-0.00000
 205,0.00000538,0.00000168,0.00001228,0.00001407,0.00000206,-0.00002159
 ,-0.00002350,0.00005323,-0.00006510,-0.00018679,0.00000089,0.00002286,
 0.00002352,-0.00001288,-0.00006664,0.00002002,0.00024697,0.00127631,0.
 00722964,0.00015184,-0.00016436,-0.00101705,0.00106677,-0.00066785,0.0
 0453773,-0.03078318,0.03282721,-0.04610203,-0.00375819,0.00349690,0.00
 372515,0.00036398,0.00159533,0.00556218,-0.00000003,-0.00000026,0.0000
 0049,-0.00000040,0.00000120,-0.00000055,0.00000105,-0.00000122,-0.0000
 0107,-0.00000034,-0.00000177,-0.00000199,0.00000017,0.00000161,-0.0000
 0143,-0.00000174,-0.00000278,-0.00000282,0.00000103,0.00000137,-0.0000
 0043,-0.00000225,0.00000153,0.00001441,-0.00000515,0.00001093,0.000059
 72,0.00000611,-0.00008912,-0.00043485,0.00008582,-0.00093915,-0.004363
 79,0.03302490,-0.03665473,0.03466283,-0.00000501,-0.00002091,-0.000000
 02,-0.00001259,0.00003707,0.00000423,0.00012397,-0.00008541,0.00002787
 ,-0.00043236,-0.00008466,-0.00002559,0.00089935,-0.00025407,0.00007694
 ,-0.00020891,0.00013466,-0.00003411,-0.00011106,-0.00156448,0.00024874
 ,-0.00419808,0.00334692,-0.00078588,-0.00736599,-0.03573098,0.00625653
 ,0.00199311,-0.00110489,0.00027667,-0.00399603,-0.00038450,-0.00014149
 ,0.00899197,0.01511613,-0.00269291,-0.04624580,-0.02596070,0.00426436,
 -0.00001388,-0.00000060,-0.00000087,0.00000104,0.00000390,-0.00000261,
 -0.00000015,0.00000358,0.00000241,0.00000328,-0.00000145,0.00000131,0.
 00000124,-0.00000412,-0.00000056,-0.00003226,0.00002126,0.00000758,-0.
 00000465,0.00000722,-0.00000003,0.00002553,0.00004147,-0.00001198,-0.0
 0039151,-0.00004246,0.00001522,0.00074599,-0.00144030,0.00036383,0.000
 16735,-0.00010029,0.00003735,0.00028363,0.00063753,-0.00011653,0.05493
 547,-0.00001022,-0.00005888,0.00000245,-0.00004400,0.00010415,0.000009
 57,0.00037024,-0.00026591,0.00008268,-0.00123954,-0.00016278,-0.000109
 63,0.00277988,-0.00142836,0.00042674,-0.00077224,0.00087063,-0.0002275
 1,-0.00194119,-0.00118251,0.00011339,-0.00144529,0.00667039,-0.0001758
 2,-0.01283926,-0.03143480,0.00643903,0.00068211,-0.00260714,0.00035043
 ,0.00544484,-0.00039315,0.00095367,-0.00779107,-0.03518735,0.00710573,
 -0.02540248,-0.16647856,0.02544565,-0.00003602,0.00000176,-0.00000226,
 -0.00000050,0.00001156,-0.00001344,-0.00000409,0.00000950,0.00001121,0
 .00001220,-0.00000159,0.00001134,0.00000617,-0.00000574,-0.00001050,-0
 .00010514,0.00005781,0.00003472,-0.00002297,0.00001651,-0.00000942,0.0
 0008030,0.00010094,-0.00001969,-0.00026624,0.00005665,-0.00004454,0.00
 122393,0.00079830,-0.00071220,-0.00015297,-0.00015680,-0.00007047,-0.0
 0093836,-0.00144864,0.00029502,0.04282586,0.23379597,0.00000186,0.0000
 0963,-0.00000173,0.00000698,-0.00001774,-0.00000127,-0.00006016,0.0000
 4681,-0.00000747,0.00020366,0.00001904,0.00000254,-0.00049172,0.000275
 75,-0.00003815,0.00010639,-0.00015385,0.00012737,0.00034086,0.00013118
 ,-0.00008454,0.00004023,-0.00004552,0.00583460,0.00203921,0.00583897,0
 .00382934,-0.00008833,0.00030012,-0.00098187,-0.00118478,0.00085436,0.
 00404458,0.00153139,0.00765287,0.00270184,0.00419097,0.02551851,-0.029
 56176,0.00000600,-0.00000018,0.00000018,0.00000033,-0.00000228,0.00000
 262,0.00000029,-0.00000121,-0.00000154,-0.00000186,0.00000144,-0.00000
 154,-0.00000082,-0.00000003,0.00000245,0.00001510,-0.00000749,-0.00000
 425,0.00000571,-0.00000467,0.00000356,-0.00001469,-0.00002553,-0.00000
 594,0.00004135,-0.00005298,-0.00020761,-0.00007506,-0.00080495,-0.0029
 7579,0.00004544,-0.00007812,-0.00054633,0.00017538,0.00033176,0.000194
 42,-0.00691860,-0.03971995,0.02055086,0.00005975,0.00019085,-0.0000046
 7,0.00008226,-0.00037675,-0.00000900,-0.00117448,0.00067069,-0.0003183
 8,0.00441058,0.00133306,0.00045569,-0.00996197,0.00481578,-0.00126403,
 0.00199516,-0.00245512,0.00064472,0.01529200,0.00084640,-0.00001523,-0
 .01176497,-0.00287774,0.00051177,0.00514667,0.00558763,-0.00112825,0.0
 0975512,0.00021392,0.00014295,-0.00924402,-0.01969474,0.00341409,-0.21
 040515,-0.03449640,0.00287447,-0.02711598,0.01126182,-0.00272425,0.000
 13937,0.00001698,0.00000877,-0.00001969,-0.00003732,0.00001096,-0.0000
 0674,-0.00003777,-0.00001243,-0.00003219,0.00001721,-0.00000029,-0.000
 00922,0.00004557,-0.00001268,0.00036046,-0.00017882,-0.00006079,0.0000
 6755,-0.00005181,-0.00000961,-0.00014176,-0.00050952,-0.00008343,0.000
 18902,-0.00080393,0.00012720,0.00013840,0.00000575,-0.00003831,0.00133
 841,0.00077755,-0.00014421,0.00004163,0.00297561,-0.00048965,-0.002001
 44,-0.00623545,0.00120722,0.61353708,0.00001083,0.00005830,-0.00000269
 ,0.00003844,-0.00010526,-0.00000542,-0.00038361,0.00024919,-0.00006920
 ,0.00132410,0.00027006,0.00011453,-0.00302182,0.00183180,-0.00045928,0
 .00073745,-0.00098276,0.00021117,0.00467793,0.00011377,-0.00013421,-0.
 00244865,-0.00411906,0.00065386,0.00698837,-0.00224013,0.00153641,0.00
 088094,-0.00699446,0.00248901,-0.02962066,-0.00189839,-0.00016861,-0.0
 2536137,-0.10172563,0.00588892,0.01904166,0.02265216,-0.00415697,0.000
 03608,-0.00000070,0.00000256,-0.00000101,-0.00001025,0.00001278,0.0000
 0472,-0.00001154,-0.00001319,-0.00001284,-0.00000142,-0.00001518,-0.00
 000583,0.00000913,0.00001061,0.00012007,-0.00006162,-0.00003749,0.0000
 2754,-0.00001180,0.00000627,-0.00005867,-0.00011292,0.00001205,0.00005
 565,-0.00020057,0.00008320,0.00114759,0.00081734,0.00007223,-0.0011477
 9,0.00000189,0.00007107,-0.00077432,-0.00286317,-0.00004551,-0.0018072
 5,-0.00541918,0.00038568,0.01367231,0.54324296,-0.00000130,-0.00001113
 ,0.00000519,-0.00000104,0.00001582,0.00002505,0.00001885,-0.00000300,0
 .00010975,-0.00010452,-0.00005536,-0.00007216,0.00032429,-0.00033523,0
 .00013026,0.00000103,0.00014356,-0.00031282,-0.00047120,-0.00016631,-0
 .00094779,0.00012484,0.00058733,-0.00060121,-0.00123389,0.00154899,0.0
 0483445,-0.00005343,0.00243501,0.00574660,0.00523841,0.00010482,0.0013
 2635,0.00125108,0.00559623,-0.06774358,-0.00425928,-0.00430472,-0.0014
 5163,-0.00000492,-0.00000120,0.00000408,-0.00000300,0.00001364,-0.0000
 0762,0.00000595,-0.00000693,-0.00000761,-0.00000575,-0.00002195,-0.000
 01297,0.00000315,0.00001329,-0.00001068,0.00000253,-0.00001414,-0.0000
 2171,-0.00000439,0.00002039,-0.00001296,-0.00000174,0.00005939,0.00009
 686,-0.00001565,0.00005405,0.00024425,-0.00027385,0.00008075,0.0011160
 8,0.00022891,0.00011818,0.00053426,0.00021157,0.00003702,-0.00302753,0
 .00031623,0.00025504,-0.00331904,-0.00037481,-0.00547009,0.51256135,-0
 .00001536,-0.00005195,0.00000089,-0.00002257,0.00010033,0.00000084,0.0
 0032207,-0.00018816,0.00008011,-0.00119589,-0.00033877,-0.00009076,0.0
 0268538,-0.00134126,0.00028390,-0.00054781,0.00069624,-0.00016433,-0.0
 0412539,-0.00012385,-0.00010557,0.00330484,0.00010535,-0.00027681,-0.0
 0070188,-0.00079519,0.00097787,-0.00272349,-0.00019394,0.00167841,-0.0
 0266429,0.00375959,-0.00294047,-0.01128959,-0.03203093,-0.02594400,0.0
 0269060,-0.00309781,0.00107722,-0.00003748,-0.00000447,-0.00000267,0.0
 0000525,0.00000958,-0.00000336,0.00000098,0.00001114,0.00000486,0.0000
 0946,-0.00000263,0.00000244,0.00000216,-0.00001318,0.00000321,-0.00010
 050,0.00004978,0.00001812,-0.00001565,0.00001489,0.00000199,0.00003901
 ,0.00012963,0.00001604,-0.00001725,0.00021158,-0.00000566,0.00000309,-
 0.00001161,0.00004920,-0.00054644,-0.00016768,0.00029006,0.00016089,-0
 .00033077,-0.00070723,-0.00173864,0.00233346,-0.00200791,-0.09960201,-
 0.04586121,-0.04341163,0.08825968,-0.00000869,-0.00003827,0.00000051,-
 0.00002157,0.00007228,-0.00000190,0.00024473,-0.00015388,0.00005127,-0
 .00088810,-0.00018697,-0.00005279,0.00207738,-0.00129102,0.00025273,-0
 .00037564,0.00070365,-0.00013627,-0.00336188,-0.00002762,-0.00010572,0
 .00247303,0.00058730,-0.00027153,-0.00142389,-0.00016752,0.00095539,-0
 .00188358,0.00072008,0.00099374,-0.00098820,0.00205654,-0.00128679,-0.
 01541569,-0.01183663,-0.01937319,0.00064321,-0.00682838,0.00072365,-0.
 00002509,-0.00000103,-0.00000221,0.00000253,0.00000567,-0.00000497,-0.
 00000228,0.00000890,0.00000738,0.00000832,0.00000163,0.00000736,0.0000
 0268,-0.00000935,-0.00000069,-0.00008163,0.00003995,0.00002040,-0.0000
 1475,0.00000917,-0.00000250,0.00003364,0.00008598,-0.00000376,0.000003
 15,0.00015321,-0.00003981,-0.00021314,-0.00007805,0.00005773,-0.000295
 86,-0.00012937,0.00011118,0.00043328,0.00038108,-0.00075064,0.00293970
 ,0.00204289,0.00074018,-0.04707570,-0.16312773,-0.09334101,0.04568843,
 0.23352563,-0.00000469,-0.00002114,-0.00000182,-0.00001138,0.00004036,
 -0.00000564,0.00014168,-0.00009182,0.00001054,-0.00050405,-0.00011934,
 0.00000008,0.00109573,-0.00054707,0.00004974,-0.00025579,0.00029375,0.
 00000253,-0.00165176,0.00002591,0.00005653,0.00128125,0.00023910,-0.00
 023780,-0.00070862,-0.00016022,0.00024608,-0.00076947,-0.00048985,0.00
 050164,-0.00267464,0.00113925,-0.00121564,-0.00647901,-0.01438490,-0.0
 0193967,0.00154519,-0.00192409,0.00099475,-0.00001442,-0.00000098,-0.0
 0000208,0.00000284,0.00000083,-0.00000065,-0.00000260,0.00000758,0.000
 00596,0.00000507,0.00000514,0.00000670,0.00000071,-0.00000983,0.000003
 38,-0.00004787,0.00002721,0.00001544,-0.00000442,0.00000301,0.00000166
 ,0.00001574,0.00003926,-0.00002231,0.00001676,0.00006657,-0.00005533,-
 0.00002463,-0.00003389,-0.00007057,-0.00034143,-0.00010644,0.00009273,
 0.00017587,0.00016577,-0.00032122,-0.00099056,0.00177893,-0.00044038,-
 0.04669496,-0.09108553,-0.15887042,0.04970481,0.15778382,0.24006276,-0
 .00001657,-0.00005378,0.00000189,-0.00002487,0.00010488,0.00000482,0.0
 0032771,-0.00018872,0.00008997,-0.00122217,-0.00035981,-0.00015766,0.0
 0274402,-0.00135704,0.00044674,-0.00057094,0.00070679,-0.00021411,-0.0
 0423266,-0.00007967,0.00007023,0.00337842,0.00021875,0.00022720,-0.000
 72637,-0.00111073,-0.00062284,-0.00268087,-0.00082932,-0.00168834,-0.0
 0291088,0.00462011,0.00129347,-0.01318728,-0.02133650,0.03558684,0.002
 76322,-0.00340505,0.00026402,-0.00003885,-0.00000470,-0.00000199,0.000
 00499,0.00001176,-0.00000440,0.00000209,0.00000987,0.00000328,0.000008
 64,-0.00000652,-0.00000006,0.00000356,-0.00001070,0.00000087,-0.000097
 63,0.00004914,0.00001723,-0.00002129,0.00001469,0.00000260,0.00004582,
 0.00013882,0.00002616,-0.00001820,0.00021306,-0.00005851,0.00000916,-0
 .00003065,-0.00002404,-0.00054933,-0.00026899,-0.00022914,0.00013670,-
 0.00003436,0.00080476,-0.00191197,0.00297933,0.00097180,-0.10513407,-0
 .03063997,0.06206446,0.01488269,0.00347383,-0.00252482,0.09460870,-0.0
 0000692,-0.00002908,0.00000205,-0.00001693,0.00005471,0.00000323,0.000
 17878,-0.00010858,0.00004887,-0.00065443,-0.00014536,-0.00009848,0.001
 56021,-0.00099942,0.00031032,-0.00027898,0.00055203,-0.00014952,-0.002
 58544,0.00000519,0.00007285,0.00188576,0.00049985,0.00000341,-0.001058
 81,-0.00040118,-0.00074908,-0.00146078,0.00050202,-0.00111528,-0.00001
 151,0.00172945,0.00019052,-0.01304569,0.00042925,0.01810178,0.00006698
 ,-0.00547436,0.00175329,-0.00001908,-0.00000081,-0.00000086,0.00000103
 ,0.00000657,-0.00000510,-0.00000018,0.00000459,0.00000343,0.00000536,-
 0.00000299,0.00000263,0.00000290,-0.00000322,-0.00000329,-0.00005564,0
 .00002611,0.00001289,-0.00001589,0.00000704,-0.00000175,0.00003068,0.0
 0007069,0.00000963,-0.00000377,0.00012367,-0.00002176,-0.00017780,-0.0
 0009201,-0.00005594,-0.00015510,-0.00010476,-0.00004127,0.00031786,0.0
 0048996,0.00046318,0.00314727,0.00086143,-0.00108323,-0.03061467,-0.10
 160969,0.07024764,0.00535360,0.01431327,-0.02616332,0.02994866,0.12955
 609,0.00000958,0.00003278,-0.00000388,0.00001664,-0.00006141,-0.000012
 37,-0.00018930,0.00011060,-0.00007494,0.00071178,0.00019100,0.00013121
 ,-0.00162830,0.00092027,-0.00035211,0.00034224,-0.00048881,0.00022099,
 0.00254773,-0.00001646,0.00008381,-0.00190377,-0.00051927,-0.00016646,
 0.00112420,0.00035994,0.00045886,0.00121847,0.00046076,0.00072244,0.00
 277340,-0.00202809,-0.00065877,0.01146275,0.01248670,-0.01226413,-0.00
 155749,0.00421928,-0.00051141,0.00002259,0.00000189,-0.00000017,-0.000
 00050,-0.00001076,0.00000601,-0.00000277,-0.00000223,0.00000040,-0.000
 00438,0.00001023,0.00000284,-0.00000329,0.00000002,0.00000647,0.000053
 20,-0.00002364,-0.00000546,0.00001711,-0.00001312,0.00000157,-0.000034
 08,-0.00008636,-0.00003841,-0.00001165,-0.00012930,-0.00003066,0.00009
 617,0.00004171,-0.00006657,0.00039198,0.00016983,0.00006758,-0.0002888
 0,-0.00048011,-0.00040620,-0.00012450,-0.00210698,0.00060703,0.0655484
 5,0.06804714,-0.21569389,0.00586941,-0.01115600,-0.08356898,-0.0738119
 8,-0.11447291,0.33874486,-0.00001727,-0.00005211,0.00000037,-0.0000191
 9,0.00010281,0.00000317,0.00032164,-0.00018477,0.00008733,-0.00118746,
 -0.00043905,-0.00009412,0.00243130,-0.00066654,0.00016063,-0.00077399,
 0.00027322,-0.00010679,-0.00326560,-0.00024266,0.00001802,0.00243378,0
 .00131347,-0.00021688,-0.00239754,0.00182312,-0.00035645,-0.00120839,0
 .00074172,-0.00019757,-0.00119902,0.00186968,-0.00037943,-0.03411028,0
 .04092955,-0.00861384,-0.00513182,-0.00877562,0.00146974,-0.00004018,-
 0.00000632,-0.00000260,0.00000684,0.00001032,-0.00000090,0.00000309,0.
 00001106,0.00000205,0.00000792,-0.00000529,-0.00000218,0.00000093,-0.0
 0001493,0.00000661,-0.00009075,0.00004985,0.00001397,-0.00001072,0.000
 01455,0.00000619,0.00002801,0.00013368,0.00002607,-0.00005593,0.000181
 99,-0.00003085,-0.00043805,-0.00044575,0.00009706,-0.00020063,-0.00018
 228,0.00003330,-0.00354802,-0.00076722,0.00006541,0.00049840,0.0005086
 9,-0.00008622,-0.17593979,0.09238133,-0.01957090,0.01297812,0.01405177
 ,0.00971947,0.01442822,0.00766253,-0.01264490,0.19649638,0.00000709,0.
 00001251,-0.00000016,-0.00000101,-0.00002959,0.00000094,-0.00007167,0.
 00002628,-0.00002590,0.00031315,0.00019356,0.00002483,-0.00068358,-0.0
 0001523,-0.00000107,0.00020606,0.00005548,0.00000652,0.00096343,0.0004
 2087,-0.00007443,-0.00132459,-0.00035704,0.00005600,0.00024022,-0.0001
 0690,-0.00007266,0.00051161,0.00171190,-0.00026086,-0.00373426,-0.0055
 4932,0.00090276,0.00909197,-0.00458247,0.00261036,0.00034828,0.0013444
 6,0.00011604,0.00001150,0.00000278,0.00000086,-0.00000339,-0.00000185,
 -0.00000349,-0.00000283,-0.00000243,0.00000276,-0.00000091,0.00000283,
 0.00000585,0.00000163,0.00000615,-0.00000758,0.00002144,-0.00001067,0.
 00000293,0.00000098,-0.00000333,-0.00000573,0.00000516,-0.00005153,-0.
 00001833,0.00009301,-0.00007654,0.00001122,0.00009996,0.00012146,-0.00
 008329,0.00018067,0.00004878,-0.00000472,-0.00265283,0.00223321,-0.000
 53339,0.00032449,0.00083291,-0.00010857,0.10301464,-0.17775032,0.02239
 993,0.02608981,-0.07083142,-0.02647806,0.01722682,-0.04026045,0.044543
 31,-0.15027683,0.29261593,-0.00000132,-0.00000311,-0.00000129,-0.00000
 118,0.00000772,-0.00000407,0.00002349,-0.00001161,-0.00000255,-0.00008
 453,-0.00004143,0.00000023,0.00017241,-0.00000122,-0.00007123,-0.00007
 015,-0.00000801,0.00005196,-0.00024588,-0.00007057,0.00010231,0.000305
 53,0.00010475,0.00000810,-0.00009781,-0.00002406,-0.00045331,-0.000126
 18,-0.00027538,0.00019744,0.00068312,0.00107600,-0.00026402,-0.0026836
 3,0.00339677,0.00781312,-0.00022877,-0.00010471,0.00192725,-0.00000253
 ,-0.00000049,-0.00000085,0.00000155,-0.00000119,0.00000149,-0.00000055
 ,0.00000245,0.00000127,0.00000044,0.00000237,0.00000137,-0.00000001,-0
 .00000383,0.00000329,-0.00000793,0.00000653,0.00000395,-0.00000087,-0.
 00000230,0.00000253,0.00000034,0.00000562,-0.00001333,-0.00001841,0.00
 001243,-0.00002685,-0.00001561,-0.00009320,-0.00027794,-0.00003869,-0.
 00001252,0.00000526,0.00039468,-0.00048815,-0.00015863,-0.00005306,-0.
 00009320,0.00027783,-0.02156130,0.02206586,-0.07462088,0.01560103,-0.0
 3517554,0.00470199,-0.02253844,0.05273609,-0.02719966,0.03059424,-0.04
 300606,0.08799522\\-0.00000346,0.00000469,-0.00000099,0.00000246,-0.00
 000154,-0.00000139,-0.00000326,0.00000664,0.00000454,0.00001660,0.0000
 0680,-0.00000832,-0.00002677,0.00000415,0.00000151,0.00000532,-0.00000
 622,0.00000639,0.00000837,-0.00001380,-0.00000486,-0.00000582,0.000001
 20,0.00000021,0.00000079,-0.00000092,0.00000266,0.00000040,0.00000020,
 -0.00000261,0.00000118,-0.00000066,0.00000302,0.00000021,0.00000288,-0
 .00000248,-0.00000018,-0.00000024,-0.00000427,-0.00000004,0.00000439,-
 0.00000110,0.00000020,0.00000266,0.00000229,0.00000082,0.00000017,-0.0
 0000119,-0.00000099,0.00000391,0.00000023,-0.00000279,0.00000125,-0.00
 000479,0.00000119,-0.00000117,-0.00000141,-0.00000082,0.00000110,0.000
 00166,-0.00000302,0.00000269,-0.00000133,0.00000433,0.00000594,-0.0000
 0097,0.00000096,0.00000097,0.00000324,0.00000072,-0.00000223,-0.000002
 20,-0.00000179,-0.00000418,-0.00000317,-0.00000629,-0.00000099,0.00000
 592,0.00000253,-0.00001003,0.00000446,0.00000425,-0.00000732,-0.000001
 95,0.00000228,0.00000327,0.00000434,0.00000265,-0.00000363,0.00000255\
 \\@


 ONE BIG VICE IN A MAN IS APT TO KEEP OUT MANY SMALLER ONES.

                           -- BRET HARTE
 Job cpu time:       0 days  2 hours 48 minutes 29.2 seconds.
 File lengths (MBytes):  RWF=    564 Int=      0 D2E=      0 Chk=     20 Scr=      1
 Normal termination of Gaussian 09 at Fri Feb 22 14:54:16 2019.
WARNING: pbs_rusage is deprecated and values produced may not be accurate


=============================================================================
                                     Resource usage:
                                       CPU time:              15:57:37
   JobId:    6002222.r-man2            Elapsed time:          04:00:39
   Project:             q95            Requested time:        36:00:00
   Service Units:     16.04 
                                       Max physical memory:      673MB
                                       Max virtual memory:      1552MB
                                       Requested memory:           0MB

                                       Number of cpus:               4

                                       Max jobfs disk use:       0.6GB
                                       Requested jobfs:         16.0GB
=============================================================================

