 Entering Gaussian System, Link 0=/apps/gaussian/g09e01/g09/g09
 AtFile(1): /home/507/hio507/Basis/6-31pGd.gbs
 Initial command:
 /apps/gaussian/g09e01/g09/l1.exe "/jobfs/local/5975238.r-man2/Gau-38989.inp" -scrdir="/jobfs/local/5975238.r-man2/"
 Entering Link 1 = /apps/gaussian/g09e01/g09/l1.exe PID=     38990.
  
 Copyright (c) 1988,1990,1992,1993,1995,1998,2003,2009,2015,
            Gaussian, Inc.  All Rights Reserved.
  
 This is part of the Gaussian(R) 09 program.  It is based on
 the Gaussian(R) 03 system (copyright 2003, Gaussian, Inc.),
 the Gaussian(R) 98 system (copyright 1998, Gaussian, Inc.),
 the Gaussian(R) 94 system (copyright 1995, Gaussian, Inc.),
 the Gaussian 92(TM) system (copyright 1992, Gaussian, Inc.),
 the Gaussian 90(TM) system (copyright 1990, Gaussian, Inc.),
 the Gaussian 88(TM) system (copyright 1988, Gaussian, Inc.),
 the Gaussian 86(TM) system (copyright 1986, Carnegie Mellon
 University), and the Gaussian 82(TM) system (copyright 1983,
 Carnegie Mellon University). Gaussian is a federally registered
 trademark of Gaussian, Inc.
  
 This software contains proprietary and confidential information,
 including trade secrets, belonging to Gaussian, Inc.
  
 This software is provided under written license and may be
 used, copied, transmitted, or stored only in accord with that
 written license.
  
 The following legend is applicable only to US Government
 contracts under FAR:
  
                    RESTRICTED RIGHTS LEGEND
  
 Use, reproduction and disclosure by the US Government is
 subject to restrictions as set forth in subparagraphs (a)
 and (c) of the Commercial Computer Software - Restricted
 Rights clause in FAR 52.227-19.
  
 Gaussian, Inc.
 340 Quinnipiac St., Bldg. 40, Wallingford CT 06492
  
  
 ---------------------------------------------------------------
 Warning -- This program may not be used in any manner that
 competes with the business of Gaussian, Inc. or will provide
 assistance to any competitor of Gaussian, Inc.  The licensee
 of this program is prohibited from giving any competitor of
 Gaussian, Inc. access to this program.  By using this program,
 the user acknowledges that Gaussian, Inc. is engaged in the
 business of creating and licensing software in the field of
 computational chemistry and represents and warrants to the
 licensee that it is not a competitor of Gaussian, Inc. and that
 it will not use this program in any manner prohibited above.
 ---------------------------------------------------------------
  

 Cite this work as:
 Gaussian 09, Revision E.01,
 M. J. Frisch, G. W. Trucks, H. B. Schlegel, G. E. Scuseria, 
 M. A. Robb, J. R. Cheeseman, G. Scalmani, V. Barone, B. Mennucci, 
 G. A. Petersson, H. Nakatsuji, M. Caricato, X. Li, H. P. Hratchian, 
 A. F. Izmaylov, J. Bloino, G. Zheng, J. L. Sonnenberg, M. Hada, 
 M. Ehara, K. Toyota, R. Fukuda, J. Hasegawa, M. Ishida, T. Nakajima, 
 Y. Honda, O. Kitao, H. Nakai, T. Vreven, J. A. Montgomery, Jr., 
 J. E. Peralta, F. Ogliaro, M. Bearpark, J. J. Heyd, E. Brothers, 
 K. N. Kudin, V. N. Staroverov, T. Keith, R. Kobayashi, J. Normand, 
 K. Raghavachari, A. Rendell, J. C. Burant, S. S. Iyengar, J. Tomasi, 
 M. Cossi, N. Rega, J. M. Millam, M. Klene, J. E. Knox, J. B. Cross, 
 V. Bakken, C. Adamo, J. Jaramillo, R. Gomperts, R. E. Stratmann, 
 O. Yazyev, A. J. Austin, R. Cammi, C. Pomelli, J. W. Ochterski, 
 R. L. Martin, K. Morokuma, V. G. Zakrzewski, G. A. Voth, 
 P. Salvador, J. J. Dannenberg, S. Dapprich, A. D. Daniels, 
 O. Farkas, J. B. Foresman, J. V. Ortiz, J. Cioslowski, 
 and D. J. Fox, Gaussian, Inc., Wallingford CT, 2013.
 
 ******************************************
 Gaussian 09:  ES64L-G09RevE.01 30-Nov-2015
                21-Feb-2019 
 ******************************************
 %chk=3Chloro4TFM_EtO.M062X_6-31pGd_bsse.chk
 %mem=196608000
 %nproc=4
 Will use up to    4 processors via shared memory.
 ----------------------------------------------------------------------
 # M062X/Gen 6D SCF=Tight INT(grid=ultrafine) Counterpoise=2 maxdisk=67
 1088640
 ----------------------------------------------------------------------
 1/38=1,62=2/1;
 2/12=2,17=6,18=5,40=1/2;
 1/38=1,53=2,62=2,63=1/22;
 3/5=7,8=2,11=2,16=1,25=1,30=1,74=-55,75=-5/1,2,3;
 4//1;
 5/5=2,32=2,38=5/2;
 6/7=2,8=2,9=2,10=2,28=1/1;
 1/53=2,62=2,63=1/22;
 3/5=7,6=11,8=2,11=2,16=1,25=1,30=1,74=-55,75=-5,82=7/1,2,3;
 4//1;
 5/5=2,32=2,38=5/2;
 6/7=2,8=2,9=2,10=2,28=1/1;
 1/53=2,62=2,63=1/22(-4);
 99/5=1,9=1/99;
 ----------------------------------
 3Chloro4TFM_EtO.M062X_6-31pGd_bsse
 ----------------------------------
 Symbolic Z-matrix:
 Charge = -1 Multiplicity = 1 in supermolecule
 Charge =  0 Multiplicity = 1 in fragment      1.
 Charge = -1 Multiplicity = 1 in fragment      2.
 C(Fragment=1)        -1.98983   1.96065  -0.05649 
 C(Fragment=1)        -0.59029   1.35139  -0.02143 
 C(Fragment=1)         0.49024   2.42679  -0.00278 
 N(Fragment=1)         1.79629   1.80952   0.03698 
 C(Fragment=1)         2.91076   2.57453  -0.0041 
 O(Fragment=1)         2.88565   3.80466  -0.08869 
 N(Fragment=1)         4.08019   1.82325   0.05712 
 C(Fragment=1)         5.37209   2.28846   0.03636 
 C(Fragment=1)         5.73145   3.64873  -0.05406 
 C(Fragment=1)         6.39832   1.32062   0.1113 
 C(Fragment=1)         7.72534   1.70367   0.09574 
 C(Fragment=1)         8.09739   3.05102   0.00601 
 C(Fragment=1)         7.07253   3.99865  -0.06721 
 H(Fragment=1)        -2.7625    1.18503  -0.07254 
 H(Fragment=1)        -2.12472   2.58729  -0.94617 
 H(Fragment=1)        -2.16675   2.59198   0.8224 
 H(Fragment=1)        -0.43324   0.70183  -0.89074 
 H(Fragment=1)        -0.47355   0.70795   0.85856 
 H(Fragment=1)         0.35395   3.08682   0.86708 
 H(Fragment=1)         0.40804   3.0672   -0.89224 
 H(Fragment=1)         1.85495   0.77916   0.13037 
 H(Fragment=1)         3.98435   0.78516   0.12735 
 H(Fragment=1)         4.9623    4.40643  -0.11259 
 H(Fragment=1)         6.11786   0.27268   0.18113 
 H(Fragment=1)         8.50008   0.94652   0.15396 
 Cl(Fragment=1)        7.45302   5.7054   -0.18144 
 C(Fragment=1)         9.54274   3.43317  -0.00882 
 F(Fragment=1)         9.90895   4.08903  -1.13121 
 F(Fragment=1)         10.34732   2.35098   0.06936 
 F(Fragment=1)         9.89323   4.23274   1.02173 
 O(Fragment=2)         1.81158  -0.99719   0.28865 
 O(Fragment=2)         4.056    -0.92934   0.2502 
 C(Fragment=2)         2.94757  -1.53108   0.31424 
 C(Fragment=2)         3.02387  -3.06153   0.43339 
 C(Fragment=2)         1.66856  -3.7525    0.51679 
 H(Fragment=2)         3.63712  -3.28565   1.31494 
 H(Fragment=2)         3.59915  -3.42263  -0.42815 
 H(Fragment=2)         1.10514  -3.39293   1.38272 
 H(Fragment=2)         1.78149  -4.84054   0.59903 
 H(Fragment=2)         1.06682  -3.52894  -0.36887 
 
                          Input orientation:                          
 ---------------------------------------------------------------------
 Center     Atomic      Atomic             Coordinates (Angstroms)
 Number     Number       Type             X           Y           Z
 ---------------------------------------------------------------------
      1          6           0       -1.989833    1.960650   -0.056491
      2          6           0       -0.590289    1.351389   -0.021435
      3          6           0        0.490245    2.426791   -0.002783
      4          7           0        1.796294    1.809524    0.036981
      5          6           0        2.910761    2.574531   -0.004096
      6          8           0        2.885652    3.804660   -0.088694
      7          7           0        4.080186    1.823250    0.057115
      8          6           0        5.372086    2.288463    0.036364
      9          6           0        5.731447    3.648732   -0.054058
     10          6           0        6.398325    1.320617    0.111302
     11          6           0        7.725337    1.703672    0.095738
     12          6           0        8.097395    3.051016    0.006011
     13          6           0        7.072526    3.998648   -0.067209
     14          1           0       -2.762505    1.185034   -0.072535
     15          1           0       -2.124720    2.587291   -0.946166
     16          1           0       -2.166754    2.591978    0.822397
     17          1           0       -0.433241    0.701827   -0.890744
     18          1           0       -0.473547    0.707946    0.858557
     19          1           0        0.353953    3.086815    0.867083
     20          1           0        0.408035    3.067197   -0.892237
     21          1           0        1.854955    0.779160    0.130368
     22          1           0        3.984349    0.785162    0.127352
     23          1           0        4.962299    4.406428   -0.112591
     24          1           0        6.117860    0.272680    0.181133
     25          1           0        8.500079    0.946520    0.153956
     26         17           0        7.453017    5.705397   -0.181440
     27          6           0        9.542736    3.433168   -0.008820
     28          9           0        9.908955    4.089028   -1.131207
     29          9           0       10.347318    2.350984    0.069357
     30          9           0        9.893232    4.232740    1.021729
     31          8           0        1.811581   -0.997187    0.288645
     32          8           0        4.055997   -0.929336    0.250200
     33          6           0        2.947569   -1.531077    0.314238
     34          6           0        3.023868   -3.061525    0.433394
     35          6           0        1.668558   -3.752502    0.516790
     36          1           0        3.637121   -3.285653    1.314940
     37          1           0        3.599150   -3.422629   -0.428150
     38          1           0        1.105139   -3.392927    1.382721
     39          1           0        1.781492   -4.840543    0.599028
     40          1           0        1.066823   -3.528939   -0.368865
 ---------------------------------------------------------------------
                    Distance matrix (angstroms):
                    1          2          3          4          5
     1  C    0.000000
     2  C    1.526811   0.000000
     3  C    2.524075   1.524596   0.000000
     4  N    3.790295   2.430860   1.445118   0.000000
     5  C    4.939171   3.708602   2.425021   1.352390   0.000000
     6  O    5.212654   4.255024   2.764756   2.276634   1.233289
     7  N    6.072636   4.694908   3.640814   2.284021   1.391303
     8  C    7.369799   6.035840   4.883958   3.607724   2.478224
     9  C    7.903657   6.726307   5.382004   4.344698   3.018720
    10  C    8.414213   6.989942   6.011826   4.628524   3.707927
    11  C    9.719760   8.323910   7.271807   5.930279   4.893721
    12  C   10.146180   8.852420   7.632723   6.422315   5.208484
    13  C    9.288697   8.107331   6.767667   5.713295   4.399134
    14  H    1.094925   2.179175   3.482414   4.602676   5.841347
    15  H    1.096538   2.176479   2.784559   4.116534   5.122863
    16  H    1.096503   2.176317   2.787087   4.115199   5.144371
    17  H    2.168776   1.096491   2.148674   2.656782   3.933893
    18  H    2.169263   1.096372   2.150635   2.653420   3.960031
    19  H    2.759451   2.166279   1.100397   2.097830   2.749300
    20  H    2.769962   2.167706   1.099093   2.091041   2.700953
    21  H    4.026565   2.515891   2.143561   1.036249   2.087143
    22  H    6.091504   4.611948   3.862726   2.417657   2.090864
    23  H    7.370014   6.338202   4.891859   4.097544   2.752531
    24  H    8.284949   6.797345   6.028605   4.588964   3.952001
    25  H   10.540920   9.101070   8.146976   6.760117   5.823734
    26  Cl  10.159043   9.147555   7.698141   6.871975   5.519589
    27  C   11.626295  10.344668   9.108262   7.914902   6.687329
    28  F   12.135327  10.906896   9.630601   8.507412   7.248365
    29  F   12.343965  10.983564   9.857629   8.568210   7.440279
    30  F   12.146282  10.922206   9.629499   8.508943   7.249612
    31  O    4.828940   3.373564   3.681642   2.818012   3.748475
    32  O    6.708065   5.182998   4.903283   3.557116   3.695040
    33  C    6.058674   4.575776   4.669440   3.544280   4.118096
    34  C    7.113327   5.722133   6.060620   5.038968   5.654142
    35  C    6.808272   5.607296   6.312055   5.584144   6.468828
    36  H    7.814546   6.415532   6.653665   5.566206   6.050555
    37  H    7.768819   6.364594   6.637917   5.553562   6.051416
    38  H    6.349092   5.230168   6.013887   5.417952   6.387026
    39  H    7.804411   6.659605   7.405650   6.673793   7.524782
    40  H    6.290970   5.165687   5.994763   5.403335   6.386354
                    6          7          8          9         10
     6  O    0.000000
     7  N    2.318222   0.000000
     8  C    2.914935   1.373266   0.000000
     9  C    2.850274   2.464022   1.409839   0.000000
    10  C    4.306894   2.372624   1.412625   2.427383   0.000000
    11  C    5.279272   3.647317   2.425551   2.789497   1.381280
    12  C    5.266803   4.200951   2.830144   2.441020   2.427386
    13  C    4.191421   3.701609   2.413909   1.386040   2.767357
    14  H    6.226104   6.873612   8.209810   8.844058   9.163677
    15  H    5.226956   6.331760   7.566820   7.977586   8.681302
    16  H    5.275177   6.340415   7.585782   8.016638   8.688072
    17  H    4.613664   4.746266   6.089233   6.883870   6.932336
    18  H    4.665955   4.756332   6.111093   6.926979   6.939479
    19  H    2.799698   4.017145   5.148700   5.484678   6.342325
    20  H    2.707049   3.991662   5.109846   5.420280   6.319905
    21  H    3.203744   2.459094   3.828452   4.826557   4.575560
    22  H    3.220431   1.044866   2.047927   3.359358   2.472700
    23  H    2.162211   2.734910   2.162380   1.081258   3.410943
    24  H    4.795295   2.563545   2.154186   3.406223   1.087064
    25  H    6.304731   4.507049   3.405727   3.874343   2.135214
    26  Cl   4.947952   5.148200   4.006638   2.685126   4.519333
    27  C    6.667920   5.695229   4.325126   3.817648   3.790069
    28  F    7.105947   6.365564   5.018808   4.336552   4.640307
    29  F    7.603592   6.289324   4.975734   4.796420   4.081416
    30  F    7.107916   6.366131   5.019155   4.338068   4.639365
    31  O    4.934951   3.626988   4.851427   6.088297   5.142168
    32  O    4.888279   2.759456   3.483109   4.884507   3.250858
    33  C    5.351287   3.549711   4.532591   5.892032   4.481189
    34  C    6.887393   5.011829   5.856120   7.252320   5.540205
    35  C    7.678452   6.092312   7.102126   8.462340   6.947780
    36  H    7.266873   5.280088   5.976256   7.371978   5.503700
    37  H    7.270351   5.290191   5.997970   7.395321   5.533965
    38  H    7.559137   6.149524   7.231716   8.547048   7.200821
    39  H    8.742521   7.069923   8.001981   9.385971   7.714462
    40  H    7.560973   6.156927   7.248564   8.566025   7.223134
                   11         12         13         14         15
    11  C    0.000000
    12  C    1.400647   0.000000
    13  C    2.391574   1.397756   0.000000
    14  H   10.502006  11.019323  10.229579   0.000000
    15  H    9.944344  10.276834   9.346327   1.770968   0.000000
    16  H    9.958443  10.306792   9.387994   1.770681   1.769068
    17  H    8.278842   8.893514   8.239161   2.515636   2.533604
    18  H    8.294279   8.926245   8.284261   2.516719   3.084694
    19  H    7.539586   7.791252   6.844236   3.769876   3.111465
    20  H    7.508542   7.741664   6.779654   3.777138   2.578385
    21  H    5.942837   6.644159   6.134101   4.639702   4.501786
    22  H    3.852227   4.697442   4.461074   6.761649   6.459167
    23  H    3.870746   3.417607   2.149745   8.369682   7.364098
    24  H    2.153837   3.415901   3.854335   8.930711   8.635297
    25  H    1.084847   2.147776   3.376730  11.267385  10.806884
    26  Cl   4.020546   2.737901   1.752374  11.171500  10.101506
    27  C    2.510981   1.495083   2.534781  12.509081  11.735572
    28  F    3.458829   2.377495   3.030773  13.043000  12.128429
    29  F    2.700831   2.357162   3.668475  13.162333  12.515544
    30  F    3.457370   2.377643   3.032650  13.063445  12.288665
    31  O    6.504181   7.481931   7.263783   5.080826   5.465135
    32  O    4.518921   5.677651   5.786642   7.146096   7.211049
    33  C    5.773942   6.900093   6.909315   6.334966   6.654149
    34  C    6.702606   7.955281   8.154035   7.195230   7.766613
    35  C    8.162824   9.374363   9.467009   6.660396   7.531413
    36  H    6.564551   7.858798   8.171499   7.928893   8.532461
    37  H    6.601427   7.894984   8.201827   7.863057   8.315658
    38  H    8.453323   9.607881   9.609755   6.167185   7.184617
    39  H    8.854906  10.125167  10.323285   7.576707   8.533396
    40  H    8.481267   9.636663   9.634523   6.080551   6.922969
                   16         17         18         19         20
    16  H    0.000000
    17  H    3.084248   0.000000
    18  H    2.533345   1.749776   0.000000
    19  H    2.569208   3.065582   2.518700   0.000000
    20  H    3.129752   2.510522   3.067333   1.760261   0.000000
    21  H    4.465350   2.506888   2.440747   2.849741   2.893858
    22  H    6.448546   4.534155   4.518126   4.361718   4.363172
    23  H    7.415513   6.591012   6.646075   4.892646   4.810686
    24  H    8.627003   6.652067   6.640406   6.450775   6.446979
    25  H   10.813680   8.997526   9.004406   8.452738   8.430478
    26  Cl  10.160761   9.366530   9.427965   7.638918   7.556262
    27  C   11.769056  10.380661  10.416578   9.236931   9.184613
    28  F   12.323980  10.885401  11.098973   9.813035   9.558698
    29  F   12.539025  10.948148  10.973309  10.052121  10.011341
    30  F   12.172720  11.079753  10.950840   9.609105   9.746318
    31  O    5.384621   3.052348   2.907591   4.374739   4.459107
    32  O    7.172844   4.910774   4.854643   5.496830   5.530377
    33  C    6.588939   4.227022   4.124748   5.325168   5.389707
    34  C    7.684789   5.278993   5.159611   6.717040   6.794197
    35  C    7.419935   5.122476   4.959940   6.973317   7.076904
    36  H    8.274909   6.110065   5.749323   7.182487   7.460385
    37  H    8.425260   5.786649   5.941727   7.387949   7.246822
    38  H    6.843854   4.929733   4.425399   6.543487   6.884373
    39  H    8.419080   6.151612   5.994855   8.059326   8.163493
    40  H    7.024297   4.519063   4.672312   6.767862   6.649581
                   21         22         23         24         25
    21  H    0.000000
    22  H    2.129405   0.000000
    23  H    4.782436   3.758660   0.000000
    24  H    4.293187   2.194857   4.302264   0.000000
    25  H    6.647273   4.518690   4.955593   2.475837   0.000000
    26  Cl   7.463467   6.027911   2.809935   5.606115   4.884234
    27  C    8.134194   6.158420   4.683846   4.664177   2.701304
    28  F    8.798506   6.899308   5.060408   5.537070   3.675857
    29  F    8.636815   6.553055   5.766835   4.713826   2.322061
    30  F    8.794068   6.899318   5.062702   5.535532   3.673301
    31  O    1.783912   2.814908   6.267940   4.490897   6.966502
    32  O    2.788890   1.720387   5.424332   2.387653   4.824724
    33  C    2.562189   2.544564   6.284528   3.649931   6.082314
    34  C    4.026046   3.976581   7.734723   4.555584   6.792010
    35  C    4.551925   5.109300   8.821167   6.009246   8.299526
    36  H    4.593695   4.254700   7.934864   4.483449   6.550384
    37  H    4.583578   4.261745   7.953105   4.513361   6.591465
    38  H    4.420059   5.227068   8.828567   6.325176   8.661744
    39  H    5.639690   6.060002   9.804612   6.717423   8.878491
    40  H    4.407959   5.231603   8.843668   6.345690   8.692317
                   26         27         28         29         30
    26  Cl   0.000000
    27  C    3.091885   0.000000
    28  F    3.089715   1.350563   0.000000
    29  F    4.437563   1.350772   2.157386   0.000000
    30  F    3.093701   1.350627   2.157784   2.157362   0.000000
    31  O    8.773335   8.915565   9.667111   9.171540   9.654151
    32  O    7.466307   7.014473   7.832584   7.097458   7.830427
    33  C    8.538812   8.261012   9.062879   8.359823   9.053417
    34  C    9.841459   9.212613  10.049020   9.113764  10.036962
    35  C   11.108526  10.672994  11.493895  10.619491  11.474507
    36  H    9.881255   9.042742   9.985262   8.851547   9.785251
    37  H    9.911307   9.083171   9.835289   8.894935  10.016101
    38  H   11.203645  10.941892  11.823986  10.960625  11.640949
    39  H   11.999674  11.360488  12.197811  11.196963  12.177991
    40  H   11.229050  10.974592  11.696063  10.995140  11.835663
                   31         32         33         34         35
    31  O    0.000000
    32  O    2.245771   0.000000
    33  C    1.255454   1.262856   0.000000
    34  C    2.398351   2.375938   1.536975   0.000000
    35  C    2.768441   3.706913   2.571308   1.523571   0.000000
    36  H    3.102090   2.619420   2.134344   1.097013   2.174910
    37  H    3.097090   2.624000   2.133932   1.097089   2.174607
    38  H    2.726836   4.007424   2.828903   2.166234   1.093879
    39  H    3.855987   4.537907   3.520427   2.176198   1.096974
    40  H    2.719697   4.009531   2.827594   2.166130   1.093824
                   36         37         38         39         40
    36  H    0.000000
    37  H    1.748876   0.000000
    38  H    2.535160   3.082244   0.000000
    39  H    2.524593   2.523779   1.779669   0.000000
    40  H    3.082340   2.535251   1.757277   1.779853   0.000000
 Stoichiometry    C14H17ClF3N2O3(1-)
 Framework group  C1[X(C14H17ClF3N2O3)]
 Deg. of freedom   114
 Full point group                 C1      NOp   1
 Largest Abelian subgroup         C1      NOp   1
 Largest concise Abelian subgroup C1      NOp   1
                         Standard orientation:                         
 ---------------------------------------------------------------------
 Center     Atomic      Atomic             Coordinates (Angstroms)
 Number     Number       Type             X           Y           Z
 ---------------------------------------------------------------------
      1          6           0       -6.067841   -3.176314    0.031278
      2          6           0       -5.103651   -1.992860    0.061711
      3          6           0       -3.651633   -2.448784   -0.028667
      4          7           0       -2.774322   -1.300718   -0.003443
      5          6           0       -1.432674   -1.470737   -0.009318
      6          8           0       -0.889908   -2.578090   -0.022593
      7          7           0       -0.738665   -0.264954    0.003450
      8          6           0        0.622974   -0.086631    0.003206
      9          6           0        1.567154   -1.133532   -0.009836
     10          6           0        1.090268    1.246386    0.017661
     11          6           0        2.445385    1.513950    0.019175
     12          6           0        3.394917    0.484365    0.006619
     13          6           0        2.919547   -0.829992   -0.007933
     14          1           0       -7.109113   -2.844639    0.099128
     15          1           0       -5.878397   -3.860622    0.866880
     16          1           0       -5.958464   -3.749768   -0.896896
     17          1           0       -5.239277   -1.411637    0.981535
     18          1           0       -5.316665   -1.302721   -0.763132
     19          1           0       -3.492784   -3.029721   -0.949620
     20          1           0       -3.409076   -3.121130    0.806272
     21          1           0       -3.196073   -0.354241   -0.014316
     22          1           0       -1.300679    0.615822    0.014367
     23          1           0        1.231772   -2.161403   -0.020865
     24          1           0        0.359662    2.051264    0.027495
     25          1           0        2.785995    2.543876    0.030544
     26         17           0        4.041668   -2.175871   -0.024388
     27          6           0        4.854771    0.806998    0.008928
     28          9           0        5.508863    0.308735    1.080337
     29          9           0        5.072654    2.139966    0.026475
     30          9           0        5.506054    0.337700   -1.077251
     31          8           0       -4.051537    1.211072   -0.032121
     32          8           0       -2.024711    2.176370    0.028398
     33          6           0       -3.286859    2.206307   -0.001453
     34          6           0       -3.922439    3.605706    0.001757
     35          6           0       -5.445339    3.603029   -0.043365
     36          1           0       -3.502312    4.152092   -0.851702
     37          1           0       -3.554537    4.123674    0.896163
     38          1           0       -5.803507    3.092184   -0.941877
     39          1           0       -5.844965    4.624607   -0.037896
     40          1           0       -5.855383    3.062109    0.814377
 ---------------------------------------------------------------------
 Rotational constants (GHZ):      0.3590385      0.0952371      0.0764600
 Counterpoise: doing full dimer calculation.
 General basis read from cards:  (6D, 7F)
 There are   475 symmetry adapted cartesian basis functions of A   symmetry.
 There are   475 symmetry adapted basis functions of A   symmetry.
   475 basis functions,   828 primitive gaussians,   475 cartesian basis functions
    92 alpha electrons       92 beta electrons
       nuclear repulsion energy      2086.4336315219 Hartrees.
 NAtoms=   40 NActive=   40 NUniq=   40 SFac= 1.00D+00 NAtFMM=   60 NAOKFM=F Big=F
 Integral buffers will be    131072 words long.
 Raffenetti 2 integral format.
 Two-electron integral symmetry is turned on.
 One-electron integrals computed using PRISM.
 NBasis=   475 RedAO= T EigKep=  1.49D-06  NBF=   475
 NBsUse=   473 1.00D-06 EigRej=  7.48D-07 NBFU=   473
 ExpMin= 4.38D-02 ExpMax= 2.52D+04 ExpMxC= 3.78D+03 IAcc=3 IRadAn=         5 AccDes= 0.00D+00
 Harris functional with IExCor= 1009 and IRadAn=       5 diagonalized for initial guess.
 HarFok:  IExCor= 1009 AccDes= 0.00D+00 IRadAn=         5 IDoV= 1 UseB2=F ITyADJ=14
 ICtDFT=  3500011 ScaDFX=  1.000000  1.000000  1.000000  1.000000
 FoFCou: FMM=F IPFlag=           0 FMFlag=      100000 FMFlg1=           0
         NFxFlg=           0 DoJE=T BraDBF=F KetDBF=T FulRan=T
         wScrn=  0.000000 ICntrl=     500 IOpCl=  0 I1Cent=   200000004 NGrid=           0
         NMat0=    1 NMatS0=      1 NMatT0=    0 NMatD0=    1 NMtDS0=    0 NMtDT0=    0
 Petite list used in FoFCou.
 Requested convergence on RMS density matrix=1.00D-08 within 128 cycles.
 Requested convergence on MAX density matrix=1.00D-06.
 Requested convergence on             energy=1.00D-06.
 No special actions if energy rises.
 SCF Done:  E(RM062X) =  -1638.34333038     A.U. after   16 cycles
            NFock= 16  Conv=0.51D-08     -V/T= 2.0066

 **********************************************************************

            Population analysis using the SCF density.

 **********************************************************************

 Orbital symmetries:
       Occupied  (A) (A) (A) (A) (A) (A) (A) (A) (A) (A) (A) (A)
                 (A) (A) (A) (A) (A) (A) (A) (A) (A) (A) (A) (A)
                 (A) (A) (A) (A) (A) (A) (A) (A) (A) (A) (A) (A)
                 (A) (A) (A) (A) (A) (A) (A) (A) (A) (A) (A) (A)
                 (A) (A) (A) (A) (A) (A) (A) (A) (A) (A) (A) (A)
                 (A) (A) (A) (A) (A) (A) (A) (A) (A) (A) (A) (A)
                 (A) (A) (A) (A) (A) (A) (A) (A) (A) (A) (A) (A)
                 (A) (A) (A) (A) (A) (A) (A) (A)
       Virtual   (A) (A) (A) (A) (A) (A) (A) (A) (A) (A) (A) (A)
                 (A) (A) (A) (A) (A) (A) (A) (A) (A) (A) (A) (A)
                 (A) (A) (A) (A) (A) (A) (A) (A) (A) (A) (A) (A)
                 (A) (A) (A) (A) (A) (A) (A) (A) (A) (A) (A) (A)
                 (A) (A) (A) (A) (A) (A) (A) (A) (A) (A) (A) (A)
                 (A) (A) (A) (A) (A) (A) (A) (A) (A) (A) (A) (A)
                 (A) (A) (A) (A) (A) (A) (A) (A) (A) (A) (A) (A)
                 (A) (A) (A) (A) (A) (A) (A) (A) (A) (A) (A) (A)
                 (A) (A) (A) (A) (A) (A) (A) (A) (A) (A) (A) (A)
                 (A) (A) (A) (A) (A) (A) (A) (A) (A) (A) (A) (A)
                 (A) (A) (A) (A) (A) (A) (A) (A) (A) (A) (A) (A)
                 (A) (A) (A) (A) (A) (A) (A) (A) (A) (A) (A) (A)
                 (A) (A) (A) (A) (A) (A) (A) (A) (A) (A) (A) (A)
                 (A) (A) (A) (A) (A) (A) (A) (A) (A) (A) (A) (A)
                 (A) (A) (A) (A) (A) (A) (A) (A) (A) (A) (A) (A)
                 (A) (A) (A) (A) (A) (A) (A) (A) (A) (A) (A) (A)
                 (A) (A) (A) (A) (A) (A) (A) (A) (A) (A) (A) (A)
                 (A) (A) (A) (A) (A) (A) (A) (A) (A) (A) (A) (A)
                 (A) (A) (A) (A) (A) (A) (A) (A) (A) (A) (A) (A)
                 (A) (A) (A) (A) (A) (A) (A) (A) (A) (A) (A) (A)
                 (A) (A) (A) (A) (A) (A) (A) (A) (A) (A) (A) (A)
                 (A) (A) (A) (A) (A) (A) (A) (A) (A) (A) (A) (A)
                 (A) (A) (A) (A) (A) (A) (A) (A) (A) (A) (A) (A)
                 (A) (A) (A) (A) (A) (A) (A) (A) (A) (A) (A) (A)
                 (A) (A) (A) (A) (A) (A) (A) (A) (A) (A) (A) (A)
                 (A) (A) (A) (A) (A) (A) (A) (A) (A) (A) (A) (A)
                 (A) (A) (A) (A) (A) (A) (A) (A) (A) (A) (A) (A)
                 (A) (A) (A) (A) (A) (A) (A) (A) (A) (A) (A) (A)
                 (A) (A) (A) (A) (A) (A) (A) (A) (A) (A) (A) (A)
                 (A) (A) (A) (A) (A) (A) (A) (A) (A) (A) (A) (A)
                 (A) (A) (A) (A) (A) (A) (A) (A) (A) (A) (A) (A)
                 (A) (A) (A) (A) (A) (A) (A) (A) (A)
 The electronic state is 1-A.
 Alpha  occ. eigenvalues -- -102.58175 -25.21294 -25.20593 -25.20592 -19.49349
 Alpha  occ. eigenvalues --  -19.47352 -19.47100 -14.67018 -14.65195 -10.72121
 Alpha  occ. eigenvalues --  -10.56286 -10.53277 -10.52109 -10.51151 -10.48350
 Alpha  occ. eigenvalues --  -10.47709 -10.47397 -10.45820 -10.45612 -10.45507
 Alpha  occ. eigenvalues --  -10.44896 -10.43251 -10.43206  -9.72835  -7.45236
 Alpha  occ. eigenvalues --   -7.44583  -7.44560  -1.37385  -1.28227  -1.27740
 Alpha  occ. eigenvalues --   -1.05509  -1.03567  -0.94350  -0.93746  -0.91353
 Alpha  occ. eigenvalues --   -0.89942  -0.84167  -0.79347  -0.77722  -0.75312
 Alpha  occ. eigenvalues --   -0.74224  -0.71133  -0.67889  -0.63153  -0.61852
 Alpha  occ. eigenvalues --   -0.61471  -0.59658  -0.59181  -0.58466  -0.56078
 Alpha  occ. eigenvalues --   -0.55278  -0.51258  -0.49824  -0.48089  -0.47881
 Alpha  occ. eigenvalues --   -0.46640  -0.45381  -0.44766  -0.44089  -0.43786
 Alpha  occ. eigenvalues --   -0.43344  -0.42626  -0.41833  -0.41828  -0.41109
 Alpha  occ. eigenvalues --   -0.41074  -0.40219  -0.40058  -0.39150  -0.38028
 Alpha  occ. eigenvalues --   -0.37476  -0.36693  -0.35839  -0.35235  -0.34409
 Alpha  occ. eigenvalues --   -0.33955  -0.32964  -0.32198  -0.31699  -0.31173
 Alpha  occ. eigenvalues --   -0.30566  -0.30033  -0.29091  -0.28732  -0.26966
 Alpha  occ. eigenvalues --   -0.22937  -0.21258  -0.20377  -0.19817  -0.19538
 Alpha  occ. eigenvalues --   -0.19386  -0.16124
 Alpha virt. eigenvalues --    0.10003   0.10182   0.10273   0.10866   0.10932
 Alpha virt. eigenvalues --    0.11139   0.12051   0.12498   0.13123   0.13197
 Alpha virt. eigenvalues --    0.13461   0.13793   0.14690   0.14881   0.15220
 Alpha virt. eigenvalues --    0.15262   0.15630   0.16169   0.16518   0.17045
 Alpha virt. eigenvalues --    0.17714   0.18145   0.18242   0.18485   0.18627
 Alpha virt. eigenvalues --    0.19349   0.19621   0.20178   0.20458   0.20600
 Alpha virt. eigenvalues --    0.21218   0.21670   0.21956   0.22116   0.22495
 Alpha virt. eigenvalues --    0.22869   0.23163   0.23347   0.24319   0.24841
 Alpha virt. eigenvalues --    0.25196   0.25604   0.26010   0.26395   0.27161
 Alpha virt. eigenvalues --    0.28127   0.28583   0.28704   0.29121   0.29700
 Alpha virt. eigenvalues --    0.30032   0.30468   0.30595   0.31257   0.31529
 Alpha virt. eigenvalues --    0.31885   0.32276   0.32479   0.32610   0.33138
 Alpha virt. eigenvalues --    0.33231   0.34055   0.34222   0.34556   0.34901
 Alpha virt. eigenvalues --    0.34971   0.35131   0.35438   0.36233   0.36389
 Alpha virt. eigenvalues --    0.36704   0.37122   0.37553   0.37789   0.38171
 Alpha virt. eigenvalues --    0.38574   0.39231   0.39563   0.39745   0.39850
 Alpha virt. eigenvalues --    0.40410   0.40588   0.40681   0.41181   0.41757
 Alpha virt. eigenvalues --    0.41956   0.42384   0.43061   0.43450   0.43598
 Alpha virt. eigenvalues --    0.43766   0.44467   0.44723   0.44989   0.45454
 Alpha virt. eigenvalues --    0.45885   0.46033   0.46317   0.46639   0.46970
 Alpha virt. eigenvalues --    0.47067   0.47840   0.48042   0.48488   0.49144
 Alpha virt. eigenvalues --    0.49691   0.50022   0.50222   0.50366   0.51861
 Alpha virt. eigenvalues --    0.52627   0.53100   0.53810   0.54044   0.54685
 Alpha virt. eigenvalues --    0.54918   0.55879   0.56267   0.56593   0.57930
 Alpha virt. eigenvalues --    0.58892   0.60018   0.60684   0.62937   0.64306
 Alpha virt. eigenvalues --    0.64843   0.65706   0.65787   0.67487   0.69389
 Alpha virt. eigenvalues --    0.70210   0.71674   0.73236   0.73939   0.76316
 Alpha virt. eigenvalues --    0.77999   0.78866   0.80168   0.80283   0.80970
 Alpha virt. eigenvalues --    0.81917   0.82922   0.83928   0.84586   0.84930
 Alpha virt. eigenvalues --    0.86019   0.86413   0.86695   0.87137   0.87156
 Alpha virt. eigenvalues --    0.87833   0.88363   0.89004   0.91086   0.91982
 Alpha virt. eigenvalues --    0.92695   0.92900   0.93394   0.94216   0.94392
 Alpha virt. eigenvalues --    0.94869   0.96881   0.97286   0.97894   0.98795
 Alpha virt. eigenvalues --    0.99792   1.00413   1.00779   1.03950   1.06194
 Alpha virt. eigenvalues --    1.06565   1.06986   1.07351   1.08751   1.08839
 Alpha virt. eigenvalues --    1.09884   1.10103   1.10501   1.12396   1.13822
 Alpha virt. eigenvalues --    1.14122   1.14644   1.16568   1.16665   1.17210
 Alpha virt. eigenvalues --    1.17774   1.18990   1.19213   1.19683   1.21085
 Alpha virt. eigenvalues --    1.21542   1.23795   1.26315   1.26739   1.27687
 Alpha virt. eigenvalues --    1.28034   1.29112   1.29527   1.31503   1.31921
 Alpha virt. eigenvalues --    1.32429   1.34004   1.34323   1.35287   1.36281
 Alpha virt. eigenvalues --    1.38376   1.40988   1.41460   1.43633   1.43913
 Alpha virt. eigenvalues --    1.44821   1.47130   1.47561   1.48836   1.49198
 Alpha virt. eigenvalues --    1.50568   1.51326   1.51562   1.53258   1.54087
 Alpha virt. eigenvalues --    1.54409   1.55598   1.56469   1.56760   1.57577
 Alpha virt. eigenvalues --    1.58497   1.59644   1.60551   1.61033   1.61913
 Alpha virt. eigenvalues --    1.63042   1.63966   1.65709   1.68204   1.68627
 Alpha virt. eigenvalues --    1.68909   1.69424   1.70684   1.72783   1.73156
 Alpha virt. eigenvalues --    1.74815   1.76220   1.76285   1.78672   1.78888
 Alpha virt. eigenvalues --    1.80384   1.82691   1.83404   1.83549   1.84437
 Alpha virt. eigenvalues --    1.84876   1.85801   1.87953   1.88297   1.90531
 Alpha virt. eigenvalues --    1.92098   1.92509   1.94845   1.95123   1.96914
 Alpha virt. eigenvalues --    1.97346   1.97733   1.98772   1.98854   1.99062
 Alpha virt. eigenvalues --    1.99513   2.01589   2.02343   2.02894   2.03129
 Alpha virt. eigenvalues --    2.04522   2.06063   2.06786   2.06984   2.07508
 Alpha virt. eigenvalues --    2.08083   2.09302   2.09514   2.11764   2.12814
 Alpha virt. eigenvalues --    2.13441   2.16023   2.16296   2.17894   2.18159
 Alpha virt. eigenvalues --    2.19030   2.19435   2.19980   2.21150   2.22406
 Alpha virt. eigenvalues --    2.22579   2.22641   2.23136   2.24980   2.25796
 Alpha virt. eigenvalues --    2.26129   2.27335   2.27510   2.28440   2.28583
 Alpha virt. eigenvalues --    2.31555   2.31830   2.33362   2.36402   2.37565
 Alpha virt. eigenvalues --    2.38323   2.40679   2.41226   2.41462   2.42862
 Alpha virt. eigenvalues --    2.43202   2.46651   2.48517   2.49164   2.49827
 Alpha virt. eigenvalues --    2.49885   2.50950   2.53433   2.55085   2.56880
 Alpha virt. eigenvalues --    2.60493   2.60953   2.62263   2.65409   2.65994
 Alpha virt. eigenvalues --    2.67128   2.71982   2.73757   2.75324   2.76546
 Alpha virt. eigenvalues --    2.76863   2.77236   2.78545   2.85523   2.88478
 Alpha virt. eigenvalues --    2.88575   2.89458   2.90201   2.90564   2.92489
 Alpha virt. eigenvalues --    2.93965   2.96193   3.00527   3.05870   3.06614
 Alpha virt. eigenvalues --    3.09838   3.14358   3.22897   3.24188   3.26673
 Alpha virt. eigenvalues --    3.28243   3.28304   3.35353   3.36512   3.40945
 Alpha virt. eigenvalues --    3.42662   3.48221   3.54256   4.34867   4.37096
 Alpha virt. eigenvalues --    4.37951   4.41592   4.43379   4.51393   4.54024
 Alpha virt. eigenvalues --    4.54522   4.56343   4.57221   4.59379   4.60271
 Alpha virt. eigenvalues --    4.61952   4.67835   4.73979   4.76417   4.83549
 Alpha virt. eigenvalues --    4.85850   4.90035   5.00741   5.67878   6.21189
 Alpha virt. eigenvalues --    7.05333
          Condensed to atoms (all electrons):
               1          2          3          4          5          6
     1  C    5.923079  -0.309021   0.046964  -0.026755  -0.053804  -0.000698
     2  C   -0.309021   6.581666  -0.691462  -0.049255   0.293234   0.027550
     3  C    0.046964  -0.691462   7.202919   0.279016  -0.866982  -0.137374
     4  N   -0.026755  -0.049255   0.279016   7.810661   0.429195  -0.187360
     5  C   -0.053804   0.293234  -0.866982   0.429195   6.269160   0.566717
     6  O   -0.000698   0.027550  -0.137374  -0.187360   0.566717   8.341674
     7  N   -0.000242   0.024483  -0.087603  -0.326570   0.201219  -0.049073
     8  C   -0.000007   0.014702  -0.152621  -0.118703  -0.244120  -0.405979
     9  C   -0.005889  -0.010661  -0.236941  -0.042315  -0.862390   0.438656
    10  C   -0.002115   0.008861   0.022185   0.000571   0.175620  -0.118785
    11  C   -0.000479   0.000549   0.005946  -0.002158   0.212670  -0.028636
    12  C   -0.000465   0.000939  -0.038382   0.002623  -0.412437   0.005155
    13  C    0.000246  -0.002962  -0.021592   0.005292  -0.183092   0.153733
    14  H    0.462761  -0.138645   0.030789   0.000477  -0.001633   0.000001
    15  H    0.431902  -0.066600  -0.018027   0.000554  -0.000612  -0.000027
    16  H    0.411429  -0.061995  -0.004221  -0.000160   0.001749  -0.000008
    17  H   -0.044559   0.430383  -0.070801   0.003954  -0.001966  -0.000112
    18  H   -0.026705   0.437742  -0.093558   0.006794  -0.002446  -0.000103
    19  H   -0.016551  -0.061912   0.452769  -0.056860  -0.016963   0.000398
    20  H   -0.006406  -0.046523   0.485937  -0.048598  -0.066637  -0.000627
    21  H    0.003433  -0.004449  -0.015491   0.146198  -0.011040   0.003483
    22  H   -0.000148  -0.001937  -0.004390   0.008971  -0.047699   0.002766
    23  H    0.000025  -0.000001   0.002936   0.001304   0.026898  -0.002530
    24  H   -0.000007   0.000046  -0.001413   0.000356  -0.021210   0.000092
    25  H    0.000000   0.000000   0.000030   0.000019   0.002913  -0.000000
    26  Cl   0.000002  -0.000050   0.000993   0.000754   0.001383  -0.002179
    27  C   -0.000033  -0.000020  -0.004740   0.001444  -0.127262   0.002402
    28  F   -0.000000  -0.000000  -0.000003  -0.000000  -0.000269   0.000001
    29  F   -0.000000   0.000000  -0.000001   0.000001   0.000051   0.000000
    30  F   -0.000000  -0.000000  -0.000003  -0.000000  -0.000193   0.000001
    31  O    0.007541   0.001323   0.009904  -0.028254  -0.009247   0.000219
    32  O   -0.001457  -0.008198   0.008247   0.007380  -0.011220  -0.000292
    33  C   -0.008974  -0.011759   0.017372  -0.003602   0.002502  -0.001603
    34  C    0.007158  -0.016610   0.053545  -0.039561  -0.054721  -0.001400
    35  C    0.000070   0.004793  -0.006875   0.005034   0.004191   0.000071
    36  H   -0.000009  -0.000100   0.000158   0.000039  -0.000351  -0.000000
    37  H    0.000005   0.000070   0.000021  -0.000015  -0.000215  -0.000000
    38  H    0.000032   0.000099  -0.000270  -0.000088   0.000027  -0.000000
    39  H   -0.000011  -0.000031   0.000011   0.000030   0.000017   0.000000
    40  H   -0.000078  -0.000066  -0.000202  -0.000082   0.000010  -0.000000
               7          8          9         10         11         12
     1  C   -0.000242  -0.000007  -0.005889  -0.002115  -0.000479  -0.000465
     2  C    0.024483   0.014702  -0.010661   0.008861   0.000549   0.000939
     3  C   -0.087603  -0.152621  -0.236941   0.022185   0.005946  -0.038382
     4  N   -0.326570  -0.118703  -0.042315   0.000571  -0.002158   0.002623
     5  C    0.201219  -0.244120  -0.862390   0.175620   0.212670  -0.412437
     6  O   -0.049073  -0.405979   0.438656  -0.118785  -0.028636   0.005155
     7  N    7.910588   0.212061  -0.186955  -0.111294   0.023205  -0.077711
     8  C    0.212061  14.385816  -0.360494   1.429921  -2.739031  -0.639650
     9  C   -0.186955  -0.360494  11.291644  -3.319425  -1.666127  -1.467465
    10  C   -0.111294   1.429921  -3.319425  14.432285  -0.780836  -1.627909
    11  C    0.023205  -2.739031  -1.666127  -0.780836  13.163464   1.295794
    12  C   -0.077711  -0.639650  -1.467465  -1.627909   1.295794  16.153285
    13  C    0.061179  -3.629325   2.724528  -3.998973  -4.175952  -3.448054
    14  H    0.000016  -0.000022  -0.000009  -0.000001  -0.000000  -0.000000
    15  H    0.000027  -0.000028  -0.000034   0.000005   0.000000  -0.000000
    16  H    0.000021   0.000060  -0.000021   0.000005   0.000000   0.000000
    17  H   -0.000380  -0.000430  -0.000103   0.000125   0.000006   0.000001
    18  H    0.000264  -0.001620  -0.000224   0.000190   0.000020  -0.000010
    19  H   -0.001195   0.002188  -0.000384   0.000041  -0.000011   0.000068
    20  H   -0.001042  -0.002288  -0.007332   0.001432   0.000140  -0.000133
    21  H    0.000062   0.008304  -0.009349   0.002335  -0.000359  -0.000282
    22  H    0.091367  -0.006151   0.074004  -0.061817   0.011533   0.012744
    23  H   -0.019083  -0.035605   0.270741   0.020522  -0.019544   0.076881
    24  H   -0.009186  -0.074941   0.004649   0.262806   0.049306   0.074494
    25  H    0.000162   0.027242  -0.011075   0.034367   0.336205  -0.021609
    26  Cl   0.000440  -0.078783  -0.023139   0.114154   0.096164   0.033465
    27  C    0.014332  -1.156743  -0.222760  -0.486557   0.139093  -2.824151
    28  F    0.000016   0.008160  -0.022220   0.018408   0.012417   0.246192
    29  F    0.000028   0.030662  -0.015003   0.110021   0.036456  -0.133513
    30  F    0.000021   0.008837  -0.020779   0.016097   0.009944   0.245146
    31  O    0.004727  -0.010327  -0.003834  -0.008925  -0.003260  -0.001587
    32  O    0.007084  -0.329472  -0.035236   0.278891   0.098278   0.000306
    33  C   -0.010522   0.114349  -0.016342  -0.066696  -0.048373  -0.012832
    34  C   -0.026716  -0.049039  -0.032217   0.049409   0.014592  -0.000149
    35  C    0.005644  -0.001203   0.000322  -0.001794  -0.001446  -0.000477
    36  H   -0.000169  -0.001938  -0.000183   0.001634   0.000867   0.000007
    37  H   -0.000097  -0.001603  -0.000131   0.001224   0.000651  -0.000011
    38  H    0.000000  -0.000141  -0.000004   0.000133   0.000025   0.000000
    39  H   -0.000010   0.000055   0.000002  -0.000054  -0.000001  -0.000000
    40  H   -0.000002  -0.000162  -0.000007   0.000163   0.000028   0.000000
              13         14         15         16         17         18
     1  C    0.000246   0.462761   0.431902   0.411429  -0.044559  -0.026705
     2  C   -0.002962  -0.138645  -0.066600  -0.061995   0.430383   0.437742
     3  C   -0.021592   0.030789  -0.018027  -0.004221  -0.070801  -0.093558
     4  N    0.005292   0.000477   0.000554  -0.000160   0.003954   0.006794
     5  C   -0.183092  -0.001633  -0.000612   0.001749  -0.001966  -0.002446
     6  O    0.153733   0.000001  -0.000027  -0.000008  -0.000112  -0.000103
     7  N    0.061179   0.000016   0.000027   0.000021  -0.000380   0.000264
     8  C   -3.629325  -0.000022  -0.000028   0.000060  -0.000430  -0.001620
     9  C    2.724528  -0.000009  -0.000034  -0.000021  -0.000103  -0.000224
    10  C   -3.998973  -0.000001   0.000005   0.000005   0.000125   0.000190
    11  C   -4.175952  -0.000000   0.000000   0.000000   0.000006   0.000020
    12  C   -3.448054  -0.000000  -0.000000   0.000000   0.000001  -0.000010
    13  C   18.671685  -0.000000  -0.000001  -0.000000  -0.000005  -0.000011
    14  H   -0.000000   0.509208  -0.027690  -0.027510  -0.003034  -0.002967
    15  H   -0.000001  -0.027690   0.512887  -0.033508  -0.004589   0.003797
    16  H   -0.000000  -0.027510  -0.033508   0.511955   0.003864  -0.004411
    17  H   -0.000005  -0.003034  -0.004589   0.003864   0.486638  -0.031833
    18  H   -0.000011  -0.002967   0.003797  -0.004411  -0.031833   0.477090
    19  H    0.000033  -0.000076  -0.000372   0.002894   0.004312  -0.005459
    20  H   -0.000657  -0.000073   0.002864  -0.000319  -0.005607   0.004171
    21  H   -0.000556   0.000000   0.000001  -0.000002   0.000491   0.001331
    22  H    0.015191  -0.000000  -0.000000  -0.000000   0.000001   0.000002
    23  H   -0.026647   0.000000  -0.000000   0.000000  -0.000000  -0.000000
    24  H   -0.013258   0.000000  -0.000000   0.000000  -0.000000  -0.000000
    25  H   -0.028871  -0.000000   0.000000   0.000000  -0.000000   0.000000
    26  Cl  -0.432580   0.000000  -0.000000  -0.000000  -0.000000  -0.000000
    27  C    0.362137  -0.000000  -0.000000   0.000000   0.000000  -0.000000
    28  F   -0.217577  -0.000000  -0.000000   0.000000   0.000000  -0.000000
    29  F   -0.069566  -0.000000  -0.000000   0.000000   0.000000  -0.000000
    30  F   -0.213738  -0.000000  -0.000000  -0.000000  -0.000000   0.000000
    31  O    0.000670  -0.000033  -0.000030  -0.000002  -0.001659  -0.003730
    32  O    0.004179  -0.000000  -0.000000   0.000000   0.000027  -0.000061
    33  C   -0.005112  -0.000108  -0.000066  -0.000005  -0.000435  -0.001274
    34  C   -0.006314   0.000056  -0.000017  -0.000007   0.000341  -0.000297
    35  C   -0.000013  -0.000011   0.000006   0.000000  -0.000088   0.000164
    36  H   -0.000013  -0.000000   0.000000   0.000000   0.000000   0.000000
    37  H   -0.000008  -0.000000   0.000000   0.000000  -0.000000   0.000000
    38  H   -0.000000   0.000000  -0.000000  -0.000000  -0.000000   0.000001
    39  H    0.000000  -0.000000  -0.000000  -0.000000  -0.000000  -0.000000
    40  H   -0.000000   0.000000  -0.000000  -0.000000   0.000001  -0.000001
              19         20         21         22         23         24
     1  C   -0.016551  -0.006406   0.003433  -0.000148   0.000025  -0.000007
     2  C   -0.061912  -0.046523  -0.004449  -0.001937  -0.000001   0.000046
     3  C    0.452769   0.485937  -0.015491  -0.004390   0.002936  -0.001413
     4  N   -0.056860  -0.048598   0.146198   0.008971   0.001304   0.000356
     5  C   -0.016963  -0.066637  -0.011040  -0.047699   0.026898  -0.021210
     6  O    0.000398  -0.000627   0.003483   0.002766  -0.002530   0.000092
     7  N   -0.001195  -0.001042   0.000062   0.091367  -0.019083  -0.009186
     8  C    0.002188  -0.002288   0.008304  -0.006151  -0.035605  -0.074941
     9  C   -0.000384  -0.007332  -0.009349   0.074004   0.270741   0.004649
    10  C    0.000041   0.001432   0.002335  -0.061817   0.020522   0.262806
    11  C   -0.000011   0.000140  -0.000359   0.011533  -0.019544   0.049306
    12  C    0.000068  -0.000133  -0.000282   0.012744   0.076881   0.074494
    13  C    0.000033  -0.000657  -0.000556   0.015191  -0.026647  -0.013258
    14  H   -0.000076  -0.000073   0.000000  -0.000000   0.000000   0.000000
    15  H   -0.000372   0.002864   0.000001  -0.000000  -0.000000  -0.000000
    16  H    0.002894  -0.000319  -0.000002  -0.000000   0.000000   0.000000
    17  H    0.004312  -0.005607   0.000491   0.000001  -0.000000  -0.000000
    18  H   -0.005459   0.004171   0.001331   0.000002  -0.000000  -0.000000
    19  H    0.533889  -0.048696   0.001489   0.000007  -0.000000   0.000000
    20  H   -0.048696   0.523661   0.001740   0.000008  -0.000001   0.000000
    21  H    0.001489   0.001740   0.245594   0.009309   0.000001   0.000001
    22  H    0.000007   0.000008   0.009309   0.268359  -0.000181   0.006826
    23  H   -0.000000  -0.000001   0.000001  -0.000181   0.407593  -0.000100
    24  H    0.000000   0.000000   0.000001   0.006826  -0.000100   0.429090
    25  H    0.000000   0.000000   0.000000  -0.000008   0.000011  -0.003160
    26  Cl   0.000000  -0.000000  -0.000004  -0.000036   0.009215  -0.000065
    27  C    0.000002  -0.000002  -0.000022   0.001591  -0.004378   0.021342
    28  F    0.000000  -0.000000  -0.000000   0.000000  -0.000011   0.000012
    29  F   -0.000000  -0.000000   0.000000  -0.000000   0.000015   0.000090
    30  F   -0.000000   0.000000  -0.000000   0.000000  -0.000011   0.000012
    31  O    0.000118  -0.000226   0.080078  -0.001357   0.000001   0.000029
    32  O    0.000002  -0.000014   0.000019   0.098536   0.000016  -0.002604
    33  C    0.000624   0.000984  -0.011028  -0.007727   0.000110  -0.000394
    34  C    0.000102   0.000101   0.024615   0.018254  -0.000009   0.000212
    35  C   -0.000006   0.000018  -0.003542  -0.003176  -0.000000   0.000012
    36  H   -0.000000   0.000000  -0.000024  -0.000006   0.000000  -0.000003
    37  H    0.000000  -0.000000  -0.000024  -0.000007   0.000000  -0.000002
    38  H   -0.000000  -0.000000  -0.000011  -0.000000   0.000000   0.000000
    39  H    0.000000   0.000000   0.000000   0.000000  -0.000000  -0.000000
    40  H   -0.000000  -0.000000  -0.000012  -0.000000   0.000000   0.000000
              25         26         27         28         29         30
     1  C    0.000000   0.000002  -0.000033  -0.000000  -0.000000  -0.000000
     2  C    0.000000  -0.000050  -0.000020  -0.000000   0.000000  -0.000000
     3  C    0.000030   0.000993  -0.004740  -0.000003  -0.000001  -0.000003
     4  N    0.000019   0.000754   0.001444  -0.000000   0.000001  -0.000000
     5  C    0.002913   0.001383  -0.127262  -0.000269   0.000051  -0.000193
     6  O   -0.000000  -0.002179   0.002402   0.000001   0.000000   0.000001
     7  N    0.000162   0.000440   0.014332   0.000016   0.000028   0.000021
     8  C    0.027242  -0.078783  -1.156743   0.008160   0.030662   0.008837
     9  C   -0.011075  -0.023139  -0.222760  -0.022220  -0.015003  -0.020779
    10  C    0.034367   0.114154  -0.486557   0.018408   0.110021   0.016097
    11  C    0.336205   0.096164   0.139093   0.012417   0.036456   0.009944
    12  C   -0.021609   0.033465  -2.824151   0.246192  -0.133513   0.245146
    13  C   -0.028871  -0.432580   0.362137  -0.217577  -0.069566  -0.213738
    14  H   -0.000000   0.000000  -0.000000  -0.000000  -0.000000  -0.000000
    15  H    0.000000  -0.000000  -0.000000  -0.000000  -0.000000  -0.000000
    16  H    0.000000  -0.000000   0.000000   0.000000   0.000000  -0.000000
    17  H   -0.000000  -0.000000   0.000000   0.000000   0.000000  -0.000000
    18  H    0.000000  -0.000000  -0.000000  -0.000000  -0.000000   0.000000
    19  H    0.000000   0.000000   0.000002   0.000000  -0.000000  -0.000000
    20  H    0.000000  -0.000000  -0.000002  -0.000000  -0.000000   0.000000
    21  H    0.000000  -0.000004  -0.000022  -0.000000   0.000000  -0.000000
    22  H   -0.000008  -0.000036   0.001591   0.000000  -0.000000   0.000000
    23  H    0.000011   0.009215  -0.004378  -0.000011   0.000015  -0.000011
    24  H   -0.003160  -0.000065   0.021342   0.000012   0.000090   0.000012
    25  H    0.480064   0.000526  -0.045154  -0.000226   0.006400  -0.000228
    26  Cl   0.000526  17.105637  -0.009398  -0.003102   0.003493  -0.002841
    27  C   -0.045154  -0.009398   8.516694   0.072245   0.134412   0.071694
    28  F   -0.000226  -0.003102   0.072245   9.271901  -0.044281  -0.062676
    29  F    0.006400   0.003493   0.134412  -0.044281   9.336547  -0.044408
    30  F   -0.000228  -0.002841   0.071694  -0.062676  -0.044408   9.271901
    31  O   -0.000000   0.000001  -0.000103  -0.000000  -0.000000  -0.000000
    32  O    0.000086   0.000116  -0.000760  -0.000001   0.000003  -0.000001
    33  C    0.000079  -0.000043  -0.002208  -0.000001   0.000009  -0.000001
    34  C   -0.000010  -0.000037  -0.000634   0.000000  -0.000002   0.000000
    35  C   -0.000000   0.000001  -0.000030  -0.000000  -0.000000  -0.000000
    36  H   -0.000000   0.000000  -0.000000  -0.000000   0.000000   0.000000
    37  H   -0.000000   0.000000  -0.000001  -0.000000   0.000000  -0.000000
    38  H   -0.000000   0.000000   0.000000  -0.000000   0.000000  -0.000000
    39  H   -0.000000   0.000000  -0.000000  -0.000000   0.000000  -0.000000
    40  H   -0.000000   0.000000   0.000000  -0.000000   0.000000   0.000000
              31         32         33         34         35         36
     1  C    0.007541  -0.001457  -0.008974   0.007158   0.000070  -0.000009
     2  C    0.001323  -0.008198  -0.011759  -0.016610   0.004793  -0.000100
     3  C    0.009904   0.008247   0.017372   0.053545  -0.006875   0.000158
     4  N   -0.028254   0.007380  -0.003602  -0.039561   0.005034   0.000039
     5  C   -0.009247  -0.011220   0.002502  -0.054721   0.004191  -0.000351
     6  O    0.000219  -0.000292  -0.001603  -0.001400   0.000071  -0.000000
     7  N    0.004727   0.007084  -0.010522  -0.026716   0.005644  -0.000169
     8  C   -0.010327  -0.329472   0.114349  -0.049039  -0.001203  -0.001938
     9  C   -0.003834  -0.035236  -0.016342  -0.032217   0.000322  -0.000183
    10  C   -0.008925   0.278891  -0.066696   0.049409  -0.001794   0.001634
    11  C   -0.003260   0.098278  -0.048373   0.014592  -0.001446   0.000867
    12  C   -0.001587   0.000306  -0.012832  -0.000149  -0.000477   0.000007
    13  C    0.000670   0.004179  -0.005112  -0.006314  -0.000013  -0.000013
    14  H   -0.000033  -0.000000  -0.000108   0.000056  -0.000011  -0.000000
    15  H   -0.000030  -0.000000  -0.000066  -0.000017   0.000006   0.000000
    16  H   -0.000002   0.000000  -0.000005  -0.000007   0.000000   0.000000
    17  H   -0.001659   0.000027  -0.000435   0.000341  -0.000088   0.000000
    18  H   -0.003730  -0.000061  -0.001274  -0.000297   0.000164   0.000000
    19  H    0.000118   0.000002   0.000624   0.000102  -0.000006  -0.000000
    20  H   -0.000226  -0.000014   0.000984   0.000101   0.000018   0.000000
    21  H    0.080078   0.000019  -0.011028   0.024615  -0.003542  -0.000024
    22  H   -0.001357   0.098536  -0.007727   0.018254  -0.003176  -0.000006
    23  H    0.000001   0.000016   0.000110  -0.000009  -0.000000   0.000000
    24  H    0.000029  -0.002604  -0.000394   0.000212   0.000012  -0.000003
    25  H   -0.000000   0.000086   0.000079  -0.000010  -0.000000  -0.000000
    26  Cl   0.000001   0.000116  -0.000043  -0.000037   0.000001   0.000000
    27  C   -0.000103  -0.000760  -0.002208  -0.000634  -0.000030  -0.000000
    28  F   -0.000000  -0.000001  -0.000001   0.000000  -0.000000  -0.000000
    29  F   -0.000000   0.000003   0.000009  -0.000002  -0.000000   0.000000
    30  F   -0.000000  -0.000001  -0.000001   0.000000  -0.000000   0.000000
    31  O    8.493789  -0.188103   0.384825  -0.131304   0.040842   0.001172
    32  O   -0.188103   8.583412   0.351527  -0.213214   0.034541  -0.002433
    33  C    0.384825   0.351527   5.776992  -1.033617   0.017492  -0.079736
    34  C   -0.131304  -0.213214  -1.033617   7.594583  -0.344014   0.443495
    35  C    0.040842   0.034541   0.017492  -0.344014   5.840067  -0.043786
    36  H    0.001172  -0.002433  -0.079736   0.443495  -0.043786   0.503696
    37  H    0.001782  -0.003105  -0.073023   0.437517  -0.044465  -0.029686
    38  H   -0.004887   0.000177  -0.009066  -0.057003   0.423246  -0.003995
    39  H    0.002391  -0.000317   0.040090  -0.094257   0.392786  -0.002023
    40  H   -0.005322   0.000228  -0.009158  -0.057216   0.424185   0.003663
              37         38         39         40
     1  C    0.000005   0.000032  -0.000011  -0.000078
     2  C    0.000070   0.000099  -0.000031  -0.000066
     3  C    0.000021  -0.000270   0.000011  -0.000202
     4  N   -0.000015  -0.000088   0.000030  -0.000082
     5  C   -0.000215   0.000027   0.000017   0.000010
     6  O   -0.000000  -0.000000   0.000000  -0.000000
     7  N   -0.000097   0.000000  -0.000010  -0.000002
     8  C   -0.001603  -0.000141   0.000055  -0.000162
     9  C   -0.000131  -0.000004   0.000002  -0.000007
    10  C    0.001224   0.000133  -0.000054   0.000163
    11  C    0.000651   0.000025  -0.000001   0.000028
    12  C   -0.000011   0.000000  -0.000000   0.000000
    13  C   -0.000008  -0.000000   0.000000  -0.000000
    14  H   -0.000000   0.000000  -0.000000   0.000000
    15  H    0.000000  -0.000000  -0.000000  -0.000000
    16  H    0.000000  -0.000000  -0.000000  -0.000000
    17  H   -0.000000  -0.000000  -0.000000   0.000001
    18  H    0.000000   0.000001  -0.000000  -0.000001
    19  H    0.000000  -0.000000   0.000000  -0.000000
    20  H   -0.000000  -0.000000   0.000000  -0.000000
    21  H   -0.000024  -0.000011   0.000000  -0.000012
    22  H   -0.000007  -0.000000   0.000000  -0.000000
    23  H    0.000000   0.000000  -0.000000   0.000000
    24  H   -0.000002   0.000000  -0.000000   0.000000
    25  H   -0.000000  -0.000000  -0.000000  -0.000000
    26  Cl   0.000000   0.000000   0.000000   0.000000
    27  C   -0.000001   0.000000  -0.000000   0.000000
    28  F   -0.000000  -0.000000  -0.000000  -0.000000
    29  F    0.000000   0.000000   0.000000   0.000000
    30  F   -0.000000  -0.000000  -0.000000   0.000000
    31  O    0.001782  -0.004887   0.002391  -0.005322
    32  O   -0.003105   0.000177  -0.000317   0.000228
    33  C   -0.073023  -0.009066   0.040090  -0.009158
    34  C    0.437517  -0.057003  -0.094257  -0.057216
    35  C   -0.044465   0.423246   0.392786   0.424185
    36  H   -0.029686  -0.003995  -0.002023   0.003663
    37  H    0.503751   0.003668  -0.002046  -0.003980
    38  H    0.003668   0.490543  -0.030246  -0.026995
    39  H   -0.002046  -0.030246   0.550110  -0.030189
    40  H   -0.003980  -0.026995  -0.030189   0.489788
 Mulliken charges:
               1
     1  C   -0.790236
     2  C   -0.344184
     3  C   -0.166788
     4  N   -0.780328
     5  C    0.808955
     6  O   -0.606133
     7  N   -0.649096
     8  C   -0.201929
     9  C   -0.225498
    10  C   -0.396223
    11  C   -0.041138
    12  C   -1.440273
    13  C    0.476003
    14  H    0.198504
    15  H    0.199559
    16  H    0.200191
    17  H    0.235460
    18  H    0.243142
    19  H    0.209550
    20  H    0.214126
    21  H    0.527714
    22  H    0.515171
    23  H    0.291833
    24  H    0.276967
    25  H    0.222241
    26  Cl   0.185915
    27  C    1.547571
    28  F   -0.278981
    29  F   -0.351413
    30  F   -0.278774
    31  O   -0.627225
    32  O   -0.676565
    33  C    0.706751
    34  C   -0.485615
    35  C   -0.742559
    36  H    0.209724
    37  H    0.209732
    38  H    0.214757
    39  H    0.173690
    40  H    0.215405
 Sum of Mulliken charges =  -1.00000
 Mulliken charges with hydrogens summed into heavy atoms:
               1
     1  C   -0.191982
     2  C    0.134417
     3  C    0.256887
     4  N   -0.252615
     5  C    0.808955
     6  O   -0.606133
     7  N   -0.133925
     8  C   -0.201929
     9  C    0.066335
    10  C   -0.119257
    11  C    0.181103
    12  C   -1.440273
    13  C    0.476003
    26  Cl   0.185915
    27  C    1.547571
    28  F   -0.278981
    29  F   -0.351413
    30  F   -0.278774
    31  O   -0.627225
    32  O   -0.676565
    33  C    0.706751
    34  C   -0.066158
    35  C   -0.138707
         Mulliken charges condensed to fragments:
      1     -0.198097
      2     -0.801903
 Electronic spatial extent (au):  <R**2>=          13017.5503
 Charge=             -1.0000 electrons
 Dipole moment (field-independent basis, Debye):
    X=              1.1754    Y=              0.1038    Z=              0.0410  Tot=              1.1806
 Quadrupole moment (field-independent basis, Debye-Ang):
   XX=           -215.2161   YY=           -168.5875   ZZ=           -148.1817
   XY=             10.1876   XZ=             -0.1891   YZ=             -0.1608
 Traceless Quadrupole moment (field-independent basis, Debye-Ang):
   XX=            -37.8877   YY=              8.7409   ZZ=             29.1468
   XY=             10.1876   XZ=             -0.1891   YZ=             -0.1608
 Octapole moment (field-independent basis, Debye-Ang**2):
  XXX=             49.0492  YYY=             28.2194  ZZZ=             -0.0644  XYY=             66.1968
  XXY=            -48.7431  XXZ=              1.2269  XZZ=             19.0073  YZZ=              2.5267
  YYZ=              0.4926  XYZ=             -0.2281
 Hexadecapole moment (field-independent basis, Debye-Ang**3):
 XXXX=         -14711.9941 YYYY=          -4003.9234 ZZZZ=           -260.9622 XXXY=            172.4426
 XXXZ=             -7.6273 YYYX=             70.4571 YYYZ=             -2.0516 ZZZX=              1.1166
 ZZZY=              0.8781 XXYY=          -3013.8506 XXZZ=          -2214.0386 YYZZ=           -671.8503
 XXYZ=              3.5758 YYXZ=             -1.3592 ZZXY=             17.6933
 N-N= 2.086433631522D+03 E-N=-8.046627612619D+03  KE= 1.627552152743D+03
 CPIOFr:  IOpCl= 0 IRwI=-1 IRwCP=  731 ICalc= -1 LCPTot=      351879 Len1MO=      910887 IndFrg=      351879
 CPIOFr:  IOpCl= 0 IRwI=-1 IRwCP=  731 ICalc=  0 LCPTot=      351879 Len1MO=      910887 IndFrg=     1262766
 Counterpoise: doing DCBS calculation for fragment   1 NewBq=T
 Basis read from rwf:  (6D, 7F)
 There are   475 symmetry adapted cartesian basis functions of A   symmetry.
 There are   475 symmetry adapted basis functions of A   symmetry.
   475 basis functions,   828 primitive gaussians,   475 cartesian basis functions
    72 alpha electrons       72 beta electrons
       nuclear repulsion energy      1430.1478039415 Hartrees.
 NAtoms=   40 NActive=   40 NUniq=   40 SFac= 1.00D+00 NAtFMM=   60 NAOKFM=F Big=F
 Integral buffers will be    131072 words long.
 Raffenetti 2 integral format.
 Two-electron integral symmetry is turned on.
 One-electron integrals computed using PRISM.
 NBasis=   475 RedAO= T EigKep=  1.49D-06  NBF=   475
 NBsUse=   473 1.00D-06 EigRej=  7.48D-07 NBFU=   473
 ExpMin= 4.38D-02 ExpMax= 2.52D+04 ExpMxC= 3.78D+03 IAcc=3 IRadAn=         5 AccDes= 0.00D+00
 Harris functional with IExCor= 1009 and IRadAn=       5 diagonalized for initial guess.
 HarFok:  IExCor= 1009 AccDes= 0.00D+00 IRadAn=         5 IDoV= 1 UseB2=F ITyADJ=14
 ICtDFT=  3500011 ScaDFX=  1.000000  1.000000  1.000000  1.000000
 FoFCou: FMM=F IPFlag=           0 FMFlag=      100000 FMFlg1=           0
         NFxFlg=           0 DoJE=T BraDBF=F KetDBF=T FulRan=T
         wScrn=  0.000000 ICntrl=     500 IOpCl=  0 I1Cent=   200000004 NGrid=           0
         NMat0=    1 NMatS0=      1 NMatT0=    0 NMatD0=    1 NMtDS0=    0 NMtDT0=    0
 Petite list used in FoFCou.
 Requested convergence on RMS density matrix=1.00D-08 within 128 cycles.
 Requested convergence on MAX density matrix=1.00D-06.
 Requested convergence on             energy=1.00D-06.
 No special actions if energy rises.
 SCF Done:  E(RM062X) =  -1370.53190265     A.U. after   15 cycles
            NFock= 15  Conv=0.54D-08     -V/T= 2.0064

 **********************************************************************

            Population analysis using the SCF density.

 **********************************************************************

 Orbital symmetries:
       Occupied  (A) (A) (A) (A) (A) (A) (A) (A) (A) (A) (A) (A)
                 (A) (A) (A) (A) (A) (A) (A) (A) (A) (A) (A) (A)
                 (A) (A) (A) (A) (A) (A) (A) (A) (A) (A) (A) (A)
                 (A) (A) (A) (A) (A) (A) (A) (A) (A) (A) (A) (A)
                 (A) (A) (A) (A) (A) (A) (A) (A) (A) (A) (A) (A)
                 (A) (A) (A) (A) (A) (A) (A) (A) (A) (A) (A) (A)
       Virtual   (A) (A) (A) (A) (A) (A) (A) (A) (A) (A) (A) (A)
                 (A) (A) (A) (A) (A) (A) (A) (A) (A) (A) (A) (A)
                 (A) (A) (A) (A) (A) (A) (A) (A) (A) (A) (A) (A)
                 (A) (A) (A) (A) (A) (A) (A) (A) (A) (A) (A) (A)
                 (A) (A) (A) (A) (A) (A) (A) (A) (A) (A) (A) (A)
                 (A) (A) (A) (A) (A) (A) (A) (A) (A) (A) (A) (A)
                 (A) (A) (A) (A) (A) (A) (A) (A) (A) (A) (A) (A)
                 (A) (A) (A) (A) (A) (A) (A) (A) (A) (A) (A) (A)
                 (A) (A) (A) (A) (A) (A) (A) (A) (A) (A) (A) (A)
                 (A) (A) (A) (A) (A) (A) (A) (A) (A) (A) (A) (A)
                 (A) (A) (A) (A) (A) (A) (A) (A) (A) (A) (A) (A)
                 (A) (A) (A) (A) (A) (A) (A) (A) (A) (A) (A) (A)
                 (A) (A) (A) (A) (A) (A) (A) (A) (A) (A) (A) (A)
                 (A) (A) (A) (A) (A) (A) (A) (A) (A) (A) (A) (A)
                 (A) (A) (A) (A) (A) (A) (A) (A) (A) (A) (A) (A)
                 (A) (A) (A) (A) (A) (A) (A) (A) (A) (A) (A) (A)
                 (A) (A) (A) (A) (A) (A) (A) (A) (A) (A) (A) (A)
                 (A) (A) (A) (A) (A) (A) (A) (A) (A) (A) (A) (A)
                 (A) (A) (A) (A) (A) (A) (A) (A) (A) (A) (A) (A)
                 (A) (A) (A) (A) (A) (A) (A) (A) (A) (A) (A) (A)
                 (A) (A) (A) (A) (A) (A) (A) (A) (A) (A) (A) (A)
                 (A) (A) (A) (A) (A) (A) (A) (A) (A) (A) (A) (A)
                 (A) (A) (A) (A) (A) (A) (A) (A) (A) (A) (A) (A)
                 (A) (A) (A) (A) (A) (A) (A) (A) (A) (A) (A) (A)
                 (A) (A) (A) (A) (A) (A) (A) (A) (A) (A) (A) (A)
                 (A) (A) (A) (A) (A) (A) (A) (A) (A) (A) (A) (A)
                 (A) (A) (A) (A) (A) (A) (A) (A) (A) (A) (A) (A)
                 (A) (A) (A) (A) (A) (A) (A) (A) (A) (A) (A) (A)
                 (A) (A) (A) (A) (A) (A) (A) (A) (A) (A) (A) (A)
                 (A) (A) (A) (A) (A) (A) (A) (A) (A) (A) (A) (A)
                 (A) (A) (A) (A) (A) (A) (A) (A) (A) (A) (A) (A)
                 (A) (A) (A) (A) (A) (A) (A) (A) (A) (A) (A) (A)
                 (A) (A) (A) (A) (A) (A) (A) (A) (A) (A) (A) (A)
                 (A) (A) (A) (A) (A)
 The electronic state is 1-A.
 Alpha  occ. eigenvalues -- -102.67483 -25.29714 -25.28959 -25.28959 -19.62932
 Alpha  occ. eigenvalues --  -14.83090 -14.81236 -10.81055 -10.70628 -10.63868
 Alpha  occ. eigenvalues --  -10.63433 -10.59916 -10.59144 -10.58826 -10.58034
 Alpha  occ. eigenvalues --  -10.57256 -10.57169 -10.55674  -9.82115  -7.54531
 Alpha  occ. eigenvalues --   -7.53850  -7.53821  -1.45780  -1.36605  -1.36065
 Alpha  occ. eigenvalues --   -1.19383  -1.08525  -1.05564  -1.00999  -0.94772
 Alpha  occ. eigenvalues --   -0.91071  -0.88935  -0.85313  -0.82098  -0.78915
 Alpha  occ. eigenvalues --   -0.74444  -0.72495  -0.71200  -0.69538  -0.68011
 Alpha  occ. eigenvalues --   -0.67975  -0.66626  -0.64771  -0.62388  -0.57932
 Alpha  occ. eigenvalues --   -0.56658  -0.56452  -0.56377  -0.55107  -0.54568
 Alpha  occ. eigenvalues --   -0.54180  -0.52306  -0.52148  -0.51940  -0.50839
 Alpha  occ. eigenvalues --   -0.50310  -0.50092  -0.49367  -0.48988  -0.47022
 Alpha  occ. eigenvalues --   -0.45809  -0.44816  -0.43780  -0.42937  -0.42495
 Alpha  occ. eigenvalues --   -0.41633  -0.38678  -0.37998  -0.36146  -0.34161
 Alpha  occ. eigenvalues --   -0.31792  -0.29138
 Alpha virt. eigenvalues --   -0.02861  -0.01066  -0.00169   0.00739   0.01866
 Alpha virt. eigenvalues --    0.01955   0.02078   0.03057   0.03443   0.03991
 Alpha virt. eigenvalues --    0.04836   0.04924   0.05390   0.05699   0.05812
 Alpha virt. eigenvalues --    0.06526   0.06686   0.06756   0.07514   0.08051
 Alpha virt. eigenvalues --    0.08113   0.08420   0.08609   0.09299   0.09502
 Alpha virt. eigenvalues --    0.09701   0.10386   0.10688   0.10719   0.10757
 Alpha virt. eigenvalues --    0.11736   0.11944   0.12342   0.13046   0.13402
 Alpha virt. eigenvalues --    0.13552   0.13777   0.14144   0.14832   0.15107
 Alpha virt. eigenvalues --    0.15464   0.15661   0.15749   0.16758   0.16885
 Alpha virt. eigenvalues --    0.17916   0.18064   0.18560   0.18792   0.19055
 Alpha virt. eigenvalues --    0.19115   0.19518   0.20252   0.20675   0.20777
 Alpha virt. eigenvalues --    0.20963   0.21605   0.21680   0.22127   0.22274
 Alpha virt. eigenvalues --    0.22352   0.23263   0.23414   0.23965   0.24379
 Alpha virt. eigenvalues --    0.24592   0.24888   0.25573   0.25696   0.25815
 Alpha virt. eigenvalues --    0.26631   0.26889   0.27248   0.27333   0.27661
 Alpha virt. eigenvalues --    0.28286   0.28300   0.28522   0.29178   0.29727
 Alpha virt. eigenvalues --    0.30015   0.30407   0.30770   0.31266   0.31451
 Alpha virt. eigenvalues --    0.31703   0.32315   0.32621   0.33213   0.33681
 Alpha virt. eigenvalues --    0.33988   0.34229   0.34637   0.35113   0.35820
 Alpha virt. eigenvalues --    0.36342   0.36753   0.37552   0.38326   0.38528
 Alpha virt. eigenvalues --    0.39006   0.39103   0.39445   0.39457   0.40121
 Alpha virt. eigenvalues --    0.40471   0.41179   0.41265   0.41458   0.42596
 Alpha virt. eigenvalues --    0.43644   0.43722   0.44121   0.45195   0.45731
 Alpha virt. eigenvalues --    0.45849   0.47358   0.48226   0.48740   0.49769
 Alpha virt. eigenvalues --    0.51084   0.51538   0.52753   0.53110   0.53643
 Alpha virt. eigenvalues --    0.54364   0.55146   0.57250   0.58593   0.60034
 Alpha virt. eigenvalues --    0.60587   0.60636   0.63340   0.65412   0.66795
 Alpha virt. eigenvalues --    0.67458   0.67739   0.68094   0.68732   0.70112
 Alpha virt. eigenvalues --    0.70290   0.71549   0.72698   0.73266   0.73771
 Alpha virt. eigenvalues --    0.73829   0.74352   0.75286   0.75342   0.75554
 Alpha virt. eigenvalues --    0.75795   0.76070   0.76800   0.77604   0.78675
 Alpha virt. eigenvalues --    0.79096   0.80632   0.81021   0.82371   0.82574
 Alpha virt. eigenvalues --    0.83450   0.83529   0.85045   0.85803   0.85977
 Alpha virt. eigenvalues --    0.86433   0.88100   0.88658   0.88848   0.89944
 Alpha virt. eigenvalues --    0.90541   0.91836   0.93019   0.94418   0.96507
 Alpha virt. eigenvalues --    0.96634   0.97560   0.97923   0.99701   1.00287
 Alpha virt. eigenvalues --    1.00554   1.02282   1.02445   1.03332   1.04176
 Alpha virt. eigenvalues --    1.04865   1.04954   1.05588   1.07317   1.08889
 Alpha virt. eigenvalues --    1.08936   1.09872   1.12781   1.14940   1.16011
 Alpha virt. eigenvalues --    1.17120   1.18284   1.20155   1.20483   1.21363
 Alpha virt. eigenvalues --    1.22523   1.22889   1.23889   1.24212   1.26824
 Alpha virt. eigenvalues --    1.27937   1.30641   1.30890   1.31664   1.32622
 Alpha virt. eigenvalues --    1.34466   1.35321   1.37903   1.38024   1.41501
 Alpha virt. eigenvalues --    1.42298   1.42840   1.44093   1.44853   1.47135
 Alpha virt. eigenvalues --    1.47583   1.48358   1.49790   1.50832   1.51209
 Alpha virt. eigenvalues --    1.53241   1.55377   1.57056   1.58535   1.58730
 Alpha virt. eigenvalues --    1.62372   1.64632   1.66957   1.67218   1.70716
 Alpha virt. eigenvalues --    1.72084   1.72416   1.74019   1.74150   1.75532
 Alpha virt. eigenvalues --    1.75928   1.76348   1.79195   1.80930   1.81364
 Alpha virt. eigenvalues --    1.84904   1.85375   1.85933   1.86736   1.87560
 Alpha virt. eigenvalues --    1.88317   1.89525   1.90067   1.90420   1.91437
 Alpha virt. eigenvalues --    1.92809   1.93168   1.94118   1.94298   1.95096
 Alpha virt. eigenvalues --    1.96522   1.98161   1.99513   2.00934   2.01959
 Alpha virt. eigenvalues --    2.03319   2.04036   2.05440   2.06016   2.07286
 Alpha virt. eigenvalues --    2.09918   2.10967   2.11404   2.12889   2.13724
 Alpha virt. eigenvalues --    2.13907   2.14249   2.14625   2.15965   2.16888
 Alpha virt. eigenvalues --    2.17428   2.18111   2.18238   2.19333   2.19671
 Alpha virt. eigenvalues --    2.20193   2.22521   2.22613   2.23756   2.25784
 Alpha virt. eigenvalues --    2.28569   2.29556   2.31538   2.31913   2.34431
 Alpha virt. eigenvalues --    2.35616   2.36941   2.38049   2.38444   2.39342
 Alpha virt. eigenvalues --    2.40505   2.41010   2.41753   2.42812   2.51230
 Alpha virt. eigenvalues --    2.51861   2.52297   2.52726   2.54237   2.58587
 Alpha virt. eigenvalues --    2.60110   2.60916   2.63486   2.64118   2.64518
 Alpha virt. eigenvalues --    2.65387   2.66665   2.67352   2.68946   2.72152
 Alpha virt. eigenvalues --    2.73106   2.74799   2.76673   2.77784   2.79335
 Alpha virt. eigenvalues --    2.79669   2.80260   2.80760   2.82505   2.82839
 Alpha virt. eigenvalues --    2.85297   2.85760   2.86508   2.89509   2.94154
 Alpha virt. eigenvalues --    2.95981   2.97717   3.02472   3.02863   3.03787
 Alpha virt. eigenvalues --    3.05296   3.12005   3.13439   3.14184   3.16676
 Alpha virt. eigenvalues --    3.19813   3.22338   3.24495   3.27780   3.28568
 Alpha virt. eigenvalues --    3.31841   3.33035   3.33917   3.35486   3.41734
 Alpha virt. eigenvalues --    3.54557   3.55192   3.63764   3.70731   3.76111
 Alpha virt. eigenvalues --    3.77409   3.84330   3.86512   4.06440   4.15242
 Alpha virt. eigenvalues --    4.23529   4.26831   4.27548   4.29250   4.31734
 Alpha virt. eigenvalues --    4.40358   4.41857   4.44262   4.45494   4.46746
 Alpha virt. eigenvalues --    4.48130   4.49630   4.53116   4.55492   4.60579
 Alpha virt. eigenvalues --    4.64183   4.67309   4.73005   4.78840   4.79368
 Alpha virt. eigenvalues --    4.86188   5.20308   5.22503   5.26310   5.58532
 Alpha virt. eigenvalues --    5.59959   5.69344   6.13081   6.44667   6.51445
 Alpha virt. eigenvalues --    6.97368  23.86484  24.12116  24.30060  38.26134
 Alpha virt. eigenvalues --   38.80085
          Condensed to atoms (all electrons):
               1          2          3          4          5          6
     1  C    5.657435  -0.032028  -0.047866  -0.011570  -0.002897   0.001420
     2  C   -0.032028   6.177398  -0.466718  -0.067952   0.208962   0.020839
     3  C   -0.047866  -0.466718   6.913332   0.328490  -0.725003  -0.111935
     4  N   -0.011570  -0.067952   0.328490   7.675883   0.316212  -0.160874
     5  C   -0.002897   0.208962  -0.725003   0.316212   6.095841   0.577112
     6  O    0.001420   0.020839  -0.111935  -0.160874   0.577112   8.218585
     7  N    0.002628   0.025279  -0.103131  -0.381567   0.213510  -0.040986
     8  C   -0.000076   0.019490  -0.147880  -0.151250  -0.276190  -0.409646
     9  C   -0.002409  -0.009618  -0.171439   0.030187  -0.665974   0.412244
    10  C   -0.001212   0.003876   0.001476  -0.039208   0.047658  -0.101144
    11  C   -0.000221  -0.000729   0.004222  -0.011074   0.113027  -0.024557
    12  C   -0.000354   0.000873  -0.034364   0.009523  -0.414556   0.006669
    13  C    0.000250  -0.001582  -0.010555   0.024499  -0.016192   0.150886
    14  H    0.438303  -0.106299   0.024349   0.000871  -0.002151   0.000005
    15  H    0.423358  -0.061963  -0.014398   0.000734   0.000194  -0.000036
    16  H    0.414593  -0.066251  -0.006601   0.000195   0.005457  -0.000024
    17  H   -0.014924   0.408236  -0.089589   0.004390   0.005673  -0.000211
    18  H   -0.020137   0.413074  -0.087986   0.006059   0.000285  -0.000169
    19  H   -0.004228  -0.059973   0.440246  -0.045388  -0.019614  -0.002721
    20  H   -0.001580  -0.051032   0.462363  -0.038551  -0.047886  -0.003456
    21  H   -0.000842   0.005651  -0.067653   0.204828   0.015411   0.002499
    22  H   -0.000106  -0.001124  -0.005944   0.028998  -0.059669   0.003576
    23  H    0.000021  -0.000012   0.003297   0.001119   0.027713  -0.001583
    24  H   -0.000009   0.000045  -0.001964   0.000605  -0.031950   0.000088
    25  H    0.000000   0.000000   0.000028   0.000015   0.002776   0.000001
    26  Cl   0.000008  -0.000047   0.001151   0.000816   0.007980  -0.001248
    27  C   -0.000021  -0.000027  -0.003571   0.003221  -0.114801   0.002079
    28  F   -0.000000  -0.000000  -0.000004   0.000000  -0.000336   0.000000
    29  F   -0.000000   0.000000  -0.000001   0.000001  -0.000034   0.000001
    30  F   -0.000000  -0.000000  -0.000003   0.000000  -0.000274   0.000000
    31  O   -0.000780   0.003243  -0.012407   0.021715   0.015500   0.000242
    32  O    0.000217   0.000365   0.003520   0.007702  -0.007634   0.000298
    33  C   -0.002068  -0.007335   0.008546  -0.018133  -0.006825   0.000817
    34  C   -0.000222  -0.003217   0.012717  -0.008897  -0.025708  -0.000335
    35  C   -0.000103  -0.002229   0.001056   0.001062   0.000449   0.000009
    36  H   -0.000000  -0.000004  -0.000002  -0.000004  -0.000013  -0.000000
    37  H   -0.000001  -0.000006  -0.000002  -0.000004  -0.000017  -0.000000
    38  H    0.000001   0.000013  -0.000004  -0.000009  -0.000000  -0.000000
    39  H   -0.000000  -0.000000  -0.000002  -0.000000   0.000004   0.000000
    40  H    0.000002   0.000019  -0.000010  -0.000009   0.000001   0.000000
               7          8          9         10         11         12
     1  C    0.002628  -0.000076  -0.002409  -0.001212  -0.000221  -0.000354
     2  C    0.025279   0.019490  -0.009618   0.003876  -0.000729   0.000873
     3  C   -0.103131  -0.147880  -0.171439   0.001476   0.004222  -0.034364
     4  N   -0.381567  -0.151250   0.030187  -0.039208  -0.011074   0.009523
     5  C    0.213510  -0.276190  -0.665974   0.047658   0.113027  -0.414556
     6  O   -0.040986  -0.409646   0.412244  -0.101144  -0.024557   0.006669
     7  N    7.784069   0.172655  -0.254750  -0.023497   0.029730  -0.095448
     8  C    0.172655  12.034762  -0.558635   1.366893  -1.232928  -0.225226
     9  C   -0.254750  -0.558635   9.997103  -2.470468  -1.226032  -1.100992
    10  C   -0.023497   1.366893  -2.470468  12.040327   0.102503  -1.511919
    11  C    0.029730  -1.232928  -1.226032   0.102503  10.554905   0.525132
    12  C   -0.095448  -0.225226  -1.100992  -1.511919   0.525132  15.624157
    13  C    0.048981  -2.959177   2.300095  -3.504845  -3.313306  -2.929681
    14  H    0.000020  -0.000037  -0.000008   0.000001   0.000000  -0.000000
    15  H    0.000019  -0.000008  -0.000044   0.000007   0.000000  -0.000000
    16  H    0.000025   0.000107  -0.000000  -0.000000  -0.000000   0.000000
    17  H   -0.000178   0.000324   0.000016  -0.000036  -0.000008   0.000002
    18  H    0.000515  -0.001388  -0.000161   0.000123   0.000009  -0.000007
    19  H   -0.000923   0.002029  -0.001635   0.000149  -0.000011   0.000042
    20  H    0.000300  -0.002329  -0.005206   0.001016   0.000079  -0.000089
    21  H    0.024773   0.009813  -0.001714  -0.000259  -0.000490  -0.000159
    22  H    0.161507   0.090320   0.116427  -0.153789  -0.045489   0.012857
    23  H   -0.019112  -0.045032   0.281284   0.013458  -0.019966   0.068717
    24  H   -0.020336  -0.048031   0.019412   0.193386   0.039002   0.104980
    25  H    0.000133   0.029314  -0.010878   0.044271   0.324597  -0.016786
    26  Cl   0.000710  -0.007556   0.013753   0.104693   0.103693  -0.081320
    27  C    0.010216  -1.139174  -0.312336  -0.221845  -0.065007  -2.958426
    28  F    0.000018   0.006932  -0.028233   0.027517   0.013470   0.295470
    29  F    0.000024   0.029759  -0.017083   0.123449   0.044911  -0.145187
    30  F    0.000023   0.007210  -0.027394   0.025820   0.011638   0.293242
    31  O    0.004711  -0.001451   0.004913  -0.001860   0.001044  -0.000104
    32  O    0.024602   0.061917   0.021535  -0.025266  -0.043433  -0.007169
    33  C   -0.004550   0.017372  -0.017418   0.014146  -0.013342  -0.006341
[...]
    14  H   -0.000057  -0.000057  -0.000005  -0.000000  -0.000000   0.000000
    15  H   -0.000388   0.002398   0.000004  -0.000000  -0.000000   0.000000
    16  H    0.002529  -0.000292   0.000000  -0.000000   0.000000  -0.000000
    17  H    0.004128  -0.005636   0.000765   0.000003  -0.000000  -0.000000
    18  H   -0.005847   0.004058   0.001891   0.000005  -0.000000   0.000000
    19  H    0.495053  -0.039634   0.002474   0.000004  -0.000000   0.000000
    20  H   -0.039634   0.483848   0.002878   0.000006  -0.000001   0.000000
    21  H    0.002474   0.002878   0.338560   0.003932  -0.000001   0.000009
    22  H    0.000004   0.000006   0.003932   0.351322  -0.000174   0.009660
    23  H   -0.000000  -0.000001  -0.000001  -0.000174   0.399410  -0.000109
    24  H    0.000000   0.000000   0.000009   0.009660  -0.000109   0.508893
    25  H   -0.000000  -0.000000  -0.000000  -0.000014   0.000010  -0.003543
    26  Cl   0.000002   0.000002   0.000003   0.000035   0.006095  -0.000142
    27  C    0.000001  -0.000003  -0.000019   0.001885   0.000712   0.019787
    28  F    0.000000  -0.000000  -0.000000   0.000000  -0.000002   0.000008
    29  F   -0.000000  -0.000000   0.000000   0.000000   0.000014   0.000143
    30  F   -0.000000  -0.000000  -0.000000   0.000000  -0.000002   0.000008
              25         26         27         28         29         30
     1  C    0.000000   0.000005  -0.000012  -0.000000  -0.000000  -0.000000
     2  C   -0.000000  -0.000040   0.000030   0.000000   0.000000  -0.000000
     3  C    0.000025   0.001643  -0.003095  -0.000004   0.000000  -0.000003
     4  N    0.000006   0.001237   0.003825  -0.000000   0.000001  -0.000000
     5  C    0.002894   0.016315  -0.128084  -0.000358   0.000236  -0.000246
     6  O    0.000001  -0.000678   0.001270  -0.000000   0.000000  -0.000000
     7  N    0.000044   0.000610   0.004743  -0.000043   0.000033  -0.000034
     8  C    0.028923  -0.007268  -1.162409  -0.000086   0.021814   0.000902
     9  C   -0.002673   0.046334  -0.511584  -0.017173  -0.005374  -0.016185
    10  C   -0.014487   0.021908   0.505350   0.006105   0.067885   0.004061
    11  C    0.363316   0.175442  -1.085103   0.001158   0.086100   0.006225
    12  C   -0.012913  -0.132314  -2.749233   0.384410  -0.066822   0.388524
    13  C   -0.030363  -0.400380   1.013666  -0.283499  -0.120621  -0.288451
    14  H   -0.000000   0.000000  -0.000000  -0.000000  -0.000000  -0.000000
    15  H    0.000000  -0.000000  -0.000000  -0.000000  -0.000000  -0.000000
    16  H    0.000000  -0.000000   0.000000   0.000000   0.000000  -0.000000
    17  H   -0.000000  -0.000000   0.000000   0.000000   0.000000  -0.000000
    18  H   -0.000000  -0.000000  -0.000000  -0.000000  -0.000000   0.000000
    19  H   -0.000000   0.000002   0.000001   0.000000  -0.000000  -0.000000
    20  H   -0.000000   0.000002  -0.000003  -0.000000  -0.000000  -0.000000
    21  H   -0.000000   0.000003  -0.000019  -0.000000   0.000000  -0.000000
    22  H   -0.000014   0.000035   0.001885   0.000000   0.000000   0.000000
    23  H    0.000010   0.006095   0.000712  -0.000002   0.000014  -0.000002
    24  H   -0.003543  -0.000142   0.019787   0.000008   0.000143   0.000008
    25  H    0.454890   0.000651  -0.037978  -0.000101   0.006571  -0.000104
    26  Cl   0.000651  16.945263   0.052336  -0.000399   0.003430  -0.000092
    27  C   -0.037978   0.052336   8.260376   0.042309   0.120930   0.038341
    28  F   -0.000101  -0.000399   0.042309   9.239419  -0.046302  -0.064245
    29  F    0.006571   0.003430   0.120930  -0.046302   9.318899  -0.046376
    30  F   -0.000104  -0.000092   0.038341  -0.064245  -0.046376   9.238959
 Mulliken charges:
               1
     1  C   -0.720822
     2  C   -0.372873
     3  C   -0.105310
     4  N   -0.672283
     5  C    0.885562
     6  O   -0.576380
     7  N   -0.601739
     8  C   -0.097699
     9  C    0.423837
    10  C   -1.019523
    11  C   -0.412396
    12  C   -1.769766
    13  C    0.916898
    14  H    0.216202
    15  H    0.217114
    16  H    0.217029
    17  H    0.221534
    18  H    0.216607
    19  H    0.231589
    20  H    0.237104
    21  H    0.403322
    22  H    0.403553
    23  H    0.298634
    24  H    0.196037
    25  H    0.244845
    26  Cl   0.270001
    27  C    1.611959
    28  F   -0.261195
    29  F   -0.340562
    30  F   -0.261280
    31  O    0.000000
    32  O    0.000000
    33  C    0.000000
    34  C    0.000000
    35  C    0.000000
    36  H    0.000000
    37  H    0.000000
    38  H    0.000000
    39  H    0.000000
    40  H    0.000000
 Sum of Mulliken charges =  -0.00000
 Mulliken charges with hydrogens summed into heavy atoms:
               1
     1  C   -0.070476
     2  C    0.065267
     3  C    0.363383
     4  N   -0.268961
     5  C    0.885562
     6  O   -0.576380
     7  N   -0.198186
     8  C   -0.097699
     9  C    0.722471
    10  C   -0.823485
    11  C   -0.167551
    12  C   -1.769766
    13  C    0.916898
    26  Cl   0.270001
    27  C    1.611959
    28  F   -0.261195
    29  F   -0.340562
    30  F   -0.261280
    31  O    0.000000
    32  O    0.000000
    33  C    0.000000
    34  C    0.000000
    35  C    0.000000
         Mulliken charges condensed to fragments:
      1     -0.000000
      2      0.000000
 Electronic spatial extent (au):  <R**2>=           9529.5779
 Charge=             -0.0000 electrons
 Dipole moment (field-independent basis, Debye):
    X=             -8.5211    Y=              3.0530    Z=              0.0286  Tot=              9.0515
 Quadrupole moment (field-independent basis, Debye-Ang):
   XX=           -118.8404   YY=           -114.5446   ZZ=           -115.4303
   XY=              2.3979   XZ=              0.0166   YZ=             -0.0733
 Traceless Quadrupole moment (field-independent basis, Debye-Ang):
   XX=             -2.5686   YY=              1.7272   ZZ=              0.8415
   XY=              2.3979   XZ=              0.0166   YZ=             -0.0733
 Octapole moment (field-independent basis, Debye-Ang**2):
  XXX=           -494.4198  YYY=            276.5311  ZZZ=             -1.1628  XYY=           -104.8577
  XXY=             45.6611  XXZ=             -0.3764  XZZ=           -100.3702  YZZ=             83.0151
  YYZ=              0.4072  XYZ=              0.3711
 Hexadecapole moment (field-independent basis, Debye-Ang**3):
 XXXX=          -9881.2526 YYYY=          -2160.2448 ZZZZ=           -208.7657 XXXY=           -900.6627
 XXXZ=              4.2969 YYYX=           -941.2449 YYYZ=             -4.7972 ZZZX=              7.9969
 ZZZY=             -1.9744 XXYY=          -1867.2801 XXZZ=          -1656.7366 YYZZ=           -389.4938
 XXYZ=             -1.5203 YYXZ=              0.8415 ZZXY=           -313.5000
 N-N= 1.430147803942D+03 E-N=-6.085219236204D+03  KE= 1.361839222604D+03
 CPIOFr:  IOpCl= 0 IRwI=-1 IRwCP=  731 ICalc=  3 LCPTot=      351879 Len1MO=      910887 IndFrg=     3995427
 Counterpoise: doing MCBS calculation for fragment   2
 Basis read from rwf:  (6D, 7F)
 There are   105 symmetry adapted cartesian basis functions of A   symmetry.
 There are   105 symmetry adapted basis functions of A   symmetry.
   105 basis functions,   180 primitive gaussians,   105 cartesian basis functions
    20 alpha electrons       20 beta electrons
       nuclear repulsion energy       168.5550437937 Hartrees.
 NAtoms=   40 NActive=   10 NUniq=   10 SFac= 1.00D+00 NAtFMM=   60 NAOKFM=F Big=F
 Integral buffers will be    131072 words long.
 Raffenetti 2 integral format.
 Two-electron integral symmetry is turned on.
 One-electron integrals computed using PRISM.
 NBasis=   105 RedAO= T EigKep=  1.22D-04  NBF=   105
 NBsUse=   105 1.00D-06 EigRej= -1.00D+00 NBFU=   105
 ExpMin= 4.38D-02 ExpMax= 5.48D+03 ExpMxC= 8.25D+02 IAcc=3 IRadAn=         5 AccDes= 0.00D+00
 Harris functional with IExCor= 1009 and IRadAn=       5 diagonalized for initial guess.
 HarFok:  IExCor= 1009 AccDes= 0.00D+00 IRadAn=         5 IDoV= 1 UseB2=F ITyADJ=14
 ICtDFT=  3500011 ScaDFX=  1.000000  1.000000  1.000000  1.000000
 FoFCou: FMM=F IPFlag=           0 FMFlag=      100000 FMFlg1=           0
         NFxFlg=           0 DoJE=T BraDBF=F KetDBF=T FulRan=T
         wScrn=  0.000000 ICntrl=     500 IOpCl=  0 I1Cent=   200000004 NGrid=           0
         NMat0=    1 NMatS0=      1 NMatT0=    0 NMatD0=    1 NMtDS0=    0 NMtDT0=    0
 Petite list used in FoFCou.
 Keep R1 ints in memory in canonical form, NReq=16474200.
 Requested convergence on RMS density matrix=1.00D-08 within 128 cycles.
 Requested convergence on MAX density matrix=1.00D-06.
 Requested convergence on             energy=1.00D-06.
 No special actions if energy rises.
 SCF Done:  E(RM062X) =  -267.728476839     A.U. after   14 cycles
            NFock= 14  Conv=0.38D-08     -V/T= 2.0084

 **********************************************************************

            Population analysis using the SCF density.

 **********************************************************************

 Orbital symmetries:
       Occupied  (A) (A) (A) (A) (A) (A) (A) (A) (A) (A) (A) (A)
                 (A) (A) (A) (A) (A) (A) (A) (A)
       Virtual   (A) (A) (A) (A) (A) (A) (A) (A) (A) (A) (A) (A)
                 (A) (A) (A) (A) (A) (A) (A) (A) (A) (A) (A) (A)
                 (A) (A) (A) (A) (A) (A) (A) (A) (A) (A) (A) (A)
                 (A) (A) (A) (A) (A) (A) (A) (A) (A) (A) (A) (A)
                 (A) (A) (A) (A) (A) (A) (A) (A) (A) (A) (A) (A)
                 (A) (A) (A) (A) (A) (A) (A) (A) (A) (A) (A) (A)
                 (A) (A) (A) (A) (A) (A) (A) (A) (A) (A) (A) (A)
                 (A)
 The electronic state is 1-A.
 Alpha  occ. eigenvalues --  -19.38451 -19.37847 -10.43615 -10.38701 -10.37517
 Alpha  occ. eigenvalues --   -0.94247  -0.84506  -0.69935  -0.56004  -0.39514
 Alpha  occ. eigenvalues --   -0.36285  -0.33531  -0.30146  -0.27614  -0.27377
 Alpha  occ. eigenvalues --   -0.25039  -0.22657  -0.10890  -0.10876  -0.10127
 Alpha virt. eigenvalues --    0.14604   0.16486   0.18623   0.19558   0.21561
 Alpha virt. eigenvalues --    0.21842   0.22429   0.22871   0.23452   0.25918
 Alpha virt. eigenvalues --    0.28393   0.29728   0.30032   0.37980   0.38885
 Alpha virt. eigenvalues --    0.42274   0.42487   0.43634   0.45448   0.46286
 Alpha virt. eigenvalues --    0.46763   0.48017   0.49555   0.49766   0.50801
 Alpha virt. eigenvalues --    0.55091   0.56071   0.57259   0.71424   0.75496
 Alpha virt. eigenvalues --    0.84436   0.86602   0.89587   0.92069   0.94776
 Alpha virt. eigenvalues --    0.99429   1.01996   1.08466   1.10013   1.14574
 Alpha virt. eigenvalues --    1.20064   1.21302   1.31131   1.32717   1.34106
 Alpha virt. eigenvalues --    1.34605   1.49199   1.54782   1.57838   1.59072
 Alpha virt. eigenvalues --    1.61087   1.63263   1.63273   1.74384   1.78226
 Alpha virt. eigenvalues --    1.80782   1.86889   2.02484   2.02704   2.08643
 Alpha virt. eigenvalues --    2.09996   2.12093   2.14369   2.16594   2.22654
 Alpha virt. eigenvalues --    2.26504   2.28241   2.29482   2.45080   2.52354
 Alpha virt. eigenvalues --    2.54084   2.54297   2.73513   2.74104   2.78555
 Alpha virt. eigenvalues --    2.97705   3.13204   3.27445   3.32555   3.42472
 Alpha virt. eigenvalues --    4.36351   4.41516   4.58158   4.67144   4.82383
          Condensed to atoms (all electrons):
               1          2          3          4          5          6
     1  O    8.591825  -0.169400   0.458849  -0.322487   0.097797   0.001344
     2  O   -0.169400   8.622482   0.530636  -0.393231   0.080788  -0.003160
     3  C    0.458849   0.530636   4.835312  -0.359025   0.051087  -0.015306
     4  C   -0.322487  -0.393231  -0.359025   7.546991  -0.658158   0.389631
     5  C    0.097797   0.080788   0.051087  -0.658158   6.040881  -0.056389
     6  H    0.001344  -0.003160  -0.015306   0.389631  -0.056389   0.529481
     7  H    0.001245  -0.003115  -0.015404   0.389453  -0.056124  -0.032457
     8  H   -0.006513  -0.000093  -0.002903  -0.048216   0.410893  -0.004347
     9  H    0.002785  -0.000323   0.012084  -0.059021   0.377987  -0.002020
    10  H   -0.006556  -0.000107  -0.002416  -0.048752   0.411081   0.003867
               7          8          9         10
     1  O    0.001245  -0.006513   0.002785  -0.006556
     2  O   -0.003115  -0.000093  -0.000323  -0.000107
     3  C   -0.015404  -0.002903   0.012084  -0.002416
     4  C    0.389453  -0.048216  -0.059021  -0.048752
     5  C   -0.056124   0.410893   0.377987   0.411081
     6  H   -0.032457  -0.004347  -0.002020   0.003867
     7  H    0.529653   0.003867  -0.002028  -0.004344
     8  H    0.003867   0.499803  -0.033785  -0.025809
     9  H   -0.002028  -0.033785   0.588153  -0.033739
    10  H   -0.004344  -0.025809  -0.033739   0.499093
 Mulliken charges:
               1
     1  C    0.000000
     2  C    0.000000
     3  C    0.000000
     4  N    0.000000
     5  C    0.000000
     6  O    0.000000
     7  N    0.000000
     8  C    0.000000
     9  C    0.000000
    10  C    0.000000
    11  C    0.000000
    12  C    0.000000
    13  C    0.000000
    14  H    0.000000
    15  H    0.000000
    16  H    0.000000
    17  H    0.000000
    18  H    0.000000
    19  H    0.000000
    20  H    0.000000
    21  H    0.000000
    22  H    0.000000
    23  H    0.000000
    24  H    0.000000
    25  H    0.000000
    26  Cl   0.000000
    27  C    0.000000
    28  F    0.000000
    29  F    0.000000
    30  F    0.000000
    31  O   -0.648887
    32  O   -0.664475
    33  C    0.507087
    34  C   -0.437184
    35  C   -0.699842
    36  H    0.189357
    37  H    0.189255
    38  H    0.207103
    39  H    0.149908
    40  H    0.207680
 Sum of Mulliken charges =  -1.00000
 Mulliken charges with hydrogens summed into heavy atoms:
               1
     1  C    0.000000
     2  C    0.000000
     3  C    0.000000
     4  N    0.000000
     5  C    0.000000
     6  O    0.000000
     7  N    0.000000
     8  C    0.000000
     9  C    0.000000
    10  C    0.000000
    11  C    0.000000
    12  C    0.000000
    13  C    0.000000
    26  Cl   0.000000
    27  C    0.000000
    28  F    0.000000
    29  F    0.000000
    30  F    0.000000
    31  O   -0.648887
    32  O   -0.664475
    33  C    0.507087
    34  C   -0.058573
    35  C   -0.135151
         Mulliken charges condensed to fragments:
      1      0.000000
      2     -1.000000
 Electronic spatial extent (au):  <R**2>=           3479.8498
 Charge=             -1.0000 electrons
 Dipole moment (field-independent basis, Debye):
    X=             14.6562    Y=             -8.0044    Z=              0.0148  Tot=             16.6995
 Quadrupole moment (field-independent basis, Debye-Ang):
   XX=            -88.5187   YY=            -51.3629   ZZ=            -32.3634
   XY=             23.0909   XZ=             -0.3484   YZ=             -0.0728
 Traceless Quadrupole moment (field-independent basis, Debye-Ang):
   XX=            -31.1037   YY=              6.0521   ZZ=             25.0516
   XY=             23.0909   XZ=             -0.3484   YZ=             -0.0728
 Octapole moment (field-independent basis, Debye-Ang**2):
  XXX=            626.0239  YYY=           -321.3247  ZZZ=              1.0435  XYY=            185.2219
  XXY=           -181.1488  XXZ=              2.5594  XZZ=            124.5529  YZZ=            -86.2618
  YYZ=              0.1131  XYZ=             -0.4448
 Hexadecapole moment (field-independent basis, Debye-Ang**3):
 XXXX=          -4444.1199 YYYY=          -1866.1367 ZZZZ=            -50.2174 XXXY=           1542.8570
 XXXZ=            -18.9347 YYYX=           1284.8591 YYYZ=              2.6569 ZZZX=             -6.9673
 ZZZY=              3.0961 XXYY=          -1086.2082 XXZZ=           -542.8533 YYZZ=           -279.1507
 XXYZ=              5.0657 YYXZ=             -3.4714 ZZXY=            351.0148
 N-N= 1.685550437937D+02 E-N=-9.724520908862D+02  KE= 2.654898550166D+02
 CPIOFr:  IOpCl= 0 IRwI=-1 IRwCP=  731 ICalc=  4 LCPTot=      351879 Len1MO=      910887 IndFrg=     4906314
 CPIOFr:  IOpCl= 0 IRwI=-2 IRwCP=  731 ICalc=  0 LCPTot=      351879 Len1MO=      910887 IndFrg=     1262766
 Counterpoise corrected energy =   -1638.341613568942
                   BSSE energy =       0.001716808505
               sum of monomers =   -1638.259622330072
           complexation energy =     -52.53 kcal/mole (raw)
           complexation energy =     -51.45 kcal/mole (corrected)
 1\1\GINC-R4273\SP\RM062X\Gen\C14H17Cl1F3N2O3(1-)\ROOT\21-Feb-2019\0\\#
  M062X/Gen 6D SCF=Tight INT(grid=ultrafine) Counterpoise=2 maxdisk=671
 088640\\3Chloro4TFM_EtO.M062X_6-31pGd_bsse\\-1,1\C,0,-1.989832681,1.96
 06498839,-0.0564907278\C,0,-0.590289146,1.351388508,-0.0214347335\C,0,
 0.4902445132,2.4267913415,-0.0027834451\N,0,1.7962943343,1.8095238128,
 0.0369814133\C,0,2.9107608736,2.574531478,-0.0040956732\O,0,2.88565187
 52,3.8046597668,-0.0886940666\N,0,4.0801857607,1.8232504152,0.05711534
 04\C,0,5.3720860894,2.2884633263,0.0363643092\C,0,5.7314470864,3.64873
 17467,-0.0540583671\C,0,6.398324837,1.3206169389,0.1113023608\C,0,7.72
 5337109,1.7036721772,0.0957384305\C,0,8.0973945868,3.0510159569,0.0060
 11418\C,0,7.0725261397,3.9986480353,-0.067209148\H,0,-2.7625046688,1.1
 850337441,-0.0725351081\H,0,-2.1247199762,2.5872913702,-0.9461660936\H
 ,0,-2.1667542569,2.5919777062,0.8223967085\H,0,-0.4332406542,0.7018274
 098,-0.8907437132\H,0,-0.4735466011,0.707945985,0.8585569345\H,0,0.353
 9532119,3.0868152671,0.8670828433\H,0,0.4080354325,3.0671970783,-0.892
 2373692\H,0,1.8549546737,0.7791600508,0.1303684886\H,0,3.98434931,0.78
 51624845,0.1273522798\H,0,4.9622986246,4.4064283156,-0.1125912534\H,0,
 6.1178595688,0.2726798622,0.1811329499\H,0,8.5000786885,0.9465204157,0
 .1539562912\Cl,0,7.4530166084,5.7053972204,-0.1814398905\C,0,9.5427361
 84,3.4331676518,-0.0088204351\F,0,9.9089549339,4.0890275034,-1.1312066
 675\F,0,10.3473175645,2.3509835418,0.0693572132\F,0,9.8932321363,4.232
 7396064,1.0217285242\O,0,1.8115805738,-0.9971868191,0.2886451692\O,0,4
 .055997177,-0.9293360528,0.2502002687\C,0,2.9475692911,-1.5310771349,0
 .3142376443\C,0,3.0238679183,-3.0615253306,0.433393891\C,0,1.668557869
 4,-3.7525016718,0.5167903866\H,0,3.63712131,-3.2856534575,1.3149398674
 \H,0,3.5991500392,-3.4226285226,-0.4281502128\H,0,1.1051389506,-3.3929
 272394,1.3827211768\H,0,1.7814920046,-4.8405433252,0.5990281609\H,0,1.
 0668227074,-3.5289390473,-0.3688651662\\Version=ES64L-G09RevE.01\State
 =1-A\HF=-267.7284768\RMSD=3.841e-09\Dipole=0.4336193,0.1460925,-0.0227
 397\Quadrupole=-14.7936018,-6.6211777,21.4147795,-18.355143,1.1914903,
 1.969942\PG=C01 [X(C14H17Cl1F3N2O3)]\\@


 ASKING DUMB QUESTIONS IS EASIER THAN CORECTING DUMB MISTAKES.
 Job cpu time:       0 days  2 hours 13 minutes 36.7 seconds.
 File lengths (MBytes):  RWF=    185 Int=      0 D2E=      0 Chk=     51 Scr=      1
 Normal termination of Gaussian 09 at Thu Feb 21 16:08:06 2019.
WARNING: pbs_rusage is deprecated and values produced may not be accurate


=============================================================================
                                     Resource usage:
                                       CPU time:              02:06:05
   JobId:    5975238.r-man2            Elapsed time:          00:32:49
   Project:             q95            Requested time:        48:00:00
   Service Units:      2.19 
                                       Max physical memory:      151MB
                                       Max virtual memory:       412MB
                                       Requested memory:           0MB

                                       Number of cpus:               4

                                       Max jobfs disk use:       0.2GB
                                       Requested jobfs:          5.0GB
=============================================================================

