 Entering Gaussian System, Link 0=/apps/gaussian/g09e01/g09/g09
 AtFile(1): /home/507/hio507/Basis/6-31pGd.gbs
 Initial command:
 /apps/gaussian/g09e01/g09/l1.exe "/jobfs/local/1874134.r-man2/Gau-419.inp" -scrdir="/jobfs/local/1874134.r-man2/"
 Entering Link 1 = /apps/gaussian/g09e01/g09/l1.exe PID=       427.
  
 Copyright (c) 1988,1990,1992,1993,1995,1998,2003,2009,2015,
            Gaussian, Inc.  All Rights Reserved.
  
 This is part of the Gaussian(R) 09 program.  It is based on
 the Gaussian(R) 03 system (copyright 2003, Gaussian, Inc.),
 the Gaussian(R) 98 system (copyright 1998, Gaussian, Inc.),
 the Gaussian(R) 94 system (copyright 1995, Gaussian, Inc.),
 the Gaussian 92(TM) system (copyright 1992, Gaussian, Inc.),
 the Gaussian 90(TM) system (copyright 1990, Gaussian, Inc.),
 the Gaussian 88(TM) system (copyright 1988, Gaussian, Inc.),
 the Gaussian 86(TM) system (copyright 1986, Carnegie Mellon
 University), and the Gaussian 82(TM) system (copyright 1983,
 Carnegie Mellon University). Gaussian is a federally registered
 trademark of Gaussian, Inc.
  
 This software contains proprietary and confidential information,
 including trade secrets, belonging to Gaussian, Inc.
  
 This software is provided under written license and may be
 used, copied, transmitted, or stored only in accord with that
 written license.
  
 The following legend is applicable only to US Government
 contracts under FAR:
  
                    RESTRICTED RIGHTS LEGEND
  
 Use, reproduction and disclosure by the US Government is
 subject to restrictions as set forth in subparagraphs (a)
 and (c) of the Commercial Computer Software - Restricted
 Rights clause in FAR 52.227-19.
  
 Gaussian, Inc.
 340 Quinnipiac St., Bldg. 40, Wallingford CT 06492
  
  
 ---------------------------------------------------------------
 Warning -- This program may not be used in any manner that
 competes with the business of Gaussian, Inc. or will provide
 assistance to any competitor of Gaussian, Inc.  The licensee
 of this program is prohibited from giving any competitor of
 Gaussian, Inc. access to this program.  By using this program,
 the user acknowledges that Gaussian, Inc. is engaged in the
 business of creating and licensing software in the field of
 computational chemistry and represents and warrants to the
 licensee that it is not a competitor of Gaussian, Inc. and that
 it will not use this program in any manner prohibited above.
 ---------------------------------------------------------------
  

 Cite this work as:
 Gaussian 09, Revision E.01,
 M. J. Frisch, G. W. Trucks, H. B. Schlegel, G. E. Scuseria, 
 M. A. Robb, J. R. Cheeseman, G. Scalmani, V. Barone, B. Mennucci, 
 G. A. Petersson, H. Nakatsuji, M. Caricato, X. Li, H. P. Hratchian, 
 A. F. Izmaylov, J. Bloino, G. Zheng, J. L. Sonnenberg, M. Hada, 
 M. Ehara, K. Toyota, R. Fukuda, J. Hasegawa, M. Ishida, T. Nakajima, 
 Y. Honda, O. Kitao, H. Nakai, T. Vreven, J. A. Montgomery, Jr., 
 J. E. Peralta, F. Ogliaro, M. Bearpark, J. J. Heyd, E. Brothers, 
 K. N. Kudin, V. N. Staroverov, T. Keith, R. Kobayashi, J. Normand, 
 K. Raghavachari, A. Rendell, J. C. Burant, S. S. Iyengar, J. Tomasi, 
 M. Cossi, N. Rega, J. M. Millam, M. Klene, J. E. Knox, J. B. Cross, 
 V. Bakken, C. Adamo, J. Jaramillo, R. Gomperts, R. E. Stratmann, 
 O. Yazyev, A. J. Austin, R. Cammi, C. Pomelli, J. W. Ochterski, 
 R. L. Martin, K. Morokuma, V. G. Zakrzewski, G. A. Voth, 
 P. Salvador, J. J. Dannenberg, S. Dapprich, A. D. Daniels, 
 O. Farkas, J. B. Foresman, J. V. Ortiz, J. Cioslowski, 
 and D. J. Fox, Gaussian, Inc., Wallingford CT, 2013.
 
 ******************************************
 Gaussian 09:  ES64L-G09RevE.01 30-Nov-2015
                31-Oct-2018 
 ******************************************
 %chk=4SulfOxyCf3_a1.M062X_6-31pGd_opt.chk
 %mem=196608000
 %nproc=4
 Will use up to    4 processors via shared memory.
 ----------------------------------------------------------------------
 # M062X/Gen 6D SCF=Tight INT(grid=ultrafine) OPT IOP(2/17=4) maxdisk=2
 684354560
 ----------------------------------------------------------------------
 1/14=-1,18=20,19=15,26=4,38=1/1,3;
 2/9=110,12=2,17=4,18=5,40=1/2;
 3/5=7,8=2,11=2,16=1,25=1,30=1,71=1,74=-55,75=-5/1,2,3;
 4//1;
 5/5=2,32=2,38=5/2;
 6/7=2,8=2,9=2,10=2,28=1/1;
 7//1,2,3,16;
 1/14=-1,18=20,19=15,26=4/3(2);
 2/9=110,17=4/2;
 99//99;
 2/9=110,17=4/2;
 3/5=7,6=1,8=2,11=2,16=1,25=1,30=1,71=1,74=-55,75=-5,82=7/1,2,3;
 4/5=5,16=3,69=1/1;
 5/5=2,32=2,38=5/2;
 7//1,2,3,16;
 1/14=-1,18=20,19=15,26=4/3(-5);
 2/9=110,17=4/2;
 6/7=2,8=2,9=2,10=2,19=2,28=1/1;
 99/9=1/99;
 --------------------------------
 4SulfOxyCf3_a1.M062X_6-31pGd_opt
 --------------------------------
 Symbolic Z-matrix:
 Charge = -1 Multiplicity = 1
 C                    -1.93895   1.87321  -0.13788 
 C                    -0.58819   1.25687   0.21235 
 C                     0.55782   2.19583  -0.13507 
 N                     1.8387    1.58189   0.18476 
 C                     3.01974   2.2213   -0.1038 
 O                     2.99554   3.4559   -0.3535 
 N                     4.09862   1.39631  -0.1218 
 C                     5.35446   1.8903   -0.03074 
 C                     5.72555   3.17146   0.48789 
 C                     6.42292   1.02368  -0.41988 
 C                     7.74397   1.39548  -0.32761 
 C                     8.06271   2.6662    0.18703 
 C                     7.04762   3.54903   0.59351 
 H                    -2.75984   1.19715   0.11978 
 H                    -2.00483   2.0899   -1.20992 
 H                    -2.09296   2.81239   0.40523 
 H                    -0.45781   0.31172  -0.33048 
 H                    -0.54942   1.02053   1.28272 
 H                     0.45661   3.12758   0.43116 
 H                     0.51162   2.45948  -1.20207 
 H                     1.87673   0.56958   0.14636 
 H                     4.95644   3.85395   0.82457 
 H                     6.16674   0.03969  -0.80134 
 H                     8.53102   0.71504  -0.64045 
 S                     9.70737   3.17055   0.25891 
 O                     10.62099   2.02518   0.25062 
 O                     9.89639   4.25383   1.22721 
 H                     7.30347   4.52263   1.00288 
 C                     10.03377   3.99528  -1.37537 
 F                     11.28965   4.43193  -1.40355 
 F                     9.85118   3.13111  -2.36893 
 F                     9.21069   5.02662  -1.53807 
 

 GradGradGradGradGradGradGradGradGradGradGradGradGradGradGradGradGradGrad
 Berny optimization.
 Initialization pass.
                           ----------------------------
                           !    Initial Parameters    !
                           ! (Angstroms and Degrees)  !
 --------------------------                            --------------------------
 ! Name  Definition              Value          Derivative Info.                !
 --------------------------------------------------------------------------------
 ! R1    R(1,2)                  1.5255         estimate D2E/DX2                !
 ! R2    R(1,14)                 1.0942         estimate D2E/DX2                !
 ! R3    R(1,15)                 1.0957         estimate D2E/DX2                !
 ! R4    R(1,16)                 1.0958         estimate D2E/DX2                !
 ! R5    R(2,3)                  1.5217         estimate D2E/DX2                !
 ! R6    R(2,17)                 1.0977         estimate D2E/DX2                !
 ! R7    R(2,18)                 1.0968         estimate D2E/DX2                !
 ! R8    R(3,4)                  1.456          estimate D2E/DX2                !
 ! R9    R(3,19)                 1.095          estimate D2E/DX2                !
 ! R10   R(3,20)                 1.1001         estimate D2E/DX2                !
 ! R11   R(4,5)                  1.3737         estimate D2E/DX2                !
 ! R12   R(4,21)                 1.0138         estimate D2E/DX2                !
 ! R13   R(5,6)                  1.2598         estimate D2E/DX2                !
 ! R14   R(5,7)                  1.3583         estimate D2E/DX2                !
 ! R15   R(7,8)                  1.3526         estimate D2E/DX2                !
 ! R16   R(8,9)                  1.4311         estimate D2E/DX2                !
 ! R17   R(8,10)                 1.4297         estimate D2E/DX2                !
 ! R18   R(9,13)                 1.379          estimate D2E/DX2                !
 ! R19   R(9,22)                 1.082          estimate D2E/DX2                !
 ! R20   R(10,11)                1.3755         estimate D2E/DX2                !
 ! R21   R(10,23)                1.086          estimate D2E/DX2                !
 ! R22   R(11,12)                1.4075         estimate D2E/DX2                !
 ! R23   R(11,24)                1.0864         estimate D2E/DX2                !
 ! R24   R(12,13)                1.4054         estimate D2E/DX2                !
 ! R25   R(12,25)                1.7218         estimate D2E/DX2                !
 ! R26   R(13,28)                1.0867         estimate D2E/DX2                !
 ! R27   R(25,26)                1.4651         estimate D2E/DX2                !
 ! R28   R(25,27)                1.4652         estimate D2E/DX2                !
 ! R29   R(25,29)                1.8595         estimate D2E/DX2                !
 ! R30   R(29,30)                1.3299         estimate D2E/DX2                !
 ! R31   R(29,31)                1.3294         estimate D2E/DX2                !
 ! R32   R(29,32)                1.3295         estimate D2E/DX2                !
 ! A1    A(2,1,14)             111.1363         estimate D2E/DX2                !
 ! A2    A(2,1,15)             110.963          estimate D2E/DX2                !
 ! A3    A(2,1,16)             110.9127         estimate D2E/DX2                !
 ! A4    A(14,1,15)            107.9067         estimate D2E/DX2                !
 ! A5    A(14,1,16)            107.9033         estimate D2E/DX2                !
 ! A6    A(15,1,16)            107.8775         estimate D2E/DX2                !
 ! A7    A(1,2,3)              111.4149         estimate D2E/DX2                !
 ! A8    A(1,2,17)             109.8474         estimate D2E/DX2                !
 ! A9    A(1,2,18)             110.0237         estimate D2E/DX2                !
 ! A10   A(3,2,17)             109.2033         estimate D2E/DX2                !
 ! A11   A(3,2,18)             109.216          estimate D2E/DX2                !
 ! A12   A(17,2,18)            107.029          estimate D2E/DX2                !
 ! A13   A(2,3,4)              110.6212         estimate D2E/DX2                !
 ! A14   A(2,3,19)             109.717          estimate D2E/DX2                !
 ! A15   A(2,3,20)             109.7369         estimate D2E/DX2                !
 ! A16   A(4,3,19)             109.058          estimate D2E/DX2                !
 ! A17   A(4,3,20)             110.5527         estimate D2E/DX2                !
 ! A18   A(19,3,20)            107.0829         estimate D2E/DX2                !
 ! A19   A(3,4,5)              120.9275         estimate D2E/DX2                !
 ! A20   A(3,4,21)             116.4711         estimate D2E/DX2                !
 ! A21   A(5,4,21)             115.1258         estimate D2E/DX2                !
 ! A22   A(4,5,6)              118.7685         estimate D2E/DX2                !
 ! A23   A(4,5,7)              113.7646         estimate D2E/DX2                !
 ! A24   A(6,5,7)              127.4341         estimate D2E/DX2                !
 ! A25   A(5,7,8)              120.9821         estimate D2E/DX2                !
 ! A26   A(7,8,9)              126.3071         estimate D2E/DX2                !
 ! A27   A(7,8,10)             117.0116         estimate D2E/DX2                !
 ! A28   A(9,8,10)             116.5834         estimate D2E/DX2                !
 ! A29   A(8,9,13)             121.4311         estimate D2E/DX2                !
 ! A30   A(8,9,22)             119.5467         estimate D2E/DX2                !
 ! A31   A(13,9,22)            119.0101         estimate D2E/DX2                !
 ! A32   A(8,10,11)            122.3877         estimate D2E/DX2                !
 ! A33   A(8,10,23)            117.9394         estimate D2E/DX2                !
 ! A34   A(11,10,23)           119.6729         estimate D2E/DX2                !
 ! A35   A(10,11,12)           119.0816         estimate D2E/DX2                !
 ! A36   A(10,11,24)           120.4746         estimate D2E/DX2                !
 ! A37   A(12,11,24)           120.4421         estimate D2E/DX2                !
 ! A38   A(11,12,13)           120.618          estimate D2E/DX2                !
 ! A39   A(11,12,25)           119.7374         estimate D2E/DX2                !
 ! A40   A(13,12,25)           119.5955         estimate D2E/DX2                !
 ! A41   A(9,13,12)            119.8903         estimate D2E/DX2                !
 ! A42   A(9,13,28)            119.9918         estimate D2E/DX2                !
 ! A43   A(12,13,28)           120.1128         estimate D2E/DX2                !
 ! A44   A(12,25,26)           111.4949         estimate D2E/DX2                !
 ! A45   A(12,25,27)           111.5546         estimate D2E/DX2                !
 ! A46   A(12,25,29)           105.1234         estimate D2E/DX2                !
 ! A47   A(26,25,27)           120.0844         estimate D2E/DX2                !
 ! A48   A(26,25,29)           103.4326         estimate D2E/DX2                !
 ! A49   A(27,25,29)           103.3128         estimate D2E/DX2                !
 ! A50   A(25,29,30)           109.2694         estimate D2E/DX2                !
 ! A51   A(25,29,31)           110.1478         estimate D2E/DX2                !
 ! A52   A(25,29,32)           110.0568         estimate D2E/DX2                !
 ! A53   A(30,29,31)           109.1045         estimate D2E/DX2                !
 ! A54   A(30,29,32)           109.1068         estimate D2E/DX2                !
 ! A55   A(31,29,32)           109.1335         estimate D2E/DX2                !
 ! D1    D(14,1,2,3)          -179.6278         estimate D2E/DX2                !
 ! D2    D(14,1,2,17)           59.2281         estimate D2E/DX2                !
 ! D3    D(14,1,2,18)          -58.3481         estimate D2E/DX2                !
 ! D4    D(15,1,2,3)            60.2978         estimate D2E/DX2                !
 ! D5    D(15,1,2,17)          -60.8463         estimate D2E/DX2                !
 ! D6    D(15,1,2,18)         -178.4225         estimate D2E/DX2                !
 ! D7    D(16,1,2,3)           -59.5913         estimate D2E/DX2                !
 ! D8    D(16,1,2,17)          179.2646         estimate D2E/DX2                !
 ! D9    D(16,1,2,18)           61.6884         estimate D2E/DX2                !
 ! D10   D(1,2,3,4)           -179.0288         estimate D2E/DX2                !
 ! D11   D(1,2,3,19)            60.6088         estimate D2E/DX2                !
 ! D12   D(1,2,3,20)           -56.7852         estimate D2E/DX2                !
 ! D13   D(17,2,3,4)           -57.5095         estimate D2E/DX2                !
 ! D14   D(17,2,3,19)         -177.8719         estimate D2E/DX2                !
 ! D15   D(17,2,3,20)           64.7341         estimate D2E/DX2                !
 ! D16   D(18,2,3,4)            59.2219         estimate D2E/DX2                !
 ! D17   D(18,2,3,19)          -61.1405         estimate D2E/DX2                !
 ! D18   D(18,2,3,20)         -178.5345         estimate D2E/DX2                !
 ! D19   D(2,3,4,5)            176.8581         estimate D2E/DX2                !
 ! D20   D(2,3,4,21)            28.5047         estimate D2E/DX2                !
 ! D21   D(19,3,4,5)           -62.3868         estimate D2E/DX2                !
 ! D22   D(19,3,4,21)          149.2598         estimate D2E/DX2                !
 ! D23   D(20,3,4,5)            55.0933         estimate D2E/DX2                !
 ! D24   D(20,3,4,21)          -93.2601         estimate D2E/DX2                !
 ! D25   D(3,4,5,6)             16.4891         estimate D2E/DX2                !
 ! D26   D(3,4,5,7)           -161.5819         estimate D2E/DX2                !
 ! D27   D(21,4,5,6)           165.2402         estimate D2E/DX2                !
 ! D28   D(21,4,5,7)           -12.8308         estimate D2E/DX2                !
 ! D29   D(4,5,7,8)           -162.1115         estimate D2E/DX2                !
 ! D30   D(6,5,7,8)             20.018          estimate D2E/DX2                !
 ! D31   D(5,7,8,9)             20.4401         estimate D2E/DX2                !
 ! D32   D(5,7,8,10)          -163.2971         estimate D2E/DX2                !
 ! D33   D(7,8,9,13)           176.817          estimate D2E/DX2                !
 ! D34   D(7,8,9,22)            -1.9048         estimate D2E/DX2                !
 ! D35   D(10,8,9,13)            0.5402         estimate D2E/DX2                !
 ! D36   D(10,8,9,22)         -178.1817         estimate D2E/DX2                !
 ! D37   D(7,8,10,11)         -177.6815         estimate D2E/DX2                !
 ! D38   D(7,8,10,23)            2.3901         estimate D2E/DX2                !
 ! D39   D(9,8,10,11)           -1.0487         estimate D2E/DX2                !
 ! D40   D(9,8,10,23)          179.0229         estimate D2E/DX2                !
 ! D41   D(8,9,13,12)           -0.0165         estimate D2E/DX2                !
 ! D42   D(8,9,13,28)         -179.2011         estimate D2E/DX2                !
 ! D43   D(22,9,13,12)         178.7121         estimate D2E/DX2                !
 ! D44   D(22,9,13,28)          -0.4726         estimate D2E/DX2                !
 ! D45   D(8,10,11,12)           1.0027         estimate D2E/DX2                !
 ! D46   D(8,10,11,24)        -179.4615         estimate D2E/DX2                !
 ! D47   D(23,10,11,12)       -179.0701         estimate D2E/DX2                !
 ! D48   D(23,10,11,24)          0.4657         estimate D2E/DX2                !
 ! D49   D(10,11,12,13)         -0.4274         estimate D2E/DX2                !
 ! D50   D(10,11,12,25)       -177.8696         estimate D2E/DX2                !
 ! D51   D(24,11,12,13)       -179.9634         estimate D2E/DX2                !
 ! D52   D(24,11,12,25)          2.5944         estimate D2E/DX2                !
 ! D53   D(11,12,13,9)          -0.057          estimate D2E/DX2                !
 ! D54   D(11,12,13,28)        179.1266         estimate D2E/DX2                !
 ! D55   D(25,12,13,9)         177.3888         estimate D2E/DX2                !
 ! D56   D(25,12,13,28)         -3.4275         estimate D2E/DX2                !
 ! D57   D(11,12,25,26)        -22.135          estimate D2E/DX2                !
 ! D58   D(11,12,25,27)       -159.4262         estimate D2E/DX2                !
 ! D59   D(11,12,25,29)         89.2758         estimate D2E/DX2                !
 ! D60   D(13,12,25,26)        160.3965         estimate D2E/DX2                !
 ! D61   D(13,12,25,27)         23.1052         estimate D2E/DX2                !
 ! D62   D(13,12,25,29)        -88.1927         estimate D2E/DX2                !
 ! D63   D(12,25,29,30)        179.3988         estimate D2E/DX2                !
 ! D64   D(12,25,29,31)        -60.7613         estimate D2E/DX2                !
 ! D65   D(12,25,29,32)         59.6117         estimate D2E/DX2                !
 ! D66   D(26,25,29,30)        -63.55           estimate D2E/DX2                !
 ! D67   D(26,25,29,31)         56.2899         estimate D2E/DX2                !
 ! D68   D(26,25,29,32)        176.6629         estimate D2E/DX2                !
 ! D69   D(27,25,29,30)         62.3321         estimate D2E/DX2                !
 ! D70   D(27,25,29,31)       -177.8279         estimate D2E/DX2                !
 ! D71   D(27,25,29,32)        -57.455          estimate D2E/DX2                !
 --------------------------------------------------------------------------------
 Trust Radius=3.00D-01 FncErr=1.00D-07 GrdErr=1.00D-06
 Number of steps in this run=    168 maximum allowed number of steps=    192.
 GradGradGradGradGradGradGradGradGradGradGradGradGradGradGradGradGradGrad

                          Input orientation:                          
 ---------------------------------------------------------------------
 Center     Atomic      Atomic             Coordinates (Angstroms)
 Number     Number       Type             X           Y           Z
 ---------------------------------------------------------------------
      1          6           0       -1.938953    1.873212   -0.137876
      2          6           0       -0.588195    1.256870    0.212352
      3          6           0        0.557817    2.195833   -0.135074
      4          7           0        1.838703    1.581889    0.184758
      5          6           0        3.019743    2.221298   -0.103799
      6          8           0        2.995542    3.455903   -0.353500
      7          7           0        4.098623    1.396307   -0.121796
      8          6           0        5.354461    1.890303   -0.030743
      9          6           0        5.725549    3.171462    0.487889
     10          6           0        6.422922    1.023675   -0.419883
     11          6           0        7.743968    1.395483   -0.327614
     12          6           0        8.062707    2.666204    0.187025
     13          6           0        7.047619    3.549028    0.593511
     14          1           0       -2.759836    1.197149    0.119778
     15          1           0       -2.004829    2.089900   -1.209924
     16          1           0       -2.092956    2.812394    0.405232
     17          1           0       -0.457812    0.311723   -0.330485
     18          1           0       -0.549418    1.020528    1.282717
     19          1           0        0.456608    3.127583    0.431159
     20          1           0        0.511621    2.459475   -1.202072
     21          1           0        1.876727    0.569580    0.146356
     22          1           0        4.956436    3.853946    0.824571
     23          1           0        6.166743    0.039686   -0.801345
     24          1           0        8.531016    0.715038   -0.640452
     25         16           0        9.707374    3.170547    0.258911
     26          8           0       10.620987    2.025176    0.250615
     27          8           0        9.896391    4.253832    1.227215
     28          1           0        7.303470    4.522627    1.002879
     29          6           0       10.033768    3.995281   -1.375365
     30          9           0       11.289649    4.431935   -1.403547
     31          9           0        9.851180    3.131109   -2.368927
     32          9           0        9.210687    5.026622   -1.538067
 ---------------------------------------------------------------------
                    Distance matrix (angstroms):
                    1          2          3          4          5
     1  C    0.000000
     2  C    1.525479   0.000000
     3  C    2.517529   1.521743   0.000000
     4  N    3.802584   2.448720   1.455984   0.000000
     5  C    4.971015   3.747971   2.462256   1.373669   0.000000
     6  O    5.186583   4.242535   2.752815   2.267141   1.259836
     7  N    6.056403   4.700783   3.629976   2.288155   1.358276
     8  C    7.294220   5.981261   4.807496   3.535833   2.359195
     9  C    7.798821   6.603404   5.295789   4.210250   2.928189
    10  C    8.409649   7.043427   5.987865   4.657495   3.621579
    11  C    9.696555   8.350791   7.233145   5.930382   4.801079
    12  C   10.038306   8.764985   7.526511   6.317751   5.070898
    13  C    9.170701   7.981536   6.669295   5.582967   4.298010
    14  H    1.094210   2.174434   3.474067   4.615063   5.873875
    15  H    1.095710   2.173399   2.780950   4.120188   5.146563
    16  H    1.095785   2.172824   2.774649   4.125614   5.171867
    17  H    2.160816   1.097713   2.149316   2.674468   3.973821
    18  H    2.162397   1.096833   2.148824   2.687705   4.012877
    19  H    2.763324   2.153848   1.094999   2.088078   2.770775
    20  H    2.735239   2.157881   1.100057   2.110593   2.748383
    21  H    4.042234   2.559797   2.112682   1.013750   2.024163
    22  H    7.238508   6.153255   4.797719   3.910481   2.697812
    23  H    8.336925   6.938178   6.045903   4.699226   3.892250
    24  H   10.545814   9.175013   8.125273   6.798489   5.738549
    25  S   11.725077  10.472013   9.209760   8.027784   6.764395
    26  O   12.566865  11.235547  10.072004   8.793711   7.612028
    27  O   12.149328  10.951633   9.659200   8.552914   7.293221
    28  H    9.682102   8.577207   7.225838   6.259468   4.987100
    29  C   12.222135  11.083584   9.724710   8.684327   7.345777
    30  F   13.533103  12.400619  11.035461   9.998293   8.658383
    31  F   12.065120  10.915875   9.603720   8.551093   7.254453
    32  F   11.671289  10.643922   9.211618   8.317480   6.946564
                    6          7          8          9         10
     6  O    0.000000
     7  N    2.347852   0.000000
     8  C    2.849522   1.352572   0.000000
     9  C    2.870850   2.483904   1.431103   0.000000
    10  C    4.203222   2.372778   1.429714   2.433798   0.000000
    11  C    5.176248   3.651151   2.458195   2.809477   1.375470
    12  C    5.156739   4.173964   2.825605   2.410003   2.398986
    13  C    4.162310   3.720544   2.451091   1.378978   2.791885
    14  H    6.200834   6.865601   8.145240   8.719815   9.200238
    15  H    5.253869   6.238367   7.455834   7.988184   8.531588
    16  H    5.184843   6.373281   7.516937   7.827182   8.740739
    17  H    4.670338   4.688387   6.030280   6.861618   6.918047
    18  H    4.601630   4.870128   6.110439   6.680829   7.177213
    19  H    2.677624   4.070301   5.072788   5.269428   6.383385
    20  H    2.807633   3.894085   5.014884   5.527018   6.133255
    21  H    3.135676   2.385834   3.724286   4.658311   4.603772
    22  H    2.321938   2.769737   2.178504   1.081976   3.421941
    23  H    4.682694   2.565020   2.162964   3.415377   1.085990
    24  H    6.183539   4.514337   3.441438   3.895872   2.141954
    25  S    6.745751   5.894994   4.546513   3.988404   3.982141
    26  O    7.781989   6.563185   5.275761   5.033447   4.367645
    27  O    7.124399   6.602984   5.272367   4.371962   5.021138
    28  H    4.640680   4.616256   3.434552   2.140256   3.878438
    29  C    7.132444   6.599398   5.304230   4.765622   4.773007
    30  F    8.417093   7.910043   6.600829   6.010452   6.022363
    31  F    7.153126   6.414909   5.217968   5.018353   4.471354
    32  F    6.519078   6.427924   5.194132   4.437602   5.004554
                   11         12         13         14         15
    11  C    0.000000
    12  C    1.407544   0.000000
    13  C    2.443589   1.405351   0.000000
    14  H   10.515198  10.922000  10.096629   0.000000
    15  H    9.813243  10.180318   9.344958   1.770634   0.000000
    16  H    9.965429  10.159059   9.172142   1.770658   1.771579
    17  H    8.273073   8.854979   8.225899   2.507196   2.515669
    18  H    8.456595   8.836146   8.036372   2.503912   3.078155
    19  H    7.528713   7.623989   6.606466   3.764180   3.135062
    20  H    7.362309   7.680574   6.865166   3.747424   2.543456
    21  H    5.944012   6.531756   5.984578   4.678917   4.383760
    22  H    3.891260   3.386165   2.125890   8.191224   7.463929
    23  H    2.133130   3.386762   3.877763   9.048315   8.434745
    24  H    1.086425   2.170503   3.428503  11.326682  10.640422
    25  S    2.711056   1.721760   2.707305  12.623192  11.853311
    26  O    3.001350   2.638135   3.899829  13.407057  12.710177
    27  O    3.901355   2.639119   3.002305  13.067127  12.339420
    28  H    3.426847   2.165263   1.086710  10.635262   9.872137
    29  C    3.619381   2.844748   3.604539  13.181096  12.189572
    30  F    4.790566   4.007603   4.771015  14.497324  13.500584
    31  F    3.408768   3.153992   4.100079  12.998907  11.957942
    32  F    4.098980   3.140920   3.377244  12.677016  11.598268
                   16         17         18         19         20
    16  H    0.000000
    17  H    3.077065   0.000000
    18  H    2.522553   1.764431   0.000000
    19  H    2.569104   3.057014   2.485341   0.000000
    20  H    3.080877   2.512430   3.061135   1.765457   0.000000
    21  H    4.566795   2.396652   2.716772   2.939597   2.693227
    22  H    7.138249   6.572335   6.209072   4.575022   5.080178
    23  H    8.795816   6.646838   7.100154   6.607558   6.164119
    24  H   10.879391   9.003209   9.286882   8.494986   8.226127
    25  S   11.806671  10.575976  10.529603   9.252469   9.338199
    26  O   12.739229  11.225569  11.262881  10.225580  10.222435
    27  O   12.103629  11.188216  10.934910   9.540002   9.858755
    28  H    9.569478   8.930122   8.602956   7.010886   7.432874
    29  C   12.313699  11.168421  11.310101   9.784601   9.646761
    30  F   13.601056  12.495217  12.610203  11.064459  10.958881
    31  F   12.266211  10.880235  11.223257   9.802983   9.436101
    32  F   11.681249  10.824436  10.920863   9.171592   9.076171
                   21         22         23         24         25
    21  H    0.000000
    22  H    4.553202   0.000000
    23  H    4.425287   4.319378   0.000000
    24  H    6.702223   4.977616   2.464097   0.000000
    25  S    8.252074   4.833055   4.843810   2.867437   0.000000
    26  O    8.865197   5.980047   4.988895   2.622678   1.465139
    27  O    8.891399   4.972443   5.982002   4.227941   1.465212
    28  H    6.768290   2.446936   4.964286   4.324944   2.856635
    29  C    8.977103   5.535250   5.561485   3.682167   1.859456
    30  F   10.291894   6.738559   6.774855   4.691235   2.618866
    31  F    8.745284   5.888926   5.058586   3.250824   2.632065
    32  F    8.745826   5.005585   5.888794   4.456167   2.630749
                   26         27         28         29         30
    26  O    0.000000
    27  O    2.538837   0.000000
    28  H    4.220081   2.616451   0.000000
    29  C    2.621060   2.618997   3.659053   0.000000
    30  F    2.995972   2.982247   4.657117   1.329924   0.000000
    31  F    2.945792   3.767597   4.449295   1.329397   2.166402
    32  F    3.767892   2.951979   3.216814   1.329511   2.166525
                   31         32
    31  F    0.000000
    32  F    2.166456   0.000000
 Stoichiometry    C11H12F3N2O3S(1-)
 Framework group  C1[X(C11H12F3N2O3S)]
 Deg. of freedom    90
 Full point group                 C1      NOp   1
 Largest Abelian subgroup         C1      NOp   1
 Largest concise Abelian subgroup C1      NOp   1
                         Standard orientation:                         
 ---------------------------------------------------------------------
 Center     Atomic      Atomic             Coordinates (Angstroms)
 Number     Number       Type             X           Y           Z
 ---------------------------------------------------------------------
      1          6           0        8.177539   -0.656138   -0.138333
      2          6           0        6.977932    0.280586   -0.035493
      3          6           0        5.667229   -0.492545   -0.040685
      4          7           0        4.534123    0.418622    0.035018
      5          6           0        3.244783   -0.052052   -0.020063
      6          8           0        3.038215   -1.278943    0.178069
      7          7           0        2.327605    0.899595   -0.333220
      8          6           0        1.012125    0.707513   -0.084086
      9          6           0        0.453308   -0.224336    0.847278
     10          6           0        0.091012    1.567491   -0.759417
     11          6           0       -1.267121    1.500286   -0.552353
     12          6           0       -1.772889    0.567031    0.371993
     13          6           0       -0.906066   -0.292044    1.068857
     14          1           0        9.117508   -0.096104   -0.127596
     15          1           0        8.142415   -1.237629   -1.066350
     16          1           0        8.196053   -1.361448    0.700083
     17          1           0        6.983694    0.987131   -0.875573
     18          1           0        7.043032    0.874596    0.884266
     19          1           0        5.636488   -1.173319    0.816417
     20          1           0        5.604841   -1.111885   -0.947687
     21          1           0        4.671571    1.344049   -0.355345
     22          1           0        1.109367   -0.877841    1.406913
     23          1           0        0.492843    2.294322   -1.459148
     24          1           0       -1.939786    2.163444   -1.089066
     25         16           0       -3.473463    0.430379    0.604012
     26          8           0       -4.171610    1.649818    0.189052
     27          8           0       -3.792721   -0.197697    1.888707
     28          1           0       -1.304145   -0.999743    1.791098
     29          6           0       -4.032990   -0.832538   -0.640797
     30          9           0       -5.345377   -1.012982   -0.523422
     31          9           0       -3.759832   -0.413655   -1.872551
     32          9           0       -3.413769   -1.989373   -0.426562
 ---------------------------------------------------------------------
 Rotational constants (GHZ):      1.0221898      0.0970226      0.0952488
 General basis read from cards:  (6D, 7F)
 There are   408 symmetry adapted cartesian basis functions of A   symmetry.
 There are   408 symmetry adapted basis functions of A   symmetry.
   408 basis functions,   712 primitive gaussians,   408 cartesian basis functions
    80 alpha electrons       80 beta electrons
       nuclear repulsion energy      1725.2769217557 Hartrees.
 NAtoms=   32 NActive=   32 NUniq=   32 SFac= 1.00D+00 NAtFMM=   60 NAOKFM=F Big=F
 Integral buffers will be    131072 words long.
 Raffenetti 2 integral format.
 Two-electron integral symmetry is turned on.
 One-electron integrals computed using PRISM.
 NBasis=   408 RedAO= T EigKep=  1.00D-06  NBF=   408
 NBsUse=   408 1.00D-06 EigRej= -1.00D+00 NBFU=   408
 ExpMin= 4.05D-02 ExpMax= 2.19D+04 ExpMxC= 3.30D+03 IAcc=3 IRadAn=         5 AccDes= 0.00D+00
 Harris functional with IExCor= 1009 and IRadAn=       5 diagonalized for initial guess.
 HarFok:  IExCor= 1009 AccDes= 0.00D+00 IRadAn=         5 IDoV= 1 UseB2=F ITyADJ=14
 ICtDFT=  3500011 ScaDFX=  1.000000  1.000000  1.000000  1.000000
 FoFCou: FMM=F IPFlag=           0 FMFlag=      100000 FMFlg1=           0
         NFxFlg=           0 DoJE=T BraDBF=F KetDBF=T FulRan=T
         wScrn=  0.000000 ICntrl=     500 IOpCl=  0 I1Cent=   200000004 NGrid=           0
         NMat0=    1 NMatS0=      1 NMatT0=    0 NMatD0=    1 NMtDS0=    0 NMtDT0=    0
 Petite list used in FoFCou.
 Requested convergence on RMS density matrix=1.00D-08 within 128 cycles.
 Requested convergence on MAX density matrix=1.00D-06.
 Requested convergence on             energy=1.00D-06.
 No special actions if energy rises.
 SCF Done:  E(RM062X) =  -1458.90502521     A.U. after   17 cycles
            NFock= 17  Conv=0.84D-08     -V/T= 2.0068

 **********************************************************************

            Population analysis using the SCF density.

 **********************************************************************

 Orbital symmetries:
       Occupied  (A) (A) (A) (A) (A) (A) (A) (A) (A) (A) (A) (A)
                 (A) (A) (A) (A) (A) (A) (A) (A) (A) (A) (A) (A)
                 (A) (A) (A) (A) (A) (A) (A) (A) (A) (A) (A) (A)
                 (A) (A) (A) (A) (A) (A) (A) (A) (A) (A) (A) (A)
                 (A) (A) (A) (A) (A) (A) (A) (A) (A) (A) (A) (A)
                 (A) (A) (A) (A) (A) (A) (A) (A) (A) (A) (A) (A)
                 (A) (A) (A) (A) (A) (A) (A) (A)
       Virtual   (A) (A) (A) (A) (A) (A) (A) (A) (A) (A) (A) (A)
                 (A) (A) (A) (A) (A) (A) (A) (A) (A) (A) (A) (A)
                 (A) (A) (A) (A) (A) (A) (A) (A) (A) (A) (A) (A)
                 (A) (A) (A) (A) (A) (A) (A) (A) (A) (A) (A) (A)
                 (A) (A) (A) (A) (A) (A) (A) (A) (A) (A) (A) (A)
                 (A) (A) (A) (A) (A) (A) (A) (A) (A) (A) (A) (A)
                 (A) (A) (A) (A) (A) (A) (A) (A) (A) (A) (A) (A)
                 (A) (A) (A) (A) (A) (A) (A) (A) (A) (A) (A) (A)
                 (A) (A) (A) (A) (A) (A) (A) (A) (A) (A) (A) (A)
                 (A) (A) (A) (A) (A) (A) (A) (A) (A) (A) (A) (A)
                 (A) (A) (A) (A) (A) (A) (A) (A) (A) (A) (A) (A)
                 (A) (A) (A) (A) (A) (A) (A) (A) (A) (A) (A) (A)
                 (A) (A) (A) (A) (A) (A) (A) (A) (A) (A) (A) (A)
                 (A) (A) (A) (A) (A) (A) (A) (A) (A) (A) (A) (A)
                 (A) (A) (A) (A) (A) (A) (A) (A) (A) (A) (A) (A)
                 (A) (A) (A) (A) (A) (A) (A) (A) (A) (A) (A) (A)
                 (A) (A) (A) (A) (A) (A) (A) (A) (A) (A) (A) (A)
                 (A) (A) (A) (A) (A) (A) (A) (A) (A) (A) (A) (A)
                 (A) (A) (A) (A) (A) (A) (A) (A) (A) (A) (A) (A)
                 (A) (A) (A) (A) (A) (A) (A) (A) (A) (A) (A) (A)
                 (A) (A) (A) (A) (A) (A) (A) (A) (A) (A) (A) (A)
                 (A) (A) (A) (A) (A) (A) (A) (A) (A) (A) (A) (A)
                 (A) (A) (A) (A) (A) (A) (A) (A) (A) (A) (A) (A)
                 (A) (A) (A) (A) (A) (A) (A) (A) (A) (A) (A) (A)
                 (A) (A) (A) (A) (A) (A) (A) (A) (A) (A) (A) (A)
                 (A) (A) (A) (A) (A) (A) (A) (A) (A) (A) (A) (A)
                 (A) (A) (A) (A) (A) (A) (A) (A) (A) (A) (A) (A)
                 (A) (A) (A) (A)
 The electronic state is 1-A.
 Alpha  occ. eigenvalues --  -90.04660 -25.22606 -25.22548 -25.22459 -19.54378
 Alpha  occ. eigenvalues --  -19.54339 -19.46056 -14.65124 -14.58996 -10.72745
 Alpha  occ. eigenvalues --  -10.52444 -10.47633 -10.47354 -10.46838 -10.46720
 Alpha  occ. eigenvalues --  -10.46185 -10.45649 -10.45450 -10.42968 -10.42487
 Alpha  occ. eigenvalues --   -8.36024  -6.28189  -6.28168  -6.28049  -1.39426
 Alpha  occ. eigenvalues --   -1.30179  -1.30107  -1.13105  -1.02440  -1.01049
 Alpha  occ. eigenvalues --   -0.89857  -0.87681  -0.83621  -0.79706  -0.76756
 Alpha  occ. eigenvalues --   -0.73522  -0.72819  -0.68610  -0.65688  -0.61833
 Alpha  occ. eigenvalues --   -0.61541  -0.60722  -0.59022  -0.57955  -0.54624
 Alpha  occ. eigenvalues --   -0.52469  -0.49943  -0.49424  -0.48757  -0.47333
 Alpha  occ. eigenvalues --   -0.46188  -0.45750  -0.45312  -0.44381  -0.44101
 Alpha  occ. eigenvalues --   -0.43370  -0.43001  -0.40905  -0.40004  -0.39480
 Alpha  occ. eigenvalues --   -0.38786  -0.37960  -0.36417  -0.35237  -0.35028
 Alpha  occ. eigenvalues --   -0.33353  -0.32856  -0.31599  -0.30801  -0.30400
 Alpha  occ. eigenvalues --   -0.30272  -0.29009  -0.27980  -0.26200  -0.24550
 Alpha  occ. eigenvalues --   -0.21296  -0.19929  -0.18761  -0.16744  -0.11725
 Alpha virt. eigenvalues --    0.09066   0.10163   0.10496   0.11602   0.12164
 Alpha virt. eigenvalues --    0.12380   0.12922   0.13112   0.13569   0.13929
 Alpha virt. eigenvalues --    0.14372   0.14953   0.15169   0.15428   0.15886
 Alpha virt. eigenvalues --    0.16370   0.16499   0.16813   0.17112   0.17815
 Alpha virt. eigenvalues --    0.18541   0.19001   0.19475   0.20418   0.20830
 Alpha virt. eigenvalues --    0.21300   0.21920   0.22146   0.22601   0.23235
 Alpha virt. eigenvalues --    0.23374   0.23990   0.24836   0.25261   0.25935
 Alpha virt. eigenvalues --    0.26118   0.26642   0.26986   0.27273   0.27484
 Alpha virt. eigenvalues --    0.28822   0.28991   0.29629   0.29926   0.30226
 Alpha virt. eigenvalues --    0.31284   0.31609   0.31974   0.32173   0.32891
 Alpha virt. eigenvalues --    0.32931   0.33402   0.33864   0.34105   0.34553
 Alpha virt. eigenvalues --    0.34777   0.35088   0.35269   0.35627   0.36020
 Alpha virt. eigenvalues --    0.36546   0.36677   0.37140   0.38070   0.38327
 Alpha virt. eigenvalues --    0.38672   0.38961   0.39436   0.39917   0.40024
 Alpha virt. eigenvalues --    0.40543   0.40903   0.41146   0.41788   0.42148
 Alpha virt. eigenvalues --    0.42501   0.42814   0.43262   0.43411   0.43953
 Alpha virt. eigenvalues --    0.44064   0.44495   0.45382   0.45811   0.46059
 Alpha virt. eigenvalues --    0.46563   0.47151   0.47276   0.47678   0.48242
 Alpha virt. eigenvalues --    0.48378   0.48806   0.49137   0.50031   0.50337
 Alpha virt. eigenvalues --    0.50521   0.51486   0.52370   0.52601   0.53630
 Alpha virt. eigenvalues --    0.54048   0.54237   0.55489   0.56902   0.57502
 Alpha virt. eigenvalues --    0.58492   0.58922   0.59243   0.60724   0.61331
 Alpha virt. eigenvalues --    0.62535   0.63148   0.64415   0.69483   0.70800
 Alpha virt. eigenvalues --    0.72340   0.73831   0.74947   0.76844   0.76996
 Alpha virt. eigenvalues --    0.77942   0.81425   0.83036   0.83965   0.84957
 Alpha virt. eigenvalues --    0.85966   0.87044   0.87555   0.88777   0.89292
 Alpha virt. eigenvalues --    0.90201   0.91571   0.92691   0.94771   0.95235
 Alpha virt. eigenvalues --    0.96303   0.97121   0.97817   0.98165   1.00133
 Alpha virt. eigenvalues --    1.01191   1.01725   1.02687   1.03259   1.04316
 Alpha virt. eigenvalues --    1.05999   1.06355   1.08556   1.09774   1.10700
 Alpha virt. eigenvalues --    1.11394   1.11958   1.12734   1.13950   1.15135
 Alpha virt. eigenvalues --    1.16236   1.17506   1.18791   1.19260   1.20146
 Alpha virt. eigenvalues --    1.21441   1.22127   1.23234   1.24186   1.24386
 Alpha virt. eigenvalues --    1.24793   1.26107   1.26652   1.27219   1.27556
 Alpha virt. eigenvalues --    1.29346   1.32171   1.35077   1.37310   1.38970
 Alpha virt. eigenvalues --    1.39892   1.41579   1.42625   1.43867   1.44965
 Alpha virt. eigenvalues --    1.45656   1.47102   1.48165   1.48517   1.49478
 Alpha virt. eigenvalues --    1.49835   1.51537   1.51975   1.52946   1.54340
 Alpha virt. eigenvalues --    1.54917   1.56390   1.56894   1.57519   1.58961
 Alpha virt. eigenvalues --    1.60727   1.61990   1.62819   1.63531   1.63900
 Alpha virt. eigenvalues --    1.65552   1.67586   1.67679   1.69722   1.70958
 Alpha virt. eigenvalues --    1.74008   1.76930   1.77054   1.78038   1.79021
 Alpha virt. eigenvalues --    1.79738   1.82175   1.82932   1.83654   1.84215
 Alpha virt. eigenvalues --    1.84816   1.87072   1.88174   1.88707   1.92506
 Alpha virt. eigenvalues --    1.93319   1.94287   1.95733   1.96759   1.97141
 Alpha virt. eigenvalues --    1.97711   1.98049   1.98843   1.99968   2.01276
 Alpha virt. eigenvalues --    2.02549   2.03218   2.04876   2.06040   2.06954
 Alpha virt. eigenvalues --    2.07357   2.07565   2.08601   2.10448   2.11699
 Alpha virt. eigenvalues --    2.11976   2.12610   2.13327   2.14640   2.15121
 Alpha virt. eigenvalues --    2.16955   2.18043   2.19098   2.19545   2.19860
 Alpha virt. eigenvalues --    2.20339   2.21045   2.21871   2.24303   2.25304
 Alpha virt. eigenvalues --    2.25612   2.26935   2.29824   2.31048   2.32079
 Alpha virt. eigenvalues --    2.32932   2.33511   2.35325   2.37131   2.37993
 Alpha virt. eigenvalues --    2.40087   2.41529   2.42147   2.42518   2.46242
 Alpha virt. eigenvalues --    2.47254   2.47345   2.47909   2.48535   2.48701
 Alpha virt. eigenvalues --    2.52051   2.53449   2.57860   2.62668   2.69181
 Alpha virt. eigenvalues --    2.70857   2.71974   2.73865   2.76247   2.80640
 Alpha virt. eigenvalues --    2.81676   2.82642   2.84360   2.87820   2.89578
 Alpha virt. eigenvalues --    2.92377   2.93072   2.95364   2.95827   2.98635
 Alpha virt. eigenvalues --    3.00181   3.04607   3.05676   3.08311   3.09230
 Alpha virt. eigenvalues --    3.17967   3.24847   3.34232   3.35214   3.36316
 Alpha virt. eigenvalues --    3.37874   3.49603   3.53307   4.14886   4.28998
 Alpha virt. eigenvalues --    4.35544   4.41891   4.44731   4.48424   4.49921
 Alpha virt. eigenvalues --    4.51098   4.52420   4.56641   4.57834   4.60521
 Alpha virt. eigenvalues --    4.62899   4.67016   4.68907   4.76951   4.91187
 Alpha virt. eigenvalues --    5.91463   5.93731   6.57661
          Condensed to atoms (all electrons):
               1          2          3          4          5          6
     1  C    5.691263  -0.056288   0.002326   0.007343  -0.076527   0.002085
     2  C   -0.056288   6.366896  -0.564691  -0.041253   0.097839   0.019116
     3  C    0.002326  -0.564691   7.417024   0.305648  -0.122265  -0.071864
     4  N    0.007343  -0.041253   0.305648   7.964430  -0.028283  -0.223503
     5  C   -0.076527   0.097839  -0.122265  -0.028283  10.118363   0.528317
     6  O    0.002085   0.019116  -0.071864  -0.223503   0.528317   8.526080
     7  N    0.006656  -0.023761   0.036032  -0.504030   0.294035  -0.123954
     8  C   -0.033615   0.015514  -1.063563  -0.118701  -1.712359  -0.207771
     9  C    0.008097   0.006968   0.313636   0.045822   4.275969   0.199988
    10  C   -0.010907  -0.014289  -0.529728  -0.338534  -5.049277  -0.153105
    11  C    0.000549  -0.003035   0.087621   0.034870   1.336791   0.038575
    12  C   -0.000737   0.001468  -0.112270  -0.009300  -1.743754  -0.002859
    13  C   -0.000388   0.009631  -0.051645   0.322913  -2.462437   0.112525
    14  H    0.415046  -0.094524   0.032027   0.000711  -0.001425   0.000005
    15  H    0.421004  -0.060842  -0.011197   0.000468  -0.001360  -0.000024
    16  H    0.415005  -0.055383  -0.013135   0.000059   0.001220  -0.000076
    17  H   -0.043463   0.447513  -0.094585   0.004350  -0.001256  -0.000410
    18  H   -0.034636   0.417220  -0.060621   0.003015  -0.006789  -0.000020
    19  H   -0.017810  -0.003049   0.354357  -0.020559   0.001631  -0.004225
    20  H    0.016806  -0.119432   0.513813  -0.108686  -0.008616   0.006281
    21  H    0.003170   0.015962  -0.088028   0.252893   0.049453   0.009759
    22  H    0.000022  -0.000102   0.003944   0.001406   0.027855  -0.010886
    23  H    0.000002   0.000000   0.000045  -0.000174  -0.001285   0.000058
    24  H   -0.000000   0.000000   0.000008   0.000008   0.001025  -0.000003
    25  S   -0.000012   0.000160  -0.003744   0.003954  -0.157638  -0.000769
    26  O   -0.000000   0.000000  -0.000036  -0.000010  -0.004208   0.000001
    27  O   -0.000000   0.000000  -0.000062   0.000003  -0.007220  -0.000012
    28  H   -0.000000  -0.000000  -0.000067  -0.000019  -0.002045   0.000273
    29  C    0.000001  -0.000008   0.000359  -0.000377   0.021860   0.000144
    30  F    0.000000  -0.000000   0.000000   0.000000   0.000062  -0.000000
    31  F   -0.000000   0.000000  -0.000016  -0.000000  -0.002643   0.000002
    32  F   -0.000000  -0.000000  -0.000027   0.000001  -0.003179   0.000016
               7          8          9         10         11         12
     1  C    0.006656  -0.033615   0.008097  -0.010907   0.000549  -0.000737
     2  C   -0.023761   0.015514   0.006968  -0.014289  -0.003035   0.001468
     3  C    0.036032  -1.063563   0.313636  -0.529728   0.087621  -0.112270
     4  N   -0.504030  -0.118701   0.045822  -0.338534   0.034870  -0.009300
     5  C    0.294035  -1.712359   4.275969  -5.049277   1.336791  -1.743754
     6  O   -0.123954  -0.207771   0.199988  -0.153105   0.038575  -0.002859
     7  N    7.580038   0.663989  -0.155522   0.038598   0.033736  -0.014308
     8  C    0.663989  17.865628   1.387597  -7.110483   3.928257  -6.024274
     9  C   -0.155522   1.387597  49.601020  -7.952336   1.753277  -4.970250
    10  C    0.038598  -7.110483  -7.952336  35.643780 -12.977220   4.152611
    11  C    0.033736   3.928257   1.753277 -12.977220  32.728608  -6.552946
    12  C   -0.014308  -6.024274  -4.970250   4.152611  -6.552946  25.415423
    13  C   -0.364471  -1.117853 -36.850345  -0.255143 -14.363994  -2.086442
    14  H    0.000012  -0.000040  -0.000006   0.000000   0.000000  -0.000000
    15  H    0.000066  -0.000096   0.000011  -0.000016  -0.000000  -0.000000
    16  H   -0.000027   0.000137  -0.000058   0.000021   0.000000  -0.000000
    17  H   -0.002181  -0.000086  -0.000637   0.000730   0.000029   0.000007
    18  H    0.001263  -0.001978   0.000493  -0.000445  -0.000002  -0.000011
    19  H   -0.010449   0.005904   0.005671  -0.000272  -0.000003   0.000202
    20  H    0.013164  -0.009885  -0.002870  -0.001279  -0.000077  -0.000184
    21  H    0.016682   0.001385   0.007046  -0.013750  -0.001895   0.000067
    22  H   -0.005717  -0.109988   0.244452   0.005498   0.000384   0.069190
    23  H   -0.010320   0.100019   0.071791   0.258561  -0.116480   0.028457
    24  H    0.000577  -0.022086  -0.026210  -0.021671   0.273268   0.049832
    25  S   -0.003325  -0.494593  -3.803988   0.424650  -0.091163  -0.566041
    26  O   -0.000151  -0.081633   0.339974   0.099226  -0.518944  -0.113577
    27  O   -0.000070  -0.055598  -0.072369   0.231440   0.090961  -0.263172
    28  H   -0.000705  -0.021838   0.077402  -0.015476   0.028059   0.072252
    29  C    0.000469   0.122434   1.000491   0.159719   0.217988  -0.647894
    30  F    0.000002   0.001105  -0.013152  -0.010227  -0.005726   0.059818
    31  F   -0.000082  -0.041245  -0.018341   0.052814  -0.184867   0.056867
    32  F   -0.000014  -0.032578   0.006688   0.040170  -0.021109   0.054565
              13         14         15         16         17         18
     1  C   -0.000388   0.415046   0.421004   0.415005  -0.043463  -0.034636
     2  C    0.009631  -0.094524  -0.060842  -0.055383   0.447513   0.417220
     3  C   -0.051645   0.032027  -0.011197  -0.013135  -0.094585  -0.060621
     4  N    0.322913   0.000711   0.000468   0.000059   0.004350   0.003015
     5  C   -2.462437  -0.001425  -0.001360   0.001220  -0.001256  -0.006789
     6  O    0.112525   0.000005  -0.000024  -0.000076  -0.000410  -0.000020
     7  N   -0.364471   0.000012   0.000066  -0.000027  -0.002181   0.001263
     8  C   -1.117853  -0.000040  -0.000096   0.000137  -0.000086  -0.001978
     9  C  -36.850345  -0.000006   0.000011  -0.000058  -0.000637   0.000493
    10  C   -0.255143   0.000000  -0.000016   0.000021   0.000730  -0.000445
    11  C  -14.363994   0.000000  -0.000000   0.000000   0.000029  -0.000002
    12  C   -2.086442  -0.000000  -0.000000  -0.000000   0.000007  -0.000011
    13  C   61.725924  -0.000000  -0.000001  -0.000001   0.000027  -0.000019
    14  H   -0.000000   0.515147  -0.027681  -0.027414  -0.002991  -0.002889
    15  H   -0.000001  -0.027681   0.502539  -0.030823  -0.004823   0.003973
    16  H   -0.000001  -0.027414  -0.030823   0.501993   0.004214  -0.004750
    17  H    0.000027  -0.002991  -0.004823   0.004214   0.533293  -0.037475
    18  H   -0.000019  -0.002889   0.003973  -0.004750  -0.037475   0.508728
    19  H    0.004644  -0.000085  -0.000236   0.002762   0.004466  -0.006247
    20  H   -0.003535  -0.000057   0.002565  -0.000474  -0.006650   0.004529
    21  H   -0.003119  -0.000002   0.000002   0.000001   0.002034  -0.000203
    22  H    0.075619  -0.000000   0.000000   0.000000  -0.000000   0.000000
    23  H   -0.028563  -0.000000   0.000000  -0.000000  -0.000000   0.000000
    24  H    0.034158  -0.000000   0.000000   0.000000   0.000000  -0.000000
    25  S    2.534596  -0.000000  -0.000000   0.000000   0.000000  -0.000000
    26  O    0.033012  -0.000000  -0.000000  -0.000000  -0.000000  -0.000000
    27  O   -0.317858  -0.000000  -0.000000   0.000000   0.000000  -0.000000
    28  H    0.162846  -0.000000   0.000000  -0.000000  -0.000000   0.000000
    29  C   -0.242863   0.000000   0.000000  -0.000000  -0.000000   0.000000
    30  F   -0.013319   0.000000   0.000000  -0.000000  -0.000000   0.000000
    31  F    0.051065  -0.000000  -0.000000   0.000000   0.000000  -0.000000
    32  F   -0.116024  -0.000000  -0.000000  -0.000000   0.000000  -0.000000
              19         20         21         22         23         24
     1  C   -0.017810   0.016806   0.003170   0.000022   0.000002  -0.000000
     2  C   -0.003049  -0.119432   0.015962  -0.000102   0.000000   0.000000
     3  C    0.354357   0.513813  -0.088028   0.003944   0.000045   0.000008
     4  N   -0.020559  -0.108686   0.252893   0.001406  -0.000174   0.000008
     5  C    0.001631  -0.008616   0.049453   0.027855  -0.001285   0.001025
     6  O   -0.004225   0.006281   0.009759  -0.010886   0.000058  -0.000003
     7  N   -0.010449   0.013164   0.016682  -0.005717  -0.010320   0.000577
     8  C    0.005904  -0.009885   0.001385  -0.109988   0.100019  -0.022086
     9  C    0.005671  -0.002870   0.007046   0.244452   0.071791  -0.026210
    10  C   -0.000272  -0.001279  -0.013750   0.005498   0.258561  -0.021671
    11  C   -0.000003  -0.000077  -0.001895   0.000384  -0.116480   0.273268
    12  C    0.000202  -0.000184   0.000067   0.069190   0.028457   0.049832
    13  C    0.004644  -0.003535  -0.003119   0.075619  -0.028563   0.034158
    14  H   -0.000085  -0.000057  -0.000002  -0.000000  -0.000000  -0.000000
    15  H   -0.000236   0.002565   0.000002   0.000000   0.000000   0.000000
    16  H    0.002762  -0.000474   0.000001   0.000000  -0.000000   0.000000
    17  H    0.004466  -0.006650   0.002034  -0.000000  -0.000000   0.000000
    18  H   -0.006247   0.004529  -0.000203   0.000000   0.000000  -0.000000
    19  H    0.508288  -0.043661   0.002924   0.000002  -0.000000   0.000000
    20  H   -0.043661   0.547773   0.001564  -0.000001   0.000000   0.000000
    21  H    0.002924   0.001564   0.353464   0.000001   0.000007  -0.000000
    22  H    0.000002  -0.000001   0.000001   0.466733  -0.000110   0.000012
    23  H   -0.000000   0.000000   0.000007  -0.000110   0.507786  -0.004276
    24  H    0.000000   0.000000  -0.000000   0.000012  -0.004276   0.478874
    25  S    0.000013  -0.000012  -0.000010   0.004578   0.000628   0.006453
    26  O    0.000000  -0.000000   0.000000   0.000031  -0.000023   0.004800
    27  O    0.000000  -0.000000  -0.000000   0.000029   0.000028   0.000645
    28  H   -0.000000   0.000000   0.000000  -0.004209   0.000014  -0.000132
    29  C   -0.000000   0.000001   0.000000  -0.000611  -0.000173   0.000232
    30  F   -0.000000   0.000000   0.000000  -0.000000  -0.000000  -0.000055
    31  F    0.000000  -0.000000   0.000000   0.000000  -0.000021  -0.000033
    32  F    0.000000  -0.000000   0.000000  -0.000027  -0.000000   0.000028
              25         26         27         28         29         30
     1  C   -0.000012  -0.000000  -0.000000  -0.000000   0.000001   0.000000
     2  C    0.000160   0.000000   0.000000  -0.000000  -0.000008  -0.000000
     3  C   -0.003744  -0.000036  -0.000062  -0.000067   0.000359   0.000000
     4  N    0.003954  -0.000010   0.000003  -0.000019  -0.000377   0.000000
     5  C   -0.157638  -0.004208  -0.007220  -0.002045   0.021860   0.000062
     6  O   -0.000769   0.000001  -0.000012   0.000273   0.000144  -0.000000
     7  N   -0.003325  -0.000151  -0.000070  -0.000705   0.000469   0.000002
     8  C   -0.494593  -0.081633  -0.055598  -0.021838   0.122434   0.001105
     9  C   -3.803988   0.339974  -0.072369   0.077402   1.000491  -0.013152
    10  C    0.424650   0.099226   0.231440  -0.015476   0.159719  -0.010227
    11  C   -0.091163  -0.518944   0.090961   0.028059   0.217988  -0.005726
    12  C   -0.566041  -0.113577  -0.263172   0.072252  -0.647894   0.059818
    13  C    2.534596   0.033012  -0.317858   0.162846  -0.242863  -0.013319
    14  H   -0.000000  -0.000000  -0.000000  -0.000000   0.000000   0.000000
    15  H   -0.000000  -0.000000  -0.000000   0.000000   0.000000   0.000000
    16  H    0.000000  -0.000000   0.000000  -0.000000  -0.000000  -0.000000
    17  H    0.000000  -0.000000   0.000000  -0.000000  -0.000000  -0.000000
    18  H   -0.000000  -0.000000  -0.000000   0.000000   0.000000   0.000000
    19  H    0.000013   0.000000   0.000000  -0.000000  -0.000000  -0.000000
    20  H   -0.000012  -0.000000  -0.000000   0.000000   0.000001   0.000000
    21  H   -0.000010   0.000000  -0.000000   0.000000   0.000000   0.000000
    22  H    0.004578   0.000031   0.000029  -0.004209  -0.000611  -0.000000
    23  H    0.000628  -0.000023   0.000028   0.000014  -0.000173  -0.000000
    24  H    0.006453   0.004800   0.000645  -0.000132   0.000232  -0.000055
    25  S   18.311730   0.263847   0.479785  -0.008825  -1.829021   0.026282
    26  O    0.263847   8.664405  -0.159575   0.000880  -0.078782  -0.004333
    27  O    0.479785  -0.159575   8.638562   0.004529  -0.119642  -0.005293
    28  H   -0.008825   0.000880   0.004529   0.477538   0.002804  -0.000053
    29  C   -1.829021  -0.078782  -0.119642   0.002804   6.135512   0.097592
    30  F    0.026282  -0.004333  -0.005293  -0.000053   0.097592   9.245551
    31  F    0.034552   0.011517   0.018422   0.000022   0.120293  -0.043661
    32  F    0.008390   0.018239   0.013201  -0.000098   0.129234  -0.043377
              31         32
     1  C   -0.000000  -0.000000
     2  C    0.000000  -0.000000
     3  C   -0.000016  -0.000027
     4  N   -0.000000   0.000001
     5  C   -0.002643  -0.003179
     6  O    0.000002   0.000016
     7  N   -0.000082  -0.000014
     8  C   -0.041245  -0.032578
     9  C   -0.018341   0.006688
    10  C    0.052814   0.040170
    11  C   -0.184867  -0.021109
    12  C    0.056867   0.054565
    13  C    0.051065  -0.116024
    14  H   -0.000000  -0.000000
    15  H   -0.000000  -0.000000
    16  H    0.000000  -0.000000
    17  H    0.000000   0.000000
    18  H   -0.000000  -0.000000
    19  H    0.000000   0.000000
    20  H   -0.000000  -0.000000
    21  H    0.000000   0.000000
    22  H    0.000000  -0.000027
    23  H   -0.000021  -0.000000
    24  H   -0.000033   0.000028
    25  S    0.034552   0.008390
    26  O    0.011517   0.018239
    27  O    0.018422   0.013201
    28  H    0.000022  -0.000098
    29  C    0.120293   0.129234
    30  F   -0.043661  -0.043377
    31  F    9.241446  -0.030595
    32  F   -0.030595   9.237764
 Mulliken charges:
               1
     1  C   -0.714991
     2  C   -0.361630
     3  C   -0.279295
     4  N   -0.554466
     5  C    0.638144
     6  O   -0.643743
     7  N   -0.466232
     8  C    0.168294
     9  C    0.519689
    10  C   -0.653661
    11  C    0.284489
    12  C   -0.852741
    13  C   -0.788941
    14  H    0.194166
    15  H    0.206471
    16  H    0.206729
    17  H    0.197891
    18  H    0.216864
    19  H    0.215733
    20  H    0.198924
    21  H    0.390594
    22  H    0.231895
    23  H    0.194029
    24  H    0.224544
    25  S    0.859524
    26  O   -0.474659
    27  O   -0.476733
    28  H    0.226850
    29  C    0.910240
    30  F   -0.291215
    31  F   -0.265496
    32  F   -0.261267
 Sum of Mulliken charges =  -1.00000
 Mulliken charges with hydrogens summed into heavy atoms:
               1
     1  C   -0.107624
     2  C    0.053125
     3  C    0.135362
     4  N   -0.163872
     5  C    0.638144
     6  O   -0.643743
     7  N   -0.466232
     8  C    0.168294
     9  C    0.751585
    10  C   -0.459632
    11  C    0.509033
    12  C   -0.852741
    13  C   -0.562091
    25  S    0.859524
    26  O   -0.474659
    27  O   -0.476733
    29  C    0.910240
    30  F   -0.291215
    31  F   -0.265496
    32  F   -0.261267
 Electronic spatial extent (au):  <R**2>=          10860.6427
 Charge=             -1.0000 electrons
 Dipole moment (field-independent basis, Debye):
    X=              2.5653    Y=             -0.1116    Z=             -2.0080  Tot=              3.2597
 Quadrupole moment (field-independent basis, Debye-Ang):
   XX=           -183.1126   YY=           -137.5066   ZZ=           -132.5427
   XY=             11.3697   XZ=              7.0341   YZ=             -2.1420
 Traceless Quadrupole moment (field-independent basis, Debye-Ang):
   XX=            -32.0586   YY=             13.5474   ZZ=             18.5112
   XY=             11.3697   XZ=              7.0341   YZ=             -2.1420
 Octapole moment (field-independent basis, Debye-Ang**2):
  XXX=             29.6851  YYY=            -25.5498  ZZZ=            -22.4195  XYY=            -31.7239
  XXY=            -10.6017  XXZ=            -46.9776  XZZ=            -11.1309  YZZ=             -9.5517
  YYZ=             -9.0182  XYZ=             -0.5294
 Hexadecapole moment (field-independent basis, Debye-Ang**3):
 XXXX=         -13886.4627 YYYY=           -859.0463 ZZZZ=           -612.5143 XXXY=            333.4854
 XXXZ=            156.8738 YYYX=            126.3203 YYYZ=             -0.6618 ZZZX=             99.6807
 ZZZY=             11.8566 XXYY=          -2399.4254 XXZZ=          -2307.9178 YYZZ=           -222.9376
 XXYZ=             -7.7690 YYXZ=             22.4423 ZZXY=              9.5326
 N-N= 1.725276921756D+03 E-N=-6.901173798728D+03  KE= 1.449031390943D+03
 Calling FoFJK, ICntrl=      2127 FMM=F ISym2X=0 I1Cent= 0 IOpClX= 0 NMat=1 NMatS=1 NMatT=0.
 ***** Axes restored to original set *****
 -------------------------------------------------------------------
 Center     Atomic                   Forces (Hartrees/Bohr)
 Number     Number              X              Y              Z
 -------------------------------------------------------------------
      1        6          -0.001159440   -0.001317315    0.000069602
      2        6           0.000631325    0.001140677    0.000325187
      3        6           0.007641336   -0.002336691    0.001026513
      4        7          -0.016896488   -0.008379392    0.002676212
      5        6           0.014810090    0.032975171   -0.007417609
      6        8          -0.003606410   -0.019414187    0.005699505
      7        7           0.006824011   -0.002781758    0.000691692
      8        6          -0.014312187   -0.004728122   -0.000616983
      9        6           0.003415310    0.004208185    0.002063235
     10        6           0.004334961   -0.001348592   -0.000405696
     11        6          -0.003632135   -0.000520720   -0.000268764
     12        6           0.006041156    0.001372274   -0.001005438
     13        6          -0.005136623   -0.001790046   -0.000437119
     14        1          -0.001032378    0.000053146   -0.000050648
     15        1           0.000011650    0.000362198    0.000111716
     16        1           0.000181140    0.000059063   -0.000266194
     17        1          -0.000710645   -0.000913308   -0.000212251
     18        1           0.000362117   -0.000420338    0.000206631
     19        1           0.001385423    0.000856331   -0.000638301
     20        1          -0.000292794    0.001464968   -0.000764090
     21        1           0.002559957    0.001633151   -0.000335145
     22        1          -0.002079177   -0.000602859   -0.002200190
     23        1          -0.001908038    0.000484847    0.000283589
     24        1           0.001161181    0.001101205    0.000755604
     25       16           0.003017589   -0.002696453    0.009579850
     26        8          -0.002249846    0.002096248   -0.002810192
     27        8          -0.001455082   -0.000968657   -0.004350820
     28        1           0.001457338   -0.000569856    0.000029565
     29        6          -0.002949327   -0.004431843    0.009752707
     30        9           0.003466551    0.002411659   -0.003173524
     31        9           0.000491761   -0.000166468   -0.004978768
     32        9          -0.000372327    0.003167480   -0.003339876
 -------------------------------------------------------------------
 Cartesian Forces:  Max     0.032975171 RMS     0.005607673

 GradGradGradGradGradGradGradGradGradGradGradGradGradGradGradGradGradGrad
 Berny optimization.
 FormGI is forming the generalized inverse of G from B-inverse, IUseBI=4.
 Internal  Forces:  Max     0.020085742 RMS     0.002719778
 Search for a local minimum.
 Step number   1 out of a maximum of  168
 All quantities printed in internal units (Hartrees-Bohrs-Radians)
 Mixed Optimization -- RFO/linear search
 Second derivative matrix not updated -- first step.
 ITU=  0
     Eigenvalues ---    0.00230   0.00429   0.00478   0.00951   0.01405
     Eigenvalues ---    0.01718   0.01783   0.01892   0.01897   0.01983
     Eigenvalues ---    0.02030   0.02040   0.02121   0.02123   0.02142
     Eigenvalues ---    0.02220   0.02240   0.02244   0.02319   0.03729
     Eigenvalues ---    0.04443   0.04933   0.05552   0.05577   0.05579
     Eigenvalues ---    0.08167   0.08634   0.08667   0.08817   0.09140
     Eigenvalues ---    0.09184   0.11846   0.12067   0.12682   0.14639
     Eigenvalues ---    0.15996   0.15999   0.15999   0.16000   0.16000
     Eigenvalues ---    0.16000   0.16000   0.18185   0.21896   0.21914
     Eigenvalues ---    0.21942   0.21999   0.22374   0.22939   0.23988
     Eigenvalues ---    0.24943   0.24975   0.24991   0.25000   0.25000
     Eigenvalues ---    0.25000   0.25000   0.25000   0.25000   0.29845
     Eigenvalues ---    0.30199   0.33394   0.33676   0.33936   0.34035
     Eigenvalues ---    0.34153   0.34161   0.34241   0.34331   0.35196
     Eigenvalues ---    0.35229   0.35280   0.35757   0.37472   0.38828
     Eigenvalues ---    0.39806   0.43340   0.43707   0.45350   0.47186
     Eigenvalues ---    0.49650   0.50278   0.53297   0.54478   0.59524
     Eigenvalues ---    0.59621   0.59648   0.79706   0.89455   0.89485
 RFO step:  Lambda=-4.35773141D-03 EMin= 2.30000000D-03
 Linear search not attempted -- first point.
 Iteration  1 RMS(Cart)=  0.09779440 RMS(Int)=  0.00496840
 Iteration  2 RMS(Cart)=  0.00896120 RMS(Int)=  0.00006243
 Iteration  3 RMS(Cart)=  0.00006567 RMS(Int)=  0.00005715
 Iteration  4 RMS(Cart)=  0.00000000 RMS(Int)=  0.00005715
 Variable       Old X    -DE/DX   Delta X   Delta X   Delta X     New X
                                 (Linear)    (Quad)   (Total)
    R1        2.88274   0.00146   0.00000   0.00482   0.00482   2.88756
    R2        2.06776   0.00073   0.00000   0.00210   0.00210   2.06986
    R3        2.07059  -0.00004   0.00000  -0.00012  -0.00012   2.07048
    R4        2.07073  -0.00011   0.00000  -0.00030  -0.00030   2.07043
    R5        2.87568   0.00197   0.00000   0.00644   0.00644   2.88212
    R6        2.07438   0.00081   0.00000   0.00235   0.00235   2.07672
    R7        2.07271   0.00031   0.00000   0.00089   0.00089   2.07360
    R8        2.75141  -0.00658   0.00000  -0.01735  -0.01735   2.73406
    R9        2.06925   0.00027   0.00000   0.00078   0.00078   2.07003
   R10        2.07881   0.00110   0.00000   0.00323   0.00323   2.08204
   R11        2.59586   0.01037   0.00000   0.02046   0.02046   2.61632
   R12        1.91571  -0.00152   0.00000  -0.00332  -0.00332   1.91239
   R13        2.38075  -0.02009   0.00000  -0.02506  -0.02506   2.35568
   R14        2.56677   0.00042   0.00000   0.00079   0.00079   2.56756
   R15        2.55599  -0.01111   0.00000  -0.02023  -0.02023   2.53576
   R16        2.70439   0.00188   0.00000   0.00464   0.00465   2.70904
   R17        2.70177   0.00181   0.00000   0.00444   0.00444   2.70621
   R18        2.60589  -0.00050   0.00000  -0.00099  -0.00098   2.60492
   R19        2.04464   0.00041   0.00000   0.00114   0.00114   2.04578
   R20        2.59926   0.00004   0.00000   0.00008   0.00006   2.59932
   R21        2.05222  -0.00009   0.00000  -0.00025  -0.00025   2.05198
   R22        2.65987   0.00049   0.00000   0.00100   0.00100   2.66087
   R23        2.05304  -0.00007   0.00000  -0.00018  -0.00018   2.05286
   R24        2.65573   0.00222   0.00000   0.00484   0.00484   2.66057
   R25        3.25366  -0.00019   0.00000  -0.00057  -0.00057   3.25308
   R26        2.05358  -0.00016   0.00000  -0.00044  -0.00044   2.05314
   R27        2.76871  -0.00302   0.00000  -0.00336  -0.00336   2.76535
   R28        2.76885  -0.00378   0.00000  -0.00421  -0.00421   2.76464
   R29        3.51386   0.00208   0.00000   0.00929   0.00929   3.52315
   R30        2.51319   0.00413   0.00000   0.00689   0.00689   2.52008
   R31        2.51220   0.00376   0.00000   0.00626   0.00626   2.51846
   R32        2.51241   0.00310   0.00000   0.00516   0.00516   2.51757
    A1        1.93969   0.00117   0.00000   0.00882   0.00882   1.94851
    A2        1.93667  -0.00002   0.00000  -0.00075  -0.00076   1.93591
    A3        1.93579  -0.00034   0.00000  -0.00316  -0.00317   1.93262
    A4        1.88333  -0.00036   0.00000  -0.00019  -0.00020   1.88313
    A5        1.88327  -0.00029   0.00000  -0.00057  -0.00057   1.88270
    A6        1.88282  -0.00020   0.00000  -0.00445  -0.00446   1.87836
    A7        1.94456   0.00155   0.00000   0.00829   0.00828   1.95284
    A8        1.91720  -0.00100   0.00000  -0.00630  -0.00633   1.91087
    A9        1.92028  -0.00014   0.00000   0.00035   0.00034   1.92062
   A10        1.90596   0.00018   0.00000   0.00437   0.00439   1.91034
   A11        1.90618  -0.00072   0.00000  -0.00306  -0.00306   1.90312
   A12        1.86801   0.00007   0.00000  -0.00411  -0.00412   1.86389
   A13        1.93070  -0.00028   0.00000   0.00066   0.00063   1.93134
   A14        1.91492   0.00118   0.00000   0.00706   0.00705   1.92197
   A15        1.91527   0.00030   0.00000   0.00677   0.00672   1.92199
   A16        1.90342  -0.00111   0.00000  -0.01309  -0.01307   1.89035
   A17        1.92951   0.00066   0.00000   0.00817   0.00813   1.93764
   A18        1.86895  -0.00077   0.00000  -0.00997  -0.00997   1.85898
   A19        2.11058  -0.00372   0.00000  -0.01730  -0.01732   2.09326
   A20        2.03280   0.00392   0.00000   0.02083   0.02075   2.05356
   A21        2.00932  -0.00060   0.00000  -0.00958  -0.00955   1.99977
   A22        2.07290  -0.00138   0.00000  -0.00542  -0.00542   2.06748
   A23        1.98557  -0.00731   0.00000  -0.02870  -0.02870   1.95686
   A24        2.22414   0.00869   0.00000   0.03418   0.03418   2.25832
   A25        2.11154  -0.00308   0.00000  -0.01209  -0.01209   2.09944
   A26        2.20448   0.00022   0.00000   0.00090   0.00090   2.20537
   A27        2.04224   0.00048   0.00000   0.00194   0.00192   2.04416
   A28        2.03476  -0.00069   0.00000  -0.00257  -0.00256   2.03220
   A29        2.11937  -0.00047   0.00000  -0.00205  -0.00214   2.11724
   A30        2.08648  -0.00222   0.00000  -0.01371  -0.01384   2.07265
   A31        2.07712   0.00271   0.00000   0.01630   0.01617   2.09329
   A32        2.13607   0.00021   0.00000   0.00082   0.00080   2.13687
   A33        2.05843  -0.00214   0.00000  -0.01281  -0.01282   2.04561
   A34        2.08869   0.00193   0.00000   0.01200   0.01199   2.10068
   A35        2.07837   0.00124   0.00000   0.00507   0.00505   2.08342
   A36        2.10268   0.00116   0.00000   0.00830   0.00830   2.11098
   A37        2.10211  -0.00240   0.00000  -0.01340  -0.01340   2.08872
   A38        2.10518  -0.00205   0.00000  -0.00861  -0.00860   2.09658
   A39        2.08981   0.00035   0.00000   0.00164   0.00163   2.09144
   A40        2.08734   0.00170   0.00000   0.00692   0.00692   2.09425
   A41        2.09248   0.00177   0.00000   0.00752   0.00754   2.10002
   A42        2.09425   0.00068   0.00000   0.00579   0.00577   2.10003
   A43        2.09636  -0.00245   0.00000  -0.01325  -0.01327   2.08309
   A44        1.94595   0.00019   0.00000   0.00208   0.00193   1.94788
   A45        1.94699   0.00037   0.00000   0.00395   0.00382   1.95082
   A46        1.83475   0.00027   0.00000  -0.00640  -0.00642   1.82833
   A47        2.09587   0.00214   0.00000   0.02008   0.01991   2.11578
   A48        1.80524  -0.00188   0.00000  -0.01421  -0.01423   1.79101
   A49        1.80315  -0.00177   0.00000  -0.01295  -0.01295   1.79019
   A50        1.90711   0.00399   0.00000   0.01507   0.01495   1.92206
   A51        1.92244   0.00405   0.00000   0.01598   0.01584   1.93828
   A52        1.92085   0.00437   0.00000   0.01773   0.01758   1.93843
   A53        1.90423  -0.00424   0.00000  -0.01773  -0.01783   1.88640
   A54        1.90427  -0.00421   0.00000  -0.01667  -0.01680   1.88747
   A55        1.90474  -0.00412   0.00000  -0.01503  -0.01519   1.88955
    D1       -3.13510   0.00022   0.00000   0.00179   0.00179  -3.13331
    D2        1.03373  -0.00035   0.00000  -0.00491  -0.00490   1.02883
    D3       -1.01837   0.00024   0.00000   0.00368   0.00368  -1.01469
    D4        1.05239  -0.00009   0.00000  -0.00336  -0.00337   1.04903
    D5       -1.06197  -0.00066   0.00000  -0.01006  -0.01005  -1.07202
    D6       -3.11406  -0.00007   0.00000  -0.00147  -0.00147  -3.11553
    D7       -1.04006   0.00040   0.00000   0.00483   0.00481  -1.03525
    D8        3.12876  -0.00016   0.00000  -0.00188  -0.00187   3.12689
    D9        1.07667   0.00042   0.00000   0.00671   0.00671   1.08337
   D10       -3.12464  -0.00048   0.00000  -0.01729  -0.01731   3.14123
   D11        1.05782   0.00032   0.00000  -0.00599  -0.00600   1.05183
   D12       -0.99109   0.00038   0.00000  -0.00204  -0.00204  -0.99313
   D13       -1.00373  -0.00061   0.00000  -0.01687  -0.01687  -1.02060
   D14       -3.10445   0.00019   0.00000  -0.00558  -0.00556  -3.11001
   D15        1.12982   0.00025   0.00000  -0.00162  -0.00161   1.12822
   D16        1.03362  -0.00083   0.00000  -0.02106  -0.02107   1.01254
   D17       -1.06710  -0.00003   0.00000  -0.00977  -0.00976  -1.07686
   D18       -3.11601   0.00003   0.00000  -0.00581  -0.00581  -3.12182
   D19        3.08676  -0.00020   0.00000   0.01214   0.01209   3.09885
   D20        0.49750   0.00065   0.00000   0.02631   0.02637   0.52388
   D21       -1.08885   0.00037   0.00000   0.01287   0.01282  -1.07603
   D22        2.60507   0.00123   0.00000   0.02704   0.02710   2.63218
   D23        0.96156  -0.00084   0.00000  -0.00237  -0.00244   0.95912
   D24       -1.62770   0.00001   0.00000   0.01180   0.01184  -1.61585
   D25        0.28779  -0.00026   0.00000   0.00066   0.00056   0.28835
   D26       -2.82014  -0.00041   0.00000  -0.00184  -0.00193  -2.82206
   D27        2.88399   0.00026   0.00000  -0.00427  -0.00419   2.87980
   D28       -0.22394   0.00011   0.00000  -0.00677  -0.00667  -0.23061
   D29       -2.82938  -0.00213   0.00000  -0.07658  -0.07657  -2.90595
   D30        0.34938  -0.00202   0.00000  -0.07825  -0.07826   0.27112
   D31        0.35675  -0.00356   0.00000  -0.12957  -0.12955   0.22719
   D32       -2.85007  -0.00344   0.00000  -0.12455  -0.12456  -2.97463
   D33        3.08604  -0.00012   0.00000  -0.00750  -0.00754   3.07850
   D34       -0.03325  -0.00085   0.00000  -0.03585  -0.03567  -0.06891
   D35        0.00943  -0.00028   0.00000  -0.01265  -0.01265  -0.00322
   D36       -3.10986  -0.00100   0.00000  -0.04100  -0.04078   3.13255
   D37       -3.10113   0.00016   0.00000   0.00901   0.00907  -3.09205
   D38        0.04172  -0.00007   0.00000  -0.00119  -0.00110   0.04061
   D39       -0.01830   0.00030   0.00000   0.01365   0.01368  -0.00463
   D40        3.12454   0.00007   0.00000   0.00345   0.00350   3.12804
   D41       -0.00029   0.00013   0.00000   0.00512   0.00511   0.00482
   D42       -3.12765   0.00005   0.00000   0.00081   0.00073  -3.12692
   D43        3.11911   0.00079   0.00000   0.03295   0.03319  -3.13088
   D44       -0.00825   0.00071   0.00000   0.02864   0.02880   0.02056
   D45        0.01750  -0.00016   0.00000  -0.00685  -0.00688   0.01062
   D46       -3.13219  -0.00030   0.00000  -0.01174  -0.01181   3.13918
   D47       -3.12536   0.00008   0.00000   0.00350   0.00360  -3.12177
   D48        0.00813  -0.00006   0.00000  -0.00139  -0.00134   0.00679
   D49       -0.00746  -0.00000   0.00000  -0.00140  -0.00141  -0.00887
   D50       -3.10441  -0.00004   0.00000  -0.00022  -0.00021  -3.10462
   D51       -3.14095   0.00012   0.00000   0.00338   0.00336  -3.13759
   D52        0.04528   0.00008   0.00000   0.00457   0.00456   0.04984
   D53       -0.00100   0.00001   0.00000   0.00223   0.00225   0.00125
   D54        3.12635   0.00011   0.00000   0.00670   0.00675   3.13310
   D55        3.09602   0.00002   0.00000   0.00091   0.00092   3.09694
   D56       -0.05982   0.00012   0.00000   0.00538   0.00541  -0.05441
   D57       -0.38633   0.00185   0.00000   0.01667   0.01671  -0.36962
   D58       -2.78251  -0.00187   0.00000  -0.01901  -0.01907  -2.80158
   D59        1.55816  -0.00011   0.00000  -0.00231  -0.00232   1.55584
   D60        2.79945   0.00191   0.00000   0.01824   0.01831   2.81775
   D61        0.40326  -0.00181   0.00000  -0.01744  -0.01748   0.38578
   D62       -1.53925  -0.00005   0.00000  -0.00074  -0.00073  -1.53998
   D63        3.13110   0.00018   0.00000   0.00534   0.00535   3.13644
   D64       -1.06048  -0.00006   0.00000   0.00274   0.00272  -1.05776
   D65        1.04042   0.00020   0.00000   0.00561   0.00561   1.04603
   D66       -1.10916  -0.00030   0.00000  -0.00099  -0.00097  -1.11013
   D67        0.98244  -0.00054   0.00000  -0.00359  -0.00360   0.97885
   D68        3.08335  -0.00028   0.00000  -0.00072  -0.00071   3.08264
   D69        1.08790   0.00041   0.00000   0.00903   0.00903   1.09693
   D70       -3.10368   0.00017   0.00000   0.00643   0.00641  -3.09727
   D71       -1.00278   0.00044   0.00000   0.00929   0.00930  -0.99348
         Item               Value     Threshold  Converged?
 Maximum Force            0.020086     0.000450     NO 
 RMS     Force            0.002720     0.000300     NO 
 Maximum Displacement     0.496586     0.001800     NO 
 RMS     Displacement     0.103639     0.001200     NO 
 Predicted change in Energy=-2.320889D-03
 GradGradGradGradGradGradGradGradGradGradGradGradGradGradGradGradGradGrad

                          Input orientation:                          
 ---------------------------------------------------------------------
 Center     Atomic      Atomic             Coordinates (Angstroms)
 Number     Number       Type             X           Y           Z
 ---------------------------------------------------------------------
      1          6           0       -1.938399    1.870008   -0.126999
      2          6           0       -0.581869    1.215729    0.131109
      3          6           0        0.570091    2.192503   -0.081005
      4          7           0        1.839965    1.546460    0.170566
      5          6           0        3.019992    2.246320   -0.015331
      6          8           0        2.967732    3.489514   -0.090718
      7          7           0        4.092614    1.419972   -0.127933
      8          6           0        5.338028    1.911980   -0.041469
      9          6           0        5.705574    3.218260    0.420745
     10          6           0        6.413842    1.028252   -0.376814
     11          6           0        7.733978    1.400021   -0.271755
     12          6           0        8.053212    2.690184    0.193257
     13          6           0        7.027489    3.591618    0.536081
     14          1           0       -2.763028    1.167430    0.034559
     15          1           0       -2.005934    2.237287   -1.157043
     16          1           0       -2.089759    2.725361    0.540723
     17          1           0       -0.457904    0.352741   -0.537909
     18          1           0       -0.539643    0.829850    1.157455
     19          1           0        0.474636    3.042161    0.603757
     20          1           0        0.532752    2.606819   -1.101222
     21          1           0        1.906250    0.553373   -0.012489
     22          1           0        4.921753    3.919777    0.676629
     23          1           0        6.149806    0.031100   -0.716023
     24          1           0        8.531281    0.709093   -0.530661
     25         16           0        9.699241    3.187057    0.277663
     26          8           0       10.607051    2.039963    0.316097
     27          8           0        9.876929    4.325413    1.179273
     28          1           0        7.288142    4.581193    0.901091
     29          6           0       10.056301    3.933188   -1.393168
[...]
 00464285,-0.00285678,-0.00045945,-0.00098418,0.00188162,0.00069147,-0.
 00629434,0.00048184,-0.00081798,0.00522583,0.00060436,0.00100123,-0.00
 292006,-0.00028715,-0.00016509,-0.00343827,-0.00025127,-0.00013574,-0.
 00210162,0.00544897,-0.00110027,0.00121012,-0.00852860,-0.01234713,0.0
 0516624,-0.00420399,-0.00155584,-0.00007071,-0.00000064,0.00006460,-0.
 00003247,-0.00000379,-0.00002717,0.00000017,0.00003618,-0.00001973,0.0
 0000026,-0.00001384,-0.00000011,0.00004734,0.00000384,-0.00006025,-0.0
 0000607,0.00006647,0.00005508,-0.00015378,-0.00005419,-0.00001399,0.00
 007405,0.00006621,0.00014381,-0.00037784,-0.00020119,0.00008829,-0.000
 61630,-0.00028358,0.00032326,0.00053897,0.00068197,0.00014466,0.003706
 55,-0.36340532,-0.24513149,-0.00335019,-0.00674019,-0.02331198,0.00366
 383,0.37338864,0.00000944,-0.00002291,0.00003654,-0.00008377,0.0000286
 3,-0.00000291,0.00031178,-0.00012862,-0.00002263,-0.00080715,-0.000060
 77,-0.00027575,0.00193614,-0.00107272,-0.00014077,-0.00052389,0.000732
 24,0.00034510,-0.00255586,0.00018247,-0.00026759,0.00205764,0.00041930
 ,0.00053008,-0.00133152,0.00003643,0.00011889,-0.00026651,-0.00092635,
 -0.00066436,-0.00447426,0.00134654,0.00149884,0.00478871,-0.01254947,0
 .00147451,0.00230299,-0.00193446,-0.00021726,-0.00004163,-0.00000389,0
 .00003910,-0.00000958,0.00000184,-0.00000862,0.00000053,0.00001425,-0.
 00001390,-0.00000359,-0.00001342,-0.00000087,0.00002813,0.00001007,-0.
 00002898,-0.00000092,0.00002665,0.00002287,-0.00006917,-0.00002218,0.0
 0000071,0.00004410,0.00003413,0.00002129,-0.00013539,-0.00000978,-0.00
 016762,-0.00041602,0.00004386,-0.00038490,0.00012107,0.00025242,0.0000
 6533,0.00168739,-0.25156709,-0.30227335,-0.00662981,0.00573872,0.01537
 597,0.00561596,0.28349189,0.30681594,0.00000075,-0.00000395,0.00000362
 ,-0.00000787,-0.00000634,-0.00000567,0.00001219,-0.00000339,-0.0000399
 5,-0.00007071,0.00009147,0.00009367,0.00038231,-0.00027358,-0.00015243
 ,-0.00005860,0.00036867,0.00015521,0.00009558,-0.00162995,-0.00041286,
 -0.00515275,0.00045835,-0.00233189,-0.00021577,-0.02641784,-0.01197179
 ,-0.00062751,-0.00026443,0.00004685,-0.00431983,0.00290529,-0.00041300
 ,0.00814443,0.02048747,0.00953642,-0.06686277,-0.04438828,-0.02328997,
 -0.00000341,-0.00000103,0.00000153,0.00000252,0.00000258,0.00000221,-0
 .00000305,0.00000352,-0.00000279,0.00000232,0.00000544,0.00000081,0.00
 000284,-0.00000288,0.00000110,-0.00000891,0.00000854,0.00000184,-0.000
 01034,0.00000104,0.00000527,0.00005307,0.00002819,0.00000805,0.0008268
 9,-0.00003502,0.00110289,0.00007292,-0.00008836,0.00007779,0.00045113,
 0.00127013,0.00045723,-0.00051855,0.00371201,0.00263155,0.00038113,-0.
 00078761,-0.00031285,-0.00001652,-0.00150873,-0.00056932,0.06783048,0.
 00000155,-0.00000258,0.00000546,-0.00001334,0.00000008,-0.00000314,0.0
 0005216,-0.00001166,-0.00003032,-0.00014147,-0.00001404,-0.00002685,0.
 00041899,-0.00018255,-0.00017545,-0.00011568,0.00018740,0.00006258,-0.
 00044553,-0.00055558,0.00036776,0.00005083,0.00266570,-0.00301980,0.00
 007789,-0.00168677,-0.00318345,-0.00030072,0.00053088,0.00063737,0.004
 22860,0.00014525,-0.00123091,-0.00374378,-0.01406020,-0.00749174,-0.04
 269280,-0.28624367,-0.11100559,-0.00000673,-0.00000078,0.00000576,-0.0
 0000066,0.00000034,-0.00000078,-0.00000025,0.00000216,-0.00000230,0.00
 000041,-0.00000147,-0.00000016,0.00000423,0.00000258,-0.00000493,-0.00
 000235,0.00000964,0.00000666,-0.00001469,-0.00000478,0.00000186,0.0000
 0954,0.00001274,0.00003277,-0.00042108,-0.00006705,0.00233242,-0.00010
 619,-0.00014126,0.00022014,-0.00025304,-0.00059942,-0.00066335,-0.0015
 0217,-0.00359483,-0.00127752,0.00045825,0.00060491,0.00015144,-0.00171
 752,0.00143297,0.00074612,0.04605860,0.30152996,0.00000120,-0.00000369
 ,0.00000541,-0.00000900,0.00000876,0.00000277,0.00001354,-0.00002957,0
 .00004162,-0.00008641,0.00006204,-0.00002368,0.00020736,-0.00027355,0.
 00026246,-0.00002233,0.00013784,0.00007506,0.00010035,0.00010891,-0.00
 147438,-0.00245543,-0.00253188,0.00816205,-0.00118460,-0.00752498,0.00
 239690,0.00014391,0.00061975,-0.00084165,0.00005779,-0.00154507,0.0039
 5354,-0.00094161,-0.00299307,0.00093257,-0.02206828,-0.11216924,-0.089
 34111,-0.00000099,0.00000148,0.00000048,-0.00000242,-0.00000097,-0.000
 00223,-0.00000006,0.00000216,0.00000082,0.00000031,0.00000157,-0.00000
 092,0.00000034,-0.00000290,-0.00000035,-0.00000276,-0.00000324,0.00000
 078,-0.00000638,-0.00000039,-0.00000287,0.00004155,0.00000817,-0.00005
 028,0.00085436,0.00231786,-0.00447375,0.00009994,0.00019733,-0.0005788
 8,-0.00017429,-0.00039706,0.00070807,0.00011688,0.00041788,-0.00174386
 ,-0.00015958,0.00009518,0.00003691,-0.00086228,0.00003991,-0.00084553,
 0.02572961,0.12346434,0.08272365,-0.00001101,0.00000534,-0.00001899,0.
 00002231,-0.00003254,-0.00001506,-0.00022160,0.00005457,0.00003122,0.0
 0048803,0.00018173,0.00016136,-0.00057777,-0.00068508,-0.00029898,0.00
 050163,0.00037948,0.00013167,0.00003750,0.00018014,0.00005858,-0.00019
 973,-0.00040757,0.00027621,-0.00118511,0.00006101,-0.00156380,-0.00105
 568,0.00044033,-0.00101577,-0.00059830,0.00018325,0.00213294,-0.007365
 39,-0.00632023,0.00595783,0.00106672,-0.00165843,0.00117558,0.00002137
 ,0.00000092,-0.00003289,0.00002353,0.00000855,0.00002280,-0.00000811,-
 0.00000625,0.00000434,0.00000349,0.00001822,-0.00000234,-0.00001215,-0
 .00000517,0.00003241,-0.00002556,-0.00002227,-0.00002176,0.00006158,0.
 00003287,0.00001681,-0.00002438,-0.00000880,-0.00002844,-0.00016529,0.
 00010932,-0.00022170,0.00003315,0.00017794,-0.00023646,-0.00007044,-0.
 00037652,0.00028556,-0.04638760,-0.02880339,0.05075265,-0.00696919,0.0
 2563862,-0.01731747,0.00253016,-0.00334849,-0.01070588,-0.00063915,0.0
 0020217,0.00130941,0.54753278,-0.00001416,0.00004069,-0.00004580,0.000
 09613,-0.00004727,-0.00000511,-0.00037611,0.00021121,-0.00002377,0.001
 08233,0.00001379,0.00046302,-0.00283480,0.00190433,0.00027479,0.000639
 98,-0.00136928,-0.00036698,0.00378819,-0.00036204,0.00045965,-0.002781
 85,-0.00048415,-0.00063729,0.00192629,0.00064751,0.00114841,0.00115298
 ,-0.00079064,-0.00069637,0.00010929,-0.00103426,-0.00058244,0.00155930
 ,0.00403870,0.00162047,-0.00341284,0.00084807,0.00089975,0.00003852,-0
 .00000130,-0.00003531,0.00002326,0.00000447,0.00001830,0.00000194,-0.0
 0003146,0.00000981,-0.00000241,-0.00000739,0.00000246,-0.00002699,0.00
 000589,0.00003509,0.00001213,-0.00005108,-0.00003778,0.00009534,0.0000
 3516,0.00001137,-0.00006683,-0.00003219,-0.00007961,0.00017211,0.00006
 030,-0.00014556,0.00011070,-0.00000744,0.00007181,-0.00015587,-0.00120
 646,0.00054279,-0.02696423,-0.04790157,0.05743938,0.00329147,-0.012942
 55,0.00975883,0.00702668,-0.01181515,-0.03417759,0.00039040,-0.0001536
 3,-0.00121292,-0.00543546,0.55375849,0.00003056,-0.00006526,0.00010578
 ,-0.00021569,0.00014113,0.00000073,0.00078432,-0.00041119,0.00015647,-
 0.00255805,-0.00025583,-0.00146999,0.00663087,-0.00382265,-0.00019822,
 -0.00124465,0.00227566,0.00064235,-0.00927696,-0.00027587,-0.00169493,
 0.00667072,0.00239798,0.00246397,-0.00413238,-0.00329851,-0.00327829,-
 0.00607425,0.00119212,-0.00208103,0.00262753,0.00635435,0.00356036,-0.
 01652601,-0.00662992,0.00616274,0.00615226,-0.00441056,0.00016744,-0.0
 0007834,0.00001054,0.00007038,-0.00005746,-0.00001651,-0.00004814,0.00
 000740,0.00003714,-0.00001119,0.00000066,-0.00003204,-0.00000156,0.000
 05091,0.00000326,-0.00008607,-0.00000665,0.00008380,0.00008442,-0.0002
 2543,-0.00008138,-0.00003830,0.00004815,0.00009441,0.00030029,-0.00027
 827,-0.00007407,-0.00025292,-0.00037229,-0.00024053,-0.00025372,0.0001
 7377,-0.00098725,0.00125694,0.04558464,0.05563918,-0.12703893,0.005182
 75,-0.01298159,0.00628997,0.00112863,0.00155665,-0.00396073,0.00018808
 ,-0.00021063,0.00079909,0.00227610,0.00687911,0.53870721,0.00002477,-0
 .00004714,0.00008125,-0.00015891,0.00009985,0.00000221,0.00064938,-0.0
 0028739,0.00005459,-0.00185609,-0.00021035,-0.00091204,0.00452569,-0.0
 0221711,-0.00009080,-0.00101915,0.00135846,0.00048049,-0.00578946,-0.0
 0012715,-0.00084027,0.00429438,0.00154270,0.00137584,-0.00203044,-0.00
 194461,-0.00147682,-0.00288375,0.00080739,-0.00049675,0.00142602,0.002
 79664,0.00253511,-0.00701305,-0.00368792,0.00331994,0.00340664,-0.0022
 4429,0.00095477,-0.00006980,0.00000313,0.00007132,-0.00004371,-0.00001
 117,-0.00003989,0.00000802,0.00002864,-0.00001499,-0.00000364,-0.00003
 184,0.00000035,0.00004344,0.00000918,-0.00006924,0.00000474,0.00006217
 ,0.00005987,-0.00017032,-0.00006338,-0.00002685,0.00006052,0.00007674,
 0.00015253,-0.00001138,0.00002595,-0.00024101,-0.00010725,-0.00003348,
 -0.00025201,0.00003651,-0.00008418,0.00009698,-0.02605423,-0.00311300,
 -0.01914789,0.00827555,-0.00485586,0.00358490,0.00401394,0.00410354,0.
 00567812,0.00004707,-0.00002403,0.00005134,-0.28630749,-0.07803701,-0.
 00923854,0.38488615,0.00001296,-0.00002891,0.00004383,-0.00008748,0.00
 005271,0.00000035,0.00034487,-0.00016395,0.00003441,-0.00100546,-0.000
 08404,-0.00049826,0.00254278,-0.00141770,-0.00009818,-0.00054015,0.000
 89151,0.00029270,-0.00334479,0.00000793,-0.00048323,0.00247924,0.00073
 196,0.00078453,-0.00132567,-0.00100323,-0.00096010,-0.00173656,0.00056
 347,-0.00031430,0.00067348,0.00141314,0.00164883,-0.00432553,-0.002129
 36,0.00167325,0.00226435,-0.00143537,0.00026029,-0.00003693,0.00000184
 ,0.00003583,-0.00002226,-0.00000524,-0.00001964,0.00000264,0.00001803,
 -0.00000813,-0.00000063,-0.00001196,-0.00000034,0.00002367,0.00000268,
 -0.00003546,-0.00000187,0.00003537,0.00003227,-0.00009028,-0.00003267,
 -0.00001285,0.00003664,0.00004026,0.00008497,-0.00005362,0.00000676,-0
 .00011285,-0.00006337,0.00000048,-0.00014636,0.00002373,0.00004044,0.0
 0005135,-0.01451481,-0.00186463,-0.00950523,0.00086616,0.00059899,0.00
 077930,0.00181360,0.00399155,0.00482733,-0.00006492,0.00002316,0.00028
 180,-0.07911756,-0.09955147,-0.00214446,0.09479659,0.10612361,-0.00001
 052,0.00002309,-0.00003711,0.00007572,-0.00004716,0.00000125,-0.000278
 26,0.00013966,-0.00004764,0.00087143,0.00007563,0.00048308,-0.00226740
 ,0.00131292,0.00008662,0.00042790,-0.00078727,-0.00024067,0.00310358,0
 .00006910,0.00051297,-0.00225831,-0.00079409,-0.00085215,0.00137986,0.
 00108858,0.00109442,0.00190127,-0.00043917,0.00059413,-0.00077331,-0.0
 0194088,-0.00150154,0.00480793,0.00216484,-0.00128822,-0.00210592,0.00
 154570,-0.00042952,0.00002860,-0.00000308,-0.00002622,0.00001918,0.000
 00516,0.00001640,-0.00000252,-0.00001326,0.00000493,0.00000048,0.00001
 129,0.00000035,-0.00001803,-0.00000184,0.00002933,0.00000304,-0.000028
 91,-0.00002781,0.00007711,0.00002742,0.00001221,-0.00002144,-0.0000349
 9,-0.00009283,0.00006985,0.00000543,0.00012057,0.00009735,0.00003829,0
 .00012113,-0.00002850,0.00025143,-0.00030069,0.01321343,0.00259251,0.0
 0694582,-0.00078056,0.00121213,-0.00061173,0.00012754,0.00065209,0.000
 23967,0.00002054,0.00003598,-0.00030413,-0.00595801,-0.00080516,-0.074
 83817,0.05895961,0.02279409,0.07683485,0.00000485,-0.00000685,0.000012
 13,-0.00002098,0.00001824,0.00000323,0.00010809,-0.00004484,0.00000416
 ,-0.00029923,-0.00005396,-0.00013814,0.00062281,-0.00013425,0.00004328
 ,-0.00020101,0.00009339,0.00002480,-0.00067197,-0.00006753,-0.00011698
 ,0.00048499,0.00047747,0.00018704,-0.00024375,-0.00026367,-0.00014662,
 0.00015196,-0.00007608,0.00016994,-0.00047773,0.00042736,0.00015327,0.
 00026503,-0.00046671,0.00000804,0.00049585,-0.00013856,0.00012504,-0.0
 0001069,0.00000064,0.00001241,-0.00000924,-0.00000287,-0.00000843,0.00
 000212,0.00000450,-0.00000195,-0.00000034,-0.00000604,0.00000020,0.000
 00698,0.00000122,-0.00001330,0.00000462,0.00001113,0.00001136,-0.00003
 028,-0.00001287,-0.00000631,0.00001074,0.00000954,0.00002596,0.0000221
 2,-0.00002771,0.00001904,-0.00004835,-0.00004420,-0.00000608,-0.000033
 00,0.00007233,-0.00009911,0.00312183,0.00914766,0.00384923,0.00198122,
 -0.00340177,0.00033059,-0.00044894,0.00028336,0.00442226,0.00007970,0.
 00001012,-0.00010031,-0.07173080,0.00383012,0.01043137,-0.01301776,-0.
 03815808,-0.04388131,0.07694613,0.00000107,-0.00000528,0.00000227,-0.0
 0000553,-0.00000297,0.00000120,0.00002995,-0.00001842,-0.00001607,-0.0
 0003845,0.00002807,0.00003874,0.00009364,-0.00013334,-0.00006574,-0.00
 005970,0.00015536,0.00005267,-0.00005524,0.00014256,0.00008722,0.00003
 722,-0.00004684,-0.00009534,-0.00015080,0.00026974,-0.00000195,0.00049
 374,0.00031759,0.00055858,-0.00008464,-0.00067093,-0.00001974,0.000353
 19,0.00078227,0.00036083,0.00015399,-0.00004443,0.00000158,-0.00000397
 ,-0.00000142,0.00000389,0.00000003,0.00000096,0.00000026,-0.00000173,0
 .00000592,-0.00000247,0.00000078,0.00000628,-0.00000067,0.00000355,-0.
 00000174,-0.00000103,-0.00000292,0.00000621,0.00000192,-0.00000351,-0.
 00000113,0.00000188,0.00001791,-0.00000062,-0.00001535,-0.00000404,0.0
 0000533,0.00002706,0.00006725,0.00004243,0.00001944,-0.00000429,0.0006
 2302,-0.00042951,-0.00108134,-0.00799238,0.00007506,-0.00201546,0.0056
 8457,0.00125714,0.00070179,0.00254812,-0.00076178,-0.00021786,0.000120
 81,0.00021703,0.00403937,-0.15108100,-0.11162326,-0.02938483,-0.019703
 90,-0.03309905,0.00093994,0.23017715,-0.00000976,0.00001660,-0.0000292
 0,0.00005728,-0.00004770,-0.00000230,-0.00021719,0.00011582,-0.0000648
 3,0.00076792,0.00010973,0.00049467,-0.00189683,0.00088749,-0.00006097,
 0.00039437,-0.00050546,-0.00007884,0.00260943,0.00015829,0.00062317,-0
 .00183945,-0.00069877,-0.00082464,0.00097923,0.00108189,0.00081856,0.0
 0168176,0.00020752,0.00085006,0.00051199,-0.00193954,-0.00103547,0.002
 95519,0.00389607,0.00177065,-0.00151619,0.00071489,0.00009342,0.000018
 75,-0.00000510,-0.00001742,0.00002112,0.00000775,0.00001741,-0.0000040
 9,-0.00000844,0.00000018,-0.00000045,0.00001197,-0.00000005,-0.0000124
 8,0.00000012,0.00002847,-0.00000223,-0.00002467,-0.00002747,0.00007143
 ,0.00002772,0.00001614,-0.00000549,-0.00002459,-0.00011516,0.00006195,
 0.00005552,-0.00000597,0.00023853,0.00013984,0.00009438,-0.00019279,0.
 00044376,-0.00062619,-0.00853911,-0.03838193,-0.01323025,-0.00142518,0
 .00877524,0.00129789,0.00536773,-0.00059218,-0.01585091,-0.00041010,0.
 00020015,-0.00013176,0.01034553,-0.11132357,-0.24105209,-0.02732074,-0
 .02505955,-0.01314634,0.00752448,0.18018524,0.26762719,0.00000252,0.00
 000258,0.00000401,-0.00000300,0.00000742,0.00000317,0.00004613,-0.0000
 0005,-0.00001249,-0.00008480,-0.00005939,-0.00002600,0.00000822,0.0003
 3616,0.00013845,-0.00010906,-0.00022869,-0.00005501,0.00020299,-0.0000
 9395,0.00002160,0.00003146,-0.00005037,-0.00023257,0.00078256,-0.00002
 091,0.00056288,0.00010010,-0.00024043,0.00000955,0.00016158,0.00003746
 ,0.00002837,0.00161738,-0.00018921,0.00019486,-0.00056831,0.00019892,0
 .00013091,-0.00000512,-0.00000050,0.00000876,-0.00000529,-0.00000213,-
 0.00000569,0.00000328,-0.00000177,-0.00000097,-0.00000210,-0.00000942,
 0.00000081,0.00000236,0.00000359,-0.00000832,0.00000979,0.00000111,0.0
 0000390,-0.00001306,-0.00000745,-0.00000392,0.00000186,0.00000404,0.00
 000149,0.00009547,0.00000432,0.00002351,0.00000630,-0.00002205,0.00001
 686,-0.00004021,-0.00017649,-0.00007718,-0.00327941,0.00310830,0.00330
 205,0.00182271,-0.00007108,-0.00088007,0.00181984,-0.00215119,-0.00038
 004,0.00013042,-0.00007133,-0.00065113,-0.12876748,0.09476138,-0.03768
 374,-0.06516640,0.03860927,-0.02680032,0.00293503,0.02618088,0.0097853
 9,0.18826424,0.00000749,-0.00002189,0.00002443,-0.00005319,0.00002335,
 0.00000057,0.00018485,-0.00011738,0.00002982,-0.00058664,0.00000508,-0
 .00030042,0.00160945,-0.00115723,-0.00013892,-0.00034614,0.00080195,0.
 00018770,-0.00223572,0.00017344,-0.00032644,0.00163470,0.00028203,0.00
 042591,-0.00127777,-0.00008015,-0.00058487,-0.00107278,0.00053285,0.00
 004561,0.00048506,0.00083617,0.00039255,-0.00345767,0.00132895,0.00039
 730,0.00088372,-0.00179393,-0.00051090,-0.00001777,0.00000158,0.000014
 04,-0.00001238,-0.00000250,-0.00000856,-0.00000198,0.00001767,-0.00000
 405,0.00000201,0.00000760,-0.00000140,0.00001284,-0.00000560,-0.000017
 42,-0.00000966,0.00002747,0.00002053,-0.00005072,-0.00001812,-0.000006
 45,0.00003094,0.00001491,0.00005983,-0.00017327,-0.00006031,-0.0000276
 5,-0.00007592,-0.00003231,-0.00000394,0.00019629,0.00040671,0.00008420
 ,0.02630092,-0.01904540,-0.00812642,-0.00090031,-0.00816522,0.00930917
 ,-0.00390649,0.00838756,0.00531812,-0.00009753,0.00005168,0.00070655,0
 .09451393,-0.23269828,0.07089621,0.02069380,0.01288853,0.00394952,0.02
 757896,-0.06121199,-0.01842410,-0.15985901,0.29862278,-0.00000754,0.00
 001668,-0.00002306,0.00004782,-0.00002923,-0.00000160,-0.00017362,0.00
 010328,-0.00003781,0.00058063,0.00004158,0.00034122,-0.00150318,0.0008
 8907,0.00003143,0.00032778,-0.00057218,-0.00011882,0.00206548,-0.00000
 305,0.00039296,-0.00144708,-0.00048858,-0.00054259,0.00104290,0.000439
 67,0.00061339,0.00112452,-0.00031794,0.00027633,-0.00053662,-0.0010334
 2,-0.00042063,0.00369101,-0.00089590,-0.00014346,-0.00068475,0.0013748
 7,0.00001616,0.00001600,-0.00000263,-0.00001363,0.00001424,0.00000430,
 0.00001078,-0.00000065,-0.00001197,0.00000192,-0.00000113,0.00000068,0
 .00000093,-0.00001074,0.00000259,0.00001962,0.00000429,-0.00002313,-0.
 00002089,0.00005248,0.00001968,0.00000941,-0.00001752,-0.00001603,-0.0
 0007364,0.00010170,0.00004455,0.00004052,0.00008455,0.00007149,0.00001
 233,-0.00015294,-0.00003100,-0.00030212,-0.02114175,0.01631701,0.00465
 865,-0.00055591,0.00971984,-0.00740744,0.00231492,-0.00184976,-0.00145
 818,-0.00015166,0.00005610,-0.00028683,-0.03753347,0.07054021,-0.10446
 387,-0.01729138,0.00577380,0.00664703,0.01716073,-0.03676006,0.0125676
 6,0.05258088,-0.06338053,0.08967425\\0.00000067,-0.00000219,-0.0000005
 0,0.00000272,0.00000164,-0.00000149,-0.00001045,-0.00000365,0.00001016
 ,0.00001965,0.00000470,-0.00000105,0.00000116,-0.00000389,-0.00000243,
 -0.00000222,-0.00000302,0.00000005,-0.00000192,0.00000296,0.00000433,-
 0.00000631,0.00000261,-0.00001058,-0.00000066,-0.00000333,0.00000094,0
 .00000375,-0.00000184,0.00000326,-0.00000364,0.00000088,-0.00000173,0.
 00000825,-0.00000537,0.00000892,-0.00000463,0.00000359,-0.00000413,0.0
 0000039,-0.00000009,-0.00000009,-0.00000111,-0.00000015,0.00000027,-0.
 00000039,0.00000030,-0.00000044,0.00000046,0.00000065,-0.00000248,0.00
 000049,-0.00000081,-0.00000024,0.00000162,0.00000041,-0.00000148,0.000
 00349,-0.00000056,-0.00000130,-0.00000634,0.00000113,0.00000165,0.0000
 0012,0.00000117,0.00000109,-0.00000048,0.00000019,-0.00000096,0.000000
 04,0.00000037,-0.00000011,-0.00000270,0.00000248,0.00000233,-0.0000034
 1,0.00000049,-0.00000090,0.00000097,-0.00000271,-0.00000466,0.00000033
 ,-0.00000009,0.00000097,0.00000620,-0.00000029,-0.00000615,-0.00000157
 ,0.00000133,0.00000255,-0.00000024,-0.00000374,0.00000250,-0.00000425,
 0.00000681,0.00000172\\\@


 ABSOLUTISM, OBSOLETISM -- IF IT WORKS, IT'S OUT OF DATE

                          -- STAFFORD BEER
 Job cpu time:       0 days  3 hours 45 minutes 38.6 seconds.
 File lengths (MBytes):  RWF=    606 Int=      0 D2E=      0 Chk=     13 Scr=      1
 Normal termination of Gaussian 09 at Wed Oct 31 16:43:06 2018.
WARNING: pbs_rusage is deprecated and values produced may not be accurate


=============================================================================
                                     Resource usage:
                                       CPU time:              18:44:32
   JobId:    1874134.r-man2            Elapsed time:          04:42:00
   Project:             q95            Requested time:        40:00:00
   Service Units:     18.80 
                                       Max physical memory:      811MB
                                       Max virtual memory:      1788MB
                                       Requested memory:           0MB

                                       Number of cpus:               4

                                       Max jobfs disk use:       0.6GB
                                       Requested jobfs:         20.0GB
=============================================================================

