 Entering Gaussian System, Link 0=/apps/gaussian/g09e01/g09/g09
 AtFile(1): /home/507/hio507/Basis/6-31pGd.gbs
 Initial command:
 /apps/gaussian/g09e01/g09/l1.exe "/jobfs/local/5976476.r-man2/Gau-24462.inp" -scrdir="/jobfs/local/5976476.r-man2/"
 Entering Link 1 = /apps/gaussian/g09e01/g09/l1.exe PID=     24463.
  
 Copyright (c) 1988,1990,1992,1993,1995,1998,2003,2009,2015,
            Gaussian, Inc.  All Rights Reserved.
  
 This is part of the Gaussian(R) 09 program.  It is based on
 the Gaussian(R) 03 system (copyright 2003, Gaussian, Inc.),
 the Gaussian(R) 98 system (copyright 1998, Gaussian, Inc.),
 the Gaussian(R) 94 system (copyright 1995, Gaussian, Inc.),
 the Gaussian 92(TM) system (copyright 1992, Gaussian, Inc.),
 the Gaussian 90(TM) system (copyright 1990, Gaussian, Inc.),
 the Gaussian 88(TM) system (copyright 1988, Gaussian, Inc.),
 the Gaussian 86(TM) system (copyright 1986, Carnegie Mellon
 University), and the Gaussian 82(TM) system (copyright 1983,
 Carnegie Mellon University). Gaussian is a federally registered
 trademark of Gaussian, Inc.
  
 This software contains proprietary and confidential information,
 including trade secrets, belonging to Gaussian, Inc.
  
 This software is provided under written license and may be
 used, copied, transmitted, or stored only in accord with that
 written license.
  
 The following legend is applicable only to US Government
 contracts under FAR:
  
                    RESTRICTED RIGHTS LEGEND
  
 Use, reproduction and disclosure by the US Government is
 subject to restrictions as set forth in subparagraphs (a)
 and (c) of the Commercial Computer Software - Restricted
 Rights clause in FAR 52.227-19.
  
 Gaussian, Inc.
 340 Quinnipiac St., Bldg. 40, Wallingford CT 06492
  
  
 ---------------------------------------------------------------
 Warning -- This program may not be used in any manner that
 competes with the business of Gaussian, Inc. or will provide
 assistance to any competitor of Gaussian, Inc.  The licensee
 of this program is prohibited from giving any competitor of
 Gaussian, Inc. access to this program.  By using this program,
 the user acknowledges that Gaussian, Inc. is engaged in the
 business of creating and licensing software in the field of
 computational chemistry and represents and warrants to the
 licensee that it is not a competitor of Gaussian, Inc. and that
 it will not use this program in any manner prohibited above.
 ---------------------------------------------------------------
  

 Cite this work as:
 Gaussian 09, Revision E.01,
 M. J. Frisch, G. W. Trucks, H. B. Schlegel, G. E. Scuseria, 
 M. A. Robb, J. R. Cheeseman, G. Scalmani, V. Barone, B. Mennucci, 
 G. A. Petersson, H. Nakatsuji, M. Caricato, X. Li, H. P. Hratchian, 
 A. F. Izmaylov, J. Bloino, G. Zheng, J. L. Sonnenberg, M. Hada, 
 M. Ehara, K. Toyota, R. Fukuda, J. Hasegawa, M. Ishida, T. Nakajima, 
 Y. Honda, O. Kitao, H. Nakai, T. Vreven, J. A. Montgomery, Jr., 
 J. E. Peralta, F. Ogliaro, M. Bearpark, J. J. Heyd, E. Brothers, 
 K. N. Kudin, V. N. Staroverov, T. Keith, R. Kobayashi, J. Normand, 
 K. Raghavachari, A. Rendell, J. C. Burant, S. S. Iyengar, J. Tomasi, 
 M. Cossi, N. Rega, J. M. Millam, M. Klene, J. E. Knox, J. B. Cross, 
 V. Bakken, C. Adamo, J. Jaramillo, R. Gomperts, R. E. Stratmann, 
 O. Yazyev, A. J. Austin, R. Cammi, C. Pomelli, J. W. Ochterski, 
 R. L. Martin, K. Morokuma, V. G. Zakrzewski, G. A. Voth, 
 P. Salvador, J. J. Dannenberg, S. Dapprich, A. D. Daniels, 
 O. Farkas, J. B. Foresman, J. V. Ortiz, J. Cioslowski, 
 and D. J. Fox, Gaussian, Inc., Wallingford CT, 2013.
 
 ******************************************
 Gaussian 09:  ES64L-G09RevE.01 30-Nov-2015
                21-Feb-2019 
 ******************************************
 %chk=4OCF3_EtO.M062X_6-31pGd_bsse.chk
 %mem=196608000
 %nproc=4
 Will use up to    4 processors via shared memory.
 ----------------------------------------------------------------------
 # M062X/Gen 6D SCF=Tight INT(grid=ultrafine) Counterpoise=2 maxdisk=67
 1088640
 ----------------------------------------------------------------------
 1/38=1,62=2/1;
 2/12=2,17=6,18=5,40=1/2;
 1/38=1,53=2,62=2,63=1/22;
 3/5=7,8=2,11=2,16=1,25=1,30=1,74=-55,75=-5/1,2,3;
 4//1;
 5/5=2,32=2,38=5/2;
 6/7=2,8=2,9=2,10=2,28=1/1;
 1/53=2,62=2,63=1/22;
 3/5=7,6=11,8=2,11=2,16=1,25=1,30=1,74=-55,75=-5,82=7/1,2,3;
 4//1;
 5/5=2,32=2,38=5/2;
 6/7=2,8=2,9=2,10=2,28=1/1;
 1/53=2,62=2,63=1/22(-4);
 99/5=1,9=1/99;
 ----------------------------
 4OCF3_EtO.M062X_6-31pGd_bsse
 ----------------------------
 Symbolic Z-matrix:
 Charge = -1 Multiplicity = 1 in supermolecule
 Charge =  0 Multiplicity = 1 in fragment      1.
 Charge = -1 Multiplicity = 1 in fragment      2.
 C(Fragment=1)        -4.12091   3.44249  -1.37994 
 C(Fragment=1)        -4.10521   2.0954   -1.04017 
 C(Fragment=1)        -2.96584   1.55661  -0.46175 
 C(Fragment=1)        -1.82811   2.3575   -0.22084 
 C(Fragment=1)        -1.86898   3.71885  -0.57818 
 C(Fragment=1)        -3.01801   4.25089  -1.15911 
 N(Fragment=1)        -0.74104   1.72463   0.35353 
 C(Fragment=1)         0.47872   2.28709   0.69438 
 N(Fragment=1)         1.34057   1.38433   1.22657 
 O(Fragment=1)         0.76249   3.47696   0.52594 
 C(Fragment=1)         2.62298   1.81026   1.73603 
 C(Fragment=1)         3.52687   0.60009   1.94849 
 C(Fragment=1)         4.8756    0.99989   2.54254 
 H(Fragment=1)        -2.92619   0.50548  -0.18542 
 H(Fragment=1)        -1.00043   4.33757  -0.39937 
 H(Fragment=1)        -0.87251   0.71183   0.5492 
 H(Fragment=1)         1.02332   0.42496   1.45638 
 H(Fragment=1)         2.50783   2.35986   2.68524 
 H(Fragment=1)         3.0743    2.51113   1.0235 
 H(Fragment=1)         3.66864   0.09355   0.98607 
 H(Fragment=1)         3.01789  -0.12034   2.59974 
 H(Fragment=1)         5.39965   1.70913   1.89042 
 H(Fragment=1)         5.52516   0.12942   2.68244 
 H(Fragment=1)         4.74736   1.48151   3.5192 
 O(Fragment=1)        -5.26002   3.98001  -2.02903 
 C(Fragment=1)        -6.19828   4.50658  -1.23617 
 F(Fragment=1)        -7.19645   4.95215  -2.00697 
 F(Fragment=1)        -6.71872   3.62242  -0.36826 
 F(Fragment=1)        -5.75567   5.54468  -0.50574 
 H(Fragment=1)        -4.97998   1.48062  -1.23007 
 H(Fragment=1)        -3.05731   5.29864  -1.44274 
 O(Fragment=2)        -1.31588  -0.96639   0.81506 
 O(Fragment=2)         0.61916  -1.25621   1.91857 
 C(Fragment=2)        -0.49054  -1.65041   1.4779 
 C(Fragment=2)        -0.86026  -3.11216   1.78343 
 C(Fragment=2)        -2.22235  -3.54249   1.25302 
 H(Fragment=2)        -0.80193  -3.23826   2.87161 
 H(Fragment=2)        -0.06034  -3.73811   1.3684 
 H(Fragment=2)        -3.01594  -2.92162   1.67899 
 H(Fragment=2)        -2.43064  -4.59198   1.49574 
 H(Fragment=2)        -2.26962  -3.41824   0.16732 
 
                          Input orientation:                          
 ---------------------------------------------------------------------
 Center     Atomic      Atomic             Coordinates (Angstroms)
 Number     Number       Type             X           Y           Z
 ---------------------------------------------------------------------
      1          6           0       -4.120910    3.442491   -1.379944
      2          6           0       -4.105208    2.095401   -1.040170
      3          6           0       -2.965845    1.556611   -0.461749
      4          6           0       -1.828110    2.357503   -0.220840
      5          6           0       -1.868983    3.718855   -0.578184
      6          6           0       -3.018010    4.250890   -1.159106
      7          7           0       -0.741041    1.724634    0.353534
      8          6           0        0.478716    2.287090    0.694382
      9          7           0        1.340571    1.384331    1.226572
     10          8           0        0.762485    3.476961    0.525935
     11          6           0        2.622985    1.810260    1.736028
     12          6           0        3.526869    0.600095    1.948488
     13          6           0        4.875596    0.999886    2.542543
     14          1           0       -2.926188    0.505482   -0.185424
     15          1           0       -1.000427    4.337566   -0.399370
     16          1           0       -0.872505    0.711834    0.549196
     17          1           0        1.023325    0.424963    1.456377
     18          1           0        2.507833    2.359864    2.685240
     19          1           0        3.074298    2.511130    1.023502
     20          1           0        3.668638    0.093549    0.986068
     21          1           0        3.017886   -0.120340    2.599743
     22          1           0        5.399647    1.709132    1.890423
     23          1           0        5.525164    0.129420    2.682444
     24          1           0        4.747359    1.481515    3.519197
     25          8           0       -5.260021    3.980005   -2.029033
     26          6           0       -6.198280    4.506581   -1.236172
     27          9           0       -7.196445    4.952154   -2.006969
     28          9           0       -6.718724    3.622417   -0.368257
     29          9           0       -5.755669    5.544675   -0.505735
     30          1           0       -4.979977    1.480623   -1.230073
     31          1           0       -3.057309    5.298640   -1.442741
     32          8           0       -1.315880   -0.966386    0.815062
     33          8           0        0.619165   -1.256211    1.918573
     34          6           0       -0.490538   -1.650415    1.477897
     35          6           0       -0.860260   -3.112162    1.783428
     36          6           0       -2.222347   -3.542487    1.253016
     37          1           0       -0.801926   -3.238256    2.871610
     38          1           0       -0.060341   -3.738105    1.368396
     39          1           0       -3.015938   -2.921618    1.678989
     40          1           0       -2.430642   -4.591985    1.495745
     41          1           0       -2.269620   -3.418238    0.167319
 ---------------------------------------------------------------------
                    Distance matrix (angstroms):
                    1          2          3          4          5
     1  C    0.000000
     2  C    1.389369   0.000000
     3  C    2.394536   1.386727   0.000000
     4  C    2.788845   2.434168   1.412057   0.000000
     5  C    2.406319   2.801737   2.427336   1.408064   0.000000
     6  C    1.385159   2.417081   2.783553   2.425103   1.393124
     7  N    4.168872   3.660259   2.375430   1.382804   2.473311
     8  C    5.176325   4.904872   3.706108   2.482748   3.030028
     9  N    6.392005   5.941401   4.628750   3.616988   4.359861
    10  O    5.242243   5.296775   4.308562   2.919254   2.863952
    11  C    7.606154   7.284034   6.010788   4.892960   5.401490
    12  C    8.811708   8.331663   6.991388   6.039062   6.725025
    13  C   10.113819   9.730921   8.415694   7.376929   7.913348
    14  H    3.388254   2.156043   1.087567   2.153372   3.405541
    15  H    3.391179   3.882987   3.405946   2.153505   1.081281
    16  H    4.661566   3.858847   2.473404   2.052890   3.362458
    17  H    6.604041   5.943480   4.568732   3.831247   4.832661
    18  H    7.850989   7.594796   6.364739   5.219742   5.626128
    19  H    7.642971   7.481770   6.292885   5.060197   5.334795
    20  H    8.802867   8.279234   6.946444   6.065999   6.801101
    21  H    8.915945   8.300418   6.927477   6.130177   6.979981
    22  H   10.214736   9.953886   8.691227   7.557664   7.935112
    23  H   10.978441  10.510328   9.166245   8.213650   8.842463
    24  H   10.319554   9.976603   8.680269   7.615249   8.097543
    25  O    1.416973   2.421400   3.686796   4.204770   3.697607
    26  C    2.338466   3.198931   4.444175   4.974718   4.449300
    27  F    3.482982   4.318737   5.640514   6.224267   5.651929
    28  F    2.793658   3.100599   4.284904   5.053696   4.855240
    29  F    2.802831   3.860976   4.867208   5.066059   4.294787
    30  H    2.146948   1.085926   2.157040   3.423702   3.887534
    31  H    2.140205   3.394244   3.869559   3.413834   2.157614
    32  O    5.667843   4.538367   3.273858   3.519050   4.919201
    33  O    7.444886   6.504396   5.141031   4.860573   6.097209
    34  C    6.876376   5.782528   4.491591   4.553922   5.912414
    35  C    7.975101   6.754339   5.592115   5.905172   7.297775
    36  C    7.702399   6.371001   5.430839   6.094059   7.497016
    37  H    8.586254   7.393348   6.227727   6.475247   7.838436
    38  H    8.694973   7.496127   6.310737   6.542714   7.916224
    39  H    7.147022   5.809545   4.963850   5.734928   7.106772
    40  H    8.699390   7.345486   6.474833   7.183668   8.584095
    41  H    7.272613   5.935286   5.062566   5.805581   7.187097
                    6          7          8          9         10
     6  C    0.000000
     7  N    3.722182   0.000000
     8  C    4.418034   1.385764   0.000000
     9  N    5.736363   2.282786   1.356832   0.000000
    10  O    4.210757   2.315375   1.234784   2.281266   0.000000
    11  C    6.794064   3.638034   2.431107   1.444142   2.775550
    12  C    8.113008   4.692923   3.702698   2.432301   4.235780
    13  C    9.304851   6.071543   4.940156   3.791567   5.207714
    14  H    3.870991   2.559624   3.942278   4.579448   4.789784
    15  H    2.157627   2.731586   2.754744   4.104334   2.169030
    16  H    4.477321   1.039870   2.080458   2.410145   3.212423
    17  H    6.149054   2.453242   2.084407   1.036264   3.201320
    18  H    6.992133   4.049142   2.843611   2.107576   2.992781
    19  H    6.701251   3.952752   2.625940   2.077673   2.554385
    20  H    8.160669   4.744028   3.882306   2.672799   4.483851
    21  H    8.346775   4.751728   3.984156   2.638753   4.725260
    22  H    9.306832   6.330112   5.097069   4.125808   5.146875
    23  H   10.233760   6.872689   5.837342   4.604908   6.208032
    24  H    9.479289   6.340588   5.181683   4.107526   5.368485
    25  O    2.420076   5.584309   6.573892   7.804122   6.561364
    26  C    3.191462   6.328337   7.296263   8.523370   7.253784
    27  F    4.320875   7.593491   8.562007   9.801316   8.481531
    28  F    3.836105   6.313102   7.396989   8.514972   7.535863
    29  F    3.097668   6.362197   7.135804   8.406306   6.915643
    30  H    3.395398   4.531658   5.843906   6.781866   6.328096
    31  H    1.086173   4.622253   5.112750   6.464395   4.667444
    32  O    5.832201   2.790168   3.717559   3.570987   4.913912
    33  O    7.282124   3.631108   3.751447   2.823430   4.935879
    34  C    6.940267   3.566216   4.130047   3.553281   5.363421
    35  C    8.217599   5.045137   5.668403   5.037082   6.901531
    36  C    8.196838   5.544898   6.449169   6.080183   7.662279
    37  H    8.788914   5.565491   6.075345   5.353948   7.283111
    38  H    8.885951   5.597751   6.086694   5.312440   7.310537
    39  H    7.713602   5.340378   6.349227   6.142072   7.519828
    40  H    9.251469   6.637700   7.511871   7.071835   8.731808
    41  H    7.818888   5.368460   6.354676   6.100833   7.540957
                   11         12         13         14         15
    11  C    0.000000
    12  C    1.525334   0.000000
    13  C    2.526149   1.527023   0.000000
    14  H    6.015625   6.797388   8.279739   0.000000
    15  H    4.906762   6.322779   7.370387   4.294089   0.000000
    16  H    3.851436   4.617900   6.090737   2.190858   3.749943
    17  H    2.134517   2.557455   4.043548   4.277926   4.779941
    18  H    1.102872   2.162874   2.734265   6.419348   5.072870
    19  H    1.096630   2.170823   2.799289   6.441270   4.686558
    20  H    2.145443   1.096786   2.168135   6.710723   6.459976
    21  H    2.151550   1.096460   2.170084   6.593999   6.709281
    22  H    2.782790   2.177299   1.096777   8.664724   7.287851
    23  H    3.484762   2.180231   1.095090   8.932605   8.354006
    24  H    2.792978   2.175688   1.096478   8.576723   7.519923
    25  O    9.001404  10.220270  11.511349   4.573619   4.574691
    26  C    9.691173  10.953594  12.215004   5.274415   5.267492
    27  F   10.968261  12.230108  13.492689   6.428532   6.430609
    28  F    9.745740  10.930412  12.238410   4.912438   5.762926
    29  F    9.443156  10.799889  11.957044   5.788094   4.907214
    30  H    8.167707   9.123870  10.563903   2.502047   4.968803
    31  H    7.385060   8.770870   9.863710   4.957056   2.498610
    32  O    4.906383   5.214474   6.721963   2.400096   5.450346
    33  O    3.667678   3.449857   4.857625   4.483291   6.267877
    34  C    4.662288   4.628803   6.078895   3.653343   6.296033
    35  C    6.030380   5.749348   7.098256   4.607795   7.764193
    36  C    7.236189   7.120263   8.525070   4.353223   8.143630
    37  H    6.205407   5.858631   7.092559   5.279538   8.254199
    38  H    6.174119   5.659025   6.941949   5.351211   8.320169
    39  H    7.361479   7.435282   8.854390   3.902448   7.815216
    40  H    8.160001   7.915466   9.259909   5.390367   9.239797
    41  H    7.330458   7.274535   8.730156   3.993880   7.879370
                   16         17         18         19         20
    16  H    0.000000
    17  H    2.121190   0.000000
    18  H    4.324971   2.730880   0.000000
    19  H    4.363449   2.957358   1.762140   0.000000
    20  H    4.603815   2.707158   3.061182   2.489847   0.000000
    21  H    4.475757   2.362819   2.533550   3.067956   1.753047
    22  H    6.491024   4.581450   3.068839   2.608064   2.534632
    23  H    6.769056   4.675162   3.752222   3.798865   2.515088
    24  H    6.402826   4.386337   2.546067   3.176119   3.083314
    25  O    6.048016   8.016661   9.229777   8.996469  10.193936
    26  C    6.778755   8.721296   9.786841   9.750316  11.034911
    27  F    8.031594  10.002743  11.086470  10.983193  12.272503
    28  F    6.594807   8.572767   9.800369   9.953655  11.053705
    29  F    6.950865   8.718721   9.413332   9.460935  10.988986
    30  H    4.541823   6.661161   8.495294   8.426855   9.035141
    31  H    5.457102   6.986358   7.526449   7.172809   8.844798
    32  O    1.756044   2.796251   5.402063   5.604483   5.098835
    33  O    2.823735   1.789781   4.151005   4.584942   3.462759
    34  C    2.566828   2.568937   5.150751   5.498454   4.536744
    35  C    4.018262   4.020710   6.488481   6.905045   5.605647
    36  C    4.518483   5.129951   7.698286   8.046950   6.927894
    37  H    4.582773   4.330542   6.506012   7.176076   5.885757
    38  H    4.597027   4.302698   6.746467   6.999847   5.360320
    39  H    4.367231   5.250219   7.708348   8.187514   7.365794
    40  H    5.608408   6.091075   8.609972   8.998979   7.708126
    41  H    4.376672   5.222581   7.908884   8.027946   6.947367
                   21         22         23         24         25
    21  H    0.000000
    22  H    3.085918   0.000000
    23  H    2.521044   1.771593   0.000000
    24  H    2.530299   1.769235   1.770112   0.000000
    25  O   10.332577  11.582208  12.383265  11.712086   0.000000
    26  C   11.002743  12.333419  13.113132  12.311440   1.336503
    27  F   12.299779  13.578233  14.390577  13.610228   2.166864
    28  F   10.845221  12.474663  13.092769  12.294991   2.239165
    29  F   10.895488  12.037194  12.913042  11.959220   2.239263
    30  H    9.010903  10.840955  11.291214  10.824815   2.638878
    31  H    9.089281   9.773161  10.834982  10.005204   2.633339
    32  O    4.762605   7.308427   7.175499   7.075834   6.936276
    33  O    2.740083   5.625572   5.154832   5.205682   8.807179
    34  C    3.988572   6.793454   6.388068   6.435173   8.169955
    35  C    4.965620   7.902073   7.217321   7.453868   9.175598
    36  C    6.401937   9.277962   8.691955   8.885548   8.751412
    37  H    4.938246   7.993678   7.170013   7.313697   9.797664
    38  H    4.907129   7.730225   6.919707   7.415144   9.906989
    39  H    6.715800   9.607841   9.125030   9.112777   8.149708
    40  H    7.134484  10.058492   9.327098   9.617975   9.690638
    41  H    6.689584   9.384917   8.925827   9.191336   8.276500
                   26         27         28         29         30
    26  C    0.000000
    27  F    1.337534   0.000000
    28  F    1.343832   2.163746   0.000000
    29  F    1.344278   2.163475   2.154403   0.000000
    30  H    3.262012   4.191400   2.890200   4.200344   0.000000
    31  H    3.245878   4.191760   4.167757   2.866995   4.280085
    32  O    7.615692   8.807612   7.186660   7.990629   4.857575
    33  O    9.467827  10.725551   9.103583   9.631606   6.982451
    34  C    8.823439  10.035308   8.366680   9.133768   6.106681
    35  C    9.780474  10.933780   9.181824  10.205201   6.866361
    36  C    9.316201  10.369576   8.612885   9.907275   6.245149
    37  H   10.294513  11.479253   9.621542  10.634186   7.519822
    38  H   10.603438  11.740429  10.076076  11.050753   7.628235
    39  H    8.590902   9.646721   7.792704   9.162820   5.630259
    40  H   10.219704  11.228200   9.451907  10.854198   7.127815
    41  H    8.955830   9.953120   8.345788   9.640506   5.770404
                   31         32         33         34         35
    31  H    0.000000
    32  O    6.883372   0.000000
    33  O    8.232920   2.246360   0.000000
    34  C    7.962902   1.260331   1.257392   0.000000
    35  C    9.272366   2.397848   2.377292   1.538424   0.000000
    36  C    9.280614   2.765824   3.707319   2.574814   1.523744
    37  H    9.827460   3.107238   2.618450   2.135565   1.097016
    38  H    9.927088   3.092730   2.631391   2.134364   1.097236
    39  H    8.793153   2.731208   4.005615   2.834438   2.166601
    40  H   10.336918   3.853698   4.539547   3.523798   2.176863
    41  H    8.899253   2.709385   4.010777   2.829832   2.166053
                   36         37         38         39         40
    36  C    0.000000
    37  H    2.174856   0.000000
    38  H    2.173901   1.749128   0.000000
    39  H    1.093947   2.534650   3.081991   0.000000
    40  H    1.097155   2.525530   2.522628   1.779403   0.000000
    41  H    1.093806   3.082160   2.534919   1.757489   1.779979
                   41
    41  H    0.000000
 Stoichiometry    C14H18F3N2O4(1-)
 Framework group  C1[X(C14H18F3N2O4)]
 Deg. of freedom   117
 Full point group                 C1      NOp   1
 Largest Abelian subgroup         C1      NOp   1
 Largest concise Abelian subgroup C1      NOp   1
                         Standard orientation:                         
 ---------------------------------------------------------------------
 Center     Atomic      Atomic             Coordinates (Angstroms)
 Number     Number       Type             X           Y           Z
 ---------------------------------------------------------------------
      1          6           0        3.287833   -0.252780   -0.602734
      2          6           0        2.514944    0.901189   -0.566072
      3          6           0        1.139744    0.790454   -0.426165
      4          6           0        0.521684   -0.475194   -0.325952
      5          6           0        1.327662   -1.628939   -0.369735
      6          6           0        2.708285   -1.507515   -0.510913
      7          7           0       -0.854988   -0.478680   -0.195919
      8          6           0       -1.687311   -1.579703   -0.072108
      9          7           0       -2.997061   -1.237595    0.020145
     10          8           0       -1.289727   -2.748630   -0.057032
     11          6           0       -4.001379   -2.247580    0.258517
     12          6           0       -5.388359   -1.679958   -0.025622
     13          6           0       -6.486919   -2.698561    0.270035
     14          1           0        0.510715    1.677073   -0.394060
     15          1           0        0.861020   -2.601592   -0.296525
     16          1           0       -1.300021    0.461112   -0.187818
     17          1           0       -3.276593   -0.244702    0.119490
     18          1           0       -3.954709   -2.613011    1.298040
     19          1           0       -3.796831   -3.111969   -0.384593
     20          1           0       -5.431593   -1.365687   -1.075529
     21          1           0       -5.535350   -0.771513    0.570486
     22          1           0       -6.357277   -3.605390   -0.333101
     23          1           0       -7.479846   -2.290540    0.053617
     24          1           0       -6.471351   -2.998050    1.324704
     25          8           0        4.685409   -0.144246   -0.809650
     26          6           0        5.441227   -0.066973    0.289898
     27          9           0        6.719937    0.040768   -0.087318
     28          9           0        5.153607    0.996541    1.059376
     29          9           0        5.341623   -1.149537    1.080606
     30          1           0        2.992168    1.873244   -0.647326
     31          1           0        3.337795   -2.391770   -0.550710
     32          8           0       -1.835006    2.133598   -0.171264
     33          8           0       -3.909306    1.418573    0.310560
     34          6           0       -3.052645    2.314374    0.099124
     35          6           0       -3.556275    3.765826    0.179078
     36          6           0       -2.482448    4.820248   -0.059427
     37          1           0       -4.021547    3.891288    1.164586
     38          1           0       -4.371520    3.862311   -0.548928
     39          1           0       -1.678380    4.725265    0.676217
     40          1           0       -2.898160    5.833533    0.005281
     41          1           0       -2.027869    4.690688   -1.045826
 ---------------------------------------------------------------------
 Rotational constants (GHZ):      0.3714650      0.0969980      0.0789771
 Counterpoise: doing full dimer calculation.
 General basis read from cards:  (6D, 7F)
 There are   473 symmetry adapted cartesian basis functions of A   symmetry.
 There are   473 symmetry adapted basis functions of A   symmetry.
   473 basis functions,   808 primitive gaussians,   473 cartesian basis functions
    88 alpha electrons       88 beta electrons
       nuclear repulsion energy      1939.2761086586 Hartrees.
 NAtoms=   41 NActive=   41 NUniq=   41 SFac= 1.00D+00 NAtFMM=   60 NAOKFM=F Big=F
 Integral buffers will be    131072 words long.
 Raffenetti 2 integral format.
 Two-electron integral symmetry is turned on.
 One-electron integrals computed using PRISM.
 NBasis=   473 RedAO= T EigKep=  1.48D-06  NBF=   473
 NBsUse=   472 1.00D-06 EigRej=  8.98D-07 NBFU=   472
 ExpMin= 4.38D-02 ExpMax= 7.00D+03 ExpMxC= 1.05D+03 IAcc=3 IRadAn=         5 AccDes= 0.00D+00
 Harris functional with IExCor= 1009 and IRadAn=       5 diagonalized for initial guess.
 HarFok:  IExCor= 1009 AccDes= 0.00D+00 IRadAn=         5 IDoV= 1 UseB2=F ITyADJ=14
 ICtDFT=  3500011 ScaDFX=  1.000000  1.000000  1.000000  1.000000
 FoFCou: FMM=F IPFlag=           0 FMFlag=      100000 FMFlg1=           0
         NFxFlg=           0 DoJE=T BraDBF=F KetDBF=T FulRan=T
         wScrn=  0.000000 ICntrl=     500 IOpCl=  0 I1Cent=   200000004 NGrid=           0
         NMat0=    1 NMatS0=      1 NMatT0=    0 NMatD0=    1 NMtDS0=    0 NMtDT0=    0
 Petite list used in FoFCou.
 Requested convergence on RMS density matrix=1.00D-08 within 128 cycles.
 Requested convergence on MAX density matrix=1.00D-06.
 Requested convergence on             energy=1.00D-06.
 No special actions if energy rises.
 SCF Done:  E(RM062X) =  -1253.96786119     A.U. after   15 cycles
            NFock= 15  Conv=0.60D-08     -V/T= 2.0082

 **********************************************************************

            Population analysis using the SCF density.

 **********************************************************************

 Orbital symmetries:
       Occupied  (A) (A) (A) (A) (A) (A) (A) (A) (A) (A) (A) (A)
                 (A) (A) (A) (A) (A) (A) (A) (A) (A) (A) (A) (A)
                 (A) (A) (A) (A) (A) (A) (A) (A) (A) (A) (A) (A)
                 (A) (A) (A) (A) (A) (A) (A) (A) (A) (A) (A) (A)
                 (A) (A) (A) (A) (A) (A) (A) (A) (A) (A) (A) (A)
                 (A) (A) (A) (A) (A) (A) (A) (A) (A) (A) (A) (A)
                 (A) (A) (A) (A) (A) (A) (A) (A) (A) (A) (A) (A)
                 (A) (A) (A) (A)
       Virtual   (A) (A) (A) (A) (A) (A) (A) (A) (A) (A) (A) (A)
                 (A) (A) (A) (A) (A) (A) (A) (A) (A) (A) (A) (A)
                 (A) (A) (A) (A) (A) (A) (A) (A) (A) (A) (A) (A)
                 (A) (A) (A) (A) (A) (A) (A) (A) (A) (A) (A) (A)
                 (A) (A) (A) (A) (A) (A) (A) (A) (A) (A) (A) (A)
                 (A) (A) (A) (A) (A) (A) (A) (A) (A) (A) (A) (A)
                 (A) (A) (A) (A) (A) (A) (A) (A) (A) (A) (A) (A)
                 (A) (A) (A) (A) (A) (A) (A) (A) (A) (A) (A) (A)
                 (A) (A) (A) (A) (A) (A) (A) (A) (A) (A) (A) (A)
                 (A) (A) (A) (A) (A) (A) (A) (A) (A) (A) (A) (A)
                 (A) (A) (A) (A) (A) (A) (A) (A) (A) (A) (A) (A)
                 (A) (A) (A) (A) (A) (A) (A) (A) (A) (A) (A) (A)
                 (A) (A) (A) (A) (A) (A) (A) (A) (A) (A) (A) (A)
                 (A) (A) (A) (A) (A) (A) (A) (A) (A) (A) (A) (A)
                 (A) (A) (A) (A) (A) (A) (A) (A) (A) (A) (A) (A)
                 (A) (A) (A) (A) (A) (A) (A) (A) (A) (A) (A) (A)
                 (A) (A) (A) (A) (A) (A) (A) (A) (A) (A) (A) (A)
                 (A) (A) (A) (A) (A) (A) (A) (A) (A) (A) (A) (A)
                 (A) (A) (A) (A) (A) (A) (A) (A) (A) (A) (A) (A)
                 (A) (A) (A) (A) (A) (A) (A) (A) (A) (A) (A) (A)
                 (A) (A) (A) (A) (A) (A) (A) (A) (A) (A) (A) (A)
                 (A) (A) (A) (A) (A) (A) (A) (A) (A) (A) (A) (A)
                 (A) (A) (A) (A) (A) (A) (A) (A) (A) (A) (A) (A)
                 (A) (A) (A) (A) (A) (A) (A) (A) (A) (A) (A) (A)
                 (A) (A) (A) (A) (A) (A) (A) (A) (A) (A) (A) (A)
                 (A) (A) (A) (A) (A) (A) (A) (A) (A) (A) (A) (A)
                 (A) (A) (A) (A) (A) (A) (A) (A) (A) (A) (A) (A)
                 (A) (A) (A) (A) (A) (A) (A) (A) (A) (A) (A) (A)
                 (A) (A) (A) (A) (A) (A) (A) (A) (A) (A) (A) (A)
                 (A) (A) (A) (A) (A) (A) (A) (A) (A) (A) (A) (A)
                 (A) (A) (A) (A) (A) (A) (A) (A) (A) (A) (A) (A)
                 (A) (A) (A) (A) (A) (A) (A) (A) (A) (A) (A) (A)
 The electronic state is 1-A.
 Alpha  occ. eigenvalues --  -25.23008 -25.22478 -25.22478 -19.62374 -19.48502
 Alpha  occ. eigenvalues --  -19.46790 -19.46287 -14.65978 -14.64321 -10.77881
 Alpha  occ. eigenvalues --  -10.55458 -10.51769 -10.51469 -10.49634 -10.46727
 Alpha  occ. eigenvalues --  -10.46468 -10.46438 -10.45184 -10.44967 -10.44673
 Alpha  occ. eigenvalues --  -10.44306 -10.42793 -10.42719  -1.40348  -1.30524
 Alpha  occ. eigenvalues --   -1.29977  -1.14662  -1.04579  -1.02866  -0.93356
 Alpha  occ. eigenvalues --   -0.92841  -0.90003  -0.85680  -0.78295  -0.76218
 Alpha  occ. eigenvalues --   -0.75230  -0.74797  -0.71475  -0.67581  -0.64269
 Alpha  occ. eigenvalues --   -0.63164  -0.62460  -0.61278  -0.60943  -0.58345
 Alpha  occ. eigenvalues --   -0.56550  -0.54544  -0.51054  -0.50831  -0.49823
 Alpha  occ. eigenvalues --   -0.49675  -0.47945  -0.46238  -0.46029  -0.45671
 Alpha  occ. eigenvalues --   -0.44598  -0.43662  -0.43032  -0.42882  -0.42806
 Alpha  occ. eigenvalues --   -0.41311  -0.40651  -0.40285  -0.40149  -0.39630
 Alpha  occ. eigenvalues --   -0.38423  -0.37861  -0.36719  -0.35724  -0.35239
 Alpha  occ. eigenvalues --   -0.34607  -0.33822  -0.33543  -0.33274  -0.32374
 Alpha  occ. eigenvalues --   -0.30834  -0.30308  -0.30012  -0.29357  -0.28604
 Alpha  occ. eigenvalues --   -0.26206  -0.22122  -0.21337  -0.19649  -0.19122
 Alpha  occ. eigenvalues --   -0.18992  -0.18493  -0.14873
 Alpha virt. eigenvalues --    0.09925   0.10343   0.11167   0.11650   0.11766
 Alpha virt. eigenvalues --    0.11860   0.11970   0.12654   0.13277   0.13371
 Alpha virt. eigenvalues --    0.13535   0.14021   0.14669   0.15000   0.15146
 Alpha virt. eigenvalues --    0.15576   0.16051   0.16569   0.16775   0.17170
 Alpha virt. eigenvalues --    0.17849   0.18066   0.18552   0.18944   0.19108
 Alpha virt. eigenvalues --    0.19458   0.20261   0.20489   0.20949   0.21749
 Alpha virt. eigenvalues --    0.21816   0.22168   0.22679   0.22871   0.23614
 Alpha virt. eigenvalues --    0.24235   0.24359   0.24766   0.25068   0.25590
 Alpha virt. eigenvalues --    0.25802   0.25946   0.27065   0.27211   0.27679
 Alpha virt. eigenvalues --    0.28242   0.28758   0.29303   0.29605   0.30023
 Alpha virt. eigenvalues --    0.30586   0.30916   0.31234   0.31816   0.31997
 Alpha virt. eigenvalues --    0.32469   0.32941   0.33125   0.33414   0.33870
 Alpha virt. eigenvalues --    0.34279   0.34620   0.34999   0.35046   0.35099
 Alpha virt. eigenvalues --    0.35765   0.35979   0.36238   0.36477   0.37098
 Alpha virt. eigenvalues --    0.37535   0.37788   0.38399   0.38676   0.38853
 Alpha virt. eigenvalues --    0.39189   0.39456   0.39715   0.40218   0.40476
 Alpha virt. eigenvalues --    0.40686   0.41381   0.41644   0.41862   0.42390
 Alpha virt. eigenvalues --    0.42566   0.42850   0.43101   0.43356   0.43793
 Alpha virt. eigenvalues --    0.44039   0.44188   0.44744   0.45057   0.45440
 Alpha virt. eigenvalues --    0.45859   0.46111   0.46547   0.46784   0.47128
 Alpha virt. eigenvalues --    0.47521   0.47706   0.48146   0.48568   0.48816
 Alpha virt. eigenvalues --    0.49136   0.49568   0.50135   0.50698   0.50808
 Alpha virt. eigenvalues --    0.50937   0.51474   0.51888   0.52368   0.52911
 Alpha virt. eigenvalues --    0.54200   0.55215   0.55570   0.56455   0.57140
 Alpha virt. eigenvalues --    0.57329   0.58732   0.59044   0.59445   0.60656
 Alpha virt. eigenvalues --    0.61654   0.63199   0.64953   0.65451   0.66034
 Alpha virt. eigenvalues --    0.66976   0.70350   0.71822   0.73236   0.76348
 Alpha virt. eigenvalues --    0.79425   0.79841   0.80721   0.80978   0.83550
 Alpha virt. eigenvalues --    0.83870   0.83971   0.84669   0.85462   0.86523
 Alpha virt. eigenvalues --    0.86829   0.87174   0.87948   0.88682   0.88811
 Alpha virt. eigenvalues --    0.89894   0.90287   0.91414   0.92373   0.93161
 Alpha virt. eigenvalues --    0.93271   0.94435   0.96005   0.97038   0.97525
 Alpha virt. eigenvalues --    0.98152   0.98538   0.99226   1.00601   1.01313
 Alpha virt. eigenvalues --    1.02398   1.03255   1.04974   1.06891   1.07907
 Alpha virt. eigenvalues --    1.08942   1.10309   1.10492   1.10834   1.11329
 Alpha virt. eigenvalues --    1.13305   1.14126   1.15832   1.17134   1.17745
 Alpha virt. eigenvalues --    1.18675   1.18949   1.19281   1.20539   1.21437
 Alpha virt. eigenvalues --    1.22235   1.23774   1.24292   1.25314   1.26180
 Alpha virt. eigenvalues --    1.27600   1.28103   1.28718   1.29816   1.29873
 Alpha virt. eigenvalues --    1.31514   1.32724   1.33069   1.33456   1.35126
 Alpha virt. eigenvalues --    1.36226   1.36913   1.40020   1.40152   1.41820
 Alpha virt. eigenvalues --    1.42581   1.44487   1.45905   1.47144   1.47397
 Alpha virt. eigenvalues --    1.49153   1.50558   1.51110   1.51307   1.52275
 Alpha virt. eigenvalues --    1.53085   1.53948   1.55078   1.55370   1.55600
 Alpha virt. eigenvalues --    1.56699   1.57258   1.58728   1.59388   1.60823
 Alpha virt. eigenvalues --    1.61744   1.62201   1.62478   1.64148   1.65055
 Alpha virt. eigenvalues --    1.65531   1.66685   1.67160   1.68764   1.69578
 Alpha virt. eigenvalues --    1.71197   1.72679   1.73913   1.75311   1.75486
 Alpha virt. eigenvalues --    1.76693   1.77372   1.77630   1.78248   1.79882
 Alpha virt. eigenvalues --    1.80611   1.81795   1.82653   1.83466   1.85033
 Alpha virt. eigenvalues --    1.86235   1.89289   1.90390   1.91580   1.92619
 Alpha virt. eigenvalues --    1.93842   1.95715   1.97209   1.97308   1.98098
 Alpha virt. eigenvalues --    1.98430   1.99419   1.99596   2.00148   2.00551
 Alpha virt. eigenvalues --    2.01013   2.03057   2.03892   2.03922   2.05048
 Alpha virt. eigenvalues --    2.05752   2.06769   2.07713   2.08533   2.08610
 Alpha virt. eigenvalues --    2.09326   2.10336   2.11173   2.11622   2.11980
 Alpha virt. eigenvalues --    2.13907   2.14647   2.15563   2.16915   2.17319
 Alpha virt. eigenvalues --    2.18647   2.19665   2.20012   2.20298   2.21033
 Alpha virt. eigenvalues --    2.21185   2.22076   2.22450   2.23199   2.23682
 Alpha virt. eigenvalues --    2.24116   2.25391   2.26539   2.27699   2.30121
 Alpha virt. eigenvalues --    2.30903   2.31688   2.33173   2.34613   2.37261
 Alpha virt. eigenvalues --    2.38548   2.40761   2.43319   2.43351   2.44178
 Alpha virt. eigenvalues --    2.44524   2.45346   2.47325   2.49544   2.49665
 Alpha virt. eigenvalues --    2.50728   2.51218   2.52028   2.53866   2.56004
 Alpha virt. eigenvalues --    2.59739   2.60360   2.64787   2.66049   2.67292
 Alpha virt. eigenvalues --    2.67981   2.70417   2.73174   2.74111   2.75716
 Alpha virt. eigenvalues --    2.76833   2.77989   2.78209   2.79965   2.83453
 Alpha virt. eigenvalues --    2.84061   2.86702   2.89366   2.90373   2.92093
 Alpha virt. eigenvalues --    2.92551   2.93179   2.94918   2.97075   3.00139
 Alpha virt. eigenvalues --    3.06865   3.07180   3.09587   3.11860   3.20496
 Alpha virt. eigenvalues --    3.23495   3.24002   3.26837   3.28665   3.30300
 Alpha virt. eigenvalues --    3.35770   3.36795   3.41491   3.47104   3.49337
 Alpha virt. eigenvalues --    3.58029   4.35418   4.36971   4.39607   4.42547
 Alpha virt. eigenvalues --    4.46236   4.51971   4.53728   4.55648   4.56229
 Alpha virt. eigenvalues --    4.58886   4.60560   4.63289   4.65996   4.69800
 Alpha virt. eigenvalues --    4.70747   4.75721   4.80257   4.87890   4.95445
 Alpha virt. eigenvalues --    4.99419   5.81126   6.03783   6.70784
          Condensed to atoms (all electrons):
               1          2          3          4          5          6
     1  C   10.269467  -0.051817  -0.512854  -2.428652  -1.901969   1.126698
     2  C   -0.051817  13.065127  -0.685990  -1.514660   0.661466  -6.218420
     3  C   -0.512854  -0.685990  15.640581   0.507203  -7.967990   1.187767
     4  C   -2.428652  -1.514660   0.507203  15.269839  -1.348393  -2.786832
     5  C   -1.901969   0.661466  -7.967990  -1.348393  16.912970  -2.492977
     6  C    1.126698  -6.218420   1.187767  -2.786832  -2.492977  16.601975
     7  N   -0.035958   0.031854  -0.016512   0.348393  -0.119821   0.032608
     8  C   -0.325486   0.401289  -1.339967  -0.991682   1.145992  -1.102909
     9  N   -0.012341   0.008733  -0.122319  -0.154338  -0.002036  -0.044260
    10  O    0.017751  -0.020132  -0.170935  -0.602962   0.539595   0.156034
    11  C   -0.026307   0.024590  -0.139721  -0.330093  -0.082525  -0.126146
    12  C   -0.000355   0.000041   0.007712   0.009637  -0.010722  -0.000944
    13  C   -0.000172  -0.000025  -0.002811  -0.007698  -0.002790  -0.000619
    14  H    0.008139   0.008018   0.148607   0.102654   0.066019  -0.040530
    15  H    0.014415  -0.021652   0.014486   0.009587   0.256658   0.016280
    16  H    0.005354   0.003967  -0.103098   0.003257   0.085515   0.003909
    17  H   -0.000235   0.000407   0.001556   0.003976  -0.007329  -0.001200
    18  H    0.000093  -0.000151  -0.000234   0.009863   0.004778   0.001144
    19  H   -0.000173   0.000295   0.001342  -0.010568  -0.011461  -0.002352
    20  H    0.000003  -0.000001   0.000306   0.001626  -0.000185   0.000021
    21  H   -0.000004   0.000029   0.000293  -0.002393  -0.000389  -0.000043
    22  H   -0.000000   0.000000   0.000003  -0.000154  -0.000051  -0.000004
    23  H   -0.000000  -0.000000  -0.000002  -0.000023  -0.000006  -0.000000
    24  H    0.000000   0.000000   0.000011   0.000138  -0.000017  -0.000000
    25  O    0.490864  -0.221532   0.004404   0.015117   0.023931  -0.230062
    26  C   -0.213878  -0.002482   0.020417  -0.023053   0.009923   0.036660
    27  F    0.001625  -0.001569  -0.003485  -0.002578  -0.007277  -0.005318
    28  F   -0.042930   0.125622   0.015866  -0.004418  -0.005007  -0.082986
    29  F   -0.054648  -0.083692   0.000730  -0.000340  -0.001430   0.144047
    30  H   -0.027715   0.337449  -0.046793   0.045503  -0.002123  -0.010002
    31  H   -0.004773  -0.001137  -0.027875   0.001414   0.008037   0.323493
    32  O    0.001480   0.064566   0.232954  -0.293733  -0.012824   0.001526
    33  O   -0.000434  -0.005008   0.006944  -0.001735  -0.010271   0.000977
    34  C   -0.005452  -0.053389  -0.041359   0.113298  -0.034754   0.001059
    35  C    0.001066   0.021121   0.048596  -0.056681  -0.027618  -0.006221
    36  C    0.002061   0.017242   0.009311  -0.027299  -0.000145   0.000101
    37  H    0.000001   0.000090   0.001295  -0.001235  -0.000159  -0.000007
    38  H   -0.000001  -0.000051   0.000477  -0.000580  -0.000074   0.000001
    39  H   -0.000021  -0.000098  -0.000431  -0.000193   0.000002   0.000030
    40  H   -0.000001  -0.000116  -0.000103   0.000113   0.000002   0.000001
    41  H   -0.000054   0.000129  -0.000103  -0.000160   0.000003  -0.000002
               7          8          9         10         11         12
     1  C   -0.035958  -0.325486  -0.012341   0.017751  -0.026307  -0.000355
     2  C    0.031854   0.401289   0.008733  -0.020132   0.024590   0.000041
     3  C   -0.016512  -1.339967  -0.122319  -0.170935  -0.139721   0.007712
     4  C    0.348393  -0.991682  -0.154338  -0.602962  -0.330093   0.009637
     5  C   -0.119821   1.145992  -0.002036   0.539595  -0.082525  -0.010722
     6  C    0.032608  -1.102909  -0.044260   0.156034  -0.126146  -0.000944
     7  N    7.979731   0.073185  -0.401797  -0.050973  -0.244599   0.016787
     8  C    0.073185   7.151136   0.447575   0.665031  -0.889187   0.163375
     9  N   -0.401797   0.447575   7.851655  -0.185027   0.394123  -0.043310
    10  O   -0.050973   0.665031  -0.185027   8.358811  -0.094995   0.011484
    11  C   -0.244599  -0.889187   0.394123  -0.094995   7.290327  -0.481937
    12  C    0.016787   0.163375  -0.043310   0.011484  -0.481937   6.441795
    13  C   -0.003803  -0.089305  -0.024408  -0.002133   0.112266  -0.273794
    14  H   -0.012311   0.008252   0.000587   0.000065  -0.000081   0.000015
    15  H   -0.017437   0.030503   0.001145  -0.007263   0.003442  -0.000049
    16  H    0.101649  -0.013616   0.011322   0.003666   0.004181  -0.000714
    17  H    0.007499  -0.008137   0.149731   0.003305  -0.015466  -0.005136
    18  H    0.001225   0.071981  -0.075475   0.002740   0.377409  -0.081709
    19  H   -0.002113  -0.125237  -0.040514  -0.001473   0.542728  -0.039104
    20  H   -0.000359   0.008759   0.001463  -0.000132  -0.063398   0.429988
    21  H    0.000243  -0.011036   0.008780  -0.000104  -0.088316   0.441151
    22  H    0.000003  -0.006288   0.000610  -0.000063  -0.022739  -0.074297
    23  H    0.000009  -0.001990   0.000329   0.000001   0.030825  -0.122990
    24  H    0.000044   0.004759  -0.000186   0.000004   0.004573  -0.057671
    25  O   -0.000245   0.005338   0.000009   0.000015   0.000102   0.000000
    26  C    0.000682  -0.003670   0.000005   0.000077  -0.000040  -0.000003
    27  F   -0.000001  -0.000003  -0.000000  -0.000000   0.000000   0.000000
    28  F    0.000064  -0.000228   0.000001  -0.000000  -0.000001  -0.000000
    29  F   -0.000024  -0.000601  -0.000001   0.000001  -0.000004  -0.000000
    30  H    0.000295   0.003800   0.000012  -0.000002   0.000031   0.000000
    31  H   -0.000793   0.000134  -0.000009   0.000214  -0.000018   0.000002
    32  O    0.005910  -0.000248   0.009915   0.000104   0.005089  -0.004007
    33  O    0.012596  -0.013064  -0.032100  -0.000084   0.009194  -0.014410
    34  C   -0.003711  -0.016139  -0.008944  -0.001522   0.001122  -0.000802
    35  C   -0.032038  -0.034120  -0.026390  -0.001255   0.031938  -0.002964
    36  C    0.004365   0.003236   0.003864   0.000069  -0.003880  -0.000462
    37  H    0.000120  -0.000419  -0.000108  -0.000000   0.000328  -0.000150
    38  H    0.000137  -0.000197  -0.000238  -0.000000  -0.000158   0.000384
    39  H   -0.000076   0.000003  -0.000002  -0.000000  -0.000012   0.000019
    40  H    0.000030   0.000012  -0.000005   0.000000  -0.000007   0.000002
    41  H   -0.000092  -0.000023  -0.000009  -0.000000   0.000001   0.000003
              13         14         15         16         17         18
     1  C   -0.000172   0.008139   0.014415   0.005354  -0.000235   0.000093
     2  C   -0.000025   0.008018  -0.021652   0.003967   0.000407  -0.000151
     3  C   -0.002811   0.148607   0.014486  -0.103098   0.001556  -0.000234
     4  C   -0.007698   0.102654   0.009587   0.003257   0.003976   0.009863
     5  C   -0.002790   0.066019   0.256658   0.085515  -0.007329   0.004778
     6  C   -0.000619  -0.040530   0.016280   0.003909  -0.001200   0.001144
     7  N   -0.003803  -0.012311  -0.017437   0.101649   0.007499   0.001225
     8  C   -0.089305   0.008252   0.030503  -0.013616  -0.008137   0.071981
     9  N   -0.024408   0.000587   0.001145   0.011322   0.149731  -0.075475
    10  O   -0.002133   0.000065  -0.007263   0.003666   0.003305   0.002740
    11  C    0.112266  -0.000081   0.003442   0.004181  -0.015466   0.377409
    12  C   -0.273794   0.000015  -0.000049  -0.000714  -0.005136  -0.081709
    13  C    5.869414  -0.000002   0.000016  -0.000002   0.003056  -0.018972
    14  H   -0.000002   0.432385  -0.000114   0.007409   0.000004   0.000000
    15  H    0.000016  -0.000114   0.434437  -0.000199   0.000001   0.000000
    16  H   -0.000002   0.007409  -0.000199   0.265861   0.009241  -0.000004
    17  H    0.003056   0.000004   0.000001   0.009241   0.249827   0.001021
    18  H   -0.018972   0.000000   0.000000  -0.000004   0.001021   0.556040
    19  H    0.007329   0.000000  -0.000002   0.000014   0.001992  -0.045977
    20  H   -0.064991   0.000000   0.000000  -0.000002  -0.000416   0.004560
    21  H   -0.024495  -0.000000  -0.000000   0.000007   0.002543  -0.005459
    22  H    0.450452  -0.000000  -0.000000  -0.000000   0.000004  -0.000524
    23  H    0.447288   0.000000   0.000000  -0.000000   0.000000  -0.000083
    24  H    0.395162   0.000000   0.000000  -0.000000  -0.000007   0.002915
    25  O    0.000000  -0.000500  -0.000399  -0.000002   0.000000  -0.000000
    26  C   -0.000000  -0.000219  -0.000392   0.000011  -0.000000   0.000000
    27  F    0.000000  -0.000001  -0.000001  -0.000000   0.000000  -0.000000
    28  F   -0.000000  -0.000001  -0.000004  -0.000000   0.000000  -0.000000
    29  F   -0.000000  -0.000004   0.000008   0.000000   0.000000   0.000000
    30  H    0.000000  -0.003392   0.000012  -0.000012   0.000000   0.000000
    31  H   -0.000000   0.000013  -0.003520   0.000002  -0.000000  -0.000000
    32  O   -0.000635  -0.002502   0.000004   0.091404  -0.000386  -0.000003
    33  O    0.004192  -0.000033   0.000001  -0.001956   0.077207   0.000937
    34  C   -0.004003  -0.000144   0.000080  -0.009979  -0.003415  -0.000262
    35  C    0.004593   0.002541   0.000009   0.020036   0.017754   0.000123
    36  C   -0.000605  -0.000552  -0.000001  -0.002742  -0.003077  -0.000003
    37  H    0.000002   0.000000   0.000000  -0.000026  -0.000003  -0.000000
    38  H    0.000087   0.000000   0.000000  -0.000026  -0.000007   0.000000
    39  H    0.000001   0.000021   0.000000  -0.000012  -0.000000  -0.000000
    40  H    0.000000  -0.000000  -0.000000   0.000000   0.000000  -0.000000
    41  H    0.000000   0.000014   0.000000  -0.000014  -0.000000  -0.000000
              19         20         21         22         23         24
     1  C   -0.000173   0.000003  -0.000004  -0.000000  -0.000000   0.000000
     2  C    0.000295  -0.000001   0.000029   0.000000  -0.000000   0.000000
     3  C    0.001342   0.000306   0.000293   0.000003  -0.000002   0.000011
     4  C   -0.010568   0.001626  -0.002393  -0.000154  -0.000023   0.000138
     5  C   -0.011461  -0.000185  -0.000389  -0.000051  -0.000006  -0.000017
     6  C   -0.002352   0.000021  -0.000043  -0.000004  -0.000000  -0.000000
     7  N   -0.002113  -0.000359   0.000243   0.000003   0.000009   0.000044
     8  C   -0.125237   0.008759  -0.011036  -0.006288  -0.001990   0.004759
     9  N   -0.040514   0.001463   0.008780   0.000610   0.000329  -0.000186
    10  O   -0.001473  -0.000132  -0.000104  -0.000063   0.000001   0.000004
    11  C    0.542728  -0.063398  -0.088316  -0.022739   0.030825   0.004573
    12  C   -0.039104   0.429988   0.441151  -0.074297  -0.122990  -0.057671
    13  C    0.007329  -0.064991  -0.024495   0.450452   0.447288   0.395162
    14  H    0.000000   0.000000  -0.000000  -0.000000   0.000000   0.000000
    15  H   -0.000002   0.000000  -0.000000  -0.000000   0.000000   0.000000
    16  H    0.000014  -0.000002   0.000007  -0.000000  -0.000000  -0.000000
    17  H    0.001992  -0.000416   0.002543   0.000004   0.000000  -0.000007
    18  H   -0.045977   0.004560  -0.005459  -0.000524  -0.000083   0.002915
    19  H    0.506510  -0.006077   0.003911   0.002619  -0.000082  -0.000210
    20  H   -0.006077   0.505398  -0.031985  -0.004740  -0.002963   0.003952
    21  H    0.003911  -0.031985   0.465305   0.003747  -0.002796  -0.004262
    22  H    0.002619  -0.004740   0.003747   0.515175  -0.028318  -0.033210
    23  H   -0.000082  -0.002963  -0.002796  -0.028318   0.511957  -0.027399
    24  H   -0.000210   0.003952  -0.004262  -0.033210  -0.027399   0.510234
    25  O    0.000000  -0.000000   0.000000   0.000000   0.000000  -0.000000
    26  C   -0.000000   0.000000   0.000000   0.000000  -0.000000  -0.000000
    27  F    0.000000  -0.000000   0.000000   0.000000   0.000000  -0.000000
    28  F    0.000000  -0.000000   0.000000   0.000000   0.000000  -0.000000
    29  F    0.000000  -0.000000   0.000000   0.000000   0.000000  -0.000000
    30  H   -0.000000  -0.000000   0.000000   0.000000  -0.000000   0.000000
    31  H    0.000000  -0.000000   0.000000   0.000000  -0.000000  -0.000000
    32  O   -0.000015   0.000062  -0.000044  -0.000000   0.000000   0.000001
    33  O   -0.000699   0.000975  -0.006014  -0.000049   0.000005   0.000065
    34  C    0.001031   0.000517   0.000004  -0.000066  -0.000072   0.000092
    35  C    0.000040   0.000210  -0.000784  -0.000005   0.000053  -0.000020
    36  C    0.000006  -0.000014  -0.000013   0.000000  -0.000000  -0.000000
    37  H   -0.000000   0.000000  -0.000001  -0.000000  -0.000000   0.000000
    38  H   -0.000000   0.000000  -0.000001  -0.000000  -0.000000   0.000000
    39  H    0.000000  -0.000000   0.000000  -0.000000  -0.000000  -0.000000
    40  H   -0.000000  -0.000000  -0.000000  -0.000000   0.000000  -0.000000
    41  H    0.000000  -0.000000   0.000000  -0.000000   0.000000  -0.000000
              25         26         27         28         29         30
     1  C    0.490864  -0.213878   0.001625  -0.042930  -0.054648  -0.027715
     2  C   -0.221532  -0.002482  -0.001569   0.125622  -0.083692   0.337449
     3  C    0.004404   0.020417  -0.003485   0.015866   0.000730  -0.046793
     4  C    0.015117  -0.023053  -0.002578  -0.004418  -0.000340   0.045503
     5  C    0.023931   0.009923  -0.007277  -0.005007  -0.001430  -0.002123
     6  C   -0.230062   0.036660  -0.005318  -0.082986   0.144047  -0.010002
     7  N   -0.000245   0.000682  -0.000001   0.000064  -0.000024   0.000295
     8  C    0.005338  -0.003670  -0.000003  -0.000228  -0.000601   0.003800
     9  N    0.000009   0.000005  -0.000000   0.000001  -0.000001   0.000012
    10  O    0.000015   0.000077  -0.000000  -0.000000   0.000001  -0.000002
    11  C    0.000102  -0.000040   0.000000  -0.000001  -0.000004   0.000031
    12  C    0.000000  -0.000003   0.000000  -0.000000  -0.000000   0.000000
    13  C    0.000000  -0.000000   0.000000  -0.000000  -0.000000   0.000000
    14  H   -0.000500  -0.000219  -0.000001  -0.000001  -0.000004  -0.003392
    15  H   -0.000399  -0.000392  -0.000001  -0.000004   0.000008   0.000012
    16  H   -0.000002   0.000011  -0.000000  -0.000000   0.000000  -0.000012
    17  H    0.000000  -0.000000   0.000000   0.000000   0.000000   0.000000
    18  H   -0.000000   0.000000  -0.000000  -0.000000   0.000000   0.000000
    19  H    0.000000  -0.000000   0.000000   0.000000   0.000000  -0.000000
    20  H   -0.000000   0.000000  -0.000000  -0.000000  -0.000000  -0.000000
    21  H    0.000000   0.000000   0.000000   0.000000   0.000000   0.000000
    22  H    0.000000   0.000000   0.000000   0.000000   0.000000   0.000000
    23  H    0.000000  -0.000000   0.000000   0.000000   0.000000  -0.000000
    24  H   -0.000000  -0.000000  -0.000000  -0.000000  -0.000000   0.000000
    25  O    8.265479   0.255007  -0.042778  -0.060750  -0.060925   0.004319
    26  C    0.255007   3.993597   0.241111   0.226979   0.228340   0.000258
    27  F   -0.042778   0.241111   9.259776  -0.045578  -0.045645  -0.000297
    28  F   -0.060750   0.226979  -0.045578   9.274618  -0.056994  -0.002163
    29  F   -0.060925   0.228340  -0.045645  -0.056994   9.276770   0.000060
    30  H    0.004319   0.000258  -0.000297  -0.002163   0.000060   0.492925
    31  H    0.004315   0.000682  -0.000318   0.000043  -0.002210  -0.000134
    32  O    0.000041   0.000023   0.000000   0.000000   0.000000   0.000105
    33  O    0.000000  -0.000001   0.000000   0.000000  -0.000000   0.000000
    34  C    0.000021  -0.000055  -0.000000  -0.000003  -0.000001   0.000070
    35  C   -0.000004  -0.000023   0.000000  -0.000001   0.000000  -0.000011
    36  C    0.000000   0.000000  -0.000000   0.000000  -0.000000  -0.000013
    37  H   -0.000000  -0.000000   0.000000   0.000000   0.000000  -0.000000
    38  H    0.000000  -0.000000   0.000000  -0.000000   0.000000  -0.000000
    39  H    0.000000  -0.000000   0.000000  -0.000000   0.000000  -0.000000
    40  H    0.000000   0.000000  -0.000000   0.000000  -0.000000   0.000000
    41  H    0.000000   0.000000   0.000000   0.000000   0.000000  -0.000000
              31         32         33         34         35         36
     1  C   -0.004773   0.001480  -0.000434  -0.005452   0.001066   0.002061
     2  C   -0.001137   0.064566  -0.005008  -0.053389   0.021121   0.017242
     3  C   -0.027875   0.232954   0.006944  -0.041359   0.048596   0.009311
     4  C    0.001414  -0.293733  -0.001735   0.113298  -0.056681  -0.027299
     5  C    0.008037  -0.012824  -0.010271  -0.034754  -0.027618  -0.000145
     6  C    0.323493   0.001526   0.000977   0.001059  -0.006221   0.000101
     7  N   -0.000793   0.005910   0.012596  -0.003711  -0.032038   0.004365
     8  C    0.000134  -0.000248  -0.013064  -0.016139  -0.034120   0.003236
     9  N   -0.000009   0.009915  -0.032100  -0.008944  -0.026390   0.003864
    10  O    0.000214   0.000104  -0.000084  -0.001522  -0.001255   0.000069
    11  C   -0.000018   0.005089   0.009194   0.001122   0.031938  -0.003880
    12  C    0.000002  -0.004007  -0.014410  -0.000802  -0.002964  -0.000462
    13  C   -0.000000  -0.000635   0.004192  -0.004003   0.004593  -0.000605
    14  H    0.000013  -0.002502  -0.000033  -0.000144   0.002541  -0.000552
    15  H   -0.003520   0.000004   0.000001   0.000080   0.000009  -0.000001
    16  H    0.000002   0.091404  -0.001956  -0.009979   0.020036  -0.002742
    17  H   -0.000000  -0.000386   0.077207  -0.003415   0.017754  -0.003077
    18  H   -0.000000  -0.000003   0.000937  -0.000262   0.000123  -0.000003
    19  H    0.000000  -0.000015  -0.000699   0.001031   0.000040   0.000006
    20  H   -0.000000   0.000062   0.000975   0.000517   0.000210  -0.000014
    21  H    0.000000  -0.000044  -0.006014   0.000004  -0.000784  -0.000013
    22  H    0.000000  -0.000000  -0.000049  -0.000066  -0.000005   0.000000
    23  H   -0.000000   0.000000   0.000005  -0.000072   0.000053  -0.000000
    24  H   -0.000000   0.000001   0.000065   0.000092  -0.000020  -0.000000
    25  O    0.004315   0.000041   0.000000   0.000021  -0.000004   0.000000
    26  C    0.000682   0.000023  -0.000001  -0.000055  -0.000023   0.000000
    27  F   -0.000318   0.000000   0.000000  -0.000000   0.000000  -0.000000
    28  F    0.000043   0.000000   0.000000  -0.000003  -0.000001   0.000000
    29  F   -0.002210   0.000000  -0.000000  -0.000001   0.000000  -0.000000
    30  H   -0.000134   0.000105   0.000000   0.000070  -0.000011  -0.000013
    31  H    0.497731  -0.000000  -0.000000   0.000004  -0.000000   0.000000
    32  O   -0.000000   8.566254  -0.182724   0.243974  -0.109147   0.061282
    33  O   -0.000000  -0.182724   8.515646   0.553508  -0.310255   0.039954
    34  C    0.000004   0.243974   0.553508   5.688977  -0.971302   0.019942
    35  C   -0.000000  -0.109147  -0.310255  -0.971302   7.619816  -0.393012
    36  C    0.000000   0.061282   0.039954   0.019942  -0.393012   5.860685
    37  H    0.000000   0.002563  -0.002917  -0.084708   0.456244  -0.052424
    38  H    0.000000   0.000866  -0.001908  -0.082484   0.449584  -0.047630
    39  H   -0.000000  -0.005074   0.000116  -0.006214  -0.058860   0.423112
    40  H    0.000000   0.002052  -0.000201   0.035477  -0.082762   0.385640
    41  H   -0.000000  -0.005144   0.000149  -0.007953  -0.053962   0.419184
              37         38         39         40         41
     1  C    0.000001  -0.000001  -0.000021  -0.000001  -0.000054
     2  C    0.000090  -0.000051  -0.000098  -0.000116   0.000129
     3  C    0.001295   0.000477  -0.000431  -0.000103  -0.000103
     4  C   -0.001235  -0.000580  -0.000193   0.000113  -0.000160
     5  C   -0.000159  -0.000074   0.000002   0.000002   0.000003
     6  C   -0.000007   0.000001   0.000030   0.000001  -0.000002
     7  N    0.000120   0.000137  -0.000076   0.000030  -0.000092
     8  C   -0.000419  -0.000197   0.000003   0.000012  -0.000023
     9  N   -0.000108  -0.000238  -0.000002  -0.000005  -0.000009
    10  O   -0.000000  -0.000000  -0.000000   0.000000  -0.000000
    11  C    0.000328  -0.000158  -0.000012  -0.000007   0.000001
    12  C   -0.000150   0.000384   0.000019   0.000002   0.000003
    13  C    0.000002   0.000087   0.000001   0.000000   0.000000
    14  H    0.000000   0.000000   0.000021  -0.000000   0.000014
    15  H    0.000000   0.000000   0.000000  -0.000000   0.000000
    16  H   -0.000026  -0.000026  -0.000012   0.000000  -0.000014
    17  H   -0.000003  -0.000007  -0.000000   0.000000  -0.000000
    18  H   -0.000000   0.000000  -0.000000  -0.000000  -0.000000
    19  H   -0.000000  -0.000000   0.000000  -0.000000   0.000000
    20  H    0.000000   0.000000  -0.000000  -0.000000  -0.000000
    21  H   -0.000001  -0.000001   0.000000  -0.000000   0.000000
    22  H   -0.000000  -0.000000  -0.000000  -0.000000  -0.000000
    23  H   -0.000000  -0.000000  -0.000000   0.000000   0.000000
    24  H    0.000000   0.000000  -0.000000  -0.000000  -0.000000
    25  O   -0.000000   0.000000   0.000000   0.000000   0.000000
    26  C   -0.000000  -0.000000  -0.000000   0.000000   0.000000
    27  F    0.000000   0.000000   0.000000  -0.000000   0.000000
    28  F    0.000000  -0.000000  -0.000000   0.000000   0.000000
    29  F    0.000000   0.000000   0.000000  -0.000000   0.000000
    30  H   -0.000000  -0.000000  -0.000000   0.000000  -0.000000
    31  H    0.000000   0.000000  -0.000000   0.000000  -0.000000
    32  O    0.002563   0.000866  -0.005074   0.002052  -0.005144
    33  O   -0.002917  -0.001908   0.000116  -0.000201   0.000149
    34  C   -0.084708  -0.082484  -0.006214   0.035477  -0.007953
    35  C    0.456244   0.449584  -0.058860  -0.082762  -0.053962
    36  C   -0.052424  -0.047630   0.423112   0.385640   0.419184
    37  H    0.505359  -0.030205  -0.003935  -0.002034   0.003706
    38  H   -0.030205   0.506062   0.003708  -0.002064  -0.003959
    39  H   -0.003935   0.003708   0.489558  -0.030147  -0.027118
    40  H   -0.002034  -0.002064  -0.030147   0.552622  -0.030124
    41  H    0.003706  -0.003959  -0.027118  -0.030124   0.488872
 Mulliken charges:
               1
     1  C   -0.292788
     2  C    0.109885
     3  C   -0.668279
     4  C    0.148831
     5  C    0.335450
     6  C   -0.482497
     7  N   -0.674769
     8  C    0.789191
     9  N   -0.716040
    10  O   -0.619911
    11  C   -0.222639
    12  C   -0.306869
    13  C   -0.772597
    14  H    0.275644
    15  H    0.269947
    16  H    0.515598
    17  H    0.515690
    18  H    0.194027
    19  H    0.218240
    20  H    0.217424
    21  H    0.252122
    22  H    0.197896
    23  H    0.196261
    24  H    0.201034
    25  O   -0.451769
    26  C    1.230042
    27  F   -0.347664
    28  F   -0.342129
    29  F   -0.343435
    30  H    0.207818
    31  H    0.204704
    32  O   -0.673687
    33  O   -0.638604
    34  C    0.677555
    35  C   -0.506287
    36  C   -0.718184
    37  H    0.208625
    38  H    0.208278
    39  H    0.215623
    40  H    0.171611
    41  H    0.216655
 Sum of Mulliken charges =  -1.00000
 Mulliken charges with hydrogens summed into heavy atoms:
               1
     1  C   -0.292788
     2  C    0.317703
     3  C   -0.392635
     4  C    0.148831
     5  C    0.605397
     6  C   -0.277793
     7  N   -0.159171
     8  C    0.789191
     9  N   -0.200349
    10  O   -0.619911
    11  C    0.189628
    12  C    0.162677
    13  C   -0.177407
    25  O   -0.451769
    26  C    1.230042
    27  F   -0.347664
    28  F   -0.342129
    29  F   -0.343435
    32  O   -0.673687
    33  O   -0.638604
    34  C    0.677555
    35  C   -0.089385
    36  C   -0.114297
         Mulliken charges condensed to fragments:
      1     -0.161583
      2     -0.838417
 Electronic spatial extent (au):  <R**2>=          12671.0147
 Charge=             -1.0000 electrons
 Dipole moment (field-independent basis, Debye):
    X=              3.5811    Y=             -0.2376    Z=             -0.0737  Tot=              3.5897
 Quadrupole moment (field-independent basis, Debye-Ang):
   XX=           -200.0410   YY=           -162.5676   ZZ=           -142.8649
   XY=              6.3373   XZ=              1.1209   YZ=             -0.0892
 Traceless Quadrupole moment (field-independent basis, Debye-Ang):
   XX=            -31.5498   YY=              5.9235   ZZ=             25.6263
   XY=              6.3373   XZ=              1.1209   YZ=             -0.0892
 Octapole moment (field-independent basis, Debye-Ang**2):
  XXX=             63.1190  YYY=             -0.9474  ZZZ=             18.9542  XYY=             94.4683
  XXY=            -24.4031  XXZ=             -8.5929  XZZ=             24.4215  YZZ=              1.5386
  YYZ=              1.8981  XYZ=              1.6096
 Hexadecapole moment (field-independent basis, Debye-Ang**3):
 XXXX=         -13935.7061 YYYY=          -4093.5403 ZZZZ=           -343.6302 XXXY=             36.8184
 XXXZ=            129.9063 YYYX=            -21.8128 YYYZ=             15.9973 ZZZX=             75.8265
 ZZZY=             -2.8441 XXYY=          -2773.3683 XXZZ=          -2119.7266 YYZZ=           -682.1392
 XXYZ=             -6.6541 YYXZ=             15.8545 ZZXY=             -0.8843
 N-N= 1.939276108659D+03 E-N=-6.836327836093D+03  KE= 1.243804115858D+03
 CPIOFr:  IOpCl= 0 IRwI=-1 IRwCP=  731 ICalc= -1 LCPTot=      349547 Len1MO=      903804 IndFrg=      349547
 CPIOFr:  IOpCl= 0 IRwI=-1 IRwCP=  731 ICalc=  0 LCPTot=      349547 Len1MO=      903804 IndFrg=     1253351
 Counterpoise: doing DCBS calculation for fragment   1 NewBq=T
 Basis read from rwf:  (6D, 7F)
 There are   473 symmetry adapted cartesian basis functions of A   symmetry.
 There are   473 symmetry adapted basis functions of A   symmetry.
   473 basis functions,   808 primitive gaussians,   473 cartesian basis functions
    68 alpha electrons       68 beta electrons
       nuclear repulsion energy      1299.4981346942 Hartrees.
 NAtoms=   41 NActive=   41 NUniq=   41 SFac= 1.00D+00 NAtFMM=   60 NAOKFM=F Big=F
 Integral buffers will be    131072 words long.
 Raffenetti 2 integral format.
 Two-electron integral symmetry is turned on.
 One-electron integrals computed using PRISM.
 NBasis=   473 RedAO= T EigKep=  1.48D-06  NBF=   473
 NBsUse=   472 1.00D-06 EigRej=  8.98D-07 NBFU=   472
 ExpMin= 4.38D-02 ExpMax= 7.00D+03 ExpMxC= 1.05D+03 IAcc=3 IRadAn=         5 AccDes= 0.00D+00
 Harris functional with IExCor= 1009 and IRadAn=       5 diagonalized for initial guess.
 HarFok:  IExCor= 1009 AccDes= 0.00D+00 IRadAn=         5 IDoV= 1 UseB2=F ITyADJ=14
 ICtDFT=  3500011 ScaDFX=  1.000000  1.000000  1.000000  1.000000
 FoFCou: FMM=F IPFlag=           0 FMFlag=      100000 FMFlg1=           0
         NFxFlg=           0 DoJE=T BraDBF=F KetDBF=T FulRan=T
         wScrn=  0.000000 ICntrl=     500 IOpCl=  0 I1Cent=   200000004 NGrid=           0
         NMat0=    1 NMatS0=      1 NMatT0=    0 NMatD0=    1 NMtDS0=    0 NMtDT0=    0
 Petite list used in FoFCou.
 Requested convergence on RMS density matrix=1.00D-08 within 128 cycles.
 Requested convergence on MAX density matrix=1.00D-06.
 Requested convergence on             energy=1.00D-06.
 No special actions if energy rises.
 SCF Done:  E(RM062X) =  -986.163164292     A.U. after   15 cycles
            NFock= 15  Conv=0.28D-08     -V/T= 2.0082

 **********************************************************************

            Population analysis using the SCF density.

 **********************************************************************

 Orbital symmetries:
       Occupied  (A) (A) (A) (A) (A) (A) (A) (A) (A) (A) (A) (A)
                 (A) (A) (A) (A) (A) (A) (A) (A) (A) (A) (A) (A)
                 (A) (A) (A) (A) (A) (A) (A) (A) (A) (A) (A) (A)
                 (A) (A) (A) (A) (A) (A) (A) (A) (A) (A) (A) (A)
                 (A) (A) (A) (A) (A) (A) (A) (A) (A) (A) (A) (A)
                 (A) (A) (A) (A) (A) (A) (A) (A)
       Virtual   (A) (A) (A) (A) (A) (A) (A) (A) (A) (A) (A) (A)
                 (A) (A) (A) (A) (A) (A) (A) (A) (A) (A) (A) (A)
                 (A) (A) (A) (A) (A) (A) (A) (A) (A) (A) (A) (A)
                 (A) (A) (A) (A) (A) (A) (A) (A) (A) (A) (A) (A)
                 (A) (A) (A) (A) (A) (A) (A) (A) (A) (A) (A) (A)
                 (A) (A) (A) (A) (A) (A) (A) (A) (A) (A) (A) (A)
                 (A) (A) (A) (A) (A) (A) (A) (A) (A) (A) (A) (A)
                 (A) (A) (A) (A) (A) (A) (A) (A) (A) (A) (A) (A)
                 (A) (A) (A) (A) (A) (A) (A) (A) (A) (A) (A) (A)
                 (A) (A) (A) (A) (A) (A) (A) (A) (A) (A) (A) (A)
                 (A) (A) (A) (A) (A) (A) (A) (A) (A) (A) (A) (A)
                 (A) (A) (A) (A) (A) (A) (A) (A) (A) (A) (A) (A)
                 (A) (A) (A) (A) (A) (A) (A) (A) (A) (A) (A) (A)
                 (A) (A) (A) (A) (A) (A) (A) (A) (A) (A) (A) (A)
                 (A) (A) (A) (A) (A) (A) (A) (A) (A) (A) (A) (A)
                 (A) (A) (A) (A) (A) (A) (A) (A) (A) (A) (A) (A)
                 (A) (A) (A) (A) (A) (A) (A) (A) (A) (A) (A) (A)
                 (A) (A) (A) (A) (A) (A) (A) (A) (A) (A) (A) (A)
                 (A) (A) (A) (A) (A) (A) (A) (A) (A) (A) (A) (A)
                 (A) (A) (A) (A) (A) (A) (A) (A) (A) (A) (A) (A)
                 (A) (A) (A) (A) (A) (A) (A) (A) (A) (A) (A) (A)
                 (A) (A) (A) (A) (A) (A) (A) (A) (A) (A) (A) (A)
                 (A) (A) (A) (A) (A) (A) (A) (A) (A) (A) (A) (A)
                 (A) (A) (A) (A) (A) (A) (A) (A) (A) (A) (A) (A)
                 (A) (A) (A) (A) (A) (A) (A) (A) (A) (A) (A) (A)
                 (A) (A) (A) (A) (A) (A) (A) (A) (A) (A) (A) (A)
                 (A) (A) (A) (A) (A) (A) (A) (A) (A) (A) (A) (A)
                 (A) (A) (A) (A) (A) (A) (A) (A) (A) (A) (A) (A)
                 (A) (A) (A) (A) (A) (A) (A) (A) (A) (A) (A) (A)
                 (A) (A) (A) (A) (A) (A) (A) (A) (A) (A) (A) (A)
                 (A) (A) (A) (A) (A) (A) (A) (A) (A) (A) (A) (A)
                 (A) (A) (A) (A) (A) (A) (A) (A) (A) (A) (A) (A)
                 (A) (A) (A) (A) (A) (A) (A) (A) (A) (A) (A) (A)
                 (A) (A) (A) (A) (A) (A) (A) (A)
 The electronic state is 1-A.
 Alpha  occ. eigenvalues --  -25.30397 -25.30342 -25.30279 -19.71374 -19.62126
 Alpha  occ. eigenvalues --  -14.82008 -14.80481 -10.85967 -10.69841 -10.62641
 Alpha  occ. eigenvalues --  -10.61938 -10.59360 -10.57582 -10.57477 -10.57114
 Alpha  occ. eigenvalues --  -10.56632 -10.56207 -10.55296  -1.48086  -1.38038
 Alpha  occ. eigenvalues --   -1.37821  -1.23636  -1.18501  -1.07465  -1.04665
 Alpha  occ. eigenvalues --   -0.97217  -0.90262  -0.87012  -0.86477  -0.81470
 Alpha  occ. eigenvalues --   -0.78760  -0.74444  -0.73310  -0.70703  -0.70495
 Alpha  occ. eigenvalues --   -0.70367  -0.69333  -0.66797  -0.64670  -0.62684
 Alpha  occ. eigenvalues --   -0.58914  -0.57841  -0.57156  -0.56665  -0.55401
 Alpha  occ. eigenvalues --   -0.54930  -0.54020  -0.53427  -0.53069  -0.52885
 Alpha  occ. eigenvalues --   -0.51487  -0.51285  -0.50743  -0.50121  -0.48887
 Alpha  occ. eigenvalues --   -0.47861  -0.47155  -0.45146  -0.44943  -0.44306
 Alpha  occ. eigenvalues --   -0.42095  -0.41498  -0.40981  -0.38758  -0.35374
 Alpha  occ. eigenvalues --   -0.33372  -0.32408  -0.27834
 Alpha virt. eigenvalues --   -0.02404   0.00410   0.01029   0.01143   0.02184
 Alpha virt. eigenvalues --    0.02300   0.02642   0.03121   0.04027   0.04342
 Alpha virt. eigenvalues --    0.04804   0.04912   0.05550   0.05708   0.05893
 Alpha virt. eigenvalues --    0.06549   0.06862   0.07251   0.07874   0.08199
 Alpha virt. eigenvalues --    0.08389   0.08702   0.09101   0.09483   0.09740
 Alpha virt. eigenvalues --    0.09865   0.10325   0.10872   0.11399   0.11659
 Alpha virt. eigenvalues --    0.11959   0.12636   0.12934   0.13463   0.14035
 Alpha virt. eigenvalues --    0.14215   0.14585   0.14992   0.15509   0.15604
 Alpha virt. eigenvalues --    0.16146   0.16581   0.17232   0.17377   0.17717
 Alpha virt. eigenvalues --    0.18240   0.18343   0.18698   0.19535   0.19635
 Alpha virt. eigenvalues --    0.20173   0.20402   0.20938   0.21047   0.21077
 Alpha virt. eigenvalues --    0.21301   0.22041   0.22134   0.22632   0.23346
 Alpha virt. eigenvalues --    0.23496   0.23854   0.24133   0.24594   0.24724
 Alpha virt. eigenvalues --    0.25097   0.25691   0.26106   0.26396   0.27030
 Alpha virt. eigenvalues --    0.27213   0.27281   0.27751   0.28120   0.28210
 Alpha virt. eigenvalues --    0.28598   0.28931   0.29211   0.29811   0.30434
 Alpha virt. eigenvalues --    0.30763   0.31018   0.31136   0.31835   0.32401
 Alpha virt. eigenvalues --    0.32497   0.32816   0.33195   0.33815   0.34397
 Alpha virt. eigenvalues --    0.34582   0.34944   0.35209   0.35572   0.36065
 Alpha virt. eigenvalues --    0.36402   0.37056   0.37412   0.37640   0.37977
 Alpha virt. eigenvalues --    0.38536   0.38914   0.39413   0.39625   0.39841
 Alpha virt. eigenvalues --    0.40640   0.40792   0.41278   0.41582   0.41780
 Alpha virt. eigenvalues --    0.42378   0.42512   0.43103   0.43917   0.44036
 Alpha virt. eigenvalues --    0.44772   0.45181   0.46083   0.46900   0.47394
 Alpha virt. eigenvalues --    0.48464   0.49543   0.49615   0.51746   0.52017
 Alpha virt. eigenvalues --    0.53620   0.54664   0.55637   0.56660   0.58322
 Alpha virt. eigenvalues --    0.59111   0.60979   0.61449   0.63667   0.63938
 Alpha virt. eigenvalues --    0.66213   0.67862   0.68470   0.69797   0.70298
 Alpha virt. eigenvalues --    0.72489   0.72923   0.73167   0.74052   0.74336
 Alpha virt. eigenvalues --    0.74922   0.75149   0.75463   0.76272   0.76662
 Alpha virt. eigenvalues --    0.77162   0.78029   0.79139   0.79776   0.80459
 Alpha virt. eigenvalues --    0.81020   0.82042   0.83288   0.84106   0.84650
 Alpha virt. eigenvalues --    0.85334   0.85928   0.86393   0.86830   0.87491
 Alpha virt. eigenvalues --    0.89252   0.90870   0.91627   0.91903   0.92157
 Alpha virt. eigenvalues --    0.92689   0.94270   0.94621   0.96751   0.98489
 Alpha virt. eigenvalues --    1.00881   1.01325   1.01768   1.02867   1.03553
 Alpha virt. eigenvalues --    1.03750   1.04960   1.06004   1.06378   1.07325
 Alpha virt. eigenvalues --    1.10167   1.11133   1.12725   1.13402   1.14412
 Alpha virt. eigenvalues --    1.16258   1.17002   1.17716   1.19088   1.19449
 Alpha virt. eigenvalues --    1.20250   1.21993   1.23147   1.23454   1.24761
 Alpha virt. eigenvalues --    1.26755   1.28114   1.28360   1.29893   1.30725
 Alpha virt. eigenvalues --    1.31301   1.32613   1.34536   1.36552   1.38601
 Alpha virt. eigenvalues --    1.38857   1.39771   1.40940   1.43044   1.44673
 Alpha virt. eigenvalues --    1.45356   1.46048   1.46411   1.48901   1.50390
 Alpha virt. eigenvalues --    1.51406   1.52365   1.54035   1.54088   1.54823
 Alpha virt. eigenvalues --    1.55710   1.56607   1.57627   1.63331   1.65765
 Alpha virt. eigenvalues --    1.67661   1.68349   1.69611   1.69714   1.70253
 Alpha virt. eigenvalues --    1.72627   1.72883   1.74344   1.74997   1.75676
 Alpha virt. eigenvalues --    1.78226   1.79523   1.82483   1.83995   1.85068
 Alpha virt. eigenvalues --    1.86900   1.87986   1.88753   1.89514   1.89870
 Alpha virt. eigenvalues --    1.90579   1.90773   1.91332   1.91992   1.92652
 Alpha virt. eigenvalues --    1.93375   1.94396   1.94535   1.96354   1.98363
 Alpha virt. eigenvalues --    1.99585   1.99825   2.00756   2.01567   2.01956
 Alpha virt. eigenvalues --    2.02523   2.04384   2.05240   2.05656   2.06152
 Alpha virt. eigenvalues --    2.07059   2.09582   2.11272   2.12306   2.12702
 Alpha virt. eigenvalues --    2.12862   2.13326   2.13700   2.14504   2.14614
 Alpha virt. eigenvalues --    2.15556   2.16643   2.19001   2.19386   2.20331
 Alpha virt. eigenvalues --    2.20827   2.22088   2.22984   2.23276   2.23824
 Alpha virt. eigenvalues --    2.28678   2.31757   2.32882   2.33502   2.34564
 Alpha virt. eigenvalues --    2.35048   2.35912   2.37484   2.39610   2.39824
 Alpha virt. eigenvalues --    2.40487   2.41015   2.43153   2.43807   2.44161
 Alpha virt. eigenvalues --    2.50683   2.51784   2.53961   2.56509   2.59797
 Alpha virt. eigenvalues --    2.60426   2.61009   2.62577   2.63621   2.64898
 Alpha virt. eigenvalues --    2.66132   2.66624   2.68458   2.68986   2.70409
 Alpha virt. eigenvalues --    2.70871   2.71970   2.73042   2.75466   2.75755
 Alpha virt. eigenvalues --    2.77630   2.79552   2.80435   2.81382   2.82414
 Alpha virt. eigenvalues --    2.82965   2.84113   2.85712   2.86659   2.87310
 Alpha virt. eigenvalues --    2.89020   2.94806   2.96076   2.97100   3.01522
 Alpha virt. eigenvalues --    3.02183   3.03828   3.05646   3.09459   3.12424
 Alpha virt. eigenvalues --    3.14151   3.14504   3.16830   3.22079   3.22316
 Alpha virt. eigenvalues --    3.24922   3.27798   3.29190   3.32043   3.34085
 Alpha virt. eigenvalues --    3.36775   3.38710   3.46196   3.52504   3.55924
 Alpha virt. eigenvalues --    3.64160   3.70110   3.76407   3.77501   3.85073
 Alpha virt. eigenvalues --    3.86756   4.04982   4.15879   4.23205   4.26777
 Alpha virt. eigenvalues --    4.28146   4.30766   4.34805   4.40951   4.41941
 Alpha virt. eigenvalues --    4.44478   4.44733   4.47382   4.51426   4.52616
 Alpha virt. eigenvalues --    4.55976   4.58002   4.61700   4.61787   4.65579
 Alpha virt. eigenvalues --    4.73085   4.79259   4.83075   4.86216   5.21385
 Alpha virt. eigenvalues --    5.22422   5.26818   5.56891   5.67769   5.73476
 Alpha virt. eigenvalues --    5.96589   6.46658   6.50117   6.63226  23.86992
 Alpha virt. eigenvalues --   24.10727  24.29896  38.21336  38.79864
          Condensed to atoms (all electrons):
               1          2          3          4          5          6
     1  C    9.421820  -0.124085  -0.326051  -1.847394  -1.646150   0.940250
     2  C   -0.124085  11.177696  -0.311628  -0.751324   0.617305  -5.165391
     3  C   -0.326051  -0.311628  13.781571   0.673779  -6.666645   1.325691
     4  C   -1.847394  -0.751324   0.673779  12.774790  -1.112496  -2.033616
     5  C   -1.646150   0.617305  -6.666645  -1.112496  14.463221  -2.220992
     6  C    0.940250  -5.165391   1.325691  -2.033616  -2.220992  14.169671
     7  N   -0.040994   0.022048   0.061241   0.404064  -0.255941   0.015284
     8  C   -0.268017   0.219433  -1.436908  -0.995215   1.237954  -0.762734
     9  N   -0.007099  -0.003302  -0.201193  -0.202435   0.131391  -0.017050
    10  O    0.018410  -0.016294  -0.170484  -0.618868   0.543976   0.150209
    11  C   -0.018376   0.008256  -0.207310  -0.352032   0.071657  -0.077903
    12  C   -0.000141   0.000703   0.009648   0.017767  -0.012401  -0.000307
    13  C   -0.000120   0.000052  -0.003453  -0.008414   0.001389  -0.000439
    14  H   -0.000712   0.008062  -0.008111   0.198235   0.131906  -0.048847
    15  H    0.011154  -0.024157   0.018929   0.017221   0.241628   0.032767
    16  H    0.000926  -0.027261  -0.226159   0.086103   0.145266   0.011175
    17  H   -0.000233   0.000537  -0.007875  -0.000916   0.005396  -0.000979
    18  H    0.000035  -0.000044   0.000126   0.008075   0.000139   0.000425
    19  H   -0.000104   0.000168   0.000867  -0.008469  -0.006574  -0.001311
    20  H    0.000001   0.000004   0.000303   0.002180  -0.000470   0.000004
    21  H   -0.000004   0.000015  -0.000125  -0.002811   0.000027  -0.000033
    22  H   -0.000000   0.000001   0.000001  -0.000220  -0.000062  -0.000006
    23  H   -0.000000  -0.000000  -0.000001  -0.000029  -0.000003  -0.000000
    24  H    0.000000   0.000000   0.000009   0.000234  -0.000005   0.000001
    25  O    0.472933  -0.217382   0.000316   0.018641   0.021425  -0.207517
    26  C   -0.198937   0.008276   0.003219  -0.014413   0.027576   0.009383
    27  F    0.009822  -0.004280  -0.004189  -0.002948  -0.008201  -0.005660
    28  F   -0.033369   0.118583   0.013150  -0.007442  -0.007135  -0.074887
    29  F   -0.044693  -0.077686   0.001820  -0.002028  -0.008078   0.138456
    30  H   -0.007473   0.321263  -0.047710   0.042219  -0.003095  -0.004939
    31  H    0.003640   0.003865  -0.031748  -0.004868   0.024771   0.306605
    32  O   -0.004949  -0.027692  -0.051943   0.062443   0.027696   0.003983
    33  O    0.000005  -0.000704  -0.007557   0.002752   0.006683   0.000358
    34  C   -0.001560  -0.006890   0.016749  -0.006799  -0.011155   0.001912
    35  C   -0.001224  -0.002494  -0.021595   0.015199   0.003622  -0.000776
    36  C    0.000782   0.002457  -0.004894  -0.002690   0.002019   0.000575
    37  H    0.000000   0.000003   0.000003  -0.000007   0.000001   0.000000
    38  H    0.000000   0.000003  -0.000001  -0.000008  -0.000000   0.000000
    39  H   -0.000010  -0.000121  -0.000148   0.000269   0.000018  -0.000001
    40  H   -0.000001  -0.000012  -0.000020   0.000027   0.000001  -0.000000
    41  H   -0.000009  -0.000118  -0.000128   0.000240   0.000014  -0.000001
               7          8          9         10         11         12
     1  C   -0.040994  -0.268017  -0.007099   0.018410  -0.018376  -0.000141
     2  C    0.022048   0.219433  -0.003302  -0.016294   0.008256   0.000703
     3  C    0.061241  -1.436908  -0.201193  -0.170484  -0.207310   0.009648
     4  C    0.404064  -0.995215  -0.202435  -0.618868  -0.352032   0.017767
     5  C   -0.255941   1.237954   0.131391   0.543976   0.071657  -0.012401
     6  C    0.015284  -0.762734  -0.017050   0.150209  -0.077903  -0.000307
     7  N    7.865260   0.055095  -0.451904  -0.040642  -0.238276   0.015952
     8  C    0.055095   6.809279   0.355798   0.678697  -0.721895   0.140373
     9  N   -0.451904   0.355798   7.732247  -0.162158   0.402265  -0.050765
    10  O   -0.040642   0.678697  -0.162158   8.234138  -0.069524   0.007618
    11  C   -0.238276  -0.721895   0.402265  -0.069524   6.990022  -0.320431
[...]
    27  F    0.000000  -0.000000   0.000000   0.000000   0.000000  -0.000000
    28  F    0.000000  -0.000000   0.000000   0.000000   0.000000  -0.000000
    29  F    0.000000  -0.000000   0.000000   0.000000   0.000000  -0.000000
    30  H   -0.000000  -0.000000   0.000000   0.000000  -0.000000   0.000000
    31  H   -0.000000  -0.000000   0.000000   0.000000  -0.000000   0.000000
              25         26         27         28         29         30
     1  C    0.507748  -0.181091   0.012079  -0.033630  -0.033391  -0.018376
     2  C   -0.231122  -0.038466  -0.016679   0.111413  -0.083918   0.361633
     3  C   -0.034134   0.023350   0.006923   0.023693   0.009131  -0.080928
     4  C    0.008145  -0.020260  -0.005575  -0.009141  -0.006499   0.044675
     5  C    0.048377   0.030919  -0.000002   0.000892  -0.003853  -0.012588
     6  C   -0.206771   0.021750  -0.011417  -0.084059   0.126058   0.005586
     7  N   -0.000176   0.000291   0.000003   0.000080  -0.000032   0.000212
     8  C    0.005943   0.000323  -0.000029  -0.000331  -0.000703   0.003450
     9  N   -0.000010   0.000100   0.000000   0.000001  -0.000001   0.000000
    10  O    0.000012   0.000087   0.000000   0.000000   0.000002  -0.000001
    11  C    0.000098   0.000119  -0.000000  -0.000001  -0.000004   0.000026
    12  C   -0.000000  -0.000002  -0.000000  -0.000000  -0.000000  -0.000000
    13  C    0.000000   0.000000   0.000000  -0.000000  -0.000000   0.000000
    14  H   -0.000389  -0.000079  -0.000001  -0.000006  -0.000006  -0.003613
    15  H   -0.000317  -0.000298  -0.000001  -0.000004   0.000005   0.000011
    16  H    0.000007   0.000036  -0.000000  -0.000000   0.000000  -0.000018
    17  H    0.000000  -0.000001   0.000000   0.000000   0.000000  -0.000000
    18  H   -0.000000   0.000000   0.000000   0.000000  -0.000000  -0.000000
    19  H    0.000000  -0.000000   0.000000   0.000000   0.000000  -0.000000
    20  H   -0.000000  -0.000000  -0.000000  -0.000000  -0.000000  -0.000000
    21  H    0.000000   0.000000   0.000000   0.000000   0.000000   0.000000
    22  H    0.000000   0.000000   0.000000   0.000000   0.000000   0.000000
    23  H    0.000000  -0.000000   0.000000   0.000000   0.000000  -0.000000
    24  H   -0.000000  -0.000000  -0.000000  -0.000000  -0.000000   0.000000
    25  O    8.227795   0.253433  -0.039446  -0.058052  -0.057340   0.003933
    26  C    0.253433   3.973183   0.246624   0.226281   0.229898   0.000967
    27  F   -0.039446   0.246624   9.232819  -0.045654  -0.045787  -0.000254
    28  F   -0.058052   0.226281  -0.045654   9.264440  -0.055225  -0.002002
    29  F   -0.057340   0.229898  -0.045787  -0.055225   9.260245   0.000055
    30  H    0.003933   0.000967  -0.000254  -0.002002   0.000055   0.466575
    31  H    0.003831   0.001116  -0.000277   0.000046  -0.001973  -0.000121
              31
     1  C   -0.004966
     2  C    0.025161
     3  C   -0.046558
     4  C    0.002814
     5  C   -0.025526
     6  C    0.350604
     7  N   -0.000616
     8  C    0.002047
     9  N    0.000004
    10  O    0.000124
    11  C    0.000016
    12  C    0.000001
    13  C   -0.000000
    14  H    0.000014
    15  H   -0.003197
    16  H    0.000003
    17  H   -0.000000
    18  H   -0.000000
    19  H   -0.000000
    20  H   -0.000000
    21  H    0.000000
    22  H    0.000000
    23  H   -0.000000
    24  H    0.000000
    25  O    0.003831
    26  C    0.001116
    27  F   -0.000277
    28  F    0.000046
    29  F   -0.001973
    30  H   -0.000121
    31  H    0.462928
 Mulliken charges:
               1
     1  C   -0.347395
     2  C    0.081035
     3  C   -1.114646
     4  C    0.051993
     5  C    0.813273
     6  C   -0.315330
     7  N   -0.620822
     8  C    0.831766
     9  N   -0.635441
    10  O   -0.587364
    11  C   -0.166804
    12  C   -0.316624
    13  C   -0.736016
    14  H    0.192350
    15  H    0.279025
    16  H    0.399483
    17  H    0.391509
    18  H    0.218852
    19  H    0.246752
    20  H    0.227037
    21  H    0.203600
    22  H    0.216727
    23  H    0.215121
    24  H    0.215195
    25  O   -0.431565
    26  C    1.231718
    27  F   -0.333326
    28  F   -0.338741
    29  F   -0.336663
    30  H    0.230776
    31  H    0.234526
    32  O    0.000000
    33  O    0.000000
    34  C    0.000000
    35  C    0.000000
    36  C    0.000000
    37  H    0.000000
    38  H    0.000000
    39  H    0.000000
    40  H    0.000000
    41  H    0.000000
 Sum of Mulliken charges =  -0.00000
 Mulliken charges with hydrogens summed into heavy atoms:
               1
     1  C   -0.347395
     2  C    0.311811
     3  C   -0.922296
     4  C    0.051993
     5  C    1.092298
     6  C   -0.080804
     7  N   -0.221339
     8  C    0.831766
     9  N   -0.243932
    10  O   -0.587364
    11  C    0.298800
    12  C    0.114013
    13  C   -0.088973
    25  O   -0.431565
    26  C    1.231718
    27  F   -0.333326
    28  F   -0.338741
    29  F   -0.336663
    32  O    0.000000
    33  O    0.000000
    34  C    0.000000
    35  C    0.000000
    36  C    0.000000
         Mulliken charges condensed to fragments:
      1     -0.000000
      2      0.000000
 Electronic spatial extent (au):  <R**2>=           9713.0412
 Charge=             -0.0000 electrons
 Dipole moment (field-independent basis, Debye):
    X=             -6.4200    Y=              3.0055    Z=             -0.0786  Tot=              7.0891
 Quadrupole moment (field-independent basis, Debye-Ang):
   XX=           -107.6450   YY=           -107.4300   ZZ=           -109.4311
   XY=             -1.0029   XZ=             -2.4707   YZ=             -0.3791
 Traceless Quadrupole moment (field-independent basis, Debye-Ang):
   XX=              0.5237   YY=              0.7386   ZZ=             -1.2624
   XY=             -1.0029   XZ=             -2.4707   YZ=             -0.3791
 Octapole moment (field-independent basis, Debye-Ang**2):
  XXX=           -389.9507  YYY=            304.4053  ZZZ=             25.0744  XYY=            -49.4511
  XXY=             68.0225  XXZ=              6.0453  XZZ=            -69.5775  YZZ=             94.4295
  YYZ=              1.6685  XYZ=              1.1209
 Hexadecapole moment (field-independent basis, Debye-Ang**3):
 XXXX=         -10512.2212 YYYY=          -1582.0635 ZZZZ=           -282.7272 XXXY=           -705.2394
 XXXZ=             18.1279 YYYX=           -850.8722 YYYZ=             18.5960 ZZZX=             38.3687
 ZZZY=              8.1098 XXYY=          -1846.1609 XXZZ=          -1768.0616 YYZZ=           -304.5921
 XXYZ=              6.7668 YYXZ=             -3.5741 ZZXY=           -269.3556
 N-N= 1.299498134694D+03 E-N=-4.908660844657D+03  KE= 9.781125703628D+02
 CPIOFr:  IOpCl= 0 IRwI=-1 IRwCP=  731 ICalc=  3 LCPTot=      349547 Len1MO=      903804 IndFrg=     3964763
 Counterpoise: doing MCBS calculation for fragment   2
 Basis read from rwf:  (6D, 7F)
 There are   105 symmetry adapted cartesian basis functions of A   symmetry.
 There are   105 symmetry adapted basis functions of A   symmetry.
   105 basis functions,   180 primitive gaussians,   105 cartesian basis functions
    20 alpha electrons       20 beta electrons
       nuclear repulsion energy       168.5345471569 Hartrees.
 NAtoms=   41 NActive=   10 NUniq=   10 SFac= 1.00D+00 NAtFMM=   60 NAOKFM=F Big=F
 Integral buffers will be    131072 words long.
 Raffenetti 2 integral format.
 Two-electron integral symmetry is turned on.
 One-electron integrals computed using PRISM.
 NBasis=   105 RedAO= T EigKep=  1.23D-04  NBF=   105
 NBsUse=   105 1.00D-06 EigRej= -1.00D+00 NBFU=   105
 ExpMin= 4.38D-02 ExpMax= 5.48D+03 ExpMxC= 8.25D+02 IAcc=3 IRadAn=         5 AccDes= 0.00D+00
 Harris functional with IExCor= 1009 and IRadAn=       5 diagonalized for initial guess.
 HarFok:  IExCor= 1009 AccDes= 0.00D+00 IRadAn=         5 IDoV= 1 UseB2=F ITyADJ=14
 ICtDFT=  3500011 ScaDFX=  1.000000  1.000000  1.000000  1.000000
 FoFCou: FMM=F IPFlag=           0 FMFlag=      100000 FMFlg1=           0
         NFxFlg=           0 DoJE=T BraDBF=F KetDBF=T FulRan=T
         wScrn=  0.000000 ICntrl=     500 IOpCl=  0 I1Cent=   200000004 NGrid=           0
         NMat0=    1 NMatS0=      1 NMatT0=    0 NMatD0=    1 NMtDS0=    0 NMtDT0=    0
 Petite list used in FoFCou.
 Keep R1 ints in memory in canonical form, NReq=16474372.
 Requested convergence on RMS density matrix=1.00D-08 within 128 cycles.
 Requested convergence on MAX density matrix=1.00D-06.
 Requested convergence on             energy=1.00D-06.
 No special actions if energy rises.
 SCF Done:  E(RM062X) =  -267.728556690     A.U. after   14 cycles
            NFock= 14  Conv=0.39D-08     -V/T= 2.0084

 **********************************************************************

            Population analysis using the SCF density.

 **********************************************************************

 Orbital symmetries:
       Occupied  (A) (A) (A) (A) (A) (A) (A) (A) (A) (A) (A) (A)
                 (A) (A) (A) (A) (A) (A) (A) (A)
       Virtual   (A) (A) (A) (A) (A) (A) (A) (A) (A) (A) (A) (A)
                 (A) (A) (A) (A) (A) (A) (A) (A) (A) (A) (A) (A)
                 (A) (A) (A) (A) (A) (A) (A) (A) (A) (A) (A) (A)
                 (A) (A) (A) (A) (A) (A) (A) (A) (A) (A) (A) (A)
                 (A) (A) (A) (A) (A) (A) (A) (A) (A) (A) (A) (A)
                 (A) (A) (A) (A) (A) (A) (A) (A) (A) (A) (A) (A)
                 (A) (A) (A) (A) (A) (A) (A) (A) (A) (A) (A) (A)
                 (A)
 The electronic state is 1-A.
 Alpha  occ. eigenvalues --  -19.38339 -19.37987 -10.43629 -10.38679 -10.37515
 Alpha  occ. eigenvalues --   -0.94247  -0.84560  -0.69893  -0.55984  -0.39473
 Alpha  occ. eigenvalues --   -0.36260  -0.33525  -0.30131  -0.27610  -0.27399
 Alpha  occ. eigenvalues --   -0.25023  -0.22651  -0.10908  -0.10836  -0.10198
 Alpha virt. eigenvalues --    0.14622   0.16490   0.18640   0.19566   0.21557
 Alpha virt. eigenvalues --    0.21831   0.22419   0.22883   0.23462   0.25913
 Alpha virt. eigenvalues --    0.28395   0.29745   0.30030   0.38009   0.38909
 Alpha virt. eigenvalues --    0.42263   0.42501   0.43636   0.45462   0.46253
 Alpha virt. eigenvalues --    0.46729   0.48000   0.49557   0.49779   0.50775
 Alpha virt. eigenvalues --    0.55076   0.56084   0.57215   0.71665   0.75246
 Alpha virt. eigenvalues --    0.84465   0.86647   0.89641   0.92059   0.94829
 Alpha virt. eigenvalues --    0.99500   1.01979   1.08499   1.10000   1.14592
 Alpha virt. eigenvalues --    1.20086   1.21333   1.31107   1.32728   1.33992
 Alpha virt. eigenvalues --    1.34590   1.49176   1.54739   1.57836   1.59133
 Alpha virt. eigenvalues --    1.61033   1.63174   1.63277   1.74388   1.78251
 Alpha virt. eigenvalues --    1.80795   1.86833   2.02458   2.02795   2.08639
 Alpha virt. eigenvalues --    2.10071   2.12054   2.14441   2.16427   2.22698
 Alpha virt. eigenvalues --    2.26521   2.28069   2.29496   2.45076   2.52388
 Alpha virt. eigenvalues --    2.54081   2.54317   2.73381   2.74144   2.78583
 Alpha virt. eigenvalues --    2.97796   3.13287   3.27249   3.32651   3.42485
 Alpha virt. eigenvalues --    4.36342   4.41506   4.58220   4.67009   4.82468
          Condensed to atoms (all electrons):
               1          2          3          4          5          6
     1  O    8.596482  -0.169028   0.462198  -0.323884   0.096217   0.001474
     2  O   -0.169028   8.617840   0.529344  -0.392937   0.079612  -0.002904
     3  C    0.462198   0.529344   4.832906  -0.358996   0.050678  -0.014979
     4  C   -0.323884  -0.392937  -0.358996   7.536629  -0.643927   0.388737
     5  C    0.096217   0.079612   0.050678  -0.643927   6.027762  -0.056251
     6  H    0.001474  -0.002904  -0.014979   0.388737  -0.056251   0.530347
     7  H    0.001177  -0.002793  -0.015324   0.388340  -0.055496  -0.032663
     8  H   -0.006551  -0.000083  -0.003480  -0.047571   0.410844  -0.004355
     9  H    0.002867  -0.000314   0.012286  -0.059652   0.378109  -0.002013
    10  H   -0.006680  -0.000121  -0.002027  -0.049295   0.411521   0.003870
               7          8          9         10
     1  O    0.001177  -0.006551   0.002867  -0.006680
     2  O   -0.002793  -0.000083  -0.000314  -0.000121
     3  C   -0.015324  -0.003480   0.012286  -0.002027
     4  C    0.388340  -0.047571  -0.059652  -0.049295
     5  C   -0.055496   0.410844   0.378109   0.411521
     6  H   -0.032663  -0.004355  -0.002013   0.003870
     7  H    0.530787   0.003868  -0.002046  -0.004340
     8  H    0.003868   0.500191  -0.033951  -0.025647
     9  H   -0.002046  -0.033951   0.588995  -0.033812
    10  H   -0.004340  -0.025647  -0.033812   0.498017
 Mulliken charges:
               1
     1  C    0.000000
     2  C    0.000000
     3  C    0.000000
     4  C    0.000000
     5  C    0.000000
     6  C    0.000000
     7  N    0.000000
     8  C    0.000000
     9  N    0.000000
    10  O    0.000000
    11  C    0.000000
    12  C    0.000000
    13  C    0.000000
    14  H    0.000000
    15  H    0.000000
    16  H    0.000000
    17  H    0.000000
    18  H    0.000000
    19  H    0.000000
    20  H    0.000000
    21  H    0.000000
    22  H    0.000000
    23  H    0.000000
    24  H    0.000000
    25  O    0.000000
    26  C    0.000000
    27  F    0.000000
    28  F    0.000000
    29  F    0.000000
    30  H    0.000000
    31  H    0.000000
    32  O   -0.654271
    33  O   -0.658616
    34  C    0.507393
    35  C   -0.437443
    36  C   -0.699069
    37  H    0.188736
    38  H    0.188489
    39  H    0.206735
    40  H    0.149533
    41  H    0.208514
 Sum of Mulliken charges =  -1.00000
 Mulliken charges with hydrogens summed into heavy atoms:
               1
     1  C    0.000000
     2  C    0.000000
     3  C    0.000000
     4  C    0.000000
     5  C    0.000000
     6  C    0.000000
     7  N    0.000000
     8  C    0.000000
     9  N    0.000000
    10  O    0.000000
    11  C    0.000000
    12  C    0.000000
    13  C    0.000000
    25  O    0.000000
    26  C    0.000000
    27  F    0.000000
    28  F    0.000000
    29  F    0.000000
    32  O   -0.654271
    33  O   -0.658616
    34  C    0.507393
    35  C   -0.060219
    36  C   -0.134287
         Mulliken charges condensed to fragments:
      1      0.000000
      2     -1.000000
 Electronic spatial extent (au):  <R**2>=           2948.2371
 Charge=             -1.0000 electrons
 Dipole moment (field-independent basis, Debye):
    X=             13.6068    Y=             -8.5132    Z=             -0.3004  Tot=             16.0533
 Quadrupole moment (field-independent basis, Debye-Ang):
   XX=            -80.4010   YY=            -54.5922   ZZ=            -32.8784
   XY=             21.3955   XZ=              3.0292   YZ=              0.1932
 Traceless Quadrupole moment (field-independent basis, Debye-Ang):
   XX=            -24.4438   YY=              1.3650   ZZ=             23.0788
   XY=             21.3955   XZ=              3.0292   YZ=              0.1932
 Octapole moment (field-independent basis, Debye-Ang**2):
  XXX=            480.5182  YYY=           -385.3324  ZZZ=             -6.7897  XYY=            148.6705
  XXY=           -170.2826  XXZ=            -18.1394  XZZ=             97.8014  YZZ=            -99.2593
  YYZ=             -0.5158  XYZ=              3.6193
 Hexadecapole moment (field-independent basis, Debye-Ang**3):
 XXXX=          -2691.9504 YYYY=          -2647.1153 ZZZZ=            -57.3267 XXXY=           1145.6921
 XXXZ=            106.4720 YYYX=           1073.5429 YYYZ=             -5.9675 ZZZX=             33.9335
 ZZZY=            -12.7570 XXYY=           -842.6487 XXZZ=           -329.5273 YYZZ=           -376.9614
 XXYZ=            -27.9699 YYXZ=             15.6052 ZZXY=            287.3922
 N-N= 1.685345471569D+02 E-N=-9.724103502299D+02  KE= 2.654881394071D+02
 CPIOFr:  IOpCl= 0 IRwI=-1 IRwCP=  731 ICalc=  4 LCPTot=      349547 Len1MO=      903804 IndFrg=     4868567
 CPIOFr:  IOpCl= 0 IRwI=-2 IRwCP=  731 ICalc=  0 LCPTot=      349547 Len1MO=      903804 IndFrg=     1253351
 Counterpoise corrected energy =   -1253.966144115017
                   BSSE energy =       0.001717077889
               sum of monomers =   -1253.890948412708
           complexation energy =     -48.26 kcal/mole (raw)
           complexation energy =     -47.19 kcal/mole (corrected)
 1\1\GINC-R3748\SP\RM062X\Gen\C14H18F3N2O4(1-)\ROOT\21-Feb-2019\0\\# M0
 62X/Gen 6D SCF=Tight INT(grid=ultrafine) Counterpoise=2 maxdisk=671088
 640\\4OCF3_EtO.M062X_6-31pGd_bsse\\-1,1\C,0,-4.1209097705,3.4424910541
 ,-1.3799444748\C,0,-4.1052076088,2.0954007873,-1.0401697045\C,0,-2.965
 8445547,1.5566111751,-0.4617494039\C,0,-1.8281101212,2.3575026148,-0.2
 208397262\C,0,-1.8689833302,3.7188545196,-0.578184316\C,0,-3.018010331
 2,4.2508902933,-1.1591058991\N,0,-0.7410414448,1.7246339847,0.35353447
 38\C,0,0.4787159723,2.2870895368,0.6943822967\N,0,1.340571198,1.384330
 8877,1.2265721134\O,0,0.7624850824,3.4769606533,0.5259353435\C,0,2.622
 9847843,1.8102597062,1.7360282853\C,0,3.5268690616,0.600094922,1.94848
 83068\C,0,4.8755960349,0.9998856849,2.5425428114\H,0,-2.9261880482,0.5
 054815207,-0.1854239084\H,0,-1.0004272577,4.3375659605,-0.3993699327\H
 ,0,-0.8725052848,0.7118342355,0.5491955326\H,0,1.0233249803,0.42496263
 48,1.4563774944\H,0,2.5078329284,2.3598635644,2.6852396268\H,0,3.07429
 84854,2.5111297952,1.0235019331\H,0,3.668637523,0.0935490462,0.9860681
 447\H,0,3.0178855726,-0.1203404048,2.5997434902\H,0,5.3996470611,1.709
 131748,1.8904231402\H,0,5.5251636498,0.1294198572,2.6824441385\H,0,4.7
 473586371,1.4815146691,3.5191965719\O,0,-5.260021329,3.9800052093,-2.0
 290332779\C,0,-6.198279842,4.5065806026,-1.2361722299\F,0,-7.196445226
 ,4.9521542458,-2.0069694527\F,0,-6.7187238747,3.6224173586,-0.36825652
 66\F,0,-5.7556690009,5.5446754522,-0.5057350515\H,0,-4.9799765549,1.48
 0622768,-1.2300730155\H,0,-3.0573094591,5.2986398513,-1.4427412544\O,0
 ,-1.3158800293,-0.9663864447,0.8150621665\O,0,0.6191649939,-1.25621143
 58,1.9185733369\C,0,-0.4905383421,-1.6504149799,1.4778970862\C,0,-0.86
 0260389,-3.1121620552,1.7834276928\C,0,-2.2223465243,-3.5424874055,1.2
 530157813\H,0,-0.8019261543,-3.2382563446,2.871610103\H,0,-0.060341377
 ,-3.738105084,1.3683957669\H,0,-3.015937903,-2.921617782,1.6789892259\
 H,0,-2.4306417376,-4.5919846893,1.4957447566\H,0,-2.2696204699,-3.4182
 377135,0.1673185546\\Version=ES64L-G09RevE.01\State=1-A\HF=-267.728556
 7\RMSD=3.932e-09\Dipole=-1.095091,0.724465,-0.4874955\Quadrupole=-8.79
 07108,-4.9090517,13.6997625,11.8877559,-10.8640316,8.969983\PG=C01 [X(
 C14H18F3N2O4)]\\@


 ALMOST ANYTHING IS EASIER TO GET INTO THAN OUT OF.

                         -- AGNES ALLEN'S LAW FROM
                PAUL DICKSON'S "THE OFFICIAL RULES"
 Job cpu time:       0 days  1 hours 46 minutes 15.2 seconds.
 File lengths (MBytes):  RWF=    184 Int=      0 D2E=      0 Chk=     51 Scr=      1
 Normal termination of Gaussian 09 at Thu Feb 21 15:58:13 2019.
WARNING: pbs_rusage is deprecated and values produced may not be accurate


=============================================================================
                                     Resource usage:
                                       CPU time:              01:42:34
   JobId:    5976476.r-man2            Elapsed time:          00:26:30
   Project:             q95            Requested time:        48:00:00
   Service Units:      1.77 
                                       Max physical memory:      155MB
                                       Max virtual memory:       409MB
                                       Requested memory:           0MB

                                       Number of cpus:               4

                                       Max jobfs disk use:       0.2GB
                                       Requested jobfs:          5.0GB
=============================================================================

