 Entering Gaussian System, Link 0=/apps/gaussian/g09e01/g09/g09
 AtFile(1): /home/507/hio507/Basis/6-31pGd.gbs
 Initial command:
 /apps/gaussian/g09e01/g09/l1.exe "/jobfs/local/5875389.r-man2/Gau-34538.inp" -scrdir="/jobfs/local/5875389.r-man2/"
 Entering Link 1 = /apps/gaussian/g09e01/g09/l1.exe PID=     34539.
  
 Copyright (c) 1988,1990,1992,1993,1995,1998,2003,2009,2015,
            Gaussian, Inc.  All Rights Reserved.
  
 This is part of the Gaussian(R) 09 program.  It is based on
 the Gaussian(R) 03 system (copyright 2003, Gaussian, Inc.),
 the Gaussian(R) 98 system (copyright 1998, Gaussian, Inc.),
 the Gaussian(R) 94 system (copyright 1995, Gaussian, Inc.),
 the Gaussian 92(TM) system (copyright 1992, Gaussian, Inc.),
 the Gaussian 90(TM) system (copyright 1990, Gaussian, Inc.),
 the Gaussian 88(TM) system (copyright 1988, Gaussian, Inc.),
 the Gaussian 86(TM) system (copyright 1986, Carnegie Mellon
 University), and the Gaussian 82(TM) system (copyright 1983,
 Carnegie Mellon University). Gaussian is a federally registered
 trademark of Gaussian, Inc.
  
 This software contains proprietary and confidential information,
 including trade secrets, belonging to Gaussian, Inc.
  
 This software is provided under written license and may be
 used, copied, transmitted, or stored only in accord with that
 written license.
  
 The following legend is applicable only to US Government
 contracts under FAR:
  
                    RESTRICTED RIGHTS LEGEND
  
 Use, reproduction and disclosure by the US Government is
 subject to restrictions as set forth in subparagraphs (a)
 and (c) of the Commercial Computer Software - Restricted
 Rights clause in FAR 52.227-19.
  
 Gaussian, Inc.
 340 Quinnipiac St., Bldg. 40, Wallingford CT 06492
  
  
 ---------------------------------------------------------------
 Warning -- This program may not be used in any manner that
 competes with the business of Gaussian, Inc. or will provide
 assistance to any competitor of Gaussian, Inc.  The licensee
 of this program is prohibited from giving any competitor of
 Gaussian, Inc. access to this program.  By using this program,
 the user acknowledges that Gaussian, Inc. is engaged in the
 business of creating and licensing software in the field of
 computational chemistry and represents and warrants to the
 licensee that it is not a competitor of Gaussian, Inc. and that
 it will not use this program in any manner prohibited above.
 ---------------------------------------------------------------
  

 Cite this work as:
 Gaussian 09, Revision E.01,
 M. J. Frisch, G. W. Trucks, H. B. Schlegel, G. E. Scuseria, 
 M. A. Robb, J. R. Cheeseman, G. Scalmani, V. Barone, B. Mennucci, 
 G. A. Petersson, H. Nakatsuji, M. Caricato, X. Li, H. P. Hratchian, 
 A. F. Izmaylov, J. Bloino, G. Zheng, J. L. Sonnenberg, M. Hada, 
 M. Ehara, K. Toyota, R. Fukuda, J. Hasegawa, M. Ishida, T. Nakajima, 
 Y. Honda, O. Kitao, H. Nakai, T. Vreven, J. A. Montgomery, Jr., 
 J. E. Peralta, F. Ogliaro, M. Bearpark, J. J. Heyd, E. Brothers, 
 K. N. Kudin, V. N. Staroverov, T. Keith, R. Kobayashi, J. Normand, 
 K. Raghavachari, A. Rendell, J. C. Burant, S. S. Iyengar, J. Tomasi, 
 M. Cossi, N. Rega, J. M. Millam, M. Klene, J. E. Knox, J. B. Cross, 
 V. Bakken, C. Adamo, J. Jaramillo, R. Gomperts, R. E. Stratmann, 
 O. Yazyev, A. J. Austin, R. Cammi, C. Pomelli, J. W. Ochterski, 
 R. L. Martin, K. Morokuma, V. G. Zakrzewski, G. A. Voth, 
 P. Salvador, J. J. Dannenberg, S. Dapprich, A. D. Daniels, 
 O. Farkas, J. B. Foresman, J. V. Ortiz, J. Cioslowski, 
 and D. J. Fox, Gaussian, Inc., Wallingford CT, 2013.
 
 ******************************************
 Gaussian 09:  ES64L-G09RevE.01 30-Nov-2015
                19-Feb-2019 
 ******************************************
 %chk=4OCF3_EtO.M062X_6-31pGd_opt_water.chk
 %mem=196608000
 %nproc=8
 Will use up to    8 processors via shared memory.
 ----------------------------------------------------------------------
 # M062X/Gen 6D SCF=Tight INT(grid=ultrafine) OPT IOP(2/17=4) SCRF=(SMD
 ,Solvent=h2o) maxdisk=2684354560
 ----------------------------------------------------------------------
 1/14=-1,18=20,19=15,26=4,38=1/1,3;
 2/9=110,12=2,17=4,18=5,40=1/2;
 3/5=7,8=2,11=2,16=1,25=1,30=1,70=32201,71=1,72=1,74=-55,75=-5/1,2,3;
 4//1;
 5/5=2,32=2,38=5,53=1/2;
 6/7=2,8=2,9=2,10=2,28=1/1;
 7//1,2,3,16;
 1/14=-1,18=20,19=15,26=4/3(2);
 2/9=110,17=4/2;
 99//99;
 2/9=110,17=4/2;
 3/5=7,6=1,8=2,11=2,16=1,25=1,30=1,70=32205,71=1,72=1,74=-55,75=-5,82=7/1,2,3;
 4/5=5,16=3,69=1/1;
 5/5=2,32=2,38=5,53=1/2;
 7//1,2,3,16;
 1/14=-1,18=20,19=15,26=4/3(-5);
 2/9=110,17=4/2;
 6/7=2,8=2,9=2,10=2,19=2,28=1/1;
 99/9=1/99;
 ---------------------------------
 4OCF3_EtO.M062X_6-31pGd_opt_water
 ---------------------------------
 Symbolic Z-matrix:
 Charge = -1 Multiplicity = 1
 C                    -4.11773   4.02129  -1.09381 
 C                    -4.20943   2.65904  -0.76196 
 C                    -3.10225   1.98173  -0.24569 
 C                    -1.86929   2.63343  -0.04354 
 C                    -1.79196   4.00724  -0.38055 
 C                    -2.90341   4.68136  -0.89632 
 N                    -0.77376   1.85968   0.4889 
 C                     0.5068    2.28483   0.73628 
 N                     1.42578   1.40924   1.23784 
 O                     0.84588   3.43542   0.51196 
 C                     2.79512   1.81748   1.50695 
 C                     3.62328   0.65118   2.05664 
 C                     5.06194   1.07744   2.33374 
 H                    -3.21852   0.93395  -0.00582 
 H                    -0.90412   4.5998   -0.26496 
 H                    -0.9987    0.76305   0.72543 
 H                     1.11733   0.32945   1.44875 
 H                     2.79129   2.64498   2.25042 
 H                     3.25984   2.18025   0.56353 
 H                     3.6313   -0.17899   1.31711 
 H                     3.16747   0.28553   3.00247 
 H                     5.54749   1.42851   1.39823 
 H                     5.63634   0.2135    2.72949 
 H                     5.08476   1.8946    3.08588 
 O                    -5.15962   4.73191  -1.60174 
 C                    -6.42892   4.26043  -1.87561 
 F                    -7.19064   5.29494  -2.38337 
 F                    -6.37067   3.24803  -2.8173 
 F                    -7.02736   3.79458  -0.71814 
 H                    -5.12968   2.10831  -0.89796 
 H                    -2.81781   5.7318   -1.14678 
 O                    -1.46741  -1.22055   1.1169 
 O                     0.60302  -1.64613   1.82054 
 C                    -0.52788  -2.06004   1.60624 
 C                    -0.85013  -3.50148   1.89246 
 C                    -2.30104  -3.85558   1.57297 
 H                    -0.65982  -3.70549   2.96803 
 H                    -0.18093  -4.14643   1.28339 
 H                    -2.99287  -3.24065   2.18755 
 H                    -2.48122  -4.92714   1.80159 
 H                    -2.51308  -3.68215   0.4962 
 
 Add virtual bond connecting atoms O32        and H16        Dist= 3.92D+00.
 Add virtual bond connecting atoms O33        and H17        Dist= 3.92D+00.

 GradGradGradGradGradGradGradGradGradGradGradGradGradGradGradGradGradGrad
 Berny optimization.
 Initialization pass.
                           ----------------------------
                           !    Initial Parameters    !
                           ! (Angstroms and Degrees)  !
 --------------------------                            --------------------------
 ! Name  Definition              Value          Derivative Info.                !
 --------------------------------------------------------------------------------
 ! R1    R(1,2)                  1.4051         estimate D2E/DX2                !
 ! R2    R(1,6)                  1.3962         estimate D2E/DX2                !
 ! R3    R(1,25)                 1.3596         estimate D2E/DX2                !
 ! R4    R(2,3)                  1.3968         estimate D2E/DX2                !
 ! R5    R(2,30)                 1.081          estimate D2E/DX2                !
 ! R6    R(3,4)                  1.4092         estimate D2E/DX2                !
 ! R7    R(3,14)                 1.0812         estimate D2E/DX2                !
 ! R8    R(4,5)                  1.4167         estimate D2E/DX2                !
 ! R9    R(4,7)                  1.443          estimate D2E/DX2                !
 ! R10   R(5,6)                  1.3985         estimate D2E/DX2                !
 ! R11   R(5,15)                 1.0737         estimate D2E/DX2                !
 ! R12   R(6,31)                 1.0833         estimate D2E/DX2                !
 ! R13   R(7,8)                  1.3718         estimate D2E/DX2                !
 ! R14   R(7,16)                 1.1442         estimate D2E/DX2                !
 ! R15   R(8,9)                  1.3648         estimate D2E/DX2                !
 ! R16   R(8,10)                 1.2203         estimate D2E/DX2                !
 ! R17   R(9,11)                 1.454          estimate D2E/DX2                !
 ! R18   R(9,17)                 1.1426         estimate D2E/DX2                !
 ! R19   R(11,12)                1.5324         estimate D2E/DX2                !
 ! R20   R(11,18)                1.1124         estimate D2E/DX2                !
 ! R21   R(11,19)                1.1125         estimate D2E/DX2                !
 ! R22   R(12,13)                1.5259         estimate D2E/DX2                !
 ! R23   R(12,20)                1.1118         estimate D2E/DX2                !
 ! R24   R(12,21)                1.1118         estimate D2E/DX2                !
 ! R25   R(13,22)                1.1109         estimate D2E/DX2                !
 ! R26   R(13,23)                1.1104         estimate D2E/DX2                !
 ! R27   R(13,24)                1.1108         estimate D2E/DX2                !
 ! R28   R(16,32)                2.0755         estimate D2E/DX2                !
 ! R29   R(17,33)                2.075          estimate D2E/DX2                !
 ! R30   R(25,26)                1.3815         estimate D2E/DX2                !
 ! R31   R(26,27)                1.3814         estimate D2E/DX2                !
 ! R32   R(26,28)                1.3839         estimate D2E/DX2                !
 ! R33   R(26,29)                1.3838         estimate D2E/DX2                !
 ! R34   R(32,34)                1.3516         estimate D2E/DX2                !
 ! R35   R(33,34)                1.2232         estimate D2E/DX2                !
 ! R36   R(34,35)                1.5045         estimate D2E/DX2                !
 ! R37   R(35,36)                1.5273         estimate D2E/DX2                !
 ! R38   R(35,37)                1.1112         estimate D2E/DX2                !
 ! R39   R(35,38)                1.1112         estimate D2E/DX2                !
 ! R40   R(36,39)                1.1111         estimate D2E/DX2                !
 ! R41   R(36,40)                1.1104         estimate D2E/DX2                !
 ! R42   R(36,41)                1.1111         estimate D2E/DX2                !
 ! A1    A(2,1,6)              118.7976         estimate D2E/DX2                !
 ! A2    A(2,1,25)             123.0217         estimate D2E/DX2                !
 ! A3    A(6,1,25)             118.1806         estimate D2E/DX2                !
 ! A4    A(1,2,3)              120.3759         estimate D2E/DX2                !
 ! A5    A(1,2,30)             121.3159         estimate D2E/DX2                !
 ! A6    A(3,2,30)             118.3082         estimate D2E/DX2                !
 ! A7    A(2,3,4)              121.4863         estimate D2E/DX2                !
 ! A8    A(2,3,14)             117.8191         estimate D2E/DX2                !
 ! A9    A(4,3,14)             120.6945         estimate D2E/DX2                !
 ! A10   A(3,4,5)              117.5238         estimate D2E/DX2                !
 ! A11   A(3,4,7)              117.9827         estimate D2E/DX2                !
 ! A12   A(5,4,7)              124.4934         estimate D2E/DX2                !
 ! A13   A(4,5,6)              120.7844         estimate D2E/DX2                !
 ! A14   A(4,5,15)             123.693          estimate D2E/DX2                !
 ! A15   A(6,5,15)             115.5227         estimate D2E/DX2                !
 ! A16   A(1,6,5)              121.0317         estimate D2E/DX2                !
 ! A17   A(1,6,31)             119.6347         estimate D2E/DX2                !
 ! A18   A(5,6,31)             119.3335         estimate D2E/DX2                !
 ! A19   A(4,7,8)              127.5212         estimate D2E/DX2                !
 ! A20   A(4,7,16)             116.1636         estimate D2E/DX2                !
 ! A21   A(8,7,16)             116.3139         estimate D2E/DX2                !
 ! A22   A(7,8,9)              119.7356         estimate D2E/DX2                !
 ! A23   A(7,8,10)             121.2287         estimate D2E/DX2                !
 ! A24   A(9,8,10)             119.0352         estimate D2E/DX2                !
 ! A25   A(8,9,11)             121.4672         estimate D2E/DX2                !
 ! A26   A(8,9,17)             119.494          estimate D2E/DX2                !
 ! A27   A(11,9,17)            119.0384         estimate D2E/DX2                !
 ! A28   A(9,11,12)            111.2021         estimate D2E/DX2                !
 ! A29   A(9,11,18)            109.2265         estimate D2E/DX2                !
 ! A30   A(9,11,19)            109.1479         estimate D2E/DX2                !
 ! A31   A(12,11,18)           109.1639         estimate D2E/DX2                !
 ! A32   A(12,11,19)           109.0642         estimate D2E/DX2                !
 ! A33   A(18,11,19)           109.004          estimate D2E/DX2                !
 ! A34   A(11,12,13)           111.2277         estimate D2E/DX2                !
 ! A35   A(11,12,20)           109.4868         estimate D2E/DX2                !
 ! A36   A(11,12,21)           109.5065         estimate D2E/DX2                !
 ! A37   A(13,12,20)           108.8192         estimate D2E/DX2                !
 ! A38   A(13,12,21)           108.9011         estimate D2E/DX2                !
 ! A39   A(20,12,21)           108.8597         estimate D2E/DX2                !
 ! A40   A(12,13,22)           110.3309         estimate D2E/DX2                !
 ! A41   A(12,13,23)           109.5791         estimate D2E/DX2                !
 ! A42   A(12,13,24)           110.3547         estimate D2E/DX2                !
 ! A43   A(22,13,23)           108.6575         estimate D2E/DX2                !
 ! A44   A(22,13,24)           109.1913         estimate D2E/DX2                !
 ! A45   A(23,13,24)           108.6875         estimate D2E/DX2                !
 ! A46   A(1,25,26)            126.8546         estimate D2E/DX2                !
 ! A47   A(25,26,27)           108.9006         estimate D2E/DX2                !
 ! A48   A(25,26,28)           110.237          estimate D2E/DX2                !
 ! A49   A(25,26,29)           110.2688         estimate D2E/DX2                !
 ! A50   A(27,26,28)           108.7204         estimate D2E/DX2                !
 ! A51   A(27,26,29)           108.7294         estimate D2E/DX2                !
 ! A52   A(28,26,29)           109.944          estimate D2E/DX2                !
 ! A53   A(16,32,34)           120.3252         estimate D2E/DX2                !
 ! A54   A(17,33,34)           121.3283         estimate D2E/DX2                !
 ! A55   A(32,34,33)           119.7306         estimate D2E/DX2                !
 ! A56   A(32,34,35)           121.0008         estimate D2E/DX2                !
 ! A57   A(33,34,35)           119.2686         estimate D2E/DX2                !
 ! A58   A(34,35,36)           112.6943         estimate D2E/DX2                !
 ! A59   A(34,35,37)           108.8668         estimate D2E/DX2                !
 ! A60   A(34,35,38)           108.8332         estimate D2E/DX2                !
 ! A61   A(36,35,37)           108.8218         estimate D2E/DX2                !
 ! A62   A(36,35,38)           108.8378         estimate D2E/DX2                !
 ! A63   A(37,35,38)           108.7146         estimate D2E/DX2                !
 ! A64   A(35,36,39)           110.3346         estimate D2E/DX2                !
 ! A65   A(35,36,40)           109.5618         estimate D2E/DX2                !
 ! A66   A(35,36,41)           110.3553         estimate D2E/DX2                !
 ! A67   A(39,36,40)           108.6131         estimate D2E/DX2                !
 ! A68   A(39,36,41)           109.32           estimate D2E/DX2                !
 ! A69   A(40,36,41)           108.6147         estimate D2E/DX2                !
 ! A70   L(7,16,32,2,-1)       178.076          estimate D2E/DX2                !
 ! A71   L(9,17,33,2,-1)       181.1483         estimate D2E/DX2                !
 ! A72   L(7,16,32,2,-2)       179.5149         estimate D2E/DX2                !
 ! A73   L(9,17,33,2,-2)       179.2477         estimate D2E/DX2                !
 ! D1    D(6,1,2,3)             -0.078          estimate D2E/DX2                !
 ! D2    D(6,1,2,30)           179.9817         estimate D2E/DX2                !
 ! D3    D(25,1,2,3)           179.8715         estimate D2E/DX2                !
 ! D4    D(25,1,2,30)           -0.0689         estimate D2E/DX2                !
 ! D5    D(2,1,6,5)              0.1212         estimate D2E/DX2                !
 ! D6    D(2,1,6,31)          -179.9508         estimate D2E/DX2                !
 ! D7    D(25,1,6,5)          -179.8307         estimate D2E/DX2                !
 ! D8    D(25,1,6,31)            0.0972         estimate D2E/DX2                !
 ! D9    D(2,1,25,26)           -0.4074         estimate D2E/DX2                !
 ! D10   D(6,1,25,26)          179.5423         estimate D2E/DX2                !
 ! D11   D(1,2,3,4)             -0.0634         estimate D2E/DX2                !
 ! D12   D(1,2,3,14)          -179.9202         estimate D2E/DX2                !
 ! D13   D(30,2,3,4)           179.8787         estimate D2E/DX2                !
 ! D14   D(30,2,3,14)            0.0219         estimate D2E/DX2                !
 ! D15   D(2,3,4,5)              0.1574         estimate D2E/DX2                !
 ! D16   D(2,3,4,7)           -179.7558         estimate D2E/DX2                !
 ! D17   D(14,3,4,5)          -179.9899         estimate D2E/DX2                !
 ! D18   D(14,3,4,7)             0.0969         estimate D2E/DX2                !
 ! D19   D(3,4,5,6)             -0.1138         estimate D2E/DX2                !
 ! D20   D(3,4,5,15)           179.8591         estimate D2E/DX2                !
 ! D21   D(7,4,5,6)            179.7932         estimate D2E/DX2                !
 ! D22   D(7,4,5,15)            -0.2339         estimate D2E/DX2                !
 ! D23   D(3,4,7,8)            178.6194         estimate D2E/DX2                !
 ! D24   D(3,4,7,16)            -0.9541         estimate D2E/DX2                !
 ! D25   D(5,4,7,8)             -1.2872         estimate D2E/DX2                !
 ! D26   D(5,4,7,16)           179.1393         estimate D2E/DX2                !
 ! D27   D(4,5,6,1)             -0.0242         estimate D2E/DX2                !
 ! D28   D(4,5,6,31)          -179.9524         estimate D2E/DX2                !
 ! D29   D(15,5,6,1)          -179.9992         estimate D2E/DX2                !
 ! D30   D(15,5,6,31)            0.0726         estimate D2E/DX2                !
 ! D31   D(4,7,8,9)           -179.5979         estimate D2E/DX2                !
 ! D32   D(4,7,8,10)             0.1493         estimate D2E/DX2                !
 ! D33   D(16,7,8,9)            -0.0249         estimate D2E/DX2                !
 ! D34   D(16,7,8,10)          179.7222         estimate D2E/DX2                !
 ! D35   D(4,7,32,34)          179.3186         estimate D2E/DX2                !
 ! D36   D(8,7,32,34)           -0.0009         estimate D2E/DX2                !
 ! D37   D(7,8,9,11)           179.6498         estimate D2E/DX2                !
 ! D38   D(7,8,9,17)            -0.1212         estimate D2E/DX2                !
 ! D39   D(10,8,9,11)           -0.103          estimate D2E/DX2                !
 ! D40   D(10,8,9,17)         -179.874          estimate D2E/DX2                !
 ! D41   D(8,9,11,12)         -179.7155         estimate D2E/DX2                !
 ! D42   D(8,9,11,18)           59.741          estimate D2E/DX2                !
 ! D43   D(8,9,11,19)          -59.3475         estimate D2E/DX2                !
 ! D44   D(17,9,11,12)           0.0566         estimate D2E/DX2                !
 ! D45   D(17,9,11,18)        -120.487          estimate D2E/DX2                !
 ! D46   D(17,9,11,19)         120.4245         estimate D2E/DX2                !
 ! D47   D(8,9,33,34)           -0.109          estimate D2E/DX2                !
 ! D48   D(11,9,33,34)        -179.3629         estimate D2E/DX2                !
 ! D49   D(9,11,12,13)         179.7614         estimate D2E/DX2                !
 ! D50   D(9,11,12,20)          59.4606         estimate D2E/DX2                !
 ! D51   D(9,11,12,21)         -59.8226         estimate D2E/DX2                !
 ! D52   D(18,11,12,13)        -59.6582         estimate D2E/DX2                !
 ! D53   D(18,11,12,20)       -179.959          estimate D2E/DX2                !
 ! D54   D(18,11,12,21)         60.7578         estimate D2E/DX2                !
 ! D55   D(19,11,12,13)         59.344          estimate D2E/DX2                !
 ! D56   D(19,11,12,20)        -60.9568         estimate D2E/DX2                !
 ! D57   D(19,11,12,21)        179.7601         estimate D2E/DX2                !
 ! D58   D(11,12,13,22)        -60.3673         estimate D2E/DX2                !
 ! D59   D(11,12,13,23)       -179.9637         estimate D2E/DX2                !
 ! D60   D(11,12,13,24)         60.3882         estimate D2E/DX2                !
 ! D61   D(20,12,13,22)         60.3273         estimate D2E/DX2                !
 ! D62   D(20,12,13,23)        -59.2692         estimate D2E/DX2                !
 ! D63   D(20,12,13,24)       -178.9173         estimate D2E/DX2                !
 ! D64   D(21,12,13,22)        178.8601         estimate D2E/DX2                !
 ! D65   D(21,12,13,23)         59.2637         estimate D2E/DX2                !
 ! D66   D(21,12,13,24)        -60.3844         estimate D2E/DX2                !
 ! D67   D(1,25,26,27)        -179.8545         estimate D2E/DX2                !
 ! D68   D(1,25,26,28)         -60.6594         estimate D2E/DX2                !
 ! D69   D(1,25,26,29)          60.9203         estimate D2E/DX2                !
 ! D70   D(16,32,34,33)          0.1072         estimate D2E/DX2                !
 ! D71   D(16,32,34,35)       -179.8562         estimate D2E/DX2                !
 ! D72   D(17,33,34,32)          0.0284         estimate D2E/DX2                !
 ! D73   D(17,33,34,35)        179.9924         estimate D2E/DX2                !
 ! D74   D(32,34,35,36)         -0.1077         estimate D2E/DX2                !
 ! D75   D(32,34,35,37)       -120.9358         estimate D2E/DX2                !
 ! D76   D(32,34,35,38)        120.7175         estimate D2E/DX2                !
 ! D77   D(33,34,35,36)        179.9288         estimate D2E/DX2                !
 ! D78   D(33,34,35,37)         59.1007         estimate D2E/DX2                !
 ! D79   D(33,34,35,38)        -59.246          estimate D2E/DX2                !
 ! D80   D(34,35,36,39)        -60.5195         estimate D2E/DX2                !
 ! D81   D(34,35,36,40)        179.9475         estimate D2E/DX2                !
 ! D82   D(34,35,36,41)         60.3997         estimate D2E/DX2                !
 ! D83   D(37,35,36,39)         60.3344         estimate D2E/DX2                !
 ! D84   D(37,35,36,40)        -59.1987         estimate D2E/DX2                !
 ! D85   D(37,35,36,41)       -178.7464         estimate D2E/DX2                !
 ! D86   D(38,35,36,39)        178.658          estimate D2E/DX2                !
 ! D87   D(38,35,36,40)         59.1249         estimate D2E/DX2                !
 ! D88   D(38,35,36,41)        -60.4228         estimate D2E/DX2                !
 --------------------------------------------------------------------------------
 Trust Radius=3.00D-01 FncErr=1.00D-07 GrdErr=1.00D-06
 Number of steps in this run=    213 maximum allowed number of steps=    246.
 GradGradGradGradGradGradGradGradGradGradGradGradGradGradGradGradGradGrad

                          Input orientation:                          
 ---------------------------------------------------------------------
 Center     Atomic      Atomic             Coordinates (Angstroms)
 Number     Number       Type             X           Y           Z
 ---------------------------------------------------------------------
      1          6           0       -4.117730    4.021290   -1.093810
      2          6           0       -4.209430    2.659040   -0.761960
      3          6           0       -3.102250    1.981730   -0.245690
      4          6           0       -1.869290    2.633430   -0.043540
      5          6           0       -1.791960    4.007240   -0.380550
      6          6           0       -2.903410    4.681360   -0.896320
      7          7           0       -0.773760    1.859680    0.488900
      8          6           0        0.506800    2.284830    0.736280
      9          7           0        1.425780    1.409240    1.237840
     10          8           0        0.845880    3.435420    0.511960
     11          6           0        2.795120    1.817480    1.506950
     12          6           0        3.623280    0.651180    2.056640
     13          6           0        5.061940    1.077440    2.333740
     14          1           0       -3.218520    0.933950   -0.005820
     15          1           0       -0.904120    4.599800   -0.264960
     16          1           0       -0.998700    0.763050    0.725430
     17          1           0        1.117330    0.329450    1.448750
     18          1           0        2.791290    2.644980    2.250420
     19          1           0        3.259840    2.180250    0.563530
     20          1           0        3.631300   -0.178990    1.317110
     21          1           0        3.167470    0.285530    3.002470
     22          1           0        5.547490    1.428510    1.398230
     23          1           0        5.636340    0.213500    2.729490
     24          1           0        5.084760    1.894600    3.085880
     25          8           0       -5.159620    4.731910   -1.601740
     26          6           0       -6.428920    4.260430   -1.875610
     27          9           0       -7.190640    5.294940   -2.383370
     28          9           0       -6.370670    3.248030   -2.817300
     29          9           0       -7.027360    3.794580   -0.718140
     30          1           0       -5.129680    2.108310   -0.897960
     31          1           0       -2.817810    5.731800   -1.146780
     32          8           0       -1.467410   -1.220550    1.116900
     33          8           0        0.603020   -1.646130    1.820540
     34          6           0       -0.527880   -2.060040    1.606240
     35          6           0       -0.850130   -3.501480    1.892460
     36          6           0       -2.301040   -3.855580    1.572970
     37          1           0       -0.659820   -3.705490    2.968030
     38          1           0       -0.180930   -4.146430    1.283390
     39          1           0       -2.992870   -3.240650    2.187550
     40          1           0       -2.481220   -4.927140    1.801590
     41          1           0       -2.513080   -3.682150    0.496200
 ---------------------------------------------------------------------
                    Distance matrix (angstroms):
                    1          2          3          4          5
     1  C    0.000000
     2  C    1.405083   0.000000
     3  C    2.431113   1.396829   0.000000
     4  C    2.843362   2.448068   1.409173   0.000000
     5  C    2.432723   2.794151   2.416141   1.416654   0.000000
     6  C    1.396162   2.411124   2.784036   2.447581   1.398491
     7  N    4.284818   3.742654   2.444664   1.443041   2.530749
     8  C    5.267903   4.962618   3.752516   2.524964   3.081932
     9  N    6.556668   6.108747   4.799131   3.741398   4.441018
    10  O    5.249682   5.270844   4.274924   2.885120   2.842842
    11  C    7.707673   7.410796   6.154486   4.982621   5.422085
    12  C    9.011449   8.563139   7.232139   6.205513   6.821133
    13  C   10.231358   9.901673   8.609599   7.490962   7.932657
    14  H    3.394697   2.128282   1.081156   2.170271   3.408901
    15  H    3.368821   3.865053   3.418543   2.201634   1.073661
    16  H    4.863549   4.014461   2.617857   2.201718   3.518128
    17  H    6.892035   6.220016   4.837976   4.056495   5.033532
    18  H    7.798247   7.621333   6.434616   5.194554   5.457466
    19  H    7.782335   7.601063   6.416419   5.184774   5.454343
    20  H    9.137962   8.593835   7.242358   6.325944   7.058209
    21  H    9.154756   8.615285   7.262026   6.337173   7.063420
    22  H   10.312577  10.068670   8.821934   7.651089   7.980065
    23  H   11.147142  10.728936   9.399005   8.359440   8.901935
    24  H   10.328526  10.088221   8.839349   7.661459   7.985528
    25  O    1.359599   2.429996   3.692578   4.202128   3.654803
    26  C    2.451530   2.954793   4.349235   5.176276   4.878597
    27  F    3.567622   4.297040   5.679962   6.393372   5.900441
    28  F    2.940083   3.040113   4.347328   5.322960   5.242016
    29  F    2.942528   3.038437   4.349267   5.330013   5.250581
    30  H    2.172992   1.081046   2.133530   3.411148   3.874793
    31  H    2.149056   3.395077   3.867285   3.422970   2.147925
    32  O    6.276012   5.108817   3.844990   4.044909   5.447704
    33  O    7.930862   6.954385   5.582087   5.282210   6.522371
    34  C    7.560415   6.436761   5.137405   5.152651   6.508235
    35  C    8.728521   7.502190   6.301533   6.513363   7.901550
    36  C    8.512177   7.178727   6.166332   6.701251   8.117841
    37  H    9.389293   8.186562   6.974090   7.121396   8.484158
    38  H    9.373426   8.168641   6.958918   7.111807   8.476228
    39  H    8.047882   6.707158   5.762454   6.383182   7.782624
    40  H    9.546513   8.191985   7.232532   7.806483   9.222796
    41  H    8.027828   6.683656   5.742566   6.371211   7.772736
                    6          7          8          9         10
     6  C    0.000000
     7  N    3.796857   0.000000
     8  C    4.476413   1.371781   0.000000
     9  N    5.831234   2.366809   1.364824   0.000000
    10  O    4.194377   2.259806   1.220308   2.229034   0.000000
    11  C    6.815479   3.711484   2.459422   1.454019   2.721630
    12  C    8.219489   4.822058   3.758272   2.464568   4.225160
    13  C    9.320318   6.170148   4.975839   3.812184   5.162762
    14  H    3.864630   2.660559   4.031575   4.831368   4.800500
    15  H    2.098196   2.844918   2.890028   4.226880   2.240956
    16  H    4.648779   1.144177   2.140669   2.560904   3.254168
    17  H    6.372191   2.615174   2.168841   1.142616   3.255505
    18  H    6.817509   4.053299   2.764276   2.101663   2.726107
    19  H    6.809726   4.047007   2.760436   2.100697   2.721271
    20  H    8.439473   4.924090   4.021228   2.719021   4.633658
    21  H    8.448637   4.932472   4.026411   2.722155   4.638343
    22  H    9.341504   6.400859   5.155581   4.124874   5.188285
    23  H   10.297359   6.987098   5.880091   4.624244   6.184393
    24  H    9.350658   6.408415   5.160486   4.127828   5.193004
    25  O    2.364457   5.644134   6.600216   7.903850   6.497280
    26  C    3.683125   6.582959   7.670018   8.917352   7.700899
    27  F    4.579098   7.824787   8.834227  10.121982   8.742220
    28  F    4.215032   6.647095   7.800979   8.978304   7.949697
    29  F    4.221977   6.656448   7.820374   8.998404   7.976845
    30  H    3.402480   4.578126   5.871270   6.929964   6.281434
    31  H    1.083274   4.674067   5.145925   6.509915   4.631134
    32  O    6.399038   3.219216   4.041048   3.911645   5.234054
    33  O    7.727452   3.994933   4.078888   3.217415   5.252953
    34  C    7.573138   4.083272   4.550306   3.998551   5.769293
    35  C    8.885501   5.542369   6.054700   5.451923   7.273432
    36  C    8.907277   6.014315   6.803576   6.459089   8.011712
    37  H    9.502955   6.093454   6.498126   5.788242   7.700130
    38  H    9.491728   6.087366   6.491025   5.783516   7.689856
    39  H    8.501559   5.815774   6.699612   6.484435   7.881213
    40  H    9.989006   7.120358   7.878811   7.465398   9.092038
    41  H    8.487624   5.808370   6.691948   6.479730   7.870366
                   11         12         13         14         15
    11  C    0.000000
    12  C    1.532405   0.000000
    13  C    2.523829   1.525852   0.000000
    14  H    6.263622   7.151498   8.605821   0.000000
    15  H    4.956344   6.440402   7.399604   4.343047   0.000000
    16  H    4.014432   4.811168   6.278285   2.343402   3.963643
    17  H    2.243346   2.598620   4.111283   4.613111   5.025828
    18  H    1.112438   2.169100   2.760430   6.643497   4.878987
    19  H    1.112478   2.167838   2.756338   6.621674   4.886633
    20  H    2.172816   1.111823   2.158445   7.064617   6.775678
    21  H    2.173038   1.111781   2.159476   7.088803   6.772508
    22  H    2.781844   2.177230   1.110940   8.891506   7.378791
    23  H    3.484234   2.167187   1.110381   9.295672   8.425199
    24  H    2.782341   2.177465   1.110849   8.912122   7.376511
    25  O    9.024176  10.352557  11.546577   4.554045   4.462478
    26  C   10.123864  11.381388  12.644758   4.986808   5.764788
    27  F   11.266886  12.578516  13.790002   6.359930   6.670173
    28  F   10.235102  11.418317  12.725928   4.816164   6.182628
    29  F   10.263579  11.446244  12.761191   4.816416   6.192562
    30  H    8.286774   9.352390  10.741308   2.414036   4.946066
    31  H    7.339562   8.806943   9.791197   4.947901   2.391911
    32  O    5.248898   5.504690   7.028077   2.994788   6.008603
    33  O    4.110990   3.802019   5.250064   4.959493   6.755177
    34  C    5.107578   4.978524   6.451289   4.336157   6.927944
    35  C    6.459706   6.105976   7.490915   5.374549   8.383801
    36  C    7.626193   7.459383   8.895332   5.125812   8.764863
    37  H    6.676418   6.177067   7.484469   6.075783   8.915702
    38  H    6.668964   6.171466   7.475275   6.057993   8.911618
    39  H    7.716782   7.677038   9.140418   4.721131   8.476458
    40  H    8.568341   8.273308   9.655953   6.177598   9.875245
    41  H    7.710028   7.672525   9.132972   4.696600   8.471057
                   16         17         18         19         20
    16  H    0.000000
    17  H    2.277890   0.000000
    18  H    4.497919   2.967574   0.000000
    19  H    4.491083   2.966382   1.811384   0.000000
    20  H    4.761767   2.568246   3.090549   2.504372   0.000000
    21  H    4.771783   2.572751   2.504814   3.089810   1.808689
    22  H    6.614235   4.564735   3.130921   2.548564   2.502483
    23  H    6.952842   4.698424   3.773051   3.769249   2.483757
    24  H    6.622735   4.568412   2.553638   3.126368   3.088830
    25  O    6.203291   8.251500   9.078072   9.060169  10.484126
    26  C    6.963072   9.135090  10.229666  10.205323  11.450325
    27  F    8.279057  10.409784  11.319595  11.295930  12.679584
    28  F    6.898125   9.098760  10.487467  10.262402  11.352410
    29  F    6.900638   9.112547  10.321813  10.491674  11.555887
    30  H    4.637900   6.906267   8.540613   8.516171   9.321644
    31  H    5.612736   7.169902   7.247857   7.244066   9.088411
    32  O    2.075477   3.032079   5.862057   5.849663   5.207857
    33  O    3.093367   2.075008   4.836005   4.824930   3.402414
    34  C    2.994551   2.905371   5.793882   5.780495   4.573918
    35  C    4.423827   4.329411   7.153114   7.137224   5.608314
    36  C    4.873003   5.405105   8.285411   8.268833   6.983941
    37  H    5.011182   4.663391   7.263167   7.469089   5.794433
    38  H    5.008299   4.663295   7.476128   7.237678   5.502255
    39  H    4.705754   5.494104   8.252339   8.433266   7.349221
    40  H    5.977813   6.380109   9.237847   9.219954   7.755163
    41  H    4.701670   5.493647   8.440747   8.227932   7.120353
                   21         22         23         24         25
    21  H    0.000000
    22  H    3.089415   0.000000
    23  H    2.484960   1.804549   0.000000
    24  H    2.504409   1.810945   1.804813   0.000000
    25  O   10.502832  11.599762  12.479116  11.617721   0.000000
    26  C   11.475461  12.734685  13.533480  12.758462   1.381456
    27  F   12.704011  13.838704  14.713728  13.862195   2.247886
    28  F   11.559509  12.771996  13.569950  12.957862   2.268508
    29  F   11.405741  12.969355  13.604396  12.836820   2.268874
    30  H    9.347651  10.942421  11.517634  10.965922   2.716520
    31  H    9.094048   9.745441  10.814331   9.751417   2.586666
    32  O    5.225492   7.503698   7.424299   7.517445   7.513667
    33  O    3.421209   5.837768   5.442309   5.850115   9.251995
    34  C    4.594210   7.008807   6.665454   7.023549   8.824666
    35  C    5.631579   8.091885   7.521701   8.109553   9.928235
    36  C    7.006915   9.463169   8.994273   9.481746   9.591415
    37  H    5.529699   8.206883   7.420041   8.023409  10.598147
    38  H    5.814575   7.994244   7.412208   8.214043  10.579993
    39  H    7.144776   9.765338   9.310645   9.613839   9.089292
    40  H    7.779572  10.247789   9.653080  10.267891  10.585543
    41  H    7.368346   9.586725   9.304661   9.774137   9.066528
                   26         27         28         29         30
    26  C    0.000000
    27  F    1.381394   0.000000
    28  F    1.383881   2.247329   0.000000
    29  F    1.383793   2.247383   2.266370   0.000000
    30  H    2.697303   4.075366   2.553994   2.545001   0.000000
    31  H    3.966893   4.565265   4.645704   4.653694   4.305384
    32  O    7.975766   9.351944   7.712853   7.709212   5.343519
    33  O    9.899351  11.251331   9.700243   9.709218   7.372239
    34  C    9.321689  10.696031   9.048840   9.051108   6.694977
    35  C   10.274653  11.655977   9.910302   9.909889   7.587538
    36  C    9.736617  11.103730   9.289652   9.279668   7.048027
    37  H   10.963542  12.340860  10.697443  10.506401   8.290102
    38  H   10.940382  12.317493  10.478863  10.674238   8.268627
    39  H    9.196842  10.553240   8.863466   8.614790   6.534348
    40  H   10.654463  12.007641  10.163433  10.153070   7.987457
    41  H    9.167544  10.524240   8.595794   8.817870   6.505360
                   31         32         33         34         35
    31  H    0.000000
    32  O    7.435254   0.000000
    33  O    8.656842   2.227759   0.000000
    34  C    8.575294   1.351634   1.223185   0.000000
    35  C    9.917772   2.487000   2.357783   1.504499   0.000000
    36  C    9.979075   2.801129   3.657393   2.523721   1.527285
    37  H   10.519079   3.202157   2.674409   2.139950   1.111166
    38  H   10.508962   3.200550   2.674810   2.139540   1.111195
    39  H    9.573571   2.748477   3.950647   2.794269   2.178634
    40  H   11.064320   3.903258   4.503101   3.474761   2.168229
    41  H    9.561103   2.745573   3.950865   2.793644   2.178896
                   36         37         38         39         40
    36  C    0.000000
    37  H    2.159241   0.000000
    38  H    2.159471   1.806039   0.000000
    39  H    1.111070   2.503667   3.089490   0.000000
    40  H    1.110393   2.484051   2.483822   1.804162   0.000000
    41  H    1.111068   3.089508   2.504825   1.812674   1.804178
                   41
    41  H    0.000000
 Stoichiometry    C14H18F3N2O4(1-)
 Framework group  C1[X(C14H18F3N2O4)]
 Deg. of freedom   117
 Full point group                 C1      NOp   1
 Largest Abelian subgroup         C1      NOp   1
 Largest concise Abelian subgroup C1      NOp   1
                         Standard orientation:                         
 ---------------------------------------------------------------------
 Center     Atomic      Atomic             Coordinates (Angstroms)
 Number     Number       Type             X           Y           Z
 ---------------------------------------------------------------------
      1          6           0       -3.430679   -0.790947   -0.016310
      2          6           0       -2.742550    0.434039   -0.004261
      3          6           0       -1.345972    0.459763   -0.010516
      4          6           0       -0.588035   -0.728095   -0.027583
      5          6           0       -1.295031   -1.955640   -0.041683
      6          6           0       -2.693358   -1.976371   -0.036245
      7          7           0        0.850447   -0.613473   -0.027591
      8          6           0        1.769714   -1.631610   -0.016299
      9          7           0        3.102971   -1.339839   -0.009910
     10          8           0        1.419165   -2.800449   -0.007204
     11          6           0        4.109463   -2.389011    0.009664
     12          6           0        5.524041   -1.799841    0.020288
     13          6           0        6.580679   -2.900314    0.046753
     14          1           0       -0.859055    1.425003    0.000571
     15          1           0       -0.818172   -2.917465   -0.057373
     16          1           0        1.271791    0.450295   -0.030615
     17          1           0        3.439941   -0.248060   -0.016151
     18          1           0        3.987721   -3.030293   -0.891144
     19          1           0        3.968763   -3.012709    0.920055
     20          1           0        5.651842   -1.158222    0.919256
     21          1           0        5.674135   -1.178240   -0.889185
     22          1           0        6.465106   -3.524545    0.958436
     23          1           0        7.592972   -2.444083    0.054602
     24          1           0        6.488379   -3.546300   -0.852229
     25          8           0       -4.787418   -0.878737   -0.008459
     26          6           0       -5.685480    0.170603    0.019639
     27          9           0       -6.969376   -0.339157    0.021564
     28          9           0       -5.505170    0.924415    1.166105
     29          9           0       -5.525812    0.968330   -1.099745
     30          1           0       -3.272574    1.376113    0.010957
     31          1           0       -3.210034   -2.928433   -0.046526
     32          8           0        1.970981    2.404421   -0.019156
     33          8           0        4.091541    1.721926   -0.000870
     34          6           0        3.299319    2.653885   -0.004974
     35          6           0        3.822792    4.064330    0.006727
     36          6           0        2.706918    5.107091   -0.002002
     37          1           0        4.463384    4.217281   -0.888224
     38          1           0        4.442361    4.209456    0.917676
     39          1           0        2.085292    4.999727   -0.916622
     40          1           0        3.149561    6.125392    0.008153
     41          1           0        2.062813    4.991392    0.895893
 ---------------------------------------------------------------------
 Rotational constants (GHZ):      0.3266910      0.0902248      0.0718491
 General basis read from cards:  (6D, 7F)
 There are   473 symmetry adapted cartesian basis functions of A   symmetry.
 There are   473 symmetry adapted basis functions of A   symmetry.
   473 basis functions,   808 primitive gaussians,   473 cartesian basis functions
    88 alpha electrons       88 beta electrons
       nuclear repulsion energy      1878.3152243507 Hartrees.
 NAtoms=   41 NActive=   41 NUniq=   41 SFac= 1.00D+00 NAtFMM=   60 NAOKFM=F Big=F
 Integral buffers will be    131072 words long.
 Raffenetti 2 integral format.
 Two-electron integral symmetry is turned on.
 ------------------------------------------------------------------------------
 Polarizable Continuum Model (PCM)
 =================================
 Model                : PCM (using non-symmetric T matrix).
 Atomic radii         : SMD-Coulomb.
 Polarization charges : Total charges.
 Charge compensation  : None.
 Solution method      : On-the-fly selection.
 Cavity type          : VdW (van der Waals Surface) (Alpha=1.000).
 Cavity algorithm     : GePol (No added spheres)
                        Default sphere list used, NSphG=   41.
                        Lebedev-Laikov grids with approx.  5.0 points / Ang**2.
                        Smoothing algorithm: York/Karplus (Gamma=1.0000).
                        Polarization charges: spherical gaussians, with
                                              point-specific exponents (IZeta= 3).
                        Self-potential: point-specific (ISelfS= 7).
                        Self-field    : sphere-specific E.n sum rule (ISelfD= 2).
 1st derivatives      : Analytical E(r).r(x)/FMM algorithm (CHGder, D1EAlg=3).
                        Cavity 1st derivative terms included.
 Solvent              : Water, Eps=  78.355300 Eps(inf)=   1.777849
 ------------------------------------------------------------------------------
 ------------------------------------------------------------------------------
 Atomic radii for non-electrostatic terms: SMD-CDS.
 ------------------------------------------------------------------------------
 Nuclear repulsion after PCM non-electrostatic terms =     1878.3315025079 Hartrees.
 One-electron integrals computed using PRISM.
 NBasis=   473 RedAO= T EigKep=  1.59D-06  NBF=   473
 NBsUse=   472 1.00D-06 EigRej=  6.30D-07 NBFU=   472
 ExpMin= 4.38D-02 ExpMax= 7.00D+03 ExpMxC= 1.05D+03 IAcc=3 IRadAn=         5 AccDes= 0.00D+00
 Harris functional with IExCor= 1009 and IRadAn=       5 diagonalized for initial guess.
 HarFok:  IExCor= 1009 AccDes= 0.00D+00 IRadAn=         5 IDoV= 1 UseB2=F ITyADJ=14
 ICtDFT=  3500011 ScaDFX=  1.000000  1.000000  1.000000  1.000000
 FoFCou: FMM=F IPFlag=           0 FMFlag=      100000 FMFlg1=           0
         NFxFlg=           0 DoJE=T BraDBF=F KetDBF=T FulRan=T
         wScrn=  0.000000 ICntrl=     500 IOpCl=  0 I1Cent=   200000004 NGrid=           0
         NMat0=    1 NMatS0=      1 NMatT0=    0 NMatD0=    1 NMtDS0=    0 NMtDT0=    0
 Petite list used in FoFCou.
 Requested convergence on RMS density matrix=1.00D-08 within 128 cycles.
 Requested convergence on MAX density matrix=1.00D-06.
 Requested convergence on             energy=1.00D-06.
 No special actions if energy rises.
 Inv3:  Mode=1 IEnd=    29447067.
 Iteration    1 A*A^-1 deviation from unit magnitude is 4.88D-15 for   3102.
 Iteration    1 A*A^-1 deviation from orthogonality  is 3.18D-15 for   1793     94.
 Iteration    1 A^-1*A deviation from unit magnitude is 5.55D-15 for   3102.
 Iteration    1 A^-1*A deviation from orthogonality  is 3.44D-10 for   2218   2202.
 Iteration    2 A*A^-1 deviation from unit magnitude is 3.11D-15 for   1306.
 Iteration    2 A*A^-1 deviation from orthogonality  is 3.07D-15 for   1580    600.
 Iteration    2 A^-1*A deviation from unit magnitude is 9.99D-16 for    203.
 Iteration    2 A^-1*A deviation from orthogonality  is 5.80D-16 for   3132   2098.
 Error on total polarization charges =  0.06987
 SCF Done:  E(RM062X) =  -1253.98914664     A.U. after   14 cycles
            NFock= 14  Conv=0.95D-08     -V/T= 2.0092
 SMD-CDS (non-electrostatic) energy       (kcal/mol) =      10.21
 (included in total energy above)

 **********************************************************************

            Population analysis using the SCF density.

 **********************************************************************

 Orbital symmetries:
       Occupied  (A) (A) (A) (A) (A) (A) (A) (A) (A) (A) (A) (A)
                 (A) (A) (A) (A) (A) (A) (A) (A) (A) (A) (A) (A)
                 (A) (A) (A) (A) (A) (A) (A) (A) (A) (A) (A) (A)
                 (A) (A) (A) (A) (A) (A) (A) (A) (A) (A) (A) (A)
                 (A) (A) (A) (A) (A) (A) (A) (A) (A) (A) (A) (A)
                 (A) (A) (A) (A) (A) (A) (A) (A) (A) (A) (A) (A)
                 (A) (A) (A) (A) (A) (A) (A) (A) (A) (A) (A) (A)
                 (A) (A) (A) (A)
       Virtual   (A) (A) (A) (A) (A) (A) (A) (A) (A) (A) (A) (A)
                 (A) (A) (A) (A) (A) (A) (A) (A) (A) (A) (A) (A)
                 (A) (A) (A) (A) (A) (A) (A) (A) (A) (A) (A) (A)
                 (A) (A) (A) (A) (A) (A) (A) (A) (A) (A) (A) (A)
                 (A) (A) (A) (A) (A) (A) (A) (A) (A) (A) (A) (A)
                 (A) (A) (A) (A) (A) (A) (A) (A) (A) (A) (A) (A)
                 (A) (A) (A) (A) (A) (A) (A) (A) (A) (A) (A) (A)
                 (A) (A) (A) (A) (A) (A) (A) (A) (A) (A) (A) (A)
                 (A) (A) (A) (A) (A) (A) (A) (A) (A) (A) (A) (A)
                 (A) (A) (A) (A) (A) (A) (A) (A) (A) (A) (A) (A)
                 (A) (A) (A) (A) (A) (A) (A) (A) (A) (A) (A) (A)
                 (A) (A) (A) (A) (A) (A) (A) (A) (A) (A) (A) (A)
                 (A) (A) (A) (A) (A) (A) (A) (A) (A) (A) (A) (A)
                 (A) (A) (A) (A) (A) (A) (A) (A) (A) (A) (A) (A)
                 (A) (A) (A) (A) (A) (A) (A) (A) (A) (A) (A) (A)
                 (A) (A) (A) (A) (A) (A) (A) (A) (A) (A) (A) (A)
                 (A) (A) (A) (A) (A) (A) (A) (A) (A) (A) (A) (A)
                 (A) (A) (A) (A) (A) (A) (A) (A) (A) (A) (A) (A)
                 (A) (A) (A) (A) (A) (A) (A) (A) (A) (A) (A) (A)
                 (A) (A) (A) (A) (A) (A) (A) (A) (A) (A) (A) (A)
                 (A) (A) (A) (A) (A) (A) (A) (A) (A) (A) (A) (A)
                 (A) (A) (A) (A) (A) (A) (A) (A) (A) (A) (A) (A)
                 (A) (A) (A) (A) (A) (A) (A) (A) (A) (A) (A) (A)
                 (A) (A) (A) (A) (A) (A) (A) (A) (A) (A) (A) (A)
                 (A) (A) (A) (A) (A) (A) (A) (A) (A) (A) (A) (A)
                 (A) (A) (A) (A) (A) (A) (A) (A) (A) (A) (A) (A)
                 (A) (A) (A) (A) (A) (A) (A) (A) (A) (A) (A) (A)
                 (A) (A) (A) (A) (A) (A) (A) (A) (A) (A) (A) (A)
                 (A) (A) (A) (A) (A) (A) (A) (A) (A) (A) (A) (A)
                 (A) (A) (A) (A) (A) (A) (A) (A) (A) (A) (A) (A)
                 (A) (A) (A) (A) (A) (A) (A) (A) (A) (A) (A) (A)
                 (A) (A) (A) (A) (A) (A) (A) (A) (A) (A) (A) (A)
 The electronic state is 1-A.
 Alpha  occ. eigenvalues --  -25.32905 -25.32498 -25.32488 -19.72799 -19.61044
 Alpha  occ. eigenvalues --  -19.61018 -19.59484 -14.79716 -14.77846 -10.89496
 Alpha  occ. eigenvalues --  -10.68015 -10.65153 -10.63366 -10.61308 -10.57592
 Alpha  occ. eigenvalues --  -10.56633 -10.56343 -10.56295 -10.55979 -10.54290
 Alpha  occ. eigenvalues --  -10.54243 -10.53271 -10.53070  -1.47195  -1.38894
 Alpha  occ. eigenvalues --   -1.38811  -1.24556  -1.18152  -1.16616  -1.03995
 Alpha  occ. eigenvalues --   -1.03176  -1.00676  -0.96135  -0.88445  -0.86725
 Alpha  occ. eigenvalues --   -0.85947  -0.85391  -0.81419  -0.76850  -0.74253
 Alpha  occ. eigenvalues --   -0.72383  -0.71803  -0.71216  -0.69498  -0.67966
 Alpha  occ. eigenvalues --   -0.66206  -0.64621  -0.61119  -0.59873  -0.59219
 Alpha  occ. eigenvalues --   -0.59203  -0.58635  -0.57395  -0.55775  -0.55661
 Alpha  occ. eigenvalues --   -0.55043  -0.54330  -0.53532  -0.53034  -0.52877
 Alpha  occ. eigenvalues --   -0.52745  -0.51651  -0.51630  -0.50951  -0.50361
 Alpha  occ. eigenvalues --   -0.50085  -0.49087  -0.46970  -0.46157  -0.45892
 Alpha  occ. eigenvalues --   -0.45860  -0.45270  -0.43607  -0.43452  -0.41366
 Alpha  occ. eigenvalues --   -0.41046  -0.40828  -0.39513  -0.39097  -0.38890
 Alpha  occ. eigenvalues --   -0.36394  -0.34793  -0.32965  -0.32911  -0.31791
 Alpha  occ. eigenvalues --   -0.31586  -0.31205  -0.26236
 Alpha virt. eigenvalues --    0.01095   0.01839   0.01877   0.02527   0.03413
 Alpha virt. eigenvalues --    0.03593   0.04135   0.04311   0.04454   0.04992
 Alpha virt. eigenvalues --    0.05198   0.05540   0.06030   0.06526   0.06658
 Alpha virt. eigenvalues --    0.07108   0.07487   0.07578   0.07828   0.08410
 Alpha virt. eigenvalues --    0.09009   0.09512   0.09536   0.09686   0.10049
 Alpha virt. eigenvalues --    0.10129   0.10873   0.10893   0.11796   0.12103
 Alpha virt. eigenvalues --    0.12393   0.12518   0.13027   0.13084   0.13720
 Alpha virt. eigenvalues --    0.14305   0.14608   0.14868   0.15171   0.15346
 Alpha virt. eigenvalues --    0.15669   0.16339   0.16798   0.17171   0.17270
 Alpha virt. eigenvalues --    0.17741   0.18036   0.18702   0.18760   0.19340
 Alpha virt. eigenvalues --    0.20016   0.20270   0.20448   0.21131   0.21150
 Alpha virt. eigenvalues --    0.21915   0.22338   0.22583   0.23191   0.23435
 Alpha virt. eigenvalues --    0.23668   0.24356   0.24406   0.24813   0.25136
 Alpha virt. eigenvalues --    0.25625   0.25784   0.25816   0.26321   0.26467
 Alpha virt. eigenvalues --    0.26864   0.27270   0.27724   0.27986   0.28024
 Alpha virt. eigenvalues --    0.28485   0.28675   0.29264   0.29544   0.29584
 Alpha virt. eigenvalues --    0.29908   0.30187   0.30635   0.31145   0.31665
 Alpha virt. eigenvalues --    0.31828   0.31871   0.32335   0.32513   0.33066
 Alpha virt. eigenvalues --    0.33091   0.33753   0.33844   0.34305   0.34353
 Alpha virt. eigenvalues --    0.34459   0.35353   0.35636   0.36017   0.36217
 Alpha virt. eigenvalues --    0.36463   0.36701   0.37105   0.37406   0.37728
 Alpha virt. eigenvalues --    0.38434   0.38678   0.39516   0.39613   0.40044
 Alpha virt. eigenvalues --    0.40483   0.41381   0.42252   0.42772   0.43667
 Alpha virt. eigenvalues --    0.43779   0.44145   0.45256   0.45419   0.46603
 Alpha virt. eigenvalues --    0.47022   0.47520   0.48634   0.49602   0.50452
 Alpha virt. eigenvalues --    0.51780   0.52346   0.53982   0.54922   0.55649
 Alpha virt. eigenvalues --    0.57551   0.58706   0.58933   0.61650   0.64364
 Alpha virt. eigenvalues --    0.68456   0.69088   0.70473   0.70879   0.71342
 Alpha virt. eigenvalues --    0.71471   0.73203   0.75090   0.75282   0.75880
 Alpha virt. eigenvalues --    0.76256   0.76843   0.76934   0.78114   0.79269
 Alpha virt. eigenvalues --    0.80287   0.80509   0.81029   0.81373   0.81965
 Alpha virt. eigenvalues --    0.82422   0.82776   0.83473   0.84177   0.85820
 Alpha virt. eigenvalues --    0.86283   0.87822   0.88186   0.89321   0.90741
 Alpha virt. eigenvalues --    0.91853   0.93188   0.93453   0.95538   0.97027
 Alpha virt. eigenvalues --    0.98844   1.00120   1.00253   1.01253   1.01678
 Alpha virt. eigenvalues --    1.02882   1.03280   1.04554   1.05773   1.05961
 Alpha virt. eigenvalues --    1.06312   1.07052   1.08524   1.08566   1.10683
 Alpha virt. eigenvalues --    1.11294   1.12159   1.13639   1.14124   1.14753
 Alpha virt. eigenvalues --    1.15158   1.16114   1.16445   1.17451   1.18331
 Alpha virt. eigenvalues --    1.18923   1.19492   1.19809   1.21706   1.23824
 Alpha virt. eigenvalues --    1.24407   1.26497   1.27921   1.28117   1.28988
 Alpha virt. eigenvalues --    1.29446   1.30313   1.31314   1.32666   1.32796
 Alpha virt. eigenvalues --    1.34835   1.35266   1.35911   1.37167   1.38433
 Alpha virt. eigenvalues --    1.39767   1.40439   1.42150   1.42768   1.44232
 Alpha virt. eigenvalues --    1.44695   1.45734   1.46146   1.47423   1.49116
 Alpha virt. eigenvalues --    1.49241   1.50188   1.50380   1.51173   1.53260
 Alpha virt. eigenvalues --    1.53323   1.54840   1.55430   1.55616   1.58025
 Alpha virt. eigenvalues --    1.58394   1.59930   1.62374   1.62442   1.63394
 Alpha virt. eigenvalues --    1.65978   1.67116   1.67514   1.69005   1.69740
 Alpha virt. eigenvalues --    1.70413   1.71446   1.71732   1.73437   1.74954
 Alpha virt. eigenvalues --    1.76323   1.77147   1.78767   1.80499   1.83002
 Alpha virt. eigenvalues --    1.83464   1.85296   1.85689   1.86487   1.86696
 Alpha virt. eigenvalues --    1.87111   1.87130   1.88677   1.89471   1.89594
 Alpha virt. eigenvalues --    1.89690   1.90761   1.90958   1.91582   1.91640
 Alpha virt. eigenvalues --    1.91850   1.94057   1.94375   1.95827   1.95952
 Alpha virt. eigenvalues --    1.96679   1.97254   1.97983   1.99426   1.99657
 Alpha virt. eigenvalues --    2.00111   2.00700   2.03062   2.03298   2.04078
 Alpha virt. eigenvalues --    2.05057   2.05437   2.06049   2.07366   2.07534
 Alpha virt. eigenvalues --    2.07789   2.08728   2.09177   2.10147   2.10399
 Alpha virt. eigenvalues --    2.10912   2.12269   2.14810   2.15269   2.16335
 Alpha virt. eigenvalues --    2.17718   2.18184   2.21281   2.21554   2.22560
 Alpha virt. eigenvalues --    2.24357   2.25749   2.27438   2.27903   2.30435
 Alpha virt. eigenvalues --    2.32521   2.32596   2.33290   2.35187   2.35886
 Alpha virt. eigenvalues --    2.37183   2.37843   2.38653   2.39322   2.40676
 Alpha virt. eigenvalues --    2.42121   2.43316   2.48334   2.50393   2.54294
 Alpha virt. eigenvalues --    2.55569   2.56780   2.56984   2.60619   2.64476
 Alpha virt. eigenvalues --    2.64581   2.66201   2.67342   2.67374   2.71055
 Alpha virt. eigenvalues --    2.71206   2.72869   2.74044   2.75626   2.77556
 Alpha virt. eigenvalues --    2.79864   2.80413   2.82277   2.85221   2.85477
 Alpha virt. eigenvalues --    2.86343   2.91475   2.97841   3.00158   3.02523
 Alpha virt. eigenvalues --    3.12079   3.12481   3.13660   3.16189   3.19420
 Alpha virt. eigenvalues --    3.21374   3.24325   3.27156   3.30140   3.36353
 Alpha virt. eigenvalues --    3.44832   4.20872   4.22593   4.28633   4.30315
 Alpha virt. eigenvalues --    4.33320   4.34864   4.40847   4.43245   4.44742
 Alpha virt. eigenvalues --    4.45234   4.47605   4.51620   4.51901   4.54347
 Alpha virt. eigenvalues --    4.59680   4.65086   4.66924   4.71421   4.77947
 Alpha virt. eigenvalues --    4.87104   5.47234   6.09783   6.81065
          Condensed to atoms (all electrons):
               1          2          3          4          5          6
     1  C   13.024448   2.277832  -1.726595  -4.152511  -0.790737  -2.306365
     2  C    2.277832  10.153275  -0.255908  -2.709037   0.051212  -3.287631
     3  C   -1.726595  -0.255908  10.677415   2.244192  -4.022642   0.578688
     4  C   -4.152511  -2.709037   2.244192  13.159653  -1.378856  -0.150559
     5  C   -0.790737   0.051212  -4.022642  -1.378856  11.794502  -0.776669
     6  C   -2.306365  -3.287631   0.578688  -0.150559  -0.776669  12.828299
     7  N   -0.024448  -0.017954  -0.021066   0.141505  -0.038502   0.035007
     8  C   -0.746923  -0.506630  -0.499978  -0.256813   0.046190  -0.064898
     9  N   -0.009488  -0.010777  -0.066779  -0.099743  -0.035691  -0.015327
    10  O    0.018880  -0.021576  -0.169538  -0.480890   0.455136   0.161826
    11  C   -0.043999  -0.038199  -0.071732  -0.259917  -0.134284  -0.021306
    12  C    0.000608   0.001818   0.008132   0.017060  -0.008218  -0.002517
    13  C   -0.000376  -0.000263  -0.000924  -0.006844  -0.004439  -0.000593
    14  H    0.035718   0.092593   0.238793  -0.052738   0.043956  -0.051941
    15  H    0.046206  -0.006306   0.020619   0.008062   0.239952   0.012058
    16  H    0.004219  -0.006530  -0.090597   0.044890   0.058430   0.003940
    17  H   -0.000084  -0.000986  -0.003058   0.008364   0.005372   0.000493
    18  H   -0.000007  -0.000018   0.000220  -0.000609  -0.000913   0.000087
    19  H   -0.000020  -0.000062  -0.000263  -0.003819   0.000614   0.000261
    20  H   -0.000002   0.000003   0.000128  -0.000531  -0.000188  -0.000008
    21  H   -0.000001  -0.000001   0.000069  -0.000659  -0.000027   0.000003
    22  H   -0.000000   0.000000   0.000003   0.000012  -0.000029  -0.000002
    23  H   -0.000000  -0.000000  -0.000003  -0.000037   0.000002   0.000000
    24  H   -0.000000   0.000000   0.000003   0.000002  -0.000029  -0.000002
    25  O    0.145963  -0.038982   0.019246   0.012519   0.066117  -0.324714
    26  C    0.477457  -0.129702  -0.209475  -0.247419  -0.007015  -0.244127
    27  F   -0.044069   0.039532   0.009236   0.003533  -0.005982  -0.001073
    28  F    0.020989  -0.037081   0.025632   0.013194  -0.000268   0.011555
    29  F    0.015330  -0.037298   0.027035   0.015002   0.001637   0.014179
    30  H   -0.009026   0.310290  -0.030256   0.038644  -0.009096   0.010195
    31  H   -0.000510   0.020038  -0.015386   0.003704   0.007647   0.296825
    32  O    0.002032   0.026100   0.102354  -0.124652  -0.016615  -0.001665
    33  O   -0.000267  -0.002637  -0.000171   0.003781  -0.002619   0.000613
    34  C   -0.001119  -0.000043  -0.009670   0.007721  -0.007947  -0.000960
    35  C   -0.001953  -0.009390   0.000855  -0.002879  -0.002307  -0.000353
    36  C    0.000943   0.008057   0.003392  -0.010823  -0.000873  -0.000196
    37  H   -0.000000  -0.000001   0.000131  -0.000150  -0.000019  -0.000000
    38  H   -0.000000   0.000005   0.000194  -0.000218  -0.000022  -0.000000
    39  H    0.000014   0.000367   0.000383  -0.000790  -0.000041   0.000001
    40  H   -0.000000  -0.000018  -0.000049   0.000064   0.000003   0.000000
    41  H    0.000005   0.000215   0.000110  -0.000421  -0.000027   0.000003
               7          8          9         10         11         12
     1  C   -0.024448  -0.746923  -0.009488   0.018880  -0.043999   0.000608
     2  C   -0.017954  -0.506630  -0.010777  -0.021576  -0.038199   0.001818
     3  C   -0.021066  -0.499978  -0.066779  -0.169538  -0.071732   0.008132
     4  C    0.141505  -0.256813  -0.099743  -0.480890  -0.259917   0.017060
     5  C   -0.038502   0.046190  -0.035691   0.455136  -0.134284  -0.008218
     6  C    0.035007  -0.064898  -0.015327   0.161826  -0.021306  -0.002517
     7  N    7.808068   0.257920  -0.337859  -0.095705  -0.203092   0.011281
     8  C    0.257920   6.711226   0.486435   0.601931  -0.788805   0.167397
     9  N   -0.337859   0.486435   7.649806  -0.189526   0.307091  -0.057443
    10  O   -0.095705   0.601931  -0.189526   8.511496  -0.072883   0.018997
    11  C   -0.203092  -0.788805   0.307091  -0.072883   7.178990  -0.423664
    12  C    0.011281   0.167397  -0.057443   0.018997  -0.423664   6.229936
    13  C   -0.004110  -0.053639  -0.007504  -0.001003   0.029414  -0.144965
    14  H   -0.003092  -0.003895   0.000935   0.000026  -0.000272   0.000013
    15  H   -0.010967  -0.005441  -0.000352  -0.004525   0.002151   0.000134
    16  H    0.173203  -0.037999   0.028288   0.004272   0.004488   0.000094
    17  H    0.028215   0.027894   0.196013   0.005837  -0.059970   0.000869
    18  H   -0.000407  -0.032687  -0.051057   0.002112   0.437738  -0.042965
    19  H   -0.000112  -0.039904  -0.052593   0.002574   0.447659  -0.045860
    20  H   -0.000010  -0.003531   0.006798  -0.000128  -0.084281   0.420582
    21  H    0.000075  -0.003452   0.006442  -0.000100  -0.084453   0.419005
    22  H    0.000017   0.000587   0.000400  -0.000038  -0.010537  -0.069273
    23  H    0.000007  -0.002366   0.000347   0.000005   0.026892  -0.112622
    24  H    0.000014   0.000547   0.000402  -0.000035  -0.010127  -0.068650
    25  O   -0.000321   0.003522  -0.000008   0.000043   0.000040  -0.000000
    26  C   -0.000433  -0.021616   0.000023   0.000035  -0.000377   0.000002
    27  F    0.000006   0.000080   0.000000  -0.000000   0.000000   0.000000
    28  F   -0.000001   0.000079  -0.000000  -0.000000  -0.000000   0.000000
    29  F   -0.000007   0.000092  -0.000000   0.000000  -0.000000   0.000000
    30  H    0.000748   0.004289   0.000010  -0.000001   0.000031   0.000000
    31  H   -0.000621  -0.000212   0.000010   0.000222  -0.000002   0.000001
    32  O   -0.009537  -0.006742   0.009041  -0.000291   0.012350  -0.001682
    33  O    0.010736   0.004516  -0.016444  -0.000089  -0.016875   0.009365
    34  C   -0.010315  -0.003373  -0.008278  -0.000632   0.007228  -0.003852
    35  C   -0.013559  -0.005573  -0.006338  -0.000389   0.015942  -0.002907
    36  C    0.002306  -0.001336   0.001337   0.000040  -0.001096   0.000016
    37  H    0.000045  -0.000074  -0.000003  -0.000000  -0.000016   0.000054
    38  H    0.000049  -0.000053  -0.000009  -0.000000  -0.000028   0.000059
    39  H    0.000025  -0.000047  -0.000002   0.000000  -0.000013   0.000007
    40  H    0.000001   0.000014  -0.000002   0.000000  -0.000003   0.000001
    41  H    0.000016  -0.000051  -0.000000   0.000000  -0.000010   0.000006
              13         14         15         16         17         18
     1  C   -0.000376   0.035718   0.046206   0.004219  -0.000084  -0.000007
     2  C   -0.000263   0.092593  -0.006306  -0.006530  -0.000986  -0.000018
     3  C   -0.000924   0.238793   0.020619  -0.090597  -0.003058   0.000220
     4  C   -0.006844  -0.052738   0.008062   0.044890   0.008364  -0.000609
     5  C   -0.004439   0.043956   0.239952   0.058430   0.005372  -0.000913
     6  C   -0.000593  -0.051941   0.012058   0.003940   0.000493   0.000087
     7  N   -0.004110  -0.003092  -0.010967   0.173203   0.028215  -0.000407
     8  C   -0.053639  -0.003895  -0.005441  -0.037999   0.027894  -0.032687
     9  N   -0.007504   0.000935  -0.000352   0.028288   0.196013  -0.051057
    10  O   -0.001003   0.000026  -0.004525   0.004272   0.005837   0.002112
    11  C    0.029414  -0.000272   0.002151   0.004488  -0.059970   0.437738
    12  C   -0.144965   0.000013   0.000134   0.000094   0.000869  -0.042965
    13  C    5.796077  -0.000001   0.000003   0.000074  -0.002466  -0.004425
    14  H   -0.000001   0.434844  -0.000097   0.004726   0.000004   0.000000
    15  H    0.000003  -0.000097   0.427480  -0.000087   0.000001  -0.000000
    16  H    0.000074   0.004726  -0.000087   0.260508   0.003421   0.000004
    17  H   -0.002466   0.000004   0.000001   0.003421   0.265368   0.001719
    18  H   -0.004425   0.000000  -0.000000   0.000004   0.001719   0.501097
    19  H   -0.001670   0.000000  -0.000000   0.000004   0.001741  -0.041279
    20  H   -0.024045   0.000000  -0.000000   0.000002   0.000648   0.003827
    21  H   -0.021931   0.000000  -0.000000   0.000002   0.000662  -0.005318
    22  H    0.422886   0.000000   0.000000  -0.000000  -0.000000  -0.000304
    23  H    0.438913  -0.000000   0.000000  -0.000000  -0.000001  -0.000055
    24  H    0.421871   0.000000   0.000000  -0.000000  -0.000000   0.002754
    25  O    0.000000  -0.000655  -0.000484  -0.000002  -0.000000   0.000000
    26  C   -0.000001   0.001646   0.000486   0.000060  -0.000000  -0.000000
    27  F    0.000000  -0.000001  -0.000000  -0.000000   0.000000   0.000000
    28  F   -0.000000   0.000039   0.000001   0.000000  -0.000000  -0.000000
    29  F   -0.000000   0.000041   0.000001   0.000000  -0.000000   0.000000
    30  H    0.000000  -0.003759   0.000011  -0.000008  -0.000000  -0.000000
    31  H   -0.000000   0.000011  -0.004226   0.000001  -0.000000  -0.000000
    32  O    0.000144  -0.000942   0.000003   0.046456   0.003335  -0.000003
    33  O    0.002325   0.000003   0.000001  -0.000183   0.033626  -0.000004
    34  C   -0.001438  -0.000459  -0.000043  -0.003309  -0.006028   0.000250
    35  C    0.001270   0.001069  -0.000003   0.002967   0.001283   0.000036
    36  C   -0.000059  -0.000319   0.000000  -0.000003  -0.000223   0.000000
    37  H    0.000009  -0.000000   0.000000  -0.000004  -0.000003  -0.000000
    38  H    0.000009  -0.000000   0.000000  -0.000004  -0.000002   0.000000
    39  H    0.000000   0.000000   0.000000   0.000001   0.000000   0.000000
    40  H   -0.000000   0.000000  -0.000000  -0.000000   0.000000  -0.000000
    41  H    0.000000   0.000000   0.000000   0.000001   0.000000  -0.000000
              19         20         21         22         23         24
     1  C   -0.000020  -0.000002  -0.000001  -0.000000  -0.000000  -0.000000
     2  C   -0.000062   0.000003  -0.000001   0.000000  -0.000000   0.000000
     3  C   -0.000263   0.000128   0.000069   0.000003  -0.000003   0.000003
     4  C   -0.003819  -0.000531  -0.000659   0.000012  -0.000037   0.000002
     5  C    0.000614  -0.000188  -0.000027  -0.000029   0.000002  -0.000029
     6  C    0.000261  -0.000008   0.000003  -0.000002   0.000000  -0.000002
     7  N   -0.000112  -0.000010   0.000075   0.000017   0.000007   0.000014
     8  C   -0.039904  -0.003531  -0.003452   0.000587  -0.002366   0.000547
     9  N   -0.052593   0.006798   0.006442   0.000400   0.000347   0.000402
    10  O    0.002574  -0.000128  -0.000100  -0.000038   0.000005  -0.000035
    11  C    0.447659  -0.084281  -0.084453  -0.010537   0.026892  -0.010127
    12  C   -0.045860   0.420582   0.419005  -0.069273  -0.112622  -0.068650
    13  C   -0.001670  -0.024045  -0.021931   0.422886   0.438913   0.421871
    14  H    0.000000   0.000000   0.000000   0.000000  -0.000000   0.000000
    15  H   -0.000000  -0.000000  -0.000000   0.000000   0.000000   0.000000
    16  H    0.000004   0.000002   0.000002  -0.000000  -0.000000  -0.000000
    17  H    0.001741   0.000648   0.000662  -0.000000  -0.000001  -0.000000
    18  H   -0.041279   0.003827  -0.005318  -0.000304  -0.000055   0.002754
    19  H    0.501558  -0.005328   0.003839   0.002777  -0.000053  -0.000310
    20  H   -0.005328   0.490167  -0.031448  -0.004639  -0.003151   0.003790
    21  H    0.003839  -0.031448   0.489872   0.003783  -0.003140  -0.004623
    22  H    0.002777  -0.004639   0.003783   0.488062  -0.023962  -0.028559
    23  H   -0.000053  -0.003151  -0.003140  -0.023962   0.482330  -0.023934
    24  H   -0.000310   0.003790  -0.004623  -0.028559  -0.023934   0.488038
    25  O   -0.000000   0.000000   0.000000   0.000000   0.000000   0.000000
    26  C   -0.000000  -0.000000  -0.000000  -0.000000  -0.000000  -0.000000
    27  F    0.000000   0.000000   0.000000   0.000000   0.000000   0.000000
    28  F    0.000000  -0.000000   0.000000  -0.000000  -0.000000   0.000000
    29  F   -0.000000  -0.000000  -0.000000   0.000000  -0.000000  -0.000000
    30  H   -0.000000  -0.000000  -0.000000   0.000000  -0.000000   0.000000
    31  H   -0.000000   0.000000   0.000000   0.000000  -0.000000   0.000000
    32  O   -0.000003   0.000015   0.000015   0.000000  -0.000000   0.000000
    33  O   -0.000009  -0.000382  -0.000403  -0.000001  -0.000028  -0.000001
    34  C    0.000231  -0.000572  -0.000618  -0.000010  -0.000060  -0.000011
    35  C    0.000036  -0.000046  -0.000107  -0.000004   0.000036  -0.000004
    36  C    0.000000  -0.000022  -0.000021  -0.000000  -0.000000  -0.000000
    37  H    0.000000   0.000000  -0.000000   0.000000  -0.000000   0.000000
    38  H   -0.000000  -0.000000   0.000000   0.000000  -0.000000   0.000000
    39  H   -0.000000   0.000000  -0.000000  -0.000000   0.000000   0.000000
    40  H   -0.000000  -0.000000  -0.000000  -0.000000   0.000000  -0.000000
    41  H    0.000000  -0.000000   0.000000   0.000000   0.000000  -0.000000
              25         26         27         28         29         30
     1  C    0.145963   0.477457  -0.044069   0.020989   0.015330  -0.009026
     2  C   -0.038982  -0.129702   0.039532  -0.037081  -0.037298   0.310290
     3  C    0.019246  -0.209475   0.009236   0.025632   0.027035  -0.030256
     4  C    0.012519  -0.247419   0.003533   0.013194   0.015002   0.038644
     5  C    0.066117  -0.007015  -0.005982  -0.000268   0.001637  -0.009096
     6  C   -0.324714  -0.244127  -0.001073   0.011555   0.014179   0.010195
     7  N   -0.000321  -0.000433   0.000006  -0.000001  -0.000007   0.000748
     8  C    0.003522  -0.021616   0.000080   0.000079   0.000092   0.004289
     9  N   -0.000008   0.000023   0.000000  -0.000000  -0.000000   0.000010
    10  O    0.000043   0.000035  -0.000000  -0.000000   0.000000  -0.000001
    11  C    0.000040  -0.000377   0.000000  -0.000000  -0.000000   0.000031
    12  C   -0.000000   0.000002   0.000000   0.000000   0.000000   0.000000
    13  C    0.000000  -0.000001   0.000000  -0.000000  -0.000000   0.000000
    14  H   -0.000655   0.001646  -0.000001   0.000039   0.000041  -0.003759
    15  H   -0.000484   0.000486  -0.000000   0.000001   0.000001   0.000011
    16  H   -0.000002   0.000060  -0.000000   0.000000   0.000000  -0.000008
    17  H   -0.000000  -0.000000   0.000000  -0.000000  -0.000000  -0.000000
    18  H    0.000000  -0.000000   0.000000  -0.000000   0.000000  -0.000000
    19  H   -0.000000  -0.000000   0.000000   0.000000  -0.000000  -0.000000
    20  H    0.000000  -0.000000   0.000000  -0.000000  -0.000000  -0.000000
    21  H    0.000000  -0.000000   0.000000   0.000000  -0.000000  -0.000000
    22  H    0.000000  -0.000000   0.000000  -0.000000   0.000000   0.000000
    23  H    0.000000  -0.000000   0.000000  -0.000000  -0.000000  -0.000000
    24  H    0.000000  -0.000000   0.000000   0.000000  -0.000000   0.000000
    25  O    8.516196   0.218548  -0.012440  -0.069621  -0.068658  -0.009997
    26  C    0.218548   4.285838   0.223574   0.221138   0.218917   0.000423
    27  F   -0.012440   0.223574   9.186569  -0.041853  -0.041836   0.000535
    28  F   -0.069621   0.221138  -0.041853   9.221618  -0.048147  -0.000597
    29  F   -0.068658   0.218917  -0.041836  -0.048147   9.220159  -0.000571
    30  H   -0.009997   0.000423   0.000535  -0.000597  -0.000571   0.436354
    31  H   -0.002187  -0.001499  -0.000017   0.000031   0.000031  -0.000103
    32  O    0.000004   0.000005   0.000000   0.000000   0.000000  -0.000003
    33  O    0.000000  -0.000002   0.000000  -0.000000  -0.000000  -0.000000
    34  C    0.000008  -0.000043   0.000000  -0.000001  -0.000001   0.000004
    35  C    0.000001  -0.000035   0.000000  -0.000000  -0.000000  -0.000003
    36  C   -0.000000   0.000017  -0.000000   0.000000   0.000000  -0.000000
    37  H    0.000000  -0.000000  -0.000000  -0.000000  -0.000000  -0.000000
    38  H    0.000000  -0.000000  -0.000000  -0.000000  -0.000000  -0.000000
    39  H    0.000000   0.000000   0.000000   0.000000   0.000000   0.000000
    40  H   -0.000000  -0.000000   0.000000   0.000000   0.000000  -0.000000
    41  H    0.000000   0.000000   0.000000  -0.000000   0.000000   0.000000
              31         32         33         34         35         36
     1  C   -0.000510   0.002032  -0.000267  -0.001119  -0.001953   0.000943
     2  C    0.020038   0.026100  -0.002637  -0.000043  -0.009390   0.008057
     3  C   -0.015386   0.102354  -0.000171  -0.009670   0.000855   0.003392
     4  C    0.003704  -0.124652   0.003781   0.007721  -0.002879  -0.010823
     5  C    0.007647  -0.016615  -0.002619  -0.007947  -0.002307  -0.000873
     6  C    0.296825  -0.001665   0.000613  -0.000960  -0.000353  -0.000196
     7  N   -0.000621  -0.009537   0.010736  -0.010315  -0.013559   0.002306
     8  C   -0.000212  -0.006742   0.004516  -0.003373  -0.005573  -0.001336
     9  N    0.000010   0.009041  -0.016444  -0.008278  -0.006338   0.001337
    10  O    0.000222  -0.000291  -0.000089  -0.000632  -0.000389   0.000040
    11  C   -0.000002   0.012350  -0.016875   0.007228   0.015942  -0.001096
    12  C    0.000001  -0.001682   0.009365  -0.003852  -0.002907   0.000016
    13  C   -0.000000   0.000144   0.002325  -0.001438   0.001270  -0.000059
    14  H    0.000011  -0.000942   0.000003  -0.000459   0.001069  -0.000319
    15  H   -0.004226   0.000003   0.000001  -0.000043  -0.000003   0.000000
    16  H    0.000001   0.046456  -0.000183  -0.003309   0.002967  -0.000003
    17  H   -0.000000   0.003335   0.033626  -0.006028   0.001283  -0.000223
    18  H   -0.000000  -0.000003  -0.000004   0.000250   0.000036   0.000000
    19  H   -0.000000  -0.000003  -0.000009   0.000231   0.000036   0.000000
    20  H    0.000000   0.000015  -0.000382  -0.000572  -0.000046  -0.000022
    21  H    0.000000   0.000015  -0.000403  -0.000618  -0.000107  -0.000021
    22  H    0.000000   0.000000  -0.000001  -0.000010  -0.000004  -0.000000
    23  H   -0.000000  -0.000000  -0.000028  -0.000060   0.000036  -0.000000
    24  H    0.000000   0.000000  -0.000001  -0.000011  -0.000004  -0.000000
    25  O   -0.002187   0.000004   0.000000   0.000008   0.000001  -0.000000
    26  C   -0.001499   0.000005  -0.000002  -0.000043  -0.000035   0.000017
    27  F   -0.000017   0.000000   0.000000   0.000000   0.000000  -0.000000
    28  F    0.000031   0.000000  -0.000000  -0.000001  -0.000000   0.000000
    29  F    0.000031   0.000000  -0.000000  -0.000001  -0.000000   0.000000
    30  H   -0.000103  -0.000003  -0.000000   0.000004  -0.000003  -0.000000
    31  H    0.432938  -0.000000  -0.000000   0.000001   0.000000   0.000000
    32  O   -0.000000   8.796463  -0.175219   0.251660  -0.078125   0.028582
    33  O   -0.000000  -0.175219   8.630709   0.434600  -0.240097   0.032000
    34  C    0.000001   0.251660   0.434600   5.130880  -0.292414  -0.098898
    35  C    0.000000  -0.078125  -0.240097  -0.292414   6.545675  -0.049576
    36  C    0.000000   0.028582   0.032000  -0.098898  -0.049576   5.675251
    37  H    0.000000   0.001918  -0.002368  -0.058996   0.419899  -0.044213
    38  H    0.000000   0.002035  -0.002488  -0.058929   0.419991  -0.044381
    39  H   -0.000000  -0.001806   0.000009  -0.011960  -0.047894   0.408059
    40  H    0.000000   0.001207  -0.000301   0.031008  -0.077631   0.391167
    41  H   -0.000000  -0.001922   0.000031  -0.012805  -0.046895   0.408015
              37         38         39         40         41
     1  C   -0.000000  -0.000000   0.000014  -0.000000   0.000005
     2  C   -0.000001   0.000005   0.000367  -0.000018   0.000215
     3  C    0.000131   0.000194   0.000383  -0.000049   0.000110
     4  C   -0.000150  -0.000218  -0.000790   0.000064  -0.000421
     5  C   -0.000019  -0.000022  -0.000041   0.000003  -0.000027
     6  C   -0.000000  -0.000000   0.000001   0.000000   0.000003
     7  N    0.000045   0.000049   0.000025   0.000001   0.000016
     8  C   -0.000074  -0.000053  -0.000047   0.000014  -0.000051
     9  N   -0.000003  -0.000009  -0.000002  -0.000002  -0.000000
    10  O   -0.000000  -0.000000   0.000000   0.000000   0.000000
    11  C   -0.000016  -0.000028  -0.000013  -0.000003  -0.000010
    12  C    0.000054   0.000059   0.000007   0.000001   0.000006
    13  C    0.000009   0.000009   0.000000  -0.000000   0.000000
    14  H   -0.000000  -0.000000   0.000000   0.000000   0.000000
    15  H    0.000000   0.000000   0.000000  -0.000000   0.000000
    16  H   -0.000004  -0.000004   0.000001  -0.000000   0.000001
    17  H   -0.000003  -0.000002   0.000000   0.000000   0.000000
    18  H   -0.000000   0.000000   0.000000  -0.000000  -0.000000
    19  H    0.000000  -0.000000  -0.000000  -0.000000   0.000000
    20  H    0.000000  -0.000000   0.000000  -0.000000  -0.000000
    21  H   -0.000000   0.000000  -0.000000  -0.000000   0.000000
    22  H    0.000000   0.000000  -0.000000  -0.000000   0.000000
    23  H   -0.000000  -0.000000   0.000000   0.000000   0.000000
    24  H    0.000000   0.000000   0.000000  -0.000000  -0.000000
    25  O    0.000000   0.000000   0.000000  -0.000000   0.000000
    26  C   -0.000000  -0.000000   0.000000  -0.000000   0.000000
    27  F   -0.000000  -0.000000   0.000000   0.000000   0.000000
    28  F   -0.000000  -0.000000   0.000000   0.000000  -0.000000
    29  F   -0.000000  -0.000000   0.000000   0.000000   0.000000
    30  H   -0.000000  -0.000000   0.000000  -0.000000   0.000000
    31  H    0.000000   0.000000  -0.000000   0.000000  -0.000000
    32  O    0.001918   0.002035  -0.001806   0.001207  -0.001922
    33  O   -0.002368  -0.002488   0.000009  -0.000301   0.000031
    34  C   -0.058996  -0.058929  -0.011960   0.031008  -0.012805
    35  C    0.419899   0.419991  -0.047894  -0.077631  -0.046895
[...]
 003,-0.00000130,-0.00000005,0.00000205,-0.00000039,-0.00000031,0.00000
 019,0.00000063,-0.00000085,0.00000025,0.00000021,0.00000043,0.00000030
 ,-0.00000802,0.00000314,-0.00000336,0.00000670,0.00000102,-0.00000136,
 -0.00000177,0.00000079,-0.00000011,-0.00000084,0.,0.00000018,-0.000001
 58,-0.00000057,0.00000148,-0.00000042,0.00000005,-0.00000108,-0.000001
 11,0.00000116,-0.00000088,0.00035494,0.00255336,0.00023290,-0.00109840
 ,-0.00078026,0.00187663,0.00058846,-0.00072479,-0.00838688,0.05931971,
 0.01656408,-0.30088779,0.00348854,0.00046690,-0.01576196,-0.06110599,-
 0.01706374,0.32642942,0.00000121,-0.00000158,0.00000098,0.00000008,0.0
 0000058,-0.00000056,0.00000019,-0.00000399,-0.00000092,0.00000698,0.00
 000562,0.00000271,-0.00000233,0.00000187,-0.00000176,-0.00000030,0.000
 00128,0.00000058,0.00001354,0.00002357,-0.00002256,-0.00003474,0.00001
 591,-0.00001196,0.00001417,-0.00003403,0.00000137,0.00000798,-0.000005
 46,0.00000593,0.00000547,0.00000466,0.00000507,0.00000040,0.00000003,-
 0.00000493,-0.00000154,0.00000089,-0.00000009,-0.00000092,0.00000126,0
 .00000055,0.,0.00000024,0.00000016,-0.00002595,-0.00001787,0.00002728,
 0.00002708,0.00010072,-0.00003134,-0.00000027,-0.00000035,-0.00000074,
 -0.00000029,-0.00000022,0.00000055,0.00000227,0.00000563,0.00000226,-0
 .00000085,-0.00000005,0.00000193,0.00000002,-0.00000025,-0.00000032,0.
 00000084,-0.00000118,0.00000060,0.00000020,-0.00000014,0.00000003,-0.0
 0000121,0.00000122,-0.00000117,0.00000066,-0.00000221,0.00000199,-0.00
 000060,0.00000093,-0.00000050,-0.00000009,0.00000048,-0.00000027,0.000
 00019,0.00000071,-0.00000093,0.00000004,-0.00000037,0.00000035,-0.0000
 0026,0.00000030,-0.00000015,0.00016593,0.00018539,0.00148923,0.0001873
 2,-0.00136312,0.00019580,0.00430502,-0.00358375,-0.00311405,-0.2373571
 3,0.11731211,0.03154210,-0.02006431,0.01132733,0.00345987,-0.00636568,
 0.00386367,0.00123568,0.25972084,-0.00000504,0.00000361,-0.00000339,-0
 .00000131,0.00000005,-0.00000091,0.00002095,0.00001267,0.00000290,-0.0
 0011137,0.00001358,-0.00004918,0.00002596,-0.00001868,0.00001528,-0.00
 000172,-0.00000625,-0.00000052,-0.00005531,-0.00040382,0.00000920,0.00
 012546,0.00005248,-0.00003312,-0.00002096,-0.00010357,0.00001851,-0.00
 006521,-0.00009544,0.00005832,0.00004314,-0.00000014,0.00000613,-0.000
 01047,-0.00001367,-0.00000358,0.00000210,0.00000245,0.00000064,-0.0000
 0062,-0.00000340,-0.00000213,-0.00000045,0.00000202,-0.00000035,0.0000
 1171,0.00068445,0.00001450,0.00006367,0.00022002,-0.00003963,-0.000012
 10,-0.00000407,-0.00000237,-0.00001049,-0.00000279,0.00000108,-0.00000
 160,0.00000249,0.00000028,-0.00000097,0.00000203,0.00000115,-0.0000013
 5,-0.00000074,0.00000069,-0.00000347,0.00000083,-0.00000140,-0.0000003
 1,-0.00000015,0.,0.00001819,-0.00000597,0.00000925,-0.00001373,-0.0000
 0448,-0.00000414,0.00000353,-0.00000139,0.00000122,0.00000184,0.000001
 92,0.00000219,0.00000265,0.00000112,-0.00000077,0.00000213,-0.00000086
 ,0.00000092,0.00000284,-0.00000215,0.00000071,-0.00252614,-0.00520674,
 0.00498338,-0.00299134,0.00134357,0.00202490,0.02988230,-0.01479916,-0
 .00847787,0.11885954,-0.12006914,-0.02229650,-0.01347046,0.00760405,0.
 00227548,-0.00280237,0.00148999,0.00014441,-0.12555835,0.12892963,0.00
 000091,0.00000007,-0.00000051,-0.00000051,-0.00000026,0.00000061,-0.00
 000190,-0.00000240,-0.00000067,0.00001591,0.00000124,0.00000912,-0.000
 00397,0.00000298,-0.00000391,-0.00000007,0.00000144,0.00000042,0.00001
 893,0.00011130,0.00001262,-0.00005560,0.00001038,-0.00000634,-0.000000
 81,-0.00003201,0.00002261,0.00001456,0.00000011,-0.00000532,0.00000428
 ,-0.00000033,0.00000412,-0.00000169,0.00000095,0.00000159,0.00000035,-
 0.00000103,0.00000001,-0.00000146,-0.00000075,0.00000075,0.00000021,-0
 .00000021,0.00000005,0.00000892,-0.00016373,-0.00003285,0.00002790,0.0
 0005061,-0.00004401,-0.00000018,-0.00000083,-0.00000036,-0.00000125,0.
 00000013,0.00000020,-0.00000077,-0.00000347,-0.00000018,0.00000079,-0.
 00000090,-0.00000114,0.00000005,0.00000029,-0.00000013,-0.00000087,0.0
 0000047,-0.00000002,-0.00000050,-0.00000023,-0.00000004,-0.00000179,0.
 00000068,-0.00000101,0.00000092,0.00000016,0.00000075,-0.00000029,0.00
 000018,-0.00000017,-0.00000011,-0.00000017,-0.00000035,-0.00000012,0.,
 -0.00000009,-0.00000032,0.00000018,0.00000015,-0.00000057,0.00000033,0
 .,0.00122937,0.00168956,-0.00162170,-0.00038570,-0.00187237,-0.0004606
 4,-0.00786812,0.00671090,0.00044739,0.03068481,-0.02071858,-0.04846644
 ,-0.01647618,0.01000640,0.00238718,0.02672532,-0.01760642,-0.00422032,
 -0.03207901,0.02239157,0.05200521,0.00000350,-0.00000108,0.00000094,0.
 00000008,-0.00000019,-0.00000138,0.00000152,-0.00000262,-0.00000148,-0
 .00000697,0.00000762,0.00000009,0.00000215,-0.00000191,-0.00000017,-0.
 00000177,0.00000148,-0.00000017,0.00000848,-0.00000107,-0.00000210,-0.
 00003119,0.00001007,-0.00001003,-0.00000639,-0.00004015,0.00001767,0.0
 0000454,-0.00000998,0.00000440,0.00000462,-0.00000139,0.00000367,0.000
 00004,0.00000154,0.00000099,0.00000089,-0.00000037,-0.00000009,-0.0000
 0394,-0.00000621,0.00000462,-0.00000032,0.00000035,0.00000038,0.000004
 20,-0.00000245,0.00001016,0.00002341,0.00004519,-0.00002109,-0.0000014
 8,-0.00000167,-0.00000047,-0.00000148,-0.00000076,0.00000069,0.0000002
 9,-0.00000105,-0.00000201,-0.00000019,0.00000117,0.00000083,-0.0000004
 2,0.,0.00000035,-0.00000004,0.00000016,0.00000011,-0.00000063,-0.00000
 080,-0.00000043,-0.00000127,0.00000146,-0.00000112,0.00000084,-0.00000
 311,0.00000358,-0.00000088,0.00000129,-0.00000077,-0.00000022,0.000000
 29,-0.00000059,0.00000041,0.00000074,-0.00000142,0.00000124,0.,0.00000
 153,0.00000002,-0.00000005,0.00000019,0.00121393,-0.00017034,0.0006782
 4,0.00008142,-0.00074833,0.00010381,-0.00016378,0.00219924,-0.00073126
 ,-0.02085112,0.01171285,0.00403914,-0.24664330,0.11577284,0.03621002,0
 .00113216,0.00008284,0.00004820,-0.00260454,-0.00264999,-0.00325126,0.
 26784719,0.00000212,-0.00000081,0.00000042,0.00000138,0.00000112,0.000
 00351,0.00000082,-0.00000369,-0.00000492,0.00000543,-0.00000089,0.0000
 0381,-0.00000107,0.00000014,-0.00000134,-0.00000118,0.00000114,-0.0000
 0011,0.00000896,0.00002587,-0.00000195,-0.00000931,-0.00000592,0.00000
 388,0.00000518,0.00001490,-0.00000751,0.00000558,0.00001011,-0.0000055
 3,-0.00000456,0.00000035,-0.00000005,0.00000037,0.00000081,0.00000030,
 -0.00000032,-0.00000022,0.00000006,0.00000048,0.00000648,0.00000170,0.
 ,0.00000005,0.00000012,-0.00000241,-0.00004607,0.00000024,-0.00000587,
 -0.00001746,0.00001180,0.00000073,0.00000060,0.00000040,0.00000138,-0.
 00000006,-0.00000031,0.00000007,-0.00000026,0.00000015,0.00000013,-0.0
 0000016,-0.00000025,0.00000012,0.00000004,-0.00000009,0.00000027,-0.00
 000008,0.00000003,0.00000008,0.00000009,0.00000007,-0.00000356,0.00000
 131,-0.00000187,0.00000341,0.00000027,0.00000164,-0.00000102,0.0000005
 3,-0.00000043,-0.00000030,-0.00000034,-0.00000073,-0.00000063,0.000000
 15,-0.00000039,-0.00000031,-0.00000048,0.,-0.00000011,0.00000031,-0.00
 000003,-0.00094621,-0.00022331,-0.00024234,0.00019430,0.00016810,-0.00
 025523,0.00005454,-0.00006925,0.00112017,-0.01255675,0.00720621,0.0026
 1197,0.11789195,-0.11544520,-0.02086563,0.00064936,0.00046034,0.000484
 56,-0.00239413,-0.00056973,-0.00133010,-0.12665750,0.12227692,-0.00000
 208,0.00000159,-0.00000153,0.00000057,-0.00000069,0.00000023,0.0000013
 2,0.00000354,0.00000119,-0.00000780,-0.00000103,-0.00000195,0.00000128
 ,-0.00000127,0.00000062,0.00000072,-0.00000165,0.00000016,-0.00000682,
 -0.00002956,0.00000279,0.00001150,0.00000673,-0.00000303,-0.00000827,-
 0.00001083,0.00000154,-0.00000644,-0.00000999,0.00000488,0.00000414,-0
 .00000041,0.00000149,-0.00000046,-0.00000036,0.00000070,0.00000008,0.0
 0000018,-0.00000050,0.00000090,-0.00000003,-0.00000102,-0.00000007,-0.
 00000021,0.,0.00000519,0.00005404,-0.00000911,0.00001433,0.00002102,-0
 .00000516,-0.00000128,-0.00000086,-0.00000031,-0.00000145,-0.00000063,
 0.00000034,0.00000024,0.00000018,-0.00000059,-0.00000003,0.00000069,0.
 00000053,-0.00000017,-0.00000006,0.00000019,-0.00000015,-0.00000005,0.
 00000001,-0.00000017,-0.00000014,-0.00000004,0.00000274,-0.00000214,0.
 00000121,-0.00000250,0.00000318,0.00000038,0.00000115,-0.00000131,0.00
 000025,0.00000030,-0.00000110,-0.00000057,0.00000039,-0.00000059,-0.00
 000025,-0.00000058,0.00000084,-0.00000037,0.00000008,-0.00000038,0.000
 00020,0.00005784,-0.00041921,0.00012302,0.00005062,-0.00017142,-0.0001
 4326,0.00056741,0.00075892,0.00029344,-0.01721099,0.01032381,0.0027510
 9,0.03710044,-0.02067379,-0.05517895,0.00061923,0.00072665,0.00073603,
 -0.00320289,-0.00193563,-0.00126833,-0.03668733,0.02402513,0.05563127,
 -0.00000093,0.00000126,-0.00000042,0.00000037,-0.00000011,-0.00000095,
 0.00000717,0.00000076,0.00000258,-0.00003575,0.00001426,-0.00001718,0.
 00000765,-0.00000750,0.00000506,-0.00000068,-0.00000067,-0.00000118,0.
 00001117,-0.00007683,0.00001494,-0.00004969,0.00005871,-0.00003596,-0.
 00003161,-0.00015186,0.00009483,-0.00000682,-0.00006473,0.00002853,0.0
 0003557,-0.00000499,0.00001299,-0.00000282,-0.00000335,-0.00000221,0.0
 0000148,0.00000140,0.00000015,-0.00000208,-0.00000290,0.00000168,0.,0.
 00000108,0.,0.00001239,0.00013596,-0.00002103,0.00010831,0.00023585,-0
 .00014285,-0.00000821,-0.00000447,-0.00000133,-0.00001084,-0.00000386,
 0.00000163,0.00000089,0.00000041,-0.00000216,-0.00000071,0.00000218,0.
 00000240,-0.00000122,-0.00000059,0.00000071,-0.00000205,0.00000020,-0.
 00000057,-0.00000079,-0.00000073,-0.00000031,0.00000612,-0.00000165,0.
 00000300,-0.00000447,-0.00000254,-0.00000073,0.00000099,-0.00000013,0.
 00000024,0.00000063,0.00000079,0.00000062,0.00000097,0.00000065,-0.000
 00062,0.00000101,-0.00000035,0.00000080,0.00000071,-0.00000062,0.00000
 031,0.00072535,-0.00039751,0.00064286,-0.00174531,-0.00308006,-0.00038
 676,-0.00226307,0.00241952,-0.00395349,-0.00386250,-0.02525720,0.00761
 718,-0.05322845,-0.03542336,0.01024880,0.00092260,0.00069443,0.0001945
 4,0.00078537,0.00052088,0.00082212,0.00558840,0.02643367,-0.00821615,0
 .05507840,-0.00000359,0.00000209,-0.00000251,-0.00000030,-0.00000120,-
 0.00000053,0.00000815,0.00000419,0.00000511,-0.00004434,0.00000889,-0.
 00002138,0.00000881,-0.00000800,0.00000640,0.00000027,-0.00000223,-0.0
 0000097,-0.00000418,-0.00011550,0.00002488,-0.00000146,0.00005537,-0.0
 0002836,-0.00002544,-0.00010310,0.00006811,-0.00002049,-0.00006485,0.0
 0002786,0.00003180,-0.00000196,0.00000955,-0.00000288,-0.00000389,-0.0
 0000111,0.00000190,0.00000111,-0.00000005,-0.00000022,-0.00000078,-0.0
 0000022,-0.00000006,0.00000084,-0.00000032,0.00001136,0.00022148,-0.00
 003945,0.00009803,0.00019941,-0.00011218,-0.00000722,-0.00000419,-0.00
 000149,-0.00000926,-0.00000313,0.00000154,0.00000051,0.00000016,-0.000
 00169,-0.00000012,0.00000200,0.00000186,-0.00000128,-0.00000042,0.0000
 0094,-0.00000217,0.00000079,-0.00000073,-0.00000097,-0.00000098,-0.000
 00053,0.00001046,-0.00000364,0.00000500,-0.00000855,-0.00000135,-0.000
 00255,0.00000246,-0.00000121,0.00000082,0.00000149,0.00000059,0.000001
 03,0.00000165,0.00000024,-0.00000020,0.00000091,0.00000014,0.00000046,
 0.00000103,-0.00000115,0.00000035,-0.00053677,-0.00101001,-0.00002283,
 -0.00146669,-0.00200550,-0.00048040,-0.00043666,0.00280183,-0.00125927
 ,-0.00012057,-0.01102360,0.00388251,-0.03668645,-0.29786625,0.06608278
 ,0.00039216,0.00030882,-0.00020882,-0.00014059,0.00062270,0.00012966,-
 0.00251286,-0.01412826,0.00398331,0.04124421,0.32170151,0.00000050,0.0
 0000026,-0.00000058,-0.00000034,0.00000019,0.00000036,0.00000350,0.000
 00030,0.00000099,-0.00001514,0.00000885,-0.00000708,0.00000369,-0.0000
 0309,0.00000158,-0.00000089,0.00000001,0.00000011,0.00000797,-0.000023
 14,0.00000901,-0.00004337,0.00003142,-0.00002212,-0.00001882,-0.000099
 93,0.00006765,0.00000104,-0.00003551,0.00001579,0.00002074,-0.00000331
 ,0.00000727,-0.00000164,-0.00000166,-0.00000210,0.00000052,0.00000077,
 0.00000020,0.00000010,-0.00000189,-0.00000092,0.00000009,0.00000065,0.
 00000001,0.00000775,0.00003625,-0.00000537,0.00006381,0.00014884,-0.00
 009665,-0.00000437,-0.00000256,-0.00000049,-0.00000674,-0.00000250,0.0
 0000086,0.00000019,0.00000062,-0.00000171,-0.00000040,0.00000165,0.000
 00199,-0.00000072,-0.00000035,0.00000034,-0.00000096,-0.00000006,-0.00
 000010,-0.00000037,-0.00000039,-0.00000008,0.00000196,-0.00000038,0.00
 000107,-0.00000107,-0.00000147,-0.00000035,0.00000014,0.00000017,0.000
 00004,0.00000003,0.00000051,0.00000032,0.00000027,0.00000034,-0.000000
 23,0.00000050,-0.00000030,0.00000023,0.00000028,-0.00000015,0.00000007
 ,0.00066122,0.00010363,0.00082547,-0.00114442,-0.00209965,-0.00010881,
 -0.00274293,0.00147210,-0.00242439,-0.00253733,-0.02014607,0.00461074,
 0.01072656,0.06729022,-0.06616079,0.00086446,0.00024046,0.00066762,0.0
 0053955,0.00059885,0.00047791,-0.00135649,-0.00581312,0.00058162,-0.00
 848161,-0.07241093,0.06788846,-0.00000082,0.00000033,-0.00000050,0.000
 00102,-0.00000049,-0.00000090,0.00000030,0.00000053,0.00000290,-0.0000
 0469,0.00000056,-0.00000177,0.00000124,-0.00000111,0.00000027,0.000000
 20,-0.00000045,-0.00000002,-0.00000342,-0.00001935,0.00000400,0.000001
 24,0.00000466,-0.00000444,-0.00000692,-0.00001687,0.00000972,-0.000003
 26,-0.00000831,0.00000442,0.00000520,-0.00000121,0.00000118,-0.0000005
 7,-0.00000157,-0.00000148,-0.00000014,0.00000075,0.00000036,0.00000045
 ,0.00000137,0.00000047,-0.00000002,-0.00000007,-0.00000005,0.00000083,
 0.00003034,-0.00000275,0.00001581,0.00003312,-0.00001170,-0.00000149,-
 0.00000041,-0.00000017,-0.00000157,-0.00000080,0.00000015,-0.00000028,
 0.00000025,-0.00000005,-0.00000007,0.00000058,0.00000086,-0.00000028,-
 0.00000028,0.00000005,-0.00000019,-0.00000019,-0.00000015,0.00000012,0
 .00000012,0.00000016,0.00000124,-0.00000104,0.00000049,-0.00000121,0.0
 0000172,0.00000095,0.00000052,-0.00000061,0.00000003,0.00000017,-0.000
 00071,-0.00000065,0.00000025,-0.00000020,-0.00000034,-0.00000035,0.000
 00045,0.00000010,0.00000007,-0.00000019,0.00000009,-0.00012244,-0.0005
 2135,0.00004622,-0.00025460,-0.00002550,0.00017750,0.00096725,0.000790
 76,0.00014079,0.00602443,0.00125001,-0.02633586,-0.06216825,-0.0013650
 4,0.06172117,-0.00325747,-0.00270615,-0.00300980,0.00121519,0.00072822
 ,0.00057770,-0.00559939,-0.00267506,0.02691519,-0.00203754,0.00021790,
 0.00345274,0.06522942,0.00000145,-0.00000039,0.00000212,0.00000152,-0.
 00000050,-0.00000155,-0.00000343,-0.00000327,0.00000145,0.00000936,0.0
 0000137,0.00000374,-0.00000139,0.00000020,-0.00000053,-0.00000086,0.00
 000142,-0.00000048,0.00000776,0.00003141,-0.00000604,-0.00001974,-0.00
 000331,-0.00000291,0.00000123,-0.00000778,0.00000515,0.00000727,0.0000
 0597,-0.00000055,-0.00000114,-0.00000099,-0.00000055,0.00000007,-0.000
 00009,-0.00000119,-0.00000002,-0.00000018,0.00000049,0.00000305,-0.000
 00108,-0.00000208,0.,-0.00000004,-0.00000013,-0.00000329,-0.00005460,0
 .00000850,0.00000028,0.00000628,-0.00000289,0.00000016,0.00000028,0.00
 000023,0.00000017,-0.00000019,0.00000022,-0.00000033,0.00000029,-0.000
 00006,-0.00000017,0.00000035,0.00000071,-0.00000024,-0.00000008,0.0000
 0009,0.00000022,-0.00000004,0.00000003,0.00000013,0.00000005,0.0000000
 4,-0.00000305,0.00000145,-0.00000105,0.00000311,-0.00000078,-0.0000006
 3,-0.00000094,0.00000066,-0.00000011,-0.00000044,0.00000040,0.00000035
 ,-0.00000067,-0.00000004,0.00000058,0.00000023,-0.00000037,-0.00000021
 ,-0.00000011,0.00000027,-0.00000022,-0.00015069,-0.00017636,-0.0002917
 0,-0.00012531,0.00003822,0.00017175,0.00066699,0.00012062,-0.00037166,
 0.00345722,-0.00000834,-0.01317181,-0.00189566,-0.04809041,0.01160171,
 -0.00218585,-0.00052951,-0.00140943,0.00025326,0.00032271,0.00062420,0
 .00297478,0.00033638,-0.01664646,-0.00728020,0.00041904,0.03071034,0.0
 0428529,0.04759098,0.00000201,-0.00000087,-0.00000003,-0.00000154,0.00
 000035,0.00000152,0.00000088,-0.00000109,0.00000256,-0.00000753,0.0000
 0555,-0.00000457,0.00000201,-0.00000125,0.00000161,-0.00000100,0.00000
 085,-0.00000012,0.00000157,-0.00001110,0.00000542,-0.00001614,0.000008
 00,-0.00001297,-0.00001125,-0.00003909,0.00002872,0.00000033,-0.000013
 39,0.00000782,0.00000793,-0.00000238,0.00000133,-0.00000026,-0.0000030
 6,-0.00000205,0.00000113,0.00000072,-0.00000030,0.00000080,-0.00000386
 ,-0.00000223,0.00000010,0.00000040,-0.00000033,0.00000936,0.00001480,0
 .00000061,0.00002780,0.00006243,-0.00003798,-0.00000172,-0.00000062,-0
 .00000021,-0.00000321,-0.00000162,0.00000128,0.00000016,0.00000197,0.0
 0000041,-0.00000023,0.00000106,0.00000170,-0.00000102,-0.00000043,0.00
 000090,-0.00000041,0.00000022,-0.00000040,-0.00000001,0.00000005,0.,-0
 .00000069,0.00000074,0.00000049,0.00000174,-0.00000173,-0.00000294,-0.
 00000054,0.00000063,0.00000029,-0.00000026,0.00000089,0.00000100,-0.00
 000051,-0.00000002,0.00000119,0.00000135,0.00000020,0.00000024,0.00000
 026,-0.00000012,-0.00000019,0.00080547,0.00012865,0.00139296,-0.000119
 32,-0.00070465,0.00030310,-0.00025397,0.00213964,-0.00090727,0.0039267
 1,0.00033855,-0.01685735,0.06020894,0.00992239,-0.30719224,-0.00336128
 ,-0.00153956,-0.00066977,-0.00004046,0.00028991,0.00076383,0.00094006,
 0.00026196,-0.00351821,0.00156960,0.00036436,-0.00632794,-0.06368687,-
 0.01121948,0.33302015\\-0.00000454,-0.00000553,0.00000437,-0.00000216,
 -0.00000064,0.00000158,0.00000133,0.00000043,0.00000200,0.00000217,-0.
 00000251,-0.00000261,-0.00000177,0.00000243,-0.00000017,-0.00000160,0.
 00000013,-0.00000181,-0.00000273,0.00000103,0.00000406,0.00000248,0.00
 000202,-0.00000882,0.00000208,0.00000563,0.00000430,-0.00000215,-0.000
 00533,0.00000181,-0.00000172,0.00000044,-0.00000505,0.00000082,0.00000
 068,-0.00000260,0.00000173,0.00000086,-0.00000452,-0.00000126,0.000000
 87,0.00000185,-0.00000157,-0.00000098,0.00000140,0.00000277,-0.0000057
 8,0.00000262,0.00000074,-0.00000080,-0.00000339,0.00000090,0.00000051,
 -0.00000295,-0.00000013,0.00000024,-0.00000406,0.00000103,0.00000032,-
 0.00000378,0.00000205,0.00000084,-0.00000290,0.00000048,0.00000073,-0.
 00000563,0.00000193,0.00000063,-0.00000497,0.00000155,0.00000111,-0.00
 000475,-0.00000260,-0.00000048,0.00000321,-0.00000299,0.00000232,0.000
 00334,-0.00000207,0.00000085,0.00000210,-0.00000448,0.00000112,0.00000
 864,0.00000221,-0.00000495,0.00000216,0.00000050,0.00000031,0.00000666
 ,-0.00000211,0.00000002,0.00000185,-0.00000963,-0.00000225,-0.00000442
 ,0.00000107,0.00000255,-0.00000190,0.00000538,0.00000015,0.00000534,0.
 00000463,0.00000150,-0.00000118,0.00000178,0.00000068,0.00000133,0.000
 00193,0.00000099,0.00000108,0.00000184,-0.00000016,0.00000006,0.000000
 42,0.00000021,0.00000281,0.00000127,-0.00000034,0.00000192,0.00000042,
 0.00000015,0.00000101\\\@


 THE REAL VOYAGE OF DISCOVERY CONSISTS NOT IN SEEKING NEW LANDSCAPES 
 BUT IN HAVING NEW EYES.
                                                    -- MARCEL PROUST
 Job cpu time:       0 days  6 hours 40 minutes 42.2 seconds.
 File lengths (MBytes):  RWF=   1139 Int=      0 D2E=      0 Chk=     30 Scr=      1
 Normal termination of Gaussian 09 at Tue Feb 19 15:08:19 2019.
WARNING: pbs_rusage is deprecated and values produced may not be accurate


=============================================================================
                                     Resource usage:
                                       CPU time:              41:58:15
   JobId:    5875389.r-man2            Elapsed time:          05:16:55
   Project:             q95            Requested time:        46:00:00
   Service Units:     42.26 
                                       Max physical memory:     1564MB
                                       Max virtual memory:      2926MB
                                       Requested memory:           0MB

                                       Number of cpus:               8

                                       Max jobfs disk use:       1.1GB
                                       Requested jobfs:         20.0GB
=============================================================================

