 Entering Gaussian System, Link 0=/apps/gaussian/g09e01/g09/g09
 AtFile(1): /home/507/hio507/Basis/6-31pGd.gbs
 Initial command:
 /apps/gaussian/g09e01/g09/l1.exe "/jobfs/local/5875384.r-man2/Gau-28552.inp" -scrdir="/jobfs/local/5875384.r-man2/"
 Entering Link 1 = /apps/gaussian/g09e01/g09/l1.exe PID=     28561.
  
 Copyright (c) 1988,1990,1992,1993,1995,1998,2003,2009,2015,
            Gaussian, Inc.  All Rights Reserved.
  
 This is part of the Gaussian(R) 09 program.  It is based on
 the Gaussian(R) 03 system (copyright 2003, Gaussian, Inc.),
 the Gaussian(R) 98 system (copyright 1998, Gaussian, Inc.),
 the Gaussian(R) 94 system (copyright 1995, Gaussian, Inc.),
 the Gaussian 92(TM) system (copyright 1992, Gaussian, Inc.),
 the Gaussian 90(TM) system (copyright 1990, Gaussian, Inc.),
 the Gaussian 88(TM) system (copyright 1988, Gaussian, Inc.),
 the Gaussian 86(TM) system (copyright 1986, Carnegie Mellon
 University), and the Gaussian 82(TM) system (copyright 1983,
 Carnegie Mellon University). Gaussian is a federally registered
 trademark of Gaussian, Inc.
  
 This software contains proprietary and confidential information,
 including trade secrets, belonging to Gaussian, Inc.
  
 This software is provided under written license and may be
 used, copied, transmitted, or stored only in accord with that
 written license.
  
 The following legend is applicable only to US Government
 contracts under FAR:
  
                    RESTRICTED RIGHTS LEGEND
  
 Use, reproduction and disclosure by the US Government is
 subject to restrictions as set forth in subparagraphs (a)
 and (c) of the Commercial Computer Software - Restricted
 Rights clause in FAR 52.227-19.
  
 Gaussian, Inc.
 340 Quinnipiac St., Bldg. 40, Wallingford CT 06492
  
  
 ---------------------------------------------------------------
 Warning -- This program may not be used in any manner that
 competes with the business of Gaussian, Inc. or will provide
 assistance to any competitor of Gaussian, Inc.  The licensee
 of this program is prohibited from giving any competitor of
 Gaussian, Inc. access to this program.  By using this program,
 the user acknowledges that Gaussian, Inc. is engaged in the
 business of creating and licensing software in the field of
 computational chemistry and represents and warrants to the
 licensee that it is not a competitor of Gaussian, Inc. and that
 it will not use this program in any manner prohibited above.
 ---------------------------------------------------------------
  

 Cite this work as:
 Gaussian 09, Revision E.01,
 M. J. Frisch, G. W. Trucks, H. B. Schlegel, G. E. Scuseria, 
 M. A. Robb, J. R. Cheeseman, G. Scalmani, V. Barone, B. Mennucci, 
 G. A. Petersson, H. Nakatsuji, M. Caricato, X. Li, H. P. Hratchian, 
 A. F. Izmaylov, J. Bloino, G. Zheng, J. L. Sonnenberg, M. Hada, 
 M. Ehara, K. Toyota, R. Fukuda, J. Hasegawa, M. Ishida, T. Nakajima, 
 Y. Honda, O. Kitao, H. Nakai, T. Vreven, J. A. Montgomery, Jr., 
 J. E. Peralta, F. Ogliaro, M. Bearpark, J. J. Heyd, E. Brothers, 
 K. N. Kudin, V. N. Staroverov, T. Keith, R. Kobayashi, J. Normand, 
 K. Raghavachari, A. Rendell, J. C. Burant, S. S. Iyengar, J. Tomasi, 
 M. Cossi, N. Rega, J. M. Millam, M. Klene, J. E. Knox, J. B. Cross, 
 V. Bakken, C. Adamo, J. Jaramillo, R. Gomperts, R. E. Stratmann, 
 O. Yazyev, A. J. Austin, R. Cammi, C. Pomelli, J. W. Ochterski, 
 R. L. Martin, K. Morokuma, V. G. Zakrzewski, G. A. Voth, 
 P. Salvador, J. J. Dannenberg, S. Dapprich, A. D. Daniels, 
 O. Farkas, J. B. Foresman, J. V. Ortiz, J. Cioslowski, 
 and D. J. Fox, Gaussian, Inc., Wallingford CT, 2013.
 
 ******************************************
 Gaussian 09:  ES64L-G09RevE.01 30-Nov-2015
                19-Feb-2019 
 ******************************************
 %chk=4OCF3_EtO.M062X_6-31pGd_opt_Pentadecane.chk
 %mem=196608000
 %nproc=8
 Will use up to    8 processors via shared memory.
 ----------------------------------------------------------------------
 # M062X/Gen 6D SCF=Tight INT(grid=ultrafine) OPT IOP(2/17=4) SCRF=(SMD
 ,Solvent=n-Pentadecane) maxdisk=2684354560
 ----------------------------------------------------------------------
 1/14=-1,18=20,19=15,26=4,38=1/1,3;
 2/9=110,12=2,17=4,18=5,40=1/2;
 3/5=7,8=2,11=2,16=1,25=1,30=1,70=32201,71=1,72=151,74=-55,75=-5/1,2,3;
 4//1;
 5/5=2,32=2,38=5,53=151/2;
 6/7=2,8=2,9=2,10=2,28=1/1;
 7//1,2,3,16;
 1/14=-1,18=20,19=15,26=4/3(2);
 2/9=110,17=4/2;
 99//99;
 2/9=110,17=4/2;
 3/5=7,6=1,8=2,11=2,16=1,25=1,30=1,70=32205,71=1,72=151,74=-55,75=-5,82=7/1,2,3;
 4/5=5,16=3,69=1/1;
 5/5=2,32=2,38=5,53=151/2;
 7//1,2,3,16;
 1/14=-1,18=20,19=15,26=4/3(-5);
 2/9=110,17=4/2;
 6/7=2,8=2,9=2,10=2,19=2,28=1/1;
 99/9=1/99;
 ---------------------------------------
 4OCF3_EtO.M062X_6-31pGd_opt_Pentadecane
 ---------------------------------------
 Symbolic Z-matrix:
 Charge = -1 Multiplicity = 1
 C                    -4.11773   4.02129  -1.09381 
 C                    -4.20943   2.65904  -0.76196 
 C                    -3.10225   1.98173  -0.24569 
 C                    -1.86929   2.63343  -0.04354 
 C                    -1.79196   4.00724  -0.38055 
 C                    -2.90341   4.68136  -0.89632 
 N                    -0.77376   1.85968   0.4889 
 C                     0.5068    2.28483   0.73628 
 N                     1.42578   1.40924   1.23784 
 O                     0.84588   3.43542   0.51196 
 C                     2.79512   1.81748   1.50695 
 C                     3.62328   0.65118   2.05664 
 C                     5.06194   1.07744   2.33374 
 H                    -3.21852   0.93395  -0.00582 
 H                    -0.90412   4.5998   -0.26496 
 H                    -0.9987    0.76305   0.72543 
 H                     1.11733   0.32945   1.44875 
 H                     2.79129   2.64498   2.25042 
 H                     3.25984   2.18025   0.56353 
 H                     3.6313   -0.17899   1.31711 
 H                     3.16747   0.28553   3.00247 
 H                     5.54749   1.42851   1.39823 
 H                     5.63634   0.2135    2.72949 
 H                     5.08476   1.8946    3.08588 
 O                    -5.15962   4.73191  -1.60174 
 C                    -6.42892   4.26043  -1.87561 
 F                    -7.19064   5.29494  -2.38337 
 F                    -6.37067   3.24803  -2.8173 
 F                    -7.02736   3.79458  -0.71814 
 H                    -5.12968   2.10831  -0.89796 
 H                    -2.81781   5.7318   -1.14678 
 O                    -1.46741  -1.22055   1.1169 
 O                     0.60302  -1.64613   1.82054 
 C                    -0.52788  -2.06004   1.60624 
 C                    -0.85013  -3.50148   1.89246 
 C                    -2.30104  -3.85558   1.57297 
 H                    -0.65982  -3.70549   2.96803 
 H                    -0.18093  -4.14643   1.28339 
 H                    -2.99287  -3.24065   2.18755 
 H                    -2.48122  -4.92714   1.80159 
 H                    -2.51308  -3.68215   0.4962 
 
 Add virtual bond connecting atoms O32        and H16        Dist= 3.92D+00.
 Add virtual bond connecting atoms O33        and H17        Dist= 3.92D+00.

 GradGradGradGradGradGradGradGradGradGradGradGradGradGradGradGradGradGrad
 Berny optimization.
 Initialization pass.
                           ----------------------------
                           !    Initial Parameters    !
                           ! (Angstroms and Degrees)  !
 --------------------------                            --------------------------
 ! Name  Definition              Value          Derivative Info.                !
 --------------------------------------------------------------------------------
 ! R1    R(1,2)                  1.4051         estimate D2E/DX2                !
 ! R2    R(1,6)                  1.3962         estimate D2E/DX2                !
 ! R3    R(1,25)                 1.3596         estimate D2E/DX2                !
 ! R4    R(2,3)                  1.3968         estimate D2E/DX2                !
 ! R5    R(2,30)                 1.081          estimate D2E/DX2                !
 ! R6    R(3,4)                  1.4092         estimate D2E/DX2                !
 ! R7    R(3,14)                 1.0812         estimate D2E/DX2                !
 ! R8    R(4,5)                  1.4167         estimate D2E/DX2                !
 ! R9    R(4,7)                  1.443          estimate D2E/DX2                !
 ! R10   R(5,6)                  1.3985         estimate D2E/DX2                !
 ! R11   R(5,15)                 1.0737         estimate D2E/DX2                !
 ! R12   R(6,31)                 1.0833         estimate D2E/DX2                !
 ! R13   R(7,8)                  1.3718         estimate D2E/DX2                !
 ! R14   R(7,16)                 1.1442         estimate D2E/DX2                !
 ! R15   R(8,9)                  1.3648         estimate D2E/DX2                !
 ! R16   R(8,10)                 1.2203         estimate D2E/DX2                !
 ! R17   R(9,11)                 1.454          estimate D2E/DX2                !
 ! R18   R(9,17)                 1.1426         estimate D2E/DX2                !
 ! R19   R(11,12)                1.5324         estimate D2E/DX2                !
 ! R20   R(11,18)                1.1124         estimate D2E/DX2                !
 ! R21   R(11,19)                1.1125         estimate D2E/DX2                !
 ! R22   R(12,13)                1.5259         estimate D2E/DX2                !
 ! R23   R(12,20)                1.1118         estimate D2E/DX2                !
 ! R24   R(12,21)                1.1118         estimate D2E/DX2                !
 ! R25   R(13,22)                1.1109         estimate D2E/DX2                !
 ! R26   R(13,23)                1.1104         estimate D2E/DX2                !
 ! R27   R(13,24)                1.1108         estimate D2E/DX2                !
 ! R28   R(16,32)                2.0755         estimate D2E/DX2                !
 ! R29   R(17,33)                2.075          estimate D2E/DX2                !
 ! R30   R(25,26)                1.3815         estimate D2E/DX2                !
 ! R31   R(26,27)                1.3814         estimate D2E/DX2                !
 ! R32   R(26,28)                1.3839         estimate D2E/DX2                !
 ! R33   R(26,29)                1.3838         estimate D2E/DX2                !
 ! R34   R(32,34)                1.3516         estimate D2E/DX2                !
 ! R35   R(33,34)                1.2232         estimate D2E/DX2                !
 ! R36   R(34,35)                1.5045         estimate D2E/DX2                !
 ! R37   R(35,36)                1.5273         estimate D2E/DX2                !
 ! R38   R(35,37)                1.1112         estimate D2E/DX2                !
 ! R39   R(35,38)                1.1112         estimate D2E/DX2                !
 ! R40   R(36,39)                1.1111         estimate D2E/DX2                !
 ! R41   R(36,40)                1.1104         estimate D2E/DX2                !
 ! R42   R(36,41)                1.1111         estimate D2E/DX2                !
 ! A1    A(2,1,6)              118.7976         estimate D2E/DX2                !
 ! A2    A(2,1,25)             123.0217         estimate D2E/DX2                !
 ! A3    A(6,1,25)             118.1806         estimate D2E/DX2                !
 ! A4    A(1,2,3)              120.3759         estimate D2E/DX2                !
 ! A5    A(1,2,30)             121.3159         estimate D2E/DX2                !
 ! A6    A(3,2,30)             118.3082         estimate D2E/DX2                !
 ! A7    A(2,3,4)              121.4863         estimate D2E/DX2                !
 ! A8    A(2,3,14)             117.8191         estimate D2E/DX2                !
 ! A9    A(4,3,14)             120.6945         estimate D2E/DX2                !
 ! A10   A(3,4,5)              117.5238         estimate D2E/DX2                !
 ! A11   A(3,4,7)              117.9827         estimate D2E/DX2                !
 ! A12   A(5,4,7)              124.4934         estimate D2E/DX2                !
 ! A13   A(4,5,6)              120.7844         estimate D2E/DX2                !
 ! A14   A(4,5,15)             123.693          estimate D2E/DX2                !
 ! A15   A(6,5,15)             115.5227         estimate D2E/DX2                !
 ! A16   A(1,6,5)              121.0317         estimate D2E/DX2                !
 ! A17   A(1,6,31)             119.6347         estimate D2E/DX2                !
 ! A18   A(5,6,31)             119.3335         estimate D2E/DX2                !
 ! A19   A(4,7,8)              127.5212         estimate D2E/DX2                !
 ! A20   A(4,7,16)             116.1636         estimate D2E/DX2                !
 ! A21   A(8,7,16)             116.3139         estimate D2E/DX2                !
 ! A22   A(7,8,9)              119.7356         estimate D2E/DX2                !
 ! A23   A(7,8,10)             121.2287         estimate D2E/DX2                !
 ! A24   A(9,8,10)             119.0352         estimate D2E/DX2                !
 ! A25   A(8,9,11)             121.4672         estimate D2E/DX2                !
 ! A26   A(8,9,17)             119.494          estimate D2E/DX2                !
 ! A27   A(11,9,17)            119.0384         estimate D2E/DX2                !
 ! A28   A(9,11,12)            111.2021         estimate D2E/DX2                !
 ! A29   A(9,11,18)            109.2265         estimate D2E/DX2                !
 ! A30   A(9,11,19)            109.1479         estimate D2E/DX2                !
 ! A31   A(12,11,18)           109.1639         estimate D2E/DX2                !
 ! A32   A(12,11,19)           109.0642         estimate D2E/DX2                !
 ! A33   A(18,11,19)           109.004          estimate D2E/DX2                !
 ! A34   A(11,12,13)           111.2277         estimate D2E/DX2                !
 ! A35   A(11,12,20)           109.4868         estimate D2E/DX2                !
 ! A36   A(11,12,21)           109.5065         estimate D2E/DX2                !
 ! A37   A(13,12,20)           108.8192         estimate D2E/DX2                !
 ! A38   A(13,12,21)           108.9011         estimate D2E/DX2                !
 ! A39   A(20,12,21)           108.8597         estimate D2E/DX2                !
 ! A40   A(12,13,22)           110.3309         estimate D2E/DX2                !
 ! A41   A(12,13,23)           109.5791         estimate D2E/DX2                !
 ! A42   A(12,13,24)           110.3547         estimate D2E/DX2                !
 ! A43   A(22,13,23)           108.6575         estimate D2E/DX2                !
 ! A44   A(22,13,24)           109.1913         estimate D2E/DX2                !
 ! A45   A(23,13,24)           108.6875         estimate D2E/DX2                !
 ! A46   A(1,25,26)            126.8546         estimate D2E/DX2                !
 ! A47   A(25,26,27)           108.9006         estimate D2E/DX2                !
 ! A48   A(25,26,28)           110.237          estimate D2E/DX2                !
 ! A49   A(25,26,29)           110.2688         estimate D2E/DX2                !
 ! A50   A(27,26,28)           108.7204         estimate D2E/DX2                !
 ! A51   A(27,26,29)           108.7294         estimate D2E/DX2                !
 ! A52   A(28,26,29)           109.944          estimate D2E/DX2                !
 ! A53   A(16,32,34)           120.3252         estimate D2E/DX2                !
 ! A54   A(17,33,34)           121.3283         estimate D2E/DX2                !
 ! A55   A(32,34,33)           119.7306         estimate D2E/DX2                !
 ! A56   A(32,34,35)           121.0008         estimate D2E/DX2                !
 ! A57   A(33,34,35)           119.2686         estimate D2E/DX2                !
 ! A58   A(34,35,36)           112.6943         estimate D2E/DX2                !
 ! A59   A(34,35,37)           108.8668         estimate D2E/DX2                !
 ! A60   A(34,35,38)           108.8332         estimate D2E/DX2                !
 ! A61   A(36,35,37)           108.8218         estimate D2E/DX2                !
 ! A62   A(36,35,38)           108.8378         estimate D2E/DX2                !
 ! A63   A(37,35,38)           108.7146         estimate D2E/DX2                !
 ! A64   A(35,36,39)           110.3346         estimate D2E/DX2                !
 ! A65   A(35,36,40)           109.5618         estimate D2E/DX2                !
 ! A66   A(35,36,41)           110.3553         estimate D2E/DX2                !
 ! A67   A(39,36,40)           108.6131         estimate D2E/DX2                !
 ! A68   A(39,36,41)           109.32           estimate D2E/DX2                !
 ! A69   A(40,36,41)           108.6147         estimate D2E/DX2                !
 ! A70   L(7,16,32,2,-1)       178.076          estimate D2E/DX2                !
 ! A71   L(9,17,33,2,-1)       181.1483         estimate D2E/DX2                !
 ! A72   L(7,16,32,2,-2)       179.5149         estimate D2E/DX2                !
 ! A73   L(9,17,33,2,-2)       179.2477         estimate D2E/DX2                !
 ! D1    D(6,1,2,3)             -0.078          estimate D2E/DX2                !
 ! D2    D(6,1,2,30)           179.9817         estimate D2E/DX2                !
 ! D3    D(25,1,2,3)           179.8715         estimate D2E/DX2                !
 ! D4    D(25,1,2,30)           -0.0689         estimate D2E/DX2                !
 ! D5    D(2,1,6,5)              0.1212         estimate D2E/DX2                !
 ! D6    D(2,1,6,31)          -179.9508         estimate D2E/DX2                !
 ! D7    D(25,1,6,5)          -179.8307         estimate D2E/DX2                !
 ! D8    D(25,1,6,31)            0.0972         estimate D2E/DX2                !
 ! D9    D(2,1,25,26)           -0.4074         estimate D2E/DX2                !
 ! D10   D(6,1,25,26)          179.5423         estimate D2E/DX2                !
 ! D11   D(1,2,3,4)             -0.0634         estimate D2E/DX2                !
 ! D12   D(1,2,3,14)          -179.9202         estimate D2E/DX2                !
 ! D13   D(30,2,3,4)           179.8787         estimate D2E/DX2                !
 ! D14   D(30,2,3,14)            0.0219         estimate D2E/DX2                !
 ! D15   D(2,3,4,5)              0.1574         estimate D2E/DX2                !
 ! D16   D(2,3,4,7)           -179.7558         estimate D2E/DX2                !
 ! D17   D(14,3,4,5)          -179.9899         estimate D2E/DX2                !
 ! D18   D(14,3,4,7)             0.0969         estimate D2E/DX2                !
 ! D19   D(3,4,5,6)             -0.1138         estimate D2E/DX2                !
 ! D20   D(3,4,5,15)           179.8591         estimate D2E/DX2                !
 ! D21   D(7,4,5,6)            179.7932         estimate D2E/DX2                !
 ! D22   D(7,4,5,15)            -0.2339         estimate D2E/DX2                !
 ! D23   D(3,4,7,8)            178.6194         estimate D2E/DX2                !
 ! D24   D(3,4,7,16)            -0.9541         estimate D2E/DX2                !
 ! D25   D(5,4,7,8)             -1.2872         estimate D2E/DX2                !
 ! D26   D(5,4,7,16)           179.1393         estimate D2E/DX2                !
 ! D27   D(4,5,6,1)             -0.0242         estimate D2E/DX2                !
 ! D28   D(4,5,6,31)          -179.9524         estimate D2E/DX2                !
 ! D29   D(15,5,6,1)          -179.9992         estimate D2E/DX2                !
 ! D30   D(15,5,6,31)            0.0726         estimate D2E/DX2                !
 ! D31   D(4,7,8,9)           -179.5979         estimate D2E/DX2                !
 ! D32   D(4,7,8,10)             0.1493         estimate D2E/DX2                !
 ! D33   D(16,7,8,9)            -0.0249         estimate D2E/DX2                !
 ! D34   D(16,7,8,10)          179.7222         estimate D2E/DX2                !
 ! D35   D(4,7,32,34)          179.3186         estimate D2E/DX2                !
 ! D36   D(8,7,32,34)           -0.0009         estimate D2E/DX2                !
 ! D37   D(7,8,9,11)           179.6498         estimate D2E/DX2                !
 ! D38   D(7,8,9,17)            -0.1212         estimate D2E/DX2                !
 ! D39   D(10,8,9,11)           -0.103          estimate D2E/DX2                !
 ! D40   D(10,8,9,17)         -179.874          estimate D2E/DX2                !
 ! D41   D(8,9,11,12)         -179.7155         estimate D2E/DX2                !
 ! D42   D(8,9,11,18)           59.741          estimate D2E/DX2                !
 ! D43   D(8,9,11,19)          -59.3475         estimate D2E/DX2                !
 ! D44   D(17,9,11,12)           0.0566         estimate D2E/DX2                !
 ! D45   D(17,9,11,18)        -120.487          estimate D2E/DX2                !
 ! D46   D(17,9,11,19)         120.4245         estimate D2E/DX2                !
 ! D47   D(8,9,33,34)           -0.109          estimate D2E/DX2                !
 ! D48   D(11,9,33,34)        -179.3629         estimate D2E/DX2                !
 ! D49   D(9,11,12,13)         179.7614         estimate D2E/DX2                !
 ! D50   D(9,11,12,20)          59.4606         estimate D2E/DX2                !
 ! D51   D(9,11,12,21)         -59.8226         estimate D2E/DX2                !
 ! D52   D(18,11,12,13)        -59.6582         estimate D2E/DX2                !
 ! D53   D(18,11,12,20)       -179.959          estimate D2E/DX2                !
 ! D54   D(18,11,12,21)         60.7578         estimate D2E/DX2                !
 ! D55   D(19,11,12,13)         59.344          estimate D2E/DX2                !
 ! D56   D(19,11,12,20)        -60.9568         estimate D2E/DX2                !
 ! D57   D(19,11,12,21)        179.7601         estimate D2E/DX2                !
 ! D58   D(11,12,13,22)        -60.3673         estimate D2E/DX2                !
 ! D59   D(11,12,13,23)       -179.9637         estimate D2E/DX2                !
 ! D60   D(11,12,13,24)         60.3882         estimate D2E/DX2                !
 ! D61   D(20,12,13,22)         60.3273         estimate D2E/DX2                !
 ! D62   D(20,12,13,23)        -59.2692         estimate D2E/DX2                !
 ! D63   D(20,12,13,24)       -178.9173         estimate D2E/DX2                !
 ! D64   D(21,12,13,22)        178.8601         estimate D2E/DX2                !
 ! D65   D(21,12,13,23)         59.2637         estimate D2E/DX2                !
 ! D66   D(21,12,13,24)        -60.3844         estimate D2E/DX2                !
 ! D67   D(1,25,26,27)        -179.8545         estimate D2E/DX2                !
 ! D68   D(1,25,26,28)         -60.6594         estimate D2E/DX2                !
 ! D69   D(1,25,26,29)          60.9203         estimate D2E/DX2                !
 ! D70   D(16,32,34,33)          0.1072         estimate D2E/DX2                !
 ! D71   D(16,32,34,35)       -179.8562         estimate D2E/DX2                !
 ! D72   D(17,33,34,32)          0.0284         estimate D2E/DX2                !
 ! D73   D(17,33,34,35)        179.9924         estimate D2E/DX2                !
 ! D74   D(32,34,35,36)         -0.1077         estimate D2E/DX2                !
 ! D75   D(32,34,35,37)       -120.9358         estimate D2E/DX2                !
 ! D76   D(32,34,35,38)        120.7175         estimate D2E/DX2                !
 ! D77   D(33,34,35,36)        179.9288         estimate D2E/DX2                !
 ! D78   D(33,34,35,37)         59.1007         estimate D2E/DX2                !
 ! D79   D(33,34,35,38)        -59.246          estimate D2E/DX2                !
 ! D80   D(34,35,36,39)        -60.5195         estimate D2E/DX2                !
 ! D81   D(34,35,36,40)        179.9475         estimate D2E/DX2                !
 ! D82   D(34,35,36,41)         60.3997         estimate D2E/DX2                !
 ! D83   D(37,35,36,39)         60.3344         estimate D2E/DX2                !
 ! D84   D(37,35,36,40)        -59.1987         estimate D2E/DX2                !
 ! D85   D(37,35,36,41)       -178.7464         estimate D2E/DX2                !
 ! D86   D(38,35,36,39)        178.658          estimate D2E/DX2                !
 ! D87   D(38,35,36,40)         59.1249         estimate D2E/DX2                !
 ! D88   D(38,35,36,41)        -60.4228         estimate D2E/DX2                !
 --------------------------------------------------------------------------------
 Trust Radius=3.00D-01 FncErr=1.00D-07 GrdErr=1.00D-06
 Number of steps in this run=    213 maximum allowed number of steps=    246.
 GradGradGradGradGradGradGradGradGradGradGradGradGradGradGradGradGradGrad

                          Input orientation:                          
 ---------------------------------------------------------------------
 Center     Atomic      Atomic             Coordinates (Angstroms)
 Number     Number       Type             X           Y           Z
 ---------------------------------------------------------------------
      1          6           0       -4.117730    4.021290   -1.093810
      2          6           0       -4.209430    2.659040   -0.761960
      3          6           0       -3.102250    1.981730   -0.245690
      4          6           0       -1.869290    2.633430   -0.043540
      5          6           0       -1.791960    4.007240   -0.380550
      6          6           0       -2.903410    4.681360   -0.896320
      7          7           0       -0.773760    1.859680    0.488900
      8          6           0        0.506800    2.284830    0.736280
      9          7           0        1.425780    1.409240    1.237840
     10          8           0        0.845880    3.435420    0.511960
     11          6           0        2.795120    1.817480    1.506950
     12          6           0        3.623280    0.651180    2.056640
     13          6           0        5.061940    1.077440    2.333740
     14          1           0       -3.218520    0.933950   -0.005820
     15          1           0       -0.904120    4.599800   -0.264960
     16          1           0       -0.998700    0.763050    0.725430
     17          1           0        1.117330    0.329450    1.448750
     18          1           0        2.791290    2.644980    2.250420
     19          1           0        3.259840    2.180250    0.563530
     20          1           0        3.631300   -0.178990    1.317110
     21          1           0        3.167470    0.285530    3.002470
     22          1           0        5.547490    1.428510    1.398230
     23          1           0        5.636340    0.213500    2.729490
     24          1           0        5.084760    1.894600    3.085880
     25          8           0       -5.159620    4.731910   -1.601740
     26          6           0       -6.428920    4.260430   -1.875610
     27          9           0       -7.190640    5.294940   -2.383370
     28          9           0       -6.370670    3.248030   -2.817300
     29          9           0       -7.027360    3.794580   -0.718140
     30          1           0       -5.129680    2.108310   -0.897960
     31          1           0       -2.817810    5.731800   -1.146780
     32          8           0       -1.467410   -1.220550    1.116900
     33          8           0        0.603020   -1.646130    1.820540
     34          6           0       -0.527880   -2.060040    1.606240
     35          6           0       -0.850130   -3.501480    1.892460
     36          6           0       -2.301040   -3.855580    1.572970
     37          1           0       -0.659820   -3.705490    2.968030
     38          1           0       -0.180930   -4.146430    1.283390
     39          1           0       -2.992870   -3.240650    2.187550
     40          1           0       -2.481220   -4.927140    1.801590
     41          1           0       -2.513080   -3.682150    0.496200
 ---------------------------------------------------------------------
                    Distance matrix (angstroms):
                    1          2          3          4          5
     1  C    0.000000
     2  C    1.405083   0.000000
     3  C    2.431113   1.396829   0.000000
     4  C    2.843362   2.448068   1.409173   0.000000
     5  C    2.432723   2.794151   2.416141   1.416654   0.000000
     6  C    1.396162   2.411124   2.784036   2.447581   1.398491
     7  N    4.284818   3.742654   2.444664   1.443041   2.530749
     8  C    5.267903   4.962618   3.752516   2.524964   3.081932
     9  N    6.556668   6.108747   4.799131   3.741398   4.441018
    10  O    5.249682   5.270844   4.274924   2.885120   2.842842
    11  C    7.707673   7.410796   6.154486   4.982621   5.422085
    12  C    9.011449   8.563139   7.232139   6.205513   6.821133
    13  C   10.231358   9.901673   8.609599   7.490962   7.932657
    14  H    3.394697   2.128282   1.081156   2.170271   3.408901
    15  H    3.368821   3.865053   3.418543   2.201634   1.073661
    16  H    4.863549   4.014461   2.617857   2.201718   3.518128
    17  H    6.892035   6.220016   4.837976   4.056495   5.033532
    18  H    7.798247   7.621333   6.434616   5.194554   5.457466
    19  H    7.782335   7.601063   6.416419   5.184774   5.454343
    20  H    9.137962   8.593835   7.242358   6.325944   7.058209
    21  H    9.154756   8.615285   7.262026   6.337173   7.063420
    22  H   10.312577  10.068670   8.821934   7.651089   7.980065
    23  H   11.147142  10.728936   9.399005   8.359440   8.901935
    24  H   10.328526  10.088221   8.839349   7.661459   7.985528
    25  O    1.359599   2.429996   3.692578   4.202128   3.654803
    26  C    2.451530   2.954793   4.349235   5.176276   4.878597
    27  F    3.567622   4.297040   5.679962   6.393372   5.900441
    28  F    2.940083   3.040113   4.347328   5.322960   5.242016
    29  F    2.942528   3.038437   4.349267   5.330013   5.250581
    30  H    2.172992   1.081046   2.133530   3.411148   3.874793
    31  H    2.149056   3.395077   3.867285   3.422970   2.147925
    32  O    6.276012   5.108817   3.844990   4.044909   5.447704
    33  O    7.930862   6.954385   5.582087   5.282210   6.522371
    34  C    7.560415   6.436761   5.137405   5.152651   6.508235
    35  C    8.728521   7.502190   6.301533   6.513363   7.901550
    36  C    8.512177   7.178727   6.166332   6.701251   8.117841
    37  H    9.389293   8.186562   6.974090   7.121396   8.484158
    38  H    9.373426   8.168641   6.958918   7.111807   8.476228
    39  H    8.047882   6.707158   5.762454   6.383182   7.782624
    40  H    9.546513   8.191985   7.232532   7.806483   9.222796
    41  H    8.027828   6.683656   5.742566   6.371211   7.772736
                    6          7          8          9         10
     6  C    0.000000
     7  N    3.796857   0.000000
     8  C    4.476413   1.371781   0.000000
     9  N    5.831234   2.366809   1.364824   0.000000
    10  O    4.194377   2.259806   1.220308   2.229034   0.000000
    11  C    6.815479   3.711484   2.459422   1.454019   2.721630
    12  C    8.219489   4.822058   3.758272   2.464568   4.225160
    13  C    9.320318   6.170148   4.975839   3.812184   5.162762
    14  H    3.864630   2.660559   4.031575   4.831368   4.800500
    15  H    2.098196   2.844918   2.890028   4.226880   2.240956
    16  H    4.648779   1.144177   2.140669   2.560904   3.254168
    17  H    6.372191   2.615174   2.168841   1.142616   3.255505
    18  H    6.817509   4.053299   2.764276   2.101663   2.726107
    19  H    6.809726   4.047007   2.760436   2.100697   2.721271
    20  H    8.439473   4.924090   4.021228   2.719021   4.633658
    21  H    8.448637   4.932472   4.026411   2.722155   4.638343
    22  H    9.341504   6.400859   5.155581   4.124874   5.188285
    23  H   10.297359   6.987098   5.880091   4.624244   6.184393
    24  H    9.350658   6.408415   5.160486   4.127828   5.193004
    25  O    2.364457   5.644134   6.600216   7.903850   6.497280
    26  C    3.683125   6.582959   7.670018   8.917352   7.700899
    27  F    4.579098   7.824787   8.834227  10.121982   8.742220
    28  F    4.215032   6.647095   7.800979   8.978304   7.949697
    29  F    4.221977   6.656448   7.820374   8.998404   7.976845
    30  H    3.402480   4.578126   5.871270   6.929964   6.281434
    31  H    1.083274   4.674067   5.145925   6.509915   4.631134
    32  O    6.399038   3.219216   4.041048   3.911645   5.234054
    33  O    7.727452   3.994933   4.078888   3.217415   5.252953
    34  C    7.573138   4.083272   4.550306   3.998551   5.769293
    35  C    8.885501   5.542369   6.054700   5.451923   7.273432
    36  C    8.907277   6.014315   6.803576   6.459089   8.011712
    37  H    9.502955   6.093454   6.498126   5.788242   7.700130
    38  H    9.491728   6.087366   6.491025   5.783516   7.689856
    39  H    8.501559   5.815774   6.699612   6.484435   7.881213
    40  H    9.989006   7.120358   7.878811   7.465398   9.092038
    41  H    8.487624   5.808370   6.691948   6.479730   7.870366
                   11         12         13         14         15
    11  C    0.000000
    12  C    1.532405   0.000000
    13  C    2.523829   1.525852   0.000000
    14  H    6.263622   7.151498   8.605821   0.000000
    15  H    4.956344   6.440402   7.399604   4.343047   0.000000
    16  H    4.014432   4.811168   6.278285   2.343402   3.963643
    17  H    2.243346   2.598620   4.111283   4.613111   5.025828
    18  H    1.112438   2.169100   2.760430   6.643497   4.878987
    19  H    1.112478   2.167838   2.756338   6.621674   4.886633
    20  H    2.172816   1.111823   2.158445   7.064617   6.775678
    21  H    2.173038   1.111781   2.159476   7.088803   6.772508
    22  H    2.781844   2.177230   1.110940   8.891506   7.378791
    23  H    3.484234   2.167187   1.110381   9.295672   8.425199
    24  H    2.782341   2.177465   1.110849   8.912122   7.376511
    25  O    9.024176  10.352557  11.546577   4.554045   4.462478
    26  C   10.123864  11.381388  12.644758   4.986808   5.764788
    27  F   11.266886  12.578516  13.790002   6.359930   6.670173
    28  F   10.235102  11.418317  12.725928   4.816164   6.182628
    29  F   10.263579  11.446244  12.761191   4.816416   6.192562
    30  H    8.286774   9.352390  10.741308   2.414036   4.946066
    31  H    7.339562   8.806943   9.791197   4.947901   2.391911
    32  O    5.248898   5.504690   7.028077   2.994788   6.008603
    33  O    4.110990   3.802019   5.250064   4.959493   6.755177
    34  C    5.107578   4.978524   6.451289   4.336157   6.927944
    35  C    6.459706   6.105976   7.490915   5.374549   8.383801
    36  C    7.626193   7.459383   8.895332   5.125812   8.764863
    37  H    6.676418   6.177067   7.484469   6.075783   8.915702
    38  H    6.668964   6.171466   7.475275   6.057993   8.911618
    39  H    7.716782   7.677038   9.140418   4.721131   8.476458
    40  H    8.568341   8.273308   9.655953   6.177598   9.875245
    41  H    7.710028   7.672525   9.132972   4.696600   8.471057
                   16         17         18         19         20
    16  H    0.000000
    17  H    2.277890   0.000000
    18  H    4.497919   2.967574   0.000000
    19  H    4.491083   2.966382   1.811384   0.000000
    20  H    4.761767   2.568246   3.090549   2.504372   0.000000
    21  H    4.771783   2.572751   2.504814   3.089810   1.808689
    22  H    6.614235   4.564735   3.130921   2.548564   2.502483
    23  H    6.952842   4.698424   3.773051   3.769249   2.483757
    24  H    6.622735   4.568412   2.553638   3.126368   3.088830
    25  O    6.203291   8.251500   9.078072   9.060169  10.484126
    26  C    6.963072   9.135090  10.229666  10.205323  11.450325
    27  F    8.279057  10.409784  11.319595  11.295930  12.679584
    28  F    6.898125   9.098760  10.487467  10.262402  11.352410
    29  F    6.900638   9.112547  10.321813  10.491674  11.555887
    30  H    4.637900   6.906267   8.540613   8.516171   9.321644
    31  H    5.612736   7.169902   7.247857   7.244066   9.088411
    32  O    2.075477   3.032079   5.862057   5.849663   5.207857
    33  O    3.093367   2.075008   4.836005   4.824930   3.402414
    34  C    2.994551   2.905371   5.793882   5.780495   4.573918
    35  C    4.423827   4.329411   7.153114   7.137224   5.608314
    36  C    4.873003   5.405105   8.285411   8.268833   6.983941
    37  H    5.011182   4.663391   7.263167   7.469089   5.794433
    38  H    5.008299   4.663295   7.476128   7.237678   5.502255
    39  H    4.705754   5.494104   8.252339   8.433266   7.349221
    40  H    5.977813   6.380109   9.237847   9.219954   7.755163
    41  H    4.701670   5.493647   8.440747   8.227932   7.120353
                   21         22         23         24         25
    21  H    0.000000
    22  H    3.089415   0.000000
    23  H    2.484960   1.804549   0.000000
    24  H    2.504409   1.810945   1.804813   0.000000
    25  O   10.502832  11.599762  12.479116  11.617721   0.000000
    26  C   11.475461  12.734685  13.533480  12.758462   1.381456
    27  F   12.704011  13.838704  14.713728  13.862195   2.247886
    28  F   11.559509  12.771996  13.569950  12.957862   2.268508
    29  F   11.405741  12.969355  13.604396  12.836820   2.268874
    30  H    9.347651  10.942421  11.517634  10.965922   2.716520
    31  H    9.094048   9.745441  10.814331   9.751417   2.586666
    32  O    5.225492   7.503698   7.424299   7.517445   7.513667
    33  O    3.421209   5.837768   5.442309   5.850115   9.251995
    34  C    4.594210   7.008807   6.665454   7.023549   8.824666
    35  C    5.631579   8.091885   7.521701   8.109553   9.928235
    36  C    7.006915   9.463169   8.994273   9.481746   9.591415
    37  H    5.529699   8.206883   7.420041   8.023409  10.598147
    38  H    5.814575   7.994244   7.412208   8.214043  10.579993
    39  H    7.144776   9.765338   9.310645   9.613839   9.089292
    40  H    7.779572  10.247789   9.653080  10.267891  10.585543
    41  H    7.368346   9.586725   9.304661   9.774137   9.066528
                   26         27         28         29         30
    26  C    0.000000
    27  F    1.381394   0.000000
    28  F    1.383881   2.247329   0.000000
    29  F    1.383793   2.247383   2.266370   0.000000
    30  H    2.697303   4.075366   2.553994   2.545001   0.000000
    31  H    3.966893   4.565265   4.645704   4.653694   4.305384
    32  O    7.975766   9.351944   7.712853   7.709212   5.343519
    33  O    9.899351  11.251331   9.700243   9.709218   7.372239
    34  C    9.321689  10.696031   9.048840   9.051108   6.694977
    35  C   10.274653  11.655977   9.910302   9.909889   7.587538
    36  C    9.736617  11.103730   9.289652   9.279668   7.048027
    37  H   10.963542  12.340860  10.697443  10.506401   8.290102
    38  H   10.940382  12.317493  10.478863  10.674238   8.268627
    39  H    9.196842  10.553240   8.863466   8.614790   6.534348
    40  H   10.654463  12.007641  10.163433  10.153070   7.987457
    41  H    9.167544  10.524240   8.595794   8.817870   6.505360
                   31         32         33         34         35
    31  H    0.000000
    32  O    7.435254   0.000000
    33  O    8.656842   2.227759   0.000000
    34  C    8.575294   1.351634   1.223185   0.000000
    35  C    9.917772   2.487000   2.357783   1.504499   0.000000
    36  C    9.979075   2.801129   3.657393   2.523721   1.527285
    37  H   10.519079   3.202157   2.674409   2.139950   1.111166
    38  H   10.508962   3.200550   2.674810   2.139540   1.111195
    39  H    9.573571   2.748477   3.950647   2.794269   2.178634
    40  H   11.064320   3.903258   4.503101   3.474761   2.168229
    41  H    9.561103   2.745573   3.950865   2.793644   2.178896
                   36         37         38         39         40
    36  C    0.000000
    37  H    2.159241   0.000000
    38  H    2.159471   1.806039   0.000000
    39  H    1.111070   2.503667   3.089490   0.000000
    40  H    1.110393   2.484051   2.483822   1.804162   0.000000
    41  H    1.111068   3.089508   2.504825   1.812674   1.804178
                   41
    41  H    0.000000
 Stoichiometry    C14H18F3N2O4(1-)
 Framework group  C1[X(C14H18F3N2O4)]
 Deg. of freedom   117
 Full point group                 C1      NOp   1
 Largest Abelian subgroup         C1      NOp   1
 Largest concise Abelian subgroup C1      NOp   1
                         Standard orientation:                         
 ---------------------------------------------------------------------
 Center     Atomic      Atomic             Coordinates (Angstroms)
 Number     Number       Type             X           Y           Z
 ---------------------------------------------------------------------
      1          6           0       -3.430679   -0.790947   -0.016310
      2          6           0       -2.742550    0.434039   -0.004261
      3          6           0       -1.345972    0.459763   -0.010516
      4          6           0       -0.588035   -0.728095   -0.027583
      5          6           0       -1.295031   -1.955640   -0.041683
      6          6           0       -2.693358   -1.976371   -0.036245
      7          7           0        0.850447   -0.613473   -0.027591
      8          6           0        1.769714   -1.631610   -0.016299
      9          7           0        3.102971   -1.339839   -0.009910
     10          8           0        1.419165   -2.800449   -0.007204
     11          6           0        4.109463   -2.389011    0.009664
     12          6           0        5.524041   -1.799841    0.020288
     13          6           0        6.580679   -2.900314    0.046753
     14          1           0       -0.859055    1.425003    0.000571
     15          1           0       -0.818172   -2.917465   -0.057373
     16          1           0        1.271791    0.450295   -0.030615
     17          1           0        3.439941   -0.248060   -0.016151
     18          1           0        3.987721   -3.030293   -0.891144
     19          1           0        3.968763   -3.012709    0.920055
     20          1           0        5.651842   -1.158222    0.919256
     21          1           0        5.674135   -1.178240   -0.889185
     22          1           0        6.465106   -3.524545    0.958436
     23          1           0        7.592972   -2.444083    0.054602
     24          1           0        6.488379   -3.546300   -0.852229
     25          8           0       -4.787418   -0.878737   -0.008459
     26          6           0       -5.685480    0.170603    0.019639
     27          9           0       -6.969376   -0.339157    0.021564
     28          9           0       -5.505170    0.924415    1.166105
     29          9           0       -5.525812    0.968330   -1.099745
     30          1           0       -3.272574    1.376113    0.010957
     31          1           0       -3.210034   -2.928433   -0.046526
     32          8           0        1.970981    2.404421   -0.019156
     33          8           0        4.091541    1.721926   -0.000870
     34          6           0        3.299319    2.653885   -0.004974
     35          6           0        3.822792    4.064330    0.006727
     36          6           0        2.706918    5.107091   -0.002002
     37          1           0        4.463384    4.217281   -0.888224
     38          1           0        4.442361    4.209456    0.917676
     39          1           0        2.085292    4.999727   -0.916622
     40          1           0        3.149561    6.125392    0.008153
     41          1           0        2.062813    4.991392    0.895893
 ---------------------------------------------------------------------
 Rotational constants (GHZ):      0.3266910      0.0902248      0.0718491
 General basis read from cards:  (6D, 7F)
 There are   473 symmetry adapted cartesian basis functions of A   symmetry.
 There are   473 symmetry adapted basis functions of A   symmetry.
   473 basis functions,   808 primitive gaussians,   473 cartesian basis functions
    88 alpha electrons       88 beta electrons
       nuclear repulsion energy      1878.3152243507 Hartrees.
 NAtoms=   41 NActive=   41 NUniq=   41 SFac= 1.00D+00 NAtFMM=   60 NAOKFM=F Big=F
 Integral buffers will be    131072 words long.
 Raffenetti 2 integral format.
 Two-electron integral symmetry is turned on.
 ------------------------------------------------------------------------------
 Polarizable Continuum Model (PCM)
 =================================
 Model                : PCM (using non-symmetric T matrix).
 Atomic radii         : SMD-Coulomb.
 Polarization charges : Total charges.
 Charge compensation  : None.
 Solution method      : On-the-fly selection.
 Cavity type          : VdW (van der Waals Surface) (Alpha=1.000).
 Cavity algorithm     : GePol (No added spheres)
                        Default sphere list used, NSphG=   41.
                        Lebedev-Laikov grids with approx.  5.0 points / Ang**2.
                        Smoothing algorithm: York/Karplus (Gamma=1.0000).
                        Polarization charges: spherical gaussians, with
                                              point-specific exponents (IZeta= 3).
                        Self-potential: point-specific (ISelfS= 7).
                        Self-field    : sphere-specific E.n sum rule (ISelfD= 2).
 1st derivatives      : Analytical E(r).r(x)/FMM algorithm (CHGder, D1EAlg=3).
                        Cavity 1st derivative terms included.
 Solvent              : n-Pentadecane, Eps=   2.033300 Eps(inf)=   2.049192
 ------------------------------------------------------------------------------
 ------------------------------------------------------------------------------
 Atomic radii for non-electrostatic terms: SMD-CDS.
 ------------------------------------------------------------------------------
 Nuclear repulsion after PCM non-electrostatic terms =     1878.3065654026 Hartrees.
 One-electron integrals computed using PRISM.
 NBasis=   473 RedAO= T EigKep=  1.59D-06  NBF=   473
 NBsUse=   472 1.00D-06 EigRej=  6.30D-07 NBFU=   472
 ExpMin= 4.38D-02 ExpMax= 7.00D+03 ExpMxC= 1.05D+03 IAcc=3 IRadAn=         5 AccDes= 0.00D+00
 Harris functional with IExCor= 1009 and IRadAn=       5 diagonalized for initial guess.
 HarFok:  IExCor= 1009 AccDes= 0.00D+00 IRadAn=         5 IDoV= 1 UseB2=F ITyADJ=14
 ICtDFT=  3500011 ScaDFX=  1.000000  1.000000  1.000000  1.000000
 FoFCou: FMM=F IPFlag=           0 FMFlag=      100000 FMFlg1=           0
         NFxFlg=           0 DoJE=T BraDBF=F KetDBF=T FulRan=T
         wScrn=  0.000000 ICntrl=     500 IOpCl=  0 I1Cent=   200000004 NGrid=           0
         NMat0=    1 NMatS0=      1 NMatT0=    0 NMatD0=    1 NMtDS0=    0 NMtDT0=    0
 Petite list used in FoFCou.
 Requested convergence on RMS density matrix=1.00D-08 within 128 cycles.
 Requested convergence on MAX density matrix=1.00D-06.
 Requested convergence on             energy=1.00D-06.
 No special actions if energy rises.
 Inv3:  Mode=1 IEnd=    31609548.
 Iteration    1 A*A^-1 deviation from unit magnitude is 4.55D-15 for   3241.
 Iteration    1 A*A^-1 deviation from orthogonality  is 4.55D-15 for   1572   1158.
 Iteration    1 A^-1*A deviation from unit magnitude is 4.66D-15 for   3241.
 Iteration    1 A^-1*A deviation from orthogonality  is 2.65D-15 for   2713   1671.
 Error on total polarization charges =  0.02656
 SCF Done:  E(RM062X) =  -1253.94779741     A.U. after   15 cycles
            NFock= 15  Conv=0.40D-08     -V/T= 2.0092
 SMD-CDS (non-electrostatic) energy       (kcal/mol) =      -5.43
 (included in total energy above)

 **********************************************************************

            Population analysis using the SCF density.

 **********************************************************************

 Orbital symmetries:
       Occupied  (A) (A) (A) (A) (A) (A) (A) (A) (A) (A) (A) (A)
                 (A) (A) (A) (A) (A) (A) (A) (A) (A) (A) (A) (A)
                 (A) (A) (A) (A) (A) (A) (A) (A) (A) (A) (A) (A)
                 (A) (A) (A) (A) (A) (A) (A) (A) (A) (A) (A) (A)
                 (A) (A) (A) (A) (A) (A) (A) (A) (A) (A) (A) (A)
                 (A) (A) (A) (A) (A) (A) (A) (A) (A) (A) (A) (A)
                 (A) (A) (A) (A) (A) (A) (A) (A) (A) (A) (A) (A)
                 (A) (A) (A) (A)
       Virtual   (A) (A) (A) (A) (A) (A) (A) (A) (A) (A) (A) (A)
                 (A) (A) (A) (A) (A) (A) (A) (A) (A) (A) (A) (A)
                 (A) (A) (A) (A) (A) (A) (A) (A) (A) (A) (A) (A)
                 (A) (A) (A) (A) (A) (A) (A) (A) (A) (A) (A) (A)
                 (A) (A) (A) (A) (A) (A) (A) (A) (A) (A) (A) (A)
                 (A) (A) (A) (A) (A) (A) (A) (A) (A) (A) (A) (A)
                 (A) (A) (A) (A) (A) (A) (A) (A) (A) (A) (A) (A)
                 (A) (A) (A) (A) (A) (A) (A) (A) (A) (A) (A) (A)
                 (A) (A) (A) (A) (A) (A) (A) (A) (A) (A) (A) (A)
                 (A) (A) (A) (A) (A) (A) (A) (A) (A) (A) (A) (A)
                 (A) (A) (A) (A) (A) (A) (A) (A) (A) (A) (A) (A)
                 (A) (A) (A) (A) (A) (A) (A) (A) (A) (A) (A) (A)
                 (A) (A) (A) (A) (A) (A) (A) (A) (A) (A) (A) (A)
                 (A) (A) (A) (A) (A) (A) (A) (A) (A) (A) (A) (A)
                 (A) (A) (A) (A) (A) (A) (A) (A) (A) (A) (A) (A)
                 (A) (A) (A) (A) (A) (A) (A) (A) (A) (A) (A) (A)
                 (A) (A) (A) (A) (A) (A) (A) (A) (A) (A) (A) (A)
                 (A) (A) (A) (A) (A) (A) (A) (A) (A) (A) (A) (A)
                 (A) (A) (A) (A) (A) (A) (A) (A) (A) (A) (A) (A)
                 (A) (A) (A) (A) (A) (A) (A) (A) (A) (A) (A) (A)
                 (A) (A) (A) (A) (A) (A) (A) (A) (A) (A) (A) (A)
                 (A) (A) (A) (A) (A) (A) (A) (A) (A) (A) (A) (A)
                 (A) (A) (A) (A) (A) (A) (A) (A) (A) (A) (A) (A)
                 (A) (A) (A) (A) (A) (A) (A) (A) (A) (A) (A) (A)
                 (A) (A) (A) (A) (A) (A) (A) (A) (A) (A) (A) (A)
                 (A) (A) (A) (A) (A) (A) (A) (A) (A) (A) (A) (A)
                 (A) (A) (A) (A) (A) (A) (A) (A) (A) (A) (A) (A)
                 (A) (A) (A) (A) (A) (A) (A) (A) (A) (A) (A) (A)
                 (A) (A) (A) (A) (A) (A) (A) (A) (A) (A) (A) (A)
                 (A) (A) (A) (A) (A) (A) (A) (A) (A) (A) (A) (A)
                 (A) (A) (A) (A) (A) (A) (A) (A) (A) (A) (A) (A)
                 (A) (A) (A) (A) (A) (A) (A) (A) (A) (A) (A) (A)
 The electronic state is 1-A.
 Alpha  occ. eigenvalues --  -25.29363 -25.28834 -25.28823 -19.68512 -19.53416
 Alpha  occ. eigenvalues --  -19.51691 -19.49928 -14.73080 -14.71206 -10.85676
 Alpha  occ. eigenvalues --  -10.60881 -10.58477 -10.56096 -10.55845 -10.52497
 Alpha  occ. eigenvalues --  -10.51876 -10.51635 -10.51092 -10.50709 -10.49839
 Alpha  occ. eigenvalues --  -10.49756 -10.48335 -10.47776  -1.43571  -1.35326
 Alpha  occ. eigenvalues --   -1.35161  -1.20302  -1.10682  -1.07145  -0.96623
 Alpha  occ. eigenvalues --   -0.94458  -0.94157  -0.90971  -0.83731  -0.82268
 Alpha  occ. eigenvalues --   -0.80451  -0.79857  -0.76814  -0.72181  -0.69750
 Alpha  occ. eigenvalues --   -0.68246  -0.67538  -0.65626  -0.64928  -0.63053
 Alpha  occ. eigenvalues --   -0.61325  -0.58871  -0.55646  -0.55572  -0.54890
 Alpha  occ. eigenvalues --   -0.54147  -0.52831  -0.52079  -0.51713  -0.50936
 Alpha  occ. eigenvalues --   -0.49941  -0.49847  -0.49317  -0.47583  -0.46898
 Alpha  occ. eigenvalues --   -0.46415  -0.46397  -0.45390  -0.44734  -0.44443
 Alpha  occ. eigenvalues --   -0.43949  -0.42184  -0.41653  -0.41099  -0.40395
 Alpha  occ. eigenvalues --   -0.39888  -0.38013  -0.37997  -0.37309  -0.36889
 Alpha  occ. eigenvalues --   -0.36135  -0.34827  -0.34600  -0.34352  -0.33200
 Alpha  occ. eigenvalues --   -0.30271  -0.27156  -0.26671  -0.24537  -0.24090
 Alpha  occ. eigenvalues --   -0.22671  -0.21744  -0.20495
 Alpha virt. eigenvalues --    0.05425   0.06158   0.06825   0.06896   0.07263
 Alpha virt. eigenvalues --    0.07273   0.07880   0.08500   0.08800   0.08868
 Alpha virt. eigenvalues --    0.09203   0.09527   0.10054   0.10776   0.10947
 Alpha virt. eigenvalues --    0.10996   0.11667   0.11767   0.12590   0.13459
 Alpha virt. eigenvalues --    0.13485   0.13905   0.14067   0.14174   0.14266
 Alpha virt. eigenvalues --    0.14889   0.15400   0.16103   0.16387   0.16548
 Alpha virt. eigenvalues --    0.17106   0.17311   0.17412   0.17695   0.18014
 Alpha virt. eigenvalues --    0.18449   0.19152   0.19461   0.19715   0.20040
 Alpha virt. eigenvalues --    0.20574   0.21306   0.21426   0.21515   0.21697
 Alpha virt. eigenvalues --    0.22458   0.23053   0.23405   0.23454   0.23907
 Alpha virt. eigenvalues --    0.24547   0.24573   0.25086   0.25780   0.26445
 Alpha virt. eigenvalues --    0.26530   0.27186   0.27411   0.27654   0.28068
 Alpha virt. eigenvalues --    0.28555   0.29454   0.29508   0.29620   0.29994
 Alpha virt. eigenvalues --    0.30101   0.30428   0.30726   0.30865   0.31167
 Alpha virt. eigenvalues --    0.31504   0.32073   0.32690   0.32720   0.32934
 Alpha virt. eigenvalues --    0.33241   0.34027   0.34215   0.34639   0.35111
 Alpha virt. eigenvalues --    0.35216   0.35554   0.35794   0.35884   0.36184
 Alpha virt. eigenvalues --    0.37212   0.37335   0.37611   0.37899   0.38105
 Alpha virt. eigenvalues --    0.38146   0.38718   0.38823   0.39017   0.39335
 Alpha virt. eigenvalues --    0.39629   0.39918   0.40073   0.40474   0.41337
 Alpha virt. eigenvalues --    0.41471   0.42068   0.42199   0.42753   0.42888
 Alpha virt. eigenvalues --    0.43310   0.43777   0.43948   0.44803   0.45040
 Alpha virt. eigenvalues --    0.45776   0.46353   0.47435   0.48136   0.48473
 Alpha virt. eigenvalues --    0.48775   0.49568   0.50412   0.51057   0.52057
 Alpha virt. eigenvalues --    0.53107   0.53887   0.54010   0.55998   0.57248
 Alpha virt. eigenvalues --    0.57672   0.58304   0.60387   0.61135   0.62104
 Alpha virt. eigenvalues --    0.62633   0.63991   0.65773   0.67655   0.69485
 Alpha virt. eigenvalues --    0.73220   0.73819   0.74430   0.76048   0.76473
 Alpha virt. eigenvalues --    0.76488   0.78449   0.80003   0.81126   0.81301
 Alpha virt. eigenvalues --    0.81518   0.81876   0.82062   0.82587   0.83771
 Alpha virt. eigenvalues --    0.85706   0.85969   0.86115   0.86443   0.86751
 Alpha virt. eigenvalues --    0.87600   0.87689   0.88227   0.89471   0.91408
 Alpha virt. eigenvalues --    0.92580   0.93639   0.93786   0.94806   0.95815
 Alpha virt. eigenvalues --    0.97130   0.98981   1.00159   1.01789   1.02702
 Alpha virt. eigenvalues --    1.03621   1.05309   1.05650   1.05899   1.06043
 Alpha virt. eigenvalues --    1.07790   1.08380   1.09290   1.10751   1.11823
 Alpha virt. eigenvalues --    1.12206   1.12273   1.13837   1.14350   1.15550
 Alpha virt. eigenvalues --    1.16840   1.17415   1.18653   1.18718   1.19896
 Alpha virt. eigenvalues --    1.20205   1.21124   1.21625   1.22376   1.22760
 Alpha virt. eigenvalues --    1.24554   1.24717   1.25586   1.27076   1.29217
 Alpha virt. eigenvalues --    1.29935   1.32503   1.32544   1.33412   1.34322
 Alpha virt. eigenvalues --    1.35221   1.37631   1.38509   1.39089   1.39796
 Alpha virt. eigenvalues --    1.39839   1.42379   1.42621   1.44363   1.46041
 Alpha virt. eigenvalues --    1.46788   1.47045   1.47337   1.49542   1.51458
 Alpha virt. eigenvalues --    1.51630   1.52768   1.53016   1.53655   1.54302
 Alpha virt. eigenvalues --    1.54944   1.55413   1.55903   1.57861   1.58109
 Alpha virt. eigenvalues --    1.60371   1.61094   1.62376   1.62664   1.63932
 Alpha virt. eigenvalues --    1.65195   1.66073   1.66505   1.68132   1.69566
 Alpha virt. eigenvalues --    1.69657   1.71959   1.72778   1.73444   1.74600
 Alpha virt. eigenvalues --    1.74818   1.75004   1.77344   1.79321   1.80042
 Alpha virt. eigenvalues --    1.81714   1.82769   1.84844   1.85787   1.88947
 Alpha virt. eigenvalues --    1.88962   1.90116   1.90786   1.91122   1.91616
 Alpha virt. eigenvalues --    1.92528   1.93719   1.94496   1.94673   1.95090
 Alpha virt. eigenvalues --    1.95249   1.95480   1.96332   1.96803   1.97638
 Alpha virt. eigenvalues --    1.99324   2.00391   2.00507   2.01069   2.02305
 Alpha virt. eigenvalues --    2.03453   2.03778   2.04167   2.04336   2.04890
 Alpha virt. eigenvalues --    2.05645   2.05714   2.06805   2.08878   2.09482
 Alpha virt. eigenvalues --    2.10051   2.10501   2.12133   2.12449   2.13004
 Alpha virt. eigenvalues --    2.13297   2.14075   2.14757   2.15596   2.17309
 Alpha virt. eigenvalues --    2.17491   2.18919   2.20053   2.22034   2.22781
 Alpha virt. eigenvalues --    2.23079   2.23972   2.26159   2.26511   2.27390
 Alpha virt. eigenvalues --    2.29324   2.31159   2.32865   2.35282   2.35621
 Alpha virt. eigenvalues --    2.37984   2.38323   2.39065   2.40918   2.41086
 Alpha virt. eigenvalues --    2.41680   2.42980   2.44015   2.45172   2.45301
 Alpha virt. eigenvalues --    2.47067   2.48705   2.52653   2.55905   2.60970
 Alpha virt. eigenvalues --    2.63090   2.63159   2.63256   2.65383   2.69789
 Alpha virt. eigenvalues --    2.70716   2.70927   2.71545   2.72128   2.76041
 Alpha virt. eigenvalues --    2.77986   2.80283   2.80727   2.81196   2.81584
 Alpha virt. eigenvalues --    2.85117   2.85899   2.87413   2.90338   2.91410
 Alpha virt. eigenvalues --    2.93570   2.96485   3.03631   3.06307   3.11593
 Alpha virt. eigenvalues --    3.15763   3.17909   3.19739   3.25216   3.25695
 Alpha virt. eigenvalues --    3.28226   3.28747   3.33836   3.35889   3.41676
 Alpha virt. eigenvalues --    3.50075   4.26952   4.29491   4.33207   4.35259
 Alpha virt. eigenvalues --    4.39998   4.41206   4.46141   4.48319   4.50301
 Alpha virt. eigenvalues --    4.50894   4.53842   4.57237   4.58562   4.60515
 Alpha virt. eigenvalues --    4.65642   4.71240   4.71615   4.79240   4.85054
 Alpha virt. eigenvalues --    4.92042   5.50824   6.13209   6.84594
          Condensed to atoms (all electrons):
               1          2          3          4          5          6
     1  C   13.252408   2.398858  -1.947974  -4.384642  -0.597699  -2.379325
     2  C    2.398858  10.523715  -0.409081  -2.801204   0.172569  -3.622918
     3  C   -1.947974  -0.409081  11.235437   2.526914  -4.512340   0.636667
     4  C   -4.384642  -2.801204   2.526914  14.138652  -1.818977  -0.526171
     5  C   -0.597699   0.172569  -4.512340  -1.818977  12.725234  -1.146172
     6  C   -2.379325  -3.622918   0.636667  -0.526171  -1.146172  13.907639
     7  N   -0.033583  -0.023883  -0.014770   0.206430  -0.069006   0.031605
     8  C   -0.746875  -0.541446  -0.505151  -0.332080   0.024767  -0.037093
     9  N   -0.007495  -0.015236  -0.094950  -0.161916   0.015689  -0.001916
    10  O    0.025802  -0.023486  -0.180013  -0.575370   0.523162   0.202129
    11  C   -0.046069  -0.040422  -0.078719  -0.292789  -0.137664  -0.023944
    12  C    0.000484   0.002441   0.013293   0.026435  -0.018086  -0.004523
    13  C   -0.000388  -0.000344  -0.000981  -0.007419  -0.004930  -0.000544
    14  H    0.037455   0.092916   0.218612  -0.027158   0.049744  -0.057587
    15  H    0.039208  -0.007720   0.011084  -0.002622   0.264343  -0.005011
    16  H    0.006675   0.003398  -0.067025   0.016872   0.052741   0.000889
    17  H   -0.000156  -0.000430   0.002723   0.010516  -0.001890  -0.000180
    18  H   -0.000011   0.000012   0.000394   0.000067  -0.001749  -0.000090
    19  H   -0.000042  -0.000001   0.000273  -0.000871  -0.002269  -0.000193
    20  H   -0.000002   0.000006   0.000170  -0.000520  -0.000252  -0.000011
    21  H   -0.000001   0.000004   0.000147  -0.000568  -0.000191  -0.000007
    22  H   -0.000000   0.000000   0.000004   0.000009  -0.000037  -0.000002
    23  H   -0.000000  -0.000000  -0.000003  -0.000038   0.000003   0.000000
    24  H   -0.000000   0.000000   0.000004  -0.000003  -0.000033  -0.000002
    25  O    0.139125  -0.039820   0.022932   0.008252   0.067167  -0.322099
    26  C    0.486068  -0.122141  -0.220736  -0.252619   0.001470  -0.265056
    27  F   -0.044607   0.037981   0.009514   0.003776  -0.006275   0.000832
    28  F    0.023339  -0.035283   0.024351   0.012784  -0.000659   0.008863
    29  F    0.017506  -0.034551   0.025967   0.014266   0.000719   0.010770
    30  H    0.003702   0.291729  -0.038801   0.045612  -0.010816   0.017034
    31  H    0.028759   0.028663  -0.020341   0.003179   0.013534   0.255872
    32  O    0.002916   0.032943   0.125167  -0.151439  -0.016780  -0.002799
    33  O   -0.000408  -0.004140   0.003077  -0.000119  -0.005620   0.000836
    34  C   -0.001856  -0.004864  -0.007311   0.010435  -0.011118  -0.000717
    35  C   -0.002088  -0.009649   0.000308  -0.000628  -0.002201  -0.000522
    36  C    0.001183   0.010491   0.003509  -0.013027  -0.000928  -0.000476
    37  H   -0.000000   0.000004   0.000189  -0.000236  -0.000029  -0.000000
    38  H   -0.000000   0.000006   0.000213  -0.000260  -0.000028  -0.000000
    39  H    0.000012   0.000327   0.000198  -0.000615  -0.000039   0.000002
    40  H   -0.000001  -0.000033  -0.000036   0.000063   0.000003   0.000000
    41  H    0.000012   0.000324   0.000163  -0.000595  -0.000043   0.000003
               7          8          9         10         11         12
     1  C   -0.033583  -0.746875  -0.007495   0.025802  -0.046069   0.000484
     2  C   -0.023883  -0.541446  -0.015236  -0.023486  -0.040422   0.002441
     3  C   -0.014770  -0.505151  -0.094950  -0.180013  -0.078719   0.013293
     4  C    0.206430  -0.332080  -0.161916  -0.575370  -0.292789   0.026435
     5  C   -0.069006   0.024767   0.015689   0.523162  -0.137664  -0.018086
     6  C    0.031605  -0.037093  -0.001916   0.202129  -0.023944  -0.004523
     7  N    7.907224   0.215024  -0.389169  -0.081237  -0.231673   0.019835
     8  C    0.215024   6.958553   0.447065   0.639868  -0.856922   0.203893
     9  N   -0.389169   0.447065   7.765915  -0.189748   0.350218  -0.072430
    10  O   -0.081237   0.639868  -0.189748   8.363830  -0.090749   0.024723
    11  C   -0.231673  -0.856922   0.350218  -0.090749   7.333624  -0.526398
    12  C    0.019835   0.203893  -0.072430   0.024723  -0.526398   6.363761
    13  C   -0.004973  -0.065345  -0.009035  -0.000509   0.039425  -0.191365
    14  H   -0.004850  -0.009495   0.000823   0.000051  -0.000412   0.000012
    15  H   -0.011775   0.019193   0.000498  -0.006553   0.003346   0.000021
    16  H    0.152129  -0.036018   0.032181   0.003718   0.007128  -0.000750
    17  H    0.029165   0.030403   0.184283   0.004869  -0.061401   0.000437
    18  H   -0.000277  -0.025830  -0.056907   0.000682   0.447438  -0.051961
    19  H   -0.000267  -0.034590  -0.057325   0.000659   0.458182  -0.055328
    20  H   -0.000260  -0.006353   0.005088  -0.000177  -0.072577   0.420142
    21  H   -0.000185  -0.006737   0.004966  -0.000171  -0.072031   0.419145
    22  H    0.000010  -0.000493   0.000030  -0.000043  -0.008083  -0.069686
    23  H    0.000007  -0.002298   0.000262   0.000005   0.029466  -0.128674
    24  H    0.000007  -0.000500   0.000005  -0.000038  -0.007833  -0.069775
    25  O   -0.000292   0.003194  -0.000008   0.000041   0.000038  -0.000000
    26  C   -0.000452  -0.021865   0.000037   0.000053  -0.000397   0.000002
    27  F    0.000006   0.000085   0.000000  -0.000000   0.000000   0.000000
    28  F   -0.000000   0.000084  -0.000000  -0.000000  -0.000000   0.000000
    29  F   -0.000007   0.000086  -0.000000  -0.000000  -0.000000   0.000000
    30  H    0.000777   0.005135   0.000010  -0.000002   0.000038   0.000000
    31  H   -0.000729  -0.000984   0.000009   0.000280  -0.000016   0.000002
    32  O   -0.013648  -0.007764   0.010581  -0.000256   0.014249  -0.003586
    33  O    0.012911   0.012699  -0.022337   0.000041  -0.026686   0.017285
    34  C   -0.004581  -0.003375  -0.006900  -0.000846   0.005928  -0.002854
    35  C   -0.020695  -0.015575  -0.007904  -0.000634   0.025704  -0.005837
    36  C    0.002528  -0.000361   0.001748   0.000035  -0.001955   0.000331
    37  H    0.000046  -0.000096  -0.000033  -0.000000  -0.000003   0.000073
    38  H    0.000046  -0.000074  -0.000038  -0.000000  -0.000015   0.000078
    39  H   -0.000017  -0.000042  -0.000004  -0.000000  -0.000013   0.000013
    40  H    0.000007   0.000019  -0.000002   0.000000  -0.000004   0.000001
    41  H   -0.000016  -0.000052  -0.000003  -0.000000  -0.000012   0.000013
              13         14         15         16         17         18
     1  C   -0.000388   0.037455   0.039208   0.006675  -0.000156  -0.000011
     2  C   -0.000344   0.092916  -0.007720   0.003398  -0.000430   0.000012
     3  C   -0.000981   0.218612   0.011084  -0.067025   0.002723   0.000394
     4  C   -0.007419  -0.027158  -0.002622   0.016872   0.010516   0.000067
     5  C   -0.004930   0.049744   0.264343   0.052741  -0.001890  -0.001749
     6  C   -0.000544  -0.057587  -0.005011   0.000889  -0.000180  -0.000090
     7  N   -0.004973  -0.004850  -0.011775   0.152129   0.029165  -0.000277
     8  C   -0.065345  -0.009495   0.019193  -0.036018   0.030403  -0.025830
     9  N   -0.009035   0.000823   0.000498   0.032181   0.184283  -0.056907
    10  O   -0.000509   0.000051  -0.006553   0.003718   0.004869   0.000682
    11  C    0.039425  -0.000412   0.003346   0.007128  -0.061401   0.447438
    12  C   -0.191365   0.000012   0.000021  -0.000750   0.000437  -0.051961
    13  C    5.822925  -0.000001   0.000013   0.000057  -0.001383  -0.007951
    14  H   -0.000001   0.440680  -0.000100   0.005087   0.000005   0.000000
    15  H    0.000013  -0.000100   0.434343  -0.000089   0.000000  -0.000000
    16  H    0.000057   0.005087  -0.000089   0.261733   0.004251   0.000004
    17  H   -0.001383   0.000005   0.000000   0.004251   0.259702   0.001721
    18  H   -0.007951   0.000000  -0.000000   0.000004   0.001721   0.525015
    19  H   -0.004451   0.000000  -0.000001   0.000004   0.001737  -0.043003
    20  H   -0.031163   0.000000  -0.000000   0.000002   0.000612   0.004008
    21  H   -0.030461   0.000000  -0.000000   0.000002   0.000608  -0.005462
    22  H    0.422137  -0.000000  -0.000000  -0.000000  -0.000000  -0.000348
    23  H    0.451937  -0.000000   0.000000  -0.000000  -0.000001  -0.000067
    24  H    0.421956   0.000000  -0.000000  -0.000000  -0.000000   0.002975
    25  O    0.000000  -0.000661  -0.000490  -0.000002  -0.000000   0.000000
    26  C   -0.000001   0.002165   0.000353   0.000068  -0.000001  -0.000000
    27  F    0.000000  -0.000001  -0.000000  -0.000000   0.000000   0.000000
    28  F   -0.000000   0.000043   0.000001   0.000000  -0.000000  -0.000000
    29  F   -0.000000   0.000045   0.000001   0.000000  -0.000000   0.000000
    30  H    0.000000  -0.003931   0.000012  -0.000008  -0.000000  -0.000000
    31  H   -0.000000   0.000012  -0.004607   0.000001  -0.000000  -0.000000
    32  O   -0.000222  -0.001990   0.000006   0.056913   0.002655  -0.000003
    33  O    0.004907  -0.000014   0.000001  -0.001852   0.040601  -0.000042
    34  C   -0.002402  -0.000308  -0.000039  -0.004543  -0.004790   0.000323
    35  C    0.001678   0.001395  -0.000003   0.009044   0.004101   0.000027
    36  C   -0.000124  -0.000207  -0.000000  -0.000843  -0.000776   0.000001
    37  H    0.000014  -0.000000   0.000000  -0.000006  -0.000003  -0.000000
    38  H    0.000014  -0.000000   0.000000  -0.000006  -0.000003   0.000000
    39  H    0.000001  -0.000000   0.000000  -0.000001   0.000000   0.000000
    40  H   -0.000000   0.000000  -0.000000  -0.000000   0.000000  -0.000000
    41  H    0.000001  -0.000000   0.000000  -0.000001   0.000000  -0.000000
              19         20         21         22         23         24
     1  C   -0.000042  -0.000002  -0.000001  -0.000000  -0.000000  -0.000000
     2  C   -0.000001   0.000006   0.000004   0.000000  -0.000000   0.000000
     3  C    0.000273   0.000170   0.000147   0.000004  -0.000003   0.000004
     4  C   -0.000871  -0.000520  -0.000568   0.000009  -0.000038  -0.000003
     5  C   -0.002269  -0.000252  -0.000191  -0.000037   0.000003  -0.000033
     6  C   -0.000193  -0.000011  -0.000007  -0.000002   0.000000  -0.000002
     7  N   -0.000267  -0.000260  -0.000185   0.000010   0.000007   0.000007
     8  C   -0.034590  -0.006353  -0.006737  -0.000493  -0.002298  -0.000500
     9  N   -0.057325   0.005088   0.004966   0.000030   0.000262   0.000005
    10  O    0.000659  -0.000177  -0.000171  -0.000043   0.000005  -0.000038
    11  C    0.458182  -0.072577  -0.072031  -0.008083   0.029466  -0.007833
    12  C   -0.055328   0.420142   0.419145  -0.069686  -0.128674  -0.069775
    13  C   -0.004451  -0.031163  -0.030461   0.422137   0.451937   0.421956
    14  H    0.000000   0.000000   0.000000  -0.000000  -0.000000   0.000000
    15  H   -0.000001  -0.000000  -0.000000  -0.000000   0.000000  -0.000000
    16  H    0.000004   0.000002   0.000002  -0.000000  -0.000000  -0.000000
    17  H    0.001737   0.000612   0.000608  -0.000000  -0.000001  -0.000000
    18  H   -0.043003   0.004008  -0.005462  -0.000348  -0.000067   0.002975
    19  H    0.524836  -0.005440   0.004021   0.002988  -0.000064  -0.000352
    20  H   -0.005440   0.488973  -0.028794  -0.004660  -0.003264   0.003911
    21  H    0.004021  -0.028794   0.489834   0.003910  -0.003251  -0.004653
    22  H    0.002988  -0.004660   0.003910   0.503889  -0.025374  -0.029877
    23  H   -0.000064  -0.003264  -0.003251  -0.025374   0.499973  -0.025373
    24  H   -0.000352   0.003911  -0.004653  -0.029877  -0.025373   0.504083
    25  O    0.000000   0.000000   0.000000   0.000000   0.000000   0.000000
    26  C   -0.000000  -0.000000  -0.000000  -0.000000  -0.000000  -0.000000
    27  F    0.000000   0.000000   0.000000   0.000000   0.000000   0.000000
    28  F    0.000000  -0.000000   0.000000  -0.000000  -0.000000   0.000000
    29  F   -0.000000   0.000000  -0.000000   0.000000  -0.000000  -0.000000
    30  H   -0.000000  -0.000000  -0.000000   0.000000  -0.000000   0.000000
    31  H   -0.000000   0.000000   0.000000   0.000000  -0.000000   0.000000
    32  O   -0.000005   0.000006   0.000006   0.000000  -0.000000   0.000000
    33  O   -0.000046  -0.001177  -0.001120  -0.000005  -0.000023  -0.000006
    34  C    0.000358  -0.000155  -0.000123  -0.000001  -0.000077  -0.000004
    35  C    0.000040   0.000083   0.000052  -0.000003   0.000039  -0.000003
    36  C    0.000000  -0.000013  -0.000013   0.000000  -0.000000   0.000000
    37  H    0.000000  -0.000000  -0.000000   0.000000  -0.000000   0.000000
    38  H   -0.000000  -0.000000  -0.000000   0.000000  -0.000000   0.000000
    39  H   -0.000000  -0.000000  -0.000000  -0.000000   0.000000  -0.000000
    40  H   -0.000000  -0.000000  -0.000000  -0.000000   0.000000  -0.000000
    41  H    0.000000  -0.000000  -0.000000  -0.000000   0.000000  -0.000000
              25         26         27         28         29         30
     1  C    0.139125   0.486068  -0.044607   0.023339   0.017506   0.003702
     2  C   -0.039820  -0.122141   0.037981  -0.035283  -0.034551   0.291729
     3  C    0.022932  -0.220736   0.009514   0.024351   0.025967  -0.038801
     4  C    0.008252  -0.252619   0.003776   0.012784   0.014266   0.045612
     5  C    0.067167   0.001470  -0.006275  -0.000659   0.000719  -0.010816
     6  C   -0.322099  -0.265056   0.000832   0.008863   0.010770   0.017034
     7  N   -0.000292  -0.000452   0.000006  -0.000000  -0.000007   0.000777
     8  C    0.003194  -0.021865   0.000085   0.000084   0.000086   0.005135
     9  N   -0.000008   0.000037   0.000000  -0.000000  -0.000000   0.000010
    10  O    0.000041   0.000053  -0.000000  -0.000000  -0.000000  -0.000002
    11  C    0.000038  -0.000397   0.000000  -0.000000  -0.000000   0.000038
    12  C   -0.000000   0.000002   0.000000   0.000000   0.000000   0.000000
    13  C    0.000000  -0.000001   0.000000  -0.000000  -0.000000   0.000000
    14  H   -0.000661   0.002165  -0.000001   0.000043   0.000045  -0.003931
    15  H   -0.000490   0.000353  -0.000000   0.000001   0.000001   0.000012
    16  H   -0.000002   0.000068  -0.000000   0.000000   0.000000  -0.000008
    17  H   -0.000000  -0.000001   0.000000  -0.000000  -0.000000  -0.000000
    18  H    0.000000  -0.000000   0.000000  -0.000000   0.000000  -0.000000
    19  H    0.000000  -0.000000   0.000000   0.000000  -0.000000  -0.000000
    20  H    0.000000  -0.000000   0.000000  -0.000000   0.000000  -0.000000
    21  H    0.000000  -0.000000   0.000000   0.000000  -0.000000  -0.000000
    22  H    0.000000  -0.000000   0.000000  -0.000000   0.000000   0.000000
    23  H    0.000000  -0.000000   0.000000  -0.000000  -0.000000  -0.000000
    24  H    0.000000  -0.000000   0.000000   0.000000  -0.000000   0.000000
    25  O    8.516473   0.224409  -0.014442  -0.072001  -0.071054  -0.011153
    26  C    0.224409   4.318122   0.221057   0.218969   0.217230  -0.000220
    27  F   -0.014442   0.221057   9.193697  -0.042426  -0.042447   0.000586
    28  F   -0.072001   0.218969  -0.042426   9.229943  -0.050341  -0.000805
    29  F   -0.071054   0.217230  -0.042447  -0.050341   9.228714  -0.000806
    30  H   -0.011153  -0.000220   0.000586  -0.000805  -0.000806   0.474814
    31  H   -0.003171  -0.001207  -0.000022   0.000036   0.000036  -0.000122
    32  O    0.000005   0.000003   0.000000   0.000000   0.000000   0.000001
    33  O    0.000000  -0.000003   0.000000  -0.000000  -0.000000  -0.000000
    34  C    0.000006  -0.000056   0.000000  -0.000001  -0.000001  -0.000002
    35  C    0.000001  -0.000050   0.000000  -0.000000  -0.000000  -0.000003
    36  C   -0.000000   0.000024  -0.000000   0.000000   0.000000  -0.000001
    37  H    0.000000  -0.000000  -0.000000  -0.000000  -0.000000  -0.000000
    38  H    0.000000  -0.000000  -0.000000  -0.000000  -0.000000  -0.000000
    39  H    0.000000  -0.000000   0.000000   0.000000   0.000000   0.000000
    40  H   -0.000000  -0.000000   0.000000  -0.000000  -0.000000  -0.000000
    41  H    0.000000  -0.000000   0.000000   0.000000   0.000000   0.000000
              31         32         33         34         35         36
     1  C    0.028759   0.002916  -0.000408  -0.001856  -0.002088   0.001183
     2  C    0.028663   0.032943  -0.004140  -0.004864  -0.009649   0.010491
     3  C   -0.020341   0.125167   0.003077  -0.007311   0.000308   0.003509
     4  C    0.003179  -0.151439  -0.000119   0.010435  -0.000628  -0.013027
     5  C    0.013534  -0.016780  -0.005620  -0.011118  -0.002201  -0.000928
     6  C    0.255872  -0.002799   0.000836  -0.000717  -0.000522  -0.000476
     7  N   -0.000729  -0.013648   0.012911  -0.004581  -0.020695   0.002528
     8  C   -0.000984  -0.007764   0.012699  -0.003375  -0.015575  -0.000361
     9  N    0.000009   0.010581  -0.022337  -0.006900  -0.007904   0.001748
    10  O    0.000280  -0.000256   0.000041  -0.000846  -0.000634   0.000035
    11  C   -0.000016   0.014249  -0.026686   0.005928   0.025704  -0.001955
    12  C    0.000002  -0.003586   0.017285  -0.002854  -0.005837   0.000331
    13  C   -0.000000  -0.000222   0.004907  -0.002402   0.001678  -0.000124
    14  H    0.000012  -0.001990  -0.000014  -0.000308   0.001395  -0.000207
    15  H   -0.004607   0.000006   0.000001  -0.000039  -0.000003  -0.000000
    16  H    0.000001   0.056913  -0.001852  -0.004543   0.009044  -0.000843
    17  H   -0.000000   0.002655   0.040601  -0.004790   0.004101  -0.000776
    18  H   -0.000000  -0.000003  -0.000042   0.000323   0.000027   0.000001
    19  H   -0.000000  -0.000005  -0.000046   0.000358   0.000040   0.000000
    20  H    0.000000   0.000006  -0.001177  -0.000155   0.000083  -0.000013
    21  H    0.000000   0.000006  -0.001120  -0.000123   0.000052  -0.000013
    22  H    0.000000   0.000000  -0.000005  -0.000001  -0.000003   0.000000
    23  H   -0.000000  -0.000000  -0.000023  -0.000077   0.000039  -0.000000
    24  H    0.000000   0.000000  -0.000006  -0.000004  -0.000003   0.000000
    25  O   -0.003171   0.000005   0.000000   0.000006   0.000001  -0.000000
    26  C   -0.001207   0.000003  -0.000003  -0.000056  -0.000050   0.000024
    27  F   -0.000022   0.000000   0.000000   0.000000   0.000000  -0.000000
    28  F    0.000036   0.000000  -0.000000  -0.000001  -0.000000   0.000000
    29  F    0.000036   0.000000  -0.000000  -0.000001  -0.000000   0.000000
    30  H   -0.000122   0.000001  -0.000000  -0.000002  -0.000003  -0.000001
    31  H    0.477135  -0.000000  -0.000000   0.000001   0.000000   0.000000
    32  O   -0.000000   8.634574  -0.191688   0.322846  -0.113146   0.040332
    33  O   -0.000000  -0.191688   8.570690   0.495924  -0.313378   0.041408
    34  C    0.000001   0.322846   0.495924   5.421035  -0.658505  -0.044918
    35  C    0.000000  -0.113146  -0.313378  -0.658505   7.100270  -0.177311
    36  C    0.000000   0.040332   0.041408  -0.044918  -0.177311   5.720967
    37  H    0.000000   0.000780  -0.002563  -0.062825   0.429601  -0.049470
    38  H    0.000000   0.000843  -0.002637  -0.061986   0.428858  -0.049547
    39  H   -0.000000  -0.006289   0.000134  -0.009398  -0.045711   0.410671
    40  H    0.000000   0.002445  -0.000241   0.038886  -0.093688   0.389249
    41  H   -0.000000  -0.006353   0.000143  -0.009681  -0.045532   0.410880
              37         38         39         40         41
     1  C   -0.000000  -0.000000   0.000012  -0.000001   0.000012
     2  C    0.000004   0.000006   0.000327  -0.000033   0.000324
     3  C    0.000189   0.000213   0.000198  -0.000036   0.000163
     4  C   -0.000236  -0.000260  -0.000615   0.000063  -0.000595
     5  C   -0.000029  -0.000028  -0.000039   0.000003  -0.000043
     6  C   -0.000000  -0.000000   0.000002   0.000000   0.000003
     7  N    0.000046   0.000046  -0.000017   0.000007  -0.000016
     8  C   -0.000096  -0.000074  -0.000042   0.000019  -0.000052
     9  N   -0.000033  -0.000038  -0.000004  -0.000002  -0.000003
    10  O   -0.000000  -0.000000  -0.000000   0.000000  -0.000000
    11  C   -0.000003  -0.000015  -0.000013  -0.000004  -0.000012
    12  C    0.000073   0.000078   0.000013   0.000001   0.000013
    13  C    0.000014   0.000014   0.000001  -0.000000   0.000001
    14  H   -0.000000  -0.000000  -0.000000   0.000000  -0.000000
    15  H    0.000000   0.000000   0.000000  -0.000000   0.000000
    16  H   -0.000006  -0.000006  -0.000001  -0.000000  -0.000001
    17  H   -0.000003  -0.000003   0.000000   0.000000   0.000000
    18  H   -0.000000   0.000000   0.000000  -0.000000  -0.000000
    19  H    0.000000  -0.000000  -0.000000  -0.000000   0.000000
    20  H   -0.000000  -0.000000  -0.000000  -0.000000  -0.000000
    21  H   -0.000000  -0.000000  -0.000000  -0.000000  -0.000000
    22  H    0.000000   0.000000  -0.000000  -0.000000  -0.000000
    23  H   -0.000000  -0.000000   0.000000   0.000000   0.000000
    24  H    0.000000   0.000000  -0.000000  -0.000000  -0.000000
    25  O    0.000000   0.000000   0.000000  -0.000000   0.000000
    26  C   -0.000000  -0.000000  -0.000000  -0.000000  -0.000000
    27  F   -0.000000  -0.000000   0.000000   0.000000   0.000000
    28  F   -0.000000  -0.000000   0.000000  -0.000000   0.000000
    29  F   -0.000000  -0.000000   0.000000  -0.000000   0.000000
    30  H   -0.000000  -0.000000   0.000000  -0.000000   0.000000
    31  H    0.000000   0.000000  -0.000000   0.000000  -0.000000
    32  O    0.000780   0.000843  -0.006289   0.002445  -0.006353
    33  O   -0.002563  -0.002637   0.000134  -0.000241   0.000143
    34  C   -0.062825  -0.061986  -0.009398   0.038886  -0.009681
    35  C    0.429601   0.428858  -0.045711  -0.093688  -0.045532
    36  C   -0.049470  -0.049547   0.410671   0.389249   0.410880
    37  H    0.496097  -0.025461  -0.003968  -0.002343   0.003622
    38  H   -0.025461   0.496045   0.003621  -0.002359  -0.003948
    39  H   -0.003968   0.003621   0.487513  -0.029892  -0.022346
[...]
 .00001454,-0.00000454,0.00000267,0.00000214,0.00000221,-0.00000031,-0.
 00005880,0.00002129,-0.00001860,0.00007117,-0.00002450,0.00000156,-0.0
 0002343,0.00001755,-0.00000824,-0.00001251,0.00001042,0.00000166,-0.00
 001582,0.00000281,0.00000692,0.00000500,-0.00000681,-0.00000196,-0.000
 00175,0.00000436,-0.00000377,0.00095297,0.00191398,0.00033677,0.001245
 34,0.00038158,0.00225271,-0.00360659,-0.00125838,-0.00702714,-0.051692
 51,0.04553853,-0.29209154,-0.00051155,0.00049897,-0.00387120,0.0586171
 9,-0.04972084,0.31587811,0.00001169,-0.00000186,0.00000488,-0.00000111
 ,-0.00000360,-0.00000704,0.00002168,-0.00001512,-0.00000371,-0.0000561
 6,0.00005070,-0.00002589,0.00001404,-0.00001352,0.00000813,-0.00000989
 ,0.00000848,-0.00000728,0.00008562,0.00000513,-0.00002303,-0.00012503,
 0.00005941,-0.00004137,0.00003878,-0.00006309,0.00003013,0.00002317,-0
 .00003444,0.00001020,0.00001250,0.00000501,0.00001155,-0.00000296,0.00
 000762,-0.00000224,0.00000123,-0.00000312,0.00000179,-0.00002450,-0.00
 001094,0.00001928,-0.00000368,0.00000493,0.00000027,-0.00002808,0.0000
 1136,0.00005425,0.00004075,0.00013554,-0.00004444,-0.00000166,-0.00000
 391,-0.00000342,-0.00000124,-0.00000089,0.00000095,0.00000830,-0.00000
 549,-0.00000066,0.00000236,-0.00000164,0.00000419,-0.00000081,0.000000
 35,-0.00000042,-0.00000182,0.00000005,-0.00000042,-0.00000173,-0.00000
 154,-0.00000155,0.00000802,0.00000755,-0.00000513,-0.00001337,-0.00003
 000,0.00003949,-0.00000382,0.00000950,-0.00000883,0.00000160,0.0000040
 8,-0.00000854,0.00000871,0.00001204,-0.00001961,0.00000573,-0.00000633
 ,0.00001081,0.00000020,0.00000166,0.00000111,0.00106941,-0.00018410,0.
 00085910,0.00023386,-0.00128366,0.00036119,0.00203679,-0.00336413,-0.0
 0552400,-0.14319372,0.09433017,0.08635922,-0.01916687,0.01842893,0.017
 44188,0.00382568,-0.00428716,-0.00333159,0.15867773,-0.00003609,0.0000
 0118,-0.00001105,-0.00003036,-0.00001621,0.00000134,0.00009836,0.00006
 881,0.00000557,-0.00023592,0.00004772,-0.00007698,0.00002788,-0.000032
 35,0.00002266,0.00001058,-0.00001139,0.00001064,-0.00022910,-0.0007152
 1,0.00006194,0.00044971,0.00002866,0.00008604,-0.00009741,0.00011196,-
 0.00007995,-0.00016684,-0.00012887,0.00001391,0.00006931,0.00002299,0.
 00000676,-0.00000961,-0.00002303,-0.00002162,-0.00000218,0.00000734,0.
 00000163,-0.00008552,0.00002894,-0.00004178,-0.00000231,-0.00000008,-0
 .00000431,0.00033316,0.00114463,-0.00004198,0.00002572,-0.00003956,0.0
 0011308,-0.00001467,0.00000106,-0.00000400,-0.00001591,-0.00000872,0.0
 0000394,0.00000576,0.00000246,0.00000826,0.00000361,-0.00000148,0.0000
 0622,-0.00000323,-0.00000461,0.00000081,-0.00000880,0.00000108,-0.0000
 0703,0.00000190,0.00000458,0.00000354,0.00009005,-0.00002099,0.0000354
 5,-0.00008894,-0.00002675,-0.00004047,0.00002384,-0.00000902,0.0000127
 7,0.00001423,0.00001535,0.00001857,0.00001751,0.00000404,0.00000134,0.
 00000506,-0.00000078,-0.00000303,0.00000586,-0.00000748,0.00000150,-0.
 00149422,-0.00619915,0.00491951,-0.00205500,0.00266789,0.00341194,0.02
 225227,-0.01685242,-0.02124651,0.09447948,-0.14001664,-0.08886175,-0.0
 0634878,0.00529783,0.00534831,-0.00428767,0.00381175,0.00350533,-0.101
 82414,0.15013044,-0.00001789,0.00000464,-0.00000690,-0.00000849,0.0000
 0096,-0.00000113,0.00000868,0.00000682,-0.00000221,-0.00001913,0.00000
 275,-0.00000693,-0.00000128,-0.00000182,-0.00000002,0.00000633,-0.0000
 0075,0.00000197,0.00000693,0.00002955,0.00003317,0.00001467,0.00004988
 ,-0.00001482,-0.00004080,-0.00007024,0.00003102,-0.00001317,-0.0000436
 6,0.00000622,0.00005523,0.00000370,0.00001470,-0.00000497,-0.00000403,
 -0.00001933,0.00000077,-0.00000270,0.00000546,-0.00000639,0.00000008,-
 0.00000158,0.00000009,0.00000025,-0.00000075,-0.00001191,-0.00004514,-
 0.00007191,0.00003565,0.00010487,-0.00005005,-0.00000834,0.00000166,-0
 .00000522,-0.00001089,-0.00000173,0.00000212,0.00000403,-0.00000359,0.
 00001588,0.00000849,-0.00000754,0.00000190,-0.00000166,-0.00000130,-0.
 00000019,-0.00001129,0.00000228,-0.00000694,0.00000078,0.00000438,0.00
 000148,0.00002751,-0.00000805,0.00001036,-0.00003240,0.00000775,-0.000
 01274,0.00001115,-0.00000806,0.00000582,0.00000606,-0.00000153,0.00000
 317,0.00000583,-0.00000162,0.00000167,-0.00000228,0.00000176,-0.000000
 72,0.00000039,-0.00000160,0.00000076,-0.00024426,0.00126920,-0.0014526
 8,-0.00148931,-0.00053415,-0.00012262,-0.00303737,0.00679460,0.0043289
 3,0.08580724,-0.08616323,-0.12214874,-0.00506215,0.00517265,0.00422203
 ,0.01929138,-0.02008648,-0.01781925,-0.09430928,0.09275811,0.13146226,
 0.00001518,0.00000066,0.00000757,0.00001562,0.00000219,-0.00000410,-0.
 00001006,-0.00002136,-0.00001225,0.00002606,0.00000842,0.00000515,0.00
 000013,-0.00000237,-0.00000102,-0.00000714,0.00000341,-0.00000616,0.00
 005301,0.00008798,-0.00003413,-0.00013828,0.00000938,-0.00001726,0.000
 03516,-0.00008869,-0.00000165,0.00003988,0.00000614,-0.00000125,-0.000
 01788,-0.00000307,0.00000068,-0.00000012,0.00001093,0.00001564,0.00000
 251,-0.00000294,-0.00000243,0.00001202,-0.00002393,0.00004278,-0.00000
 160,0.00000209,0.00000239,-0.00003562,-0.00016342,0.00006224,0.0000047
 3,0.00009081,0.00000130,0.00000114,-0.00000639,0.00000016,0.00000492,0
 .00000163,-0.00000127,0.00000323,-0.00000259,-0.00001141,-0.00000283,0
 .00000500,-0.00000036,0.00000073,0.00000158,-0.00000007,0.00000389,0.0
 0000022,0.00000367,-0.00000285,-0.00000505,-0.00000281,-0.00002860,0.0
 0000388,-0.00001295,0.00002926,0.00001780,0.00002595,-0.00000755,0.000
 00132,-0.00000582,-0.00000519,-0.00001051,-0.00001088,-0.00000499,-0.0
 0000230,-0.00000506,-0.00000034,0.00000242,0.00000362,-0.00000147,0.00
 000170,0.00000057,0.00202038,-0.00085911,-0.00043269,0.00087655,-0.000
 80569,0.00003211,-0.00148287,0.00285206,-0.00033164,-0.02019914,0.0190
 6165,0.01869263,-0.14510968,0.09597837,0.08979778,0.00132024,0.0003962
 5,-0.00030877,-0.00587581,-0.00220370,-0.00193314,0.15994896,0.0000305
 9,-0.00000423,0.00001256,0.00002164,0.00000740,-0.00000012,-0.00003148
 ,-0.00003773,0.00000551,0.00007736,-0.00001753,0.00001428,-0.00000417,
 0.00001163,-0.00000083,-0.00001040,0.00000424,-0.00000560,0.00001542,0
 .00016475,-0.00003152,-0.00005967,-0.00006761,0.00000219,0.00002945,0.
 00007224,0.00000072,0.00003450,0.00007877,-0.00001117,-0.00003531,-0.0
 0000897,-0.00000968,0.00000494,-0.00000241,-0.00000666,-0.00000291,-0.
 00000017,0.00000081,0.00002565,-0.00000818,0.00002599,0.00000227,-0.00
 000053,0.00000031,-0.00005987,-0.00026399,0.00005202,-0.00004553,-0.00
 012921,0.00000647,0.00000669,0.00000736,0.00000438,0.00000806,0.000003
 39,-0.00000222,-0.00000685,0.00000229,0.00000656,-0.00000226,-0.000002
 24,-0.00000490,0.00000179,0.00000071,-0.00000091,0.00000303,-0.0000021
 1,0.00000060,0.00000210,0.00000380,0.00000207,-0.00006637,0.00001138,-
 0.00002025,0.00007869,0.00002098,0.00000328,-0.00001875,0.00000542,-0.
 00000506,-0.00001308,-0.00000696,-0.00000499,-0.00001997,-0.00000710,0
 .00001062,0.00000121,-0.00000172,0.00000004,-0.00000134,0.00000321,-0.
 00000209,-0.00050421,-0.00136084,-0.00043346,0.00051895,0.00030093,-0.
 00005233,-0.00065056,-0.00027659,0.00066624,-0.00440213,0.00497577,0.0
 0463437,0.09773975,-0.14166864,-0.08876530,0.00065087,0.00023660,0.000
 17209,-0.00188522,0.00016516,0.00018631,-0.10547682,0.15185501,-0.0000
 4484,0.00000925,-0.00001829,-0.00000088,-0.00000155,0.00001256,-0.0000
 2574,0.00005369,-0.00000937,0.00006777,-0.00007953,0.00004211,-0.00003
 054,0.00001454,-0.00001235,0.00002543,-0.00001944,0.00001495,-0.000124
 24,-0.00006341,-0.00000763,0.00017283,0.00001457,0.00003927,-0.0000668
 8,0.00004629,-0.00002709,-0.00005293,-0.00002820,-0.00000348,0.0000285
 6,0.00000697,0.00000447,-0.00000474,-0.00000863,0.00000190,-0.00000029
 ,0.00000286,-0.00000150,0.00004270,0.00005255,-0.00003923,0.00000370,-
 0.00000799,0.00000174,0.00003420,0.00013240,-0.00004729,0.00002122,-0.
 00001020,0.00000004,-0.00000540,-0.00000180,-0.00000091,-0.00000818,-0
 .00000272,-0.00000005,0.00000238,0.00000199,-0.00000003,0.00000193,0.0
 0000027,0.00000060,0.,-0.00000098,-0.00000042,-0.00000386,0.00000120,-
 0.00000147,-0.00000017,0.,0.00000123,0.00002911,-0.00002576,0.00002032
 ,-0.00003087,0.00005785,-0.00005835,0.00002138,-0.00002462,0.00001803,
 0.00000631,-0.00001188,0.00001248,-0.00000069,-0.00001954,0.00002268,-
 0.00001615,0.00001970,-0.00001940,-0.00000063,-0.00000517,0.00000043,-
 0.00147805,-0.00043378,-0.00064629,-0.00037774,0.00040755,-0.00026648,
 0.00129081,-0.00137735,0.00053508,-0.00505622,0.00519286,0.00418628,0.
 09054378,-0.08729268,-0.13095162,0.00038236,0.00059916,0.00063227,-0.0
 0177210,-0.00032260,0.00091564,-0.09658536,0.09767061,0.13848031,-0.00
 000802,0.00000403,-0.00000200,-0.00000879,-0.00000425,-0.00000437,0.00
 006098,0.00000056,0.00001511,-0.00017106,0.00009566,-0.00007647,0.0000
 2845,-0.00003729,0.00001979,-0.00000695,0.00000765,-0.00000505,0.00012
 707,-0.00015202,0.00007473,-0.00021143,0.00018770,-0.00011490,-0.00001
 529,-0.00045137,0.00008595,0.00000989,-0.00018291,0.00005444,0.0000996
 3,0.00000743,0.00001978,-0.00001334,0.00001427,0.00000346,0.00000974,-
 0.00000755,0.00000146,-0.00004948,-0.00000427,-0.00000508,-0.00000780,
 0.00000846,-0.00000476,0.00002979,0.00023908,-0.00004916,0.00015252,0.
 00065994,-0.00007344,-0.00001968,-0.00001954,-0.00001018,-0.00002188,-
 0.00001235,0.00000806,0.00002614,-0.00000606,-0.00002028,0.00000637,0.
 00000764,0.00002196,-0.00000794,-0.00000422,0.00000365,-0.00000809,0.0
 0000490,-0.00000405,-0.00000743,-0.00000726,-0.00000452,0.00005175,-0.
 00000622,0.00001649,-0.00004875,-0.00002616,-0.00000669,0.00001052,-0.
 00000126,0.00000349,0.00000721,0.00000998,0.00000645,0.00001081,0.0000
 0672,-0.00000610,0.00000825,-0.00000521,0.00000447,0.00000218,-0.00000
 251,0.00000148,0.00166387,-0.00060733,0.00043258,-0.00259831,-0.003580
 04,0.00045487,-0.00506474,0.00497697,-0.00277269,-0.00561222,-0.033716
 72,0.00791993,-0.05842023,-0.04901359,0.01152874,0.00137946,0.00053467
 ,-0.00028434,0.00106700,0.00060225,0.00063636,0.00441189,0.01836855,-0
 .00636423,0.06287131,-0.00007512,0.00001762,-0.00002622,-0.00003295,-0
 .00000974,-0.00000450,0.00007188,0.00006095,0.00000246,-0.00018349,0.0
 0004554,-0.00006496,0.00001118,-0.00003168,0.00001204,0.00002097,-0.00
 000842,0.00000853,0.00000864,-0.00033472,0.00010161,0.00006033,0.00022
 344,-0.00004543,-0.00007682,-0.00027354,0.00003540,-0.00007035,-0.0002
 2519,0.00004078,0.00011213,0.00002081,0.00002315,-0.00001147,0.0000065
 1,0.00000417,0.00000902,-0.00000263,0.00000097,-0.00004442,0.00005294,
 -0.00003447,-0.00000608,0.00000306,-0.00000243,0.00010040,0.00056925,-
 0.00013770,0.00016737,0.00047366,-0.00004688,-0.00001978,-0.00001984,-
 0.00001265,-0.00002587,-0.00001247,0.00000975,0.00002297,-0.00000556,-
 0.00001820,0.00000535,0.00000570,0.00002044,-0.00000802,-0.00000447,0.
 00000488,-0.00000934,0.00000681,-0.00000447,-0.00000639,-0.00000893,-0
 .00000553,0.00014439,-0.00003171,0.00005043,-0.00016354,-0.00001495,-0
 .00004416,0.00004650,-0.00002303,0.00002045,0.00002824,0.00000995,0.00
 001883,0.00003507,0.00000418,-0.00000508,-0.00000544,0.00000880,-0.000
 00478,0.00000282,-0.00000849,0.00000372,-0.00154758,-0.00083800,0.0000
 1953,-0.00192739,-0.00115830,-0.00003683,0.00124409,0.00162942,-0.0001
 6355,0.00114671,-0.00501602,0.00135149,-0.04944725,-0.29036584,0.05381
 497,-0.00016976,0.00010220,-0.00050919,-0.00043686,0.00045965,0.000180
 55,-0.00412638,-0.01723108,0.00491292,0.05539451,0.31606498,0.00001926
 ,-0.00000459,0.00000452,0.00000406,0.00000351,0.00000825,-0.00000460,-
 0.00001112,0.00001522,-0.00000187,0.00001326,-0.00000731,0.00000568,-0
 .00000275,0.00000341,-0.00000819,0.00000455,-0.00000322,0.00003012,0.0
 0003944,0.00001116,-0.00007017,-0.00000849,-0.00002268,0.00001555,-0.0
 0004691,0.00001637,0.00002003,0.00000897,0.00000475,-0.00000315,-0.000
 00383,0.00000010,-0.00000172,0.00000300,0.00000383,0.00000035,-0.00000
 148,-0.00000039,0.00000602,-0.00002329,-0.00002768,-0.00000051,0.00000
 146,-0.00000115,-0.00001536,-0.00007032,0.00000286,-0.00000086,0.00005
 187,-0.00000812,0.00000013,-0.00000048,0.00000048,0.00000071,0.0000004
 8,-0.00000096,0.00000077,-0.00000032,-0.00000136,0.00000121,-0.0000002
 6,-0.00000056,0.00000039,0.00000083,-0.00000098,-0.00000006,-0.0000001
 7,0.00000105,-0.00000039,-0.00000053,0.00000002,-0.00002460,0.00000719
 ,-0.00000839,0.00003251,-0.00000630,0.00000468,-0.00001015,0.00000652,
 -0.00000410,-0.00000622,0.00000247,-0.00000124,-0.00000726,0.00000040,
 0.00000188,0.00000528,-0.00000516,-0.00000183,-0.00000003,0.00000153,-
 0.00000065,0.00049817,0.00017262,0.00077556,-0.00023408,-0.00057618,0.
 00012978,-0.00163538,0.00076295,0.00004702,-0.00134156,-0.00758012,0.0
 0066409,0.01164540,0.05401834,-0.06256932,0.00047542,-0.00029099,0.000
 21147,0.00031127,0.00038773,0.00000125,-0.00532239,-0.01770519,0.00430
 600,-0.01124856,-0.06024594,0.06127316,-0.00000535,0.00000415,-0.00000
 422,0.00001327,0.00000123,0.00000490,-0.00001881,0.00000852,-0.0000014
 9,0.00004011,-0.00002558,0.00001910,-0.00001215,0.00000240,-0.00000242
 ,0.00000383,-0.00000527,0.00000418,-0.00001563,0.00003482,0.00000561,-
 0.00003279,0.00001475,-0.00003349,-0.00000906,-0.00004351,0.00003335,0
 .00000399,-0.00001110,0.00001227,0.00000075,0.00000050,-0.00000685,0.0
 0000428,-0.00000072,-0.00001070,0.00000128,-0.00000025,0.00000295,0.00
 003039,0.00000345,-0.00000347,0.00000093,-0.00000259,-0.00000139,-0.00
 000387,-0.00004674,-0.00000203,0.00001995,0.00006205,-0.00002181,-0.00
 000017,-0.00000093,0.00000075,-0.00000268,-0.00000576,0.00000391,0.000
 00226,0.00000305,-0.00000681,-0.00000199,0.00000562,0.00001116,-0.0000
 0435,-0.00000298,0.00000273,0.00000311,-0.00000025,-0.00000075,-0.0000
 0034,-0.00000031,-0.00000072,-0.00001221,-0.00000880,-0.00000008,0.000
 01497,0.00004219,-0.00001268,0.00000305,-0.00001051,0.00000474,-0.0000
 0256,-0.00001394,-0.00000132,-0.00000630,-0.00001177,0.00000946,-0.000
 00730,0.00001169,-0.00000427,-0.00000094,-0.00000153,-0.00000071,0.000
 42567,-0.00061731,0.00043051,0.00024369,-0.00024521,0.00051384,-0.0000
 7136,0.00154392,-0.00090511,-0.00698737,0.00509306,-0.03305974,-0.0588
 1265,0.00942399,-0.05269583,-0.00641322,-0.00196245,-0.00101249,0.0013
 1742,0.00072385,0.00033885,0.00410650,-0.00432462,0.01937626,0.0002666
 4,-0.00023828,0.00686478,0.06591902,0.00004696,-0.00000920,0.00001207,
 0.00001452,0.00000982,0.00001019,-0.00001402,-0.00004894,0.00002117,0.
 00001548,0.00003274,0.00000976,0.00001227,-0.00000168,0.00000102,-0.00
 002094,0.00001328,-0.00000831,0.00007602,0.00014809,-0.00002047,-0.000
 13542,-0.00005239,-0.00003454,0.00005448,0.00001839,0.00001998,0.00005
 107,0.00006689,-0.00000026,-0.00003936,-0.00000985,-0.00000893,0.00000
 479,0.00000478,-0.00000166,-0.00000136,-0.00000215,0.00000130,0.000014
 86,-0.00004163,-0.00002429,0.00000007,0.00000315,-0.00000201,-0.000058
 90,-0.00025677,0.00006006,-0.00003774,-0.00006901,0.00000147,0.0000078
 5,0.00000490,0.00000362,0.00000903,0.00000356,-0.00000168,-0.00000537,
 0.00000055,0.00000220,-0.00000143,-0.00000125,-0.00000296,0.00000107,0
 .00000147,-0.00000082,0.00000406,-0.00000167,0.00000209,0.00000122,0.0
 0000133,0.00000029,-0.00006519,0.00002018,-0.00002351,0.00007898,-0.00
 001140,0.00001955,-0.00002463,0.00001538,-0.00001092,-0.00001436,0.000
 00275,-0.00000673,-0.00001665,0.00000174,0.00000221,0.00001074,-0.0000
 1226,0.00000137,-0.00000063,0.00000471,-0.00000178,0.00036546,-0.00049
 225,0.00063650,0.00049727,-0.00002072,0.00017707,-0.00088163,0.0004321
 0,-0.00108173,-0.00104192,0.00090756,-0.00710199,0.00971601,-0.0553873
 5,0.04363910,-0.00157770,0.00016899,-0.00036745,0.00037824,0.00009122,
 0.00040447,-0.00474158,0.00316681,-0.01945939,0.00671718,-0.00414087,0
 .03109729,-0.00939880,0.05543897,0.00002753,-0.00000532,0.00000582,-0.
 00000813,0.00000307,0.00000939,0.00002565,-0.00001762,0.00003175,-0.00
 009387,0.00007243,-0.00004983,0.00002741,-0.00002205,0.00001558,-0.000
 01988,0.00001528,-0.00000678,0.00010801,-0.00001189,0.00006151,-0.0001
 6221,0.00003112,-0.00007348,0.00003946,-0.00011505,0.00006826,0.000034
 68,-0.00002233,0.00002560,-0.00000539,-0.00000387,-0.00000896,0.000005
 87,0.00000832,-0.00001012,0.00000272,-0.00000287,0.00000296,-0.0000244
 3,-0.00006143,-0.00003381,-0.00000382,0.00000606,-0.00000646,0.0000045
 2,-0.00000167,-0.00003311,0.00002566,0.00012067,-0.00003467,0.00000215
 ,-0.00000065,-0.00000011,-0.00000028,-0.00000420,0.00000528,0.00000250
 ,0.00000068,-0.00000645,-0.00000252,0.00000280,0.00001103,-0.00000477,
 -0.00000218,0.00000368,0.00000420,-0.00000054,-0.00000005,-0.00000066,
 -0.00000064,-0.00000199,-0.00000144,0.00001839,0.00000117,0.00001636,-
 0.00007074,-0.00001991,-0.00001296,0.00001991,-0.00000327,-0.00000398,
 0.00003069,0.00001503,-0.00000438,0.00001249,0.00000491,0.00001717,-0.
 00001783,-0.00000117,0.00000161,0.00000181,-0.00000212,0.00125736,-0.0
 0009063,0.00075102,0.00028729,-0.00079006,0.00022472,-0.00113768,0.002
 29922,-0.00068588,-0.00097855,0.00016817,-0.00477647,-0.05401174,0.042
 05874,-0.30288385,-0.00126759,-0.00004123,0.00143920,-0.00038914,0.000
 01617,0.00067890,-0.00364940,0.00358425,-0.01713715,-0.00025637,0.0007
 7590,-0.00482699,0.06014904,-0.04796335,0.32724689\\-0.00001143,0.0000
 0761,-0.00000979,0.00000434,-0.00000309,-0.00000057,-0.00000190,0.0000
 0057,-0.00000278,0.00000529,0.00000351,-0.00000260,-0.00000145,-0.0000
 0352,0.00000115,-0.00000205,-0.00000352,-0.00000121,-0.00000187,-0.000
 00380,-0.00000473,0.00001416,0.00000144,-0.00000269,-0.00001063,0.0000
 0537,0.00000391,-0.00000219,0.00000192,-0.00000156,0.00000236,0.000002
 89,-0.00000078,-0.00000646,0.00000133,0.00000347,-0.00000022,0.0000029
 1,0.00000165,0.00000005,-0.00000147,0.00000190,0.00000110,-0.00000070,
 -0.00000227,-0.00000005,0.00000282,0.00000092,0.00000324,-0.00001490,0
 .00000072,0.00000021,0.00000140,-0.00000200,-0.00000228,0.00000033,0.0
 0000207,0.00000292,0.00000215,0.00000228,-0.00000115,0.00000177,-0.000
 00023,-0.00000012,0.00000091,0.00000278,-0.00000033,0.00000285,0.00000
 120,-0.00000031,0.00000082,0.00000011,0.00001303,-0.00000704,0.0000020
 2,0.00000055,-0.00000058,-0.00000156,0.00000117,-0.00000692,-0.0000044
 2,-0.00000396,0.00000112,-0.00000013,0.00000305,-0.00000359,-0.0000078
 9,-0.00000109,-0.00000090,-0.00000127,0.00000049,-0.00000079,-0.000002
 93,-0.00000737,-0.00000604,0.00000973,0.00002087,0.00001255,0.00001130
 ,-0.00001978,0.00000255,-0.00001056,0.00000295,-0.00000328,-0.00000489
 ,-0.00000085,-0.00000023,0.00000344,0.00000008,0.00000179,0.00000279,-
 0.00000127,0.00000141,0.00000651,0.00000121,0.00000062,0.00000109,-0.0
 0000067,0.00000114,0.00000254,0.00000039,-0.00000138,0.00000326\\\@


 A successful marriage requires falling in love
 many times, always with the same person.
                           -- Mignon McLaughlin
 Job cpu time:       0 days  6 hours 59 minutes 37.8 seconds.
 File lengths (MBytes):  RWF=   1144 Int=      0 D2E=      0 Chk=     28 Scr=      1
 Normal termination of Gaussian 09 at Tue Feb 19 14:18:20 2019.
WARNING: pbs_rusage is deprecated and values produced may not be accurate


=============================================================================
                                     Resource usage:
                                       CPU time:              32:22:13
   JobId:    5875384.r-man2            Elapsed time:          04:27:35
   Project:             q95            Requested time:        46:00:00
   Service Units:     35.68 
                                       Max physical memory:     1566MB
                                       Max virtual memory:      3124MB
                                       Requested memory:           0MB

                                       Number of cpus:               8

                                       Max jobfs disk use:       1.1GB
                                       Requested jobfs:         20.0GB
=============================================================================

