 Entering Gaussian System, Link 0=/apps/gaussian/g09e01/g09/g09
 AtFile(1): /home/507/hio507/Basis/6-31pGd.gbs
 Initial command:
 /apps/gaussian/g09e01/g09/l1.exe "/jobfs/local/8352942.r-man2/Gau-50471.inp" -scrdir="/jobfs/local/8352942.r-man2/"
 Entering Link 1 = /apps/gaussian/g09e01/g09/l1.exe PID=     50472.
  
 Copyright (c) 1988,1990,1992,1993,1995,1998,2003,2009,2015,
            Gaussian, Inc.  All Rights Reserved.
  
 This is part of the Gaussian(R) 09 program.  It is based on
 the Gaussian(R) 03 system (copyright 2003, Gaussian, Inc.),
 the Gaussian(R) 98 system (copyright 1998, Gaussian, Inc.),
 the Gaussian(R) 94 system (copyright 1995, Gaussian, Inc.),
 the Gaussian 92(TM) system (copyright 1992, Gaussian, Inc.),
 the Gaussian 90(TM) system (copyright 1990, Gaussian, Inc.),
 the Gaussian 88(TM) system (copyright 1988, Gaussian, Inc.),
 the Gaussian 86(TM) system (copyright 1986, Carnegie Mellon
 University), and the Gaussian 82(TM) system (copyright 1983,
 Carnegie Mellon University). Gaussian is a federally registered
 trademark of Gaussian, Inc.
  
 This software contains proprietary and confidential information,
 including trade secrets, belonging to Gaussian, Inc.
  
 This software is provided under written license and may be
 used, copied, transmitted, or stored only in accord with that
 written license.
  
 The following legend is applicable only to US Government
 contracts under FAR:
  
                    RESTRICTED RIGHTS LEGEND
  
 Use, reproduction and disclosure by the US Government is
 subject to restrictions as set forth in subparagraphs (a)
 and (c) of the Commercial Computer Software - Restricted
 Rights clause in FAR 52.227-19.
  
 Gaussian, Inc.
 340 Quinnipiac St., Bldg. 40, Wallingford CT 06492
  
  
 ---------------------------------------------------------------
 Warning -- This program may not be used in any manner that
 competes with the business of Gaussian, Inc. or will provide
 assistance to any competitor of Gaussian, Inc.  The licensee
 of this program is prohibited from giving any competitor of
 Gaussian, Inc. access to this program.  By using this program,
 the user acknowledges that Gaussian, Inc. is engaged in the
 business of creating and licensing software in the field of
 computational chemistry and represents and warrants to the
 licensee that it is not a competitor of Gaussian, Inc. and that
 it will not use this program in any manner prohibited above.
 ---------------------------------------------------------------
  

 Cite this work as:
 Gaussian 09, Revision E.01,
 M. J. Frisch, G. W. Trucks, H. B. Schlegel, G. E. Scuseria, 
 M. A. Robb, J. R. Cheeseman, G. Scalmani, V. Barone, B. Mennucci, 
 G. A. Petersson, H. Nakatsuji, M. Caricato, X. Li, H. P. Hratchian, 
 A. F. Izmaylov, J. Bloino, G. Zheng, J. L. Sonnenberg, M. Hada, 
 M. Ehara, K. Toyota, R. Fukuda, J. Hasegawa, M. Ishida, T. Nakajima, 
 Y. Honda, O. Kitao, H. Nakai, T. Vreven, J. A. Montgomery, Jr., 
 J. E. Peralta, F. Ogliaro, M. Bearpark, J. J. Heyd, E. Brothers, 
 K. N. Kudin, V. N. Staroverov, T. Keith, R. Kobayashi, J. Normand, 
 K. Raghavachari, A. Rendell, J. C. Burant, S. S. Iyengar, J. Tomasi, 
 M. Cossi, N. Rega, J. M. Millam, M. Klene, J. E. Knox, J. B. Cross, 
 V. Bakken, C. Adamo, J. Jaramillo, R. Gomperts, R. E. Stratmann, 
 O. Yazyev, A. J. Austin, R. Cammi, C. Pomelli, J. W. Ochterski, 
 R. L. Martin, K. Morokuma, V. G. Zakrzewski, G. A. Voth, 
 P. Salvador, J. J. Dannenberg, S. Dapprich, A. D. Daniels, 
 O. Farkas, J. B. Foresman, J. V. Ortiz, J. Cioslowski, 
 and D. J. Fox, Gaussian, Inc., Wallingford CT, 2013.
 
 ******************************************
 Gaussian 09:  ES64L-G09RevE.01 30-Nov-2015
                12-Jul-2018 
 ******************************************
 %chk=aryl_urea_OCF3.M062X.opt.chk
 %mem=196608000
 %nproc=4
 Will use up to    4 processors via shared memory.
 ----------------------------------------------------------------------
 # M062X/Gen 6D NoSymm SCF=Tight INT(grid=ultrafine) OPT IOP(2/17=4) Fr
 eq=Noraman maxdisk=2147483648
 ----------------------------------------------------------------------
 1/14=-1,18=20,19=15,26=4,38=1/1,3;
 2/9=110,12=2,15=1,17=4,18=5,40=1/2;
 3/5=7,8=2,11=2,16=1,25=1,30=1,71=1,74=-55,75=-5/1,2,3;
 4//1;
 5/5=2,32=2,38=5/2;
 6/7=2,8=2,9=2,10=2,28=1/1;
 7/30=1/1,2,3,16;
 1/14=-1,18=20,19=15,26=4/3(2);
 2/9=110,15=1,17=4/2;
 99//99;
 2/9=110,15=1,17=4/2;
 3/5=7,6=1,8=2,11=2,16=1,25=1,30=1,71=1,74=-55,75=-5,82=7/1,2,3;
 4/5=5,16=3,69=1/1;
 5/5=2,32=2,38=5/2;
 7/30=1/1,2,3,16;
 1/14=-1,18=20,19=15,26=4/3(-5);
 2/9=110,15=1,17=4/2;
 6/7=2,8=2,9=2,10=2,19=2,28=1/1;
 99/9=1/99;
 ------------------------
 aryl_urea_OCF3.M062X.opt
 ------------------------
 Symbolic Z-matrix:
 Charge =  0 Multiplicity = 1
 C                    -4.7989    4.58806  -0.28757 
 C                    -5.54441   4.4457    0.89578 
 C                    -4.99312   4.81392   2.12527 
 C                    -3.6878    5.33361   2.21769 
 C                    -2.94679   5.4724    1.01976 
 C                    -3.5025    5.10251  -0.20928 
 N                    -3.20009   5.68685   3.52528 
 C                    -2.19526   6.56151   3.84114 
 N                    -1.87281   6.76762   5.14955 
 O                    -1.58084   7.16183   2.97388 
 C                    -0.8163    7.68343   5.54393 
 C                    -0.66492   7.72394   7.06894 
 C                     0.44375   8.68458   7.48895 
 H                    -5.59471   4.69122   3.01754 
 H                    -1.9448    5.85793   0.98348 
 H                    -3.66639   5.22279   4.32057 
 H                    -2.3938    6.25881   5.88116 
 H                    -1.0591    8.70394   5.17345 
 H                     0.1438    7.35219   5.08993 
 H                    -0.42151   6.7061    7.44439 
 H                    -1.62201   8.05514   7.52774 
 H                     1.41641   8.36335   7.05903 
 H                     0.52964   8.69263   8.59597 
 H                     0.21382   9.71473   7.14252 
 O                    -5.28116   4.2473   -1.51223 
 C                    -6.52871   3.72622  -1.79588 
 F                    -6.83534   3.99275  -3.11618 
 F                    -6.5293    2.35523  -1.60772 
 F                    -7.48785   4.31372  -0.98972 
 H                    -6.55112   4.05211   0.88235 
 H                    -2.91626   5.21782  -1.11284 
 

 GradGradGradGradGradGradGradGradGradGradGradGradGradGradGradGradGradGrad
 Berny optimization.
 Initialization pass.
                           ----------------------------
                           !    Initial Parameters    !
                           ! (Angstroms and Degrees)  !
 --------------------------                            --------------------------
 ! Name  Definition              Value          Derivative Info.                !
 --------------------------------------------------------------------------------
 ! R1    R(1,2)                  1.4058         estimate D2E/DX2                !
 ! R2    R(1,6)                  1.3969         estimate D2E/DX2                !
 ! R3    R(1,25)                 1.3596         estimate D2E/DX2                !
 ! R4    R(2,3)                  1.3968         estimate D2E/DX2                !
 ! R5    R(2,30)                 1.081          estimate D2E/DX2                !
 ! R6    R(3,4)                  1.408          estimate D2E/DX2                !
 ! R7    R(3,14)                 1.0831         estimate D2E/DX2                !
 ! R8    R(4,5)                  1.4154         estimate D2E/DX2                !
 ! R9    R(4,7)                  1.4396         estimate D2E/DX2                !
 ! R10   R(5,6)                  1.3986         estimate D2E/DX2                !
 ! R11   R(5,15)                 1.0742         estimate D2E/DX2                !
 ! R12   R(6,31)                 1.0832         estimate D2E/DX2                !
 ! R13   R(7,8)                  1.3691         estimate D2E/DX2                !
 ! R14   R(7,16)                 1.0321         estimate D2E/DX2                !
 ! R15   R(8,9)                  1.3632         estimate D2E/DX2                !
 ! R16   R(8,10)                 1.2207         estimate D2E/DX2                !
 ! R17   R(9,11)                 1.4527         estimate D2E/DX2                !
 ! R18   R(9,17)                 1.0323         estimate D2E/DX2                !
 ! R19   R(11,12)                1.533          estimate D2E/DX2                !
 ! R20   R(11,18)                1.1125         estimate D2E/DX2                !
 ! R21   R(11,19)                1.1125         estimate D2E/DX2                !
 ! R22   R(12,13)                1.5259         estimate D2E/DX2                !
 ! R23   R(12,20)                1.1118         estimate D2E/DX2                !
 ! R24   R(12,21)                1.1119         estimate D2E/DX2                !
 ! R25   R(13,22)                1.1109         estimate D2E/DX2                !
 ! R26   R(13,23)                1.1104         estimate D2E/DX2                !
 ! R27   R(13,24)                1.1109         estimate D2E/DX2                !
 ! R28   R(25,26)                1.3814         estimate D2E/DX2                !
 ! R29   R(26,27)                1.3814         estimate D2E/DX2                !
 ! R30   R(26,28)                1.3838         estimate D2E/DX2                !
 ! R31   R(26,29)                1.3838         estimate D2E/DX2                !
 ! A1    A(2,1,6)              118.8324         estimate D2E/DX2                !
 ! A2    A(2,1,25)             123.0058         estimate D2E/DX2                !
 ! A3    A(6,1,25)             118.1618         estimate D2E/DX2                !
 ! A4    A(1,2,3)              120.3255         estimate D2E/DX2                !
 ! A5    A(1,2,30)             121.3501         estimate D2E/DX2                !
 ! A6    A(3,2,30)             118.3244         estimate D2E/DX2                !
 ! A7    A(2,3,4)              121.3967         estimate D2E/DX2                !
 ! A8    A(2,3,14)             118.4269         estimate D2E/DX2                !
 ! A9    A(4,3,14)             120.1764         estimate D2E/DX2                !
 ! A10   A(3,4,5)              117.7741         estimate D2E/DX2                !
 ! A11   A(3,4,7)              117.6625         estimate D2E/DX2                !
 ! A12   A(5,4,7)              124.5634         estimate D2E/DX2                !
 ! A13   A(4,5,6)              120.6491         estimate D2E/DX2                !
 ! A14   A(4,5,15)             123.5116         estimate D2E/DX2                !
 ! A15   A(6,5,15)             115.8392         estimate D2E/DX2                !
 ! A16   A(1,6,5)              121.0222         estimate D2E/DX2                !
 ! A17   A(1,6,31)             119.6498         estimate D2E/DX2                !
 ! A18   A(5,6,31)             119.3279         estimate D2E/DX2                !
 ! A19   A(4,7,8)              127.9482         estimate D2E/DX2                !
 ! A20   A(4,7,16)             115.8809         estimate D2E/DX2                !
 ! A21   A(8,7,16)             116.171          estimate D2E/DX2                !
 ! A22   A(7,8,9)              119.4467         estimate D2E/DX2                !
 ! A23   A(7,8,10)             121.3116         estimate D2E/DX2                !
 ! A24   A(9,8,10)             119.2417         estimate D2E/DX2                !
 ! A25   A(8,9,11)             121.8629         estimate D2E/DX2                !
 ! A26   A(8,9,17)             119.1002         estimate D2E/DX2                !
 ! A27   A(11,9,17)            119.0369         estimate D2E/DX2                !
 ! A28   A(9,11,12)            111.0094         estimate D2E/DX2                !
 ! A29   A(9,11,18)            109.2172         estimate D2E/DX2                !
 ! A30   A(9,11,19)            109.217          estimate D2E/DX2                !
 ! A31   A(12,11,18)           109.1828         estimate D2E/DX2                !
 ! A32   A(12,11,19)           109.1842         estimate D2E/DX2                !
 ! A33   A(18,11,19)           109.0006         estimate D2E/DX2                !
 ! A34   A(11,12,13)           111.2349         estimate D2E/DX2                !
 ! A35   A(11,12,20)           109.4716         estimate D2E/DX2                !
 ! A36   A(11,12,21)           109.4725         estimate D2E/DX2                !
 ! A37   A(13,12,20)           108.924          estimate D2E/DX2                !
 ! A38   A(13,12,21)           108.9243         estimate D2E/DX2                !
 ! A39   A(20,12,21)           108.7721         estimate D2E/DX2                !
 ! A40   A(12,13,22)           110.3398         estimate D2E/DX2                !
 ! A41   A(12,13,23)           109.5839         estimate D2E/DX2                !
 ! A42   A(12,13,24)           110.3391         estimate D2E/DX2                !
 ! A43   A(22,13,23)           108.6752         estimate D2E/DX2                !
 ! A44   A(22,13,24)           109.1887         estimate D2E/DX2                !
 ! A45   A(23,13,24)           108.6745         estimate D2E/DX2                !
 ! A46   A(1,25,26)            126.8573         estimate D2E/DX2                !
 ! A47   A(25,26,27)           108.9007         estimate D2E/DX2                !
 ! A48   A(25,26,28)           110.2529         estimate D2E/DX2                !
 ! A49   A(25,26,29)           110.2535         estimate D2E/DX2                !
 ! A50   A(27,26,28)           108.7241         estimate D2E/DX2                !
 ! A51   A(27,26,29)           108.7251         estimate D2E/DX2                !
 ! A52   A(28,26,29)           109.9437         estimate D2E/DX2                !
 ! D1    D(6,1,2,3)             -0.0004         estimate D2E/DX2                !
 ! D2    D(6,1,2,30)          -179.9991         estimate D2E/DX2                !
 ! D3    D(25,1,2,3)           179.9993         estimate D2E/DX2                !
 ! D4    D(25,1,2,30)            0.0006         estimate D2E/DX2                !
 ! D5    D(2,1,6,5)              0.0001         estimate D2E/DX2                !
 ! D6    D(2,1,6,31)           179.9996         estimate D2E/DX2                !
 ! D7    D(25,1,6,5)          -179.9995         estimate D2E/DX2                !
 ! D8    D(25,1,6,31)           -0.0001         estimate D2E/DX2                !
 ! D9    D(2,1,25,26)            0.001          estimate D2E/DX2                !
 ! D10   D(6,1,25,26)         -179.9993         estimate D2E/DX2                !
 ! D11   D(1,2,3,4)              0.0005         estimate D2E/DX2                !
 ! D12   D(1,2,3,14)           179.9998         estimate D2E/DX2                !
 ! D13   D(30,2,3,4)           179.9992         estimate D2E/DX2                !
 ! D14   D(30,2,3,14)           -0.0014         estimate D2E/DX2                !
 ! D15   D(2,3,4,5)             -0.0003         estimate D2E/DX2                !
 ! D16   D(2,3,4,7)            179.9995         estimate D2E/DX2                !
 ! D17   D(14,3,4,5)          -179.9996         estimate D2E/DX2                !
 ! D18   D(14,3,4,7)             0.0001         estimate D2E/DX2                !
 ! D19   D(3,4,5,6)              0.0001         estimate D2E/DX2                !
 ! D20   D(3,4,5,15)           179.9999         estimate D2E/DX2                !
 ! D21   D(7,4,5,6)           -179.9997         estimate D2E/DX2                !
 ! D22   D(7,4,5,15)             0.0001         estimate D2E/DX2                !
 ! D23   D(3,4,7,8)           -157.6238         estimate D2E/DX2                !
 ! D24   D(3,4,7,16)            22.376          estimate D2E/DX2                !
 ! D25   D(5,4,7,8)             22.3759         estimate D2E/DX2                !
 ! D26   D(5,4,7,16)          -157.6243         estimate D2E/DX2                !
 ! D27   D(4,5,6,1)              0.0            estimate D2E/DX2                !
 ! D28   D(4,5,6,31)          -179.9994         estimate D2E/DX2                !
 ! D29   D(15,5,6,1)          -179.9998         estimate D2E/DX2                !
 ! D30   D(15,5,6,31)            0.0008         estimate D2E/DX2                !
 ! D31   D(4,7,8,9)           -179.9993         estimate D2E/DX2                !
 ! D32   D(4,7,8,10)             0.0001         estimate D2E/DX2                !
 ! D33   D(16,7,8,9)             0.0009         estimate D2E/DX2                !
 ! D34   D(16,7,8,10)         -179.9997         estimate D2E/DX2                !
 ! D35   D(7,8,9,11)          -179.9996         estimate D2E/DX2                !
 ! D36   D(7,8,9,17)            -0.0001         estimate D2E/DX2                !
 ! D37   D(10,8,9,11)            0.001          estimate D2E/DX2                !
 ! D38   D(10,8,9,17)         -179.9996         estimate D2E/DX2                !
 ! D39   D(8,9,11,12)          179.9996         estimate D2E/DX2                !
 ! D40   D(8,9,11,18)           59.5603         estimate D2E/DX2                !
 ! D41   D(8,9,11,19)          -59.5596         estimate D2E/DX2                !
 ! D42   D(17,9,11,12)           0.0001         estimate D2E/DX2                !
 ! D43   D(17,9,11,18)        -120.4391         estimate D2E/DX2                !
 ! D44   D(17,9,11,19)         120.4409         estimate D2E/DX2                !
 ! D45   D(9,11,12,13)         179.9999         estimate D2E/DX2                !
 ! D46   D(9,11,12,20)          59.5737         estimate D2E/DX2                !
 ! D47   D(9,11,12,21)         -59.5729         estimate D2E/DX2                !
 ! D48   D(18,11,12,13)        -59.5405         estimate D2E/DX2                !
 ! D49   D(18,11,12,20)       -179.9667         estimate D2E/DX2                !
 ! D50   D(18,11,12,21)         60.8868         estimate D2E/DX2                !
 ! D51   D(19,11,12,13)         59.5396         estimate D2E/DX2                !
 ! D52   D(19,11,12,20)        -60.8866         estimate D2E/DX2                !
 ! D53   D(19,11,12,21)        179.9669         estimate D2E/DX2                !
 ! D54   D(11,12,13,22)        -60.3732         estimate D2E/DX2                !
 ! D55   D(11,12,13,23)       -180.0            estimate D2E/DX2                !
 ! D56   D(11,12,13,24)         60.3746         estimate D2E/DX2                !
 ! D57   D(20,12,13,22)         60.3756         estimate D2E/DX2                !
 ! D58   D(20,12,13,23)        -59.2512         estimate D2E/DX2                !
 ! D59   D(20,12,13,24)       -178.8766         estimate D2E/DX2                !
 ! D60   D(21,12,13,22)        178.8766         estimate D2E/DX2                !
 ! D61   D(21,12,13,23)         59.2499         estimate D2E/DX2                !
 ! D62   D(21,12,13,24)        -60.3756         estimate D2E/DX2                !
 ! D63   D(1,25,26,27)         157.0356         estimate D2E/DX2                !
 ! D64   D(1,25,26,28)         -83.7551         estimate D2E/DX2                !
 ! D65   D(1,25,26,29)          37.8247         estimate D2E/DX2                !
 --------------------------------------------------------------------------------
 Trust Radius=3.00D-01 FncErr=1.00D-07 GrdErr=1.00D-06
 Number of steps in this run=    158 maximum allowed number of steps=    186.
 GradGradGradGradGradGradGradGradGradGradGradGradGradGradGradGradGradGrad

                          Input orientation:                          
 ---------------------------------------------------------------------
 Center     Atomic      Atomic             Coordinates (Angstroms)
 Number     Number       Type             X           Y           Z
 ---------------------------------------------------------------------
      1          6           0       -4.798900    4.588060   -0.287570
      2          6           0       -5.544410    4.445700    0.895780
      3          6           0       -4.993120    4.813920    2.125270
      4          6           0       -3.687800    5.333610    2.217690
      5          6           0       -2.946790    5.472400    1.019760
      6          6           0       -3.502500    5.102510   -0.209280
      7          7           0       -3.200090    5.686850    3.525280
      8          6           0       -2.195260    6.561510    3.841140
      9          7           0       -1.872810    6.767620    5.149550
     10          8           0       -1.580840    7.161830    2.973880
     11          6           0       -0.816300    7.683430    5.543930
     12          6           0       -0.664920    7.723940    7.068940
     13          6           0        0.443750    8.684580    7.488950
     14          1           0       -5.594710    4.691220    3.017540
     15          1           0       -1.944800    5.857930    0.983480
     16          1           0       -3.666390    5.222790    4.320570
     17          1           0       -2.393800    6.258810    5.881160
     18          1           0       -1.059100    8.703940    5.173450
     19          1           0        0.143800    7.352190    5.089930
     20          1           0       -0.421510    6.706100    7.444390
     21          1           0       -1.622010    8.055140    7.527740
     22          1           0        1.416410    8.363350    7.059030
     23          1           0        0.529640    8.692630    8.595970
     24          1           0        0.213820    9.714730    7.142520
     25          8           0       -5.281160    4.247300   -1.512230
     26          6           0       -6.528710    3.726220   -1.795880
     27          9           0       -6.835340    3.992750   -3.116180
     28          9           0       -6.529300    2.355230   -1.607720
     29          9           0       -7.487850    4.313720   -0.989720
     30          1           0       -6.551120    4.052110    0.882350
     31          1           0       -2.916260    5.217820   -1.112840
 ---------------------------------------------------------------------
                    Distance matrix (angstroms):
                    1          2          3          4          5
     1  C    0.000000
     2  C    1.405834   0.000000
     3  C    2.431158   1.396837   0.000000
     4  C    2.840196   2.445983   1.408005   0.000000
     5  C    2.433409   2.795910   2.417274   1.415413   0.000000
     6  C    1.396940   2.412872   2.784844   2.444980   1.398632
     7  N    4.278009   3.735045   2.436594   1.439594   2.527406
     8  C    5.264949   4.936457   3.718373   2.524085   3.116271
     9  N    6.547882   6.080010   4.764404   3.734485   4.459394
    10  O    5.255212   5.235050   4.228058   2.890241   2.922085
    11  C    7.710305   7.378565   6.112868   4.983075   5.467701
    12  C    9.002320   8.524329   7.186195   6.195652   6.846090
    13  C   10.234311   9.863876   8.562163   7.488984   7.978990
    14  H    3.401133   2.136510   1.083103   2.165348   3.407763
    15  H    3.372540   3.867722   3.418464   2.199144   1.074213
    16  H    4.787527   3.982463   2.597447   2.105907   3.387547
    17  H    6.828553   6.169905   4.790708   3.993926   4.955547
    18  H    7.794184   7.519912   6.316658   5.196701   5.591008
    19  H    7.809494   7.641617   6.451354   5.196690   5.445332
    20  H    9.134049   8.616136   7.264503   6.314331   7.012484
    21  H    9.120984   8.508594   7.145388   6.314336   7.125966
    22  H   10.337090  10.088937   8.833035   7.659690   7.991739
    23  H   11.142626  10.687536   9.349611   8.351783   8.936129
    24  H   10.325519   9.997082   8.735157   7.659687   8.091663
    25  O    1.359590   2.430468   3.692619   4.198949   3.655287
    26  C    2.451532   2.954916   4.349315   5.173318   4.879254
    27  F    3.535890   4.238807   5.616128   6.336804   5.866531
    28  F    3.118110   3.406991   4.726544   5.619487   5.427226
    29  F    2.792620   2.710994   4.022069   5.076222   5.099194
    30  H    2.173989   1.080999   2.133675   3.409395   3.876506
    31  H    2.149884   3.396748   3.868054   3.420689   2.147959
                    6          7          8          9         10
     6  C    0.000000
     7  N    3.792076   0.000000
     8  C    4.499273   1.369117   0.000000
     9  N    5.843419   2.359659   1.363229   0.000000
    10  O    4.250422   2.258667   1.220670   2.230289   0.000000
    11  C    6.853922   3.707254   2.461652   1.452741   2.731619
    12  C    8.239918   4.809818   3.756578   2.461220   4.233721
    13  C    9.363058   6.162356   4.977782   3.809722   5.177218
    14  H    3.867670   2.642590   3.966429   4.765443   4.713488
    15  H    2.102324   2.840030   2.953638   4.264840   2.407138
    16  H    4.534409   1.032121   2.046032   2.508114   3.150074
    17  H    6.297595   2.554880   2.071890   1.032265   3.150972
    18  H    6.922014   4.050078   2.766933   2.100483   2.736499
    19  H    6.814557   4.050073   2.766921   2.100474   2.736474
    20  H    8.404919   4.911090   4.018769   2.715943   4.640818
    21  H    8.492099   4.911092   4.018777   2.715952   4.640834
    22  H    9.362536   6.400243   5.161938   4.124492   5.207265
    23  H   10.328579   6.975493   5.880065   4.621173   6.197207
    24  H    9.441005   6.400236   5.161935   4.124489   5.207270
    25  O    2.364888   5.637345   6.598251   7.896086   6.504770
    26  C    3.683669   6.575601   7.654649   8.897557   7.683453
    27  F    4.559546   7.758480   8.748324  10.032393   8.645326
    28  F    4.320266   6.966421   8.134296   9.317338   8.281408
    29  F    4.136942   6.376174   7.510078   8.674153   7.662547
    30  H    3.404274   4.570214   5.833099   6.889817   6.224832
    31  H    1.083233   4.670407   5.183364   6.535151   4.718453
                   11         12         13         14         15
    11  C    0.000000
    12  C    1.533040   0.000000
    13  C    2.524506   1.525905   0.000000
    14  H    6.178120   7.064988   8.509021   0.000000
    15  H    5.040205   6.492527   7.484401   4.338255   0.000000
    16  H    3.959087   4.776831   6.238259   2.387231   3.808339
    17  H    2.152155   2.558604   4.064608   4.572033   4.934529
    18  H    1.112496   2.169945   2.760520   6.428190   5.141992
    19  H    1.112487   2.169955   2.760531   6.656280   4.843345
    20  H    2.173196   1.111850   2.159871   7.100616   6.692022
    21  H    2.173209   1.111851   2.159876   6.887685   6.910808
    22  H    2.782591   2.177356   1.110895   8.886731   7.381543
    23  H    3.484966   2.167292   1.110376   9.199882   8.491665
    24  H    2.782592   2.177348   1.110896   8.717232   7.580786
    25  O    9.029472  10.345684  11.553583   4.562258   4.466990
    26  C   10.107618  11.355652  12.625712   4.997259   5.768991
    27  F   11.173516  12.479284  13.691866   6.296788   6.648571
    28  F   10.591231  11.768536  13.093262   5.265296   6.324624
    29  F    9.927392  11.096124  12.405746   4.447990   6.083051
    30  H    8.234378   9.295353  10.678724   2.425328   4.948676
    31  H    7.402814   8.848203   9.864020   4.950903   2.397506
                   16         17         18         19         20
    16  H    0.000000
    17  H    2.264567   0.000000
    18  H    4.432129   2.874185   0.000000
    19  H    4.432133   2.874185   1.811401   0.000000
    20  H    4.742120   2.556107   3.091125   2.506090   0.000000
    21  H    4.742113   2.556108   2.506091   3.091139   1.807777
    22  H    6.572453   4.509342   3.130425   2.553299   2.504582
    23  H    6.922825   4.673347   3.773310   3.773323   2.485382
    24  H    6.572439   4.509334   2.553284   3.130435   3.089761
    25  O    6.130303   8.188116   9.076660   9.091702  10.482506
    26  C    6.916904   9.080112  10.161983  10.251070  11.469968
    27  F    8.176827  10.286614  11.148014  11.284258  12.650104
    28  F    7.180792   9.403383  10.780235  10.693848  11.754823
    29  F    6.605236   8.771643   9.929125  10.219419  11.260145
    30  H    4.638266   6.865926   8.379460   8.568326   9.363554
    31  H    5.484949   7.090322   7.424252   7.238360   9.036866
                   21         22         23         24         25
    21  H    0.000000
    22  H    3.089770   0.000000
    23  H    2.485379   1.804708   0.000000
    24  H    2.504577   1.810917   1.804702   0.000000
    25  O   10.469483  11.630383  12.478063  11.618618   0.000000
    26  C   11.390573  12.768608  13.508371  12.697203   1.381435
    27  F   12.528961  13.810446  14.611853  13.699366   2.247872
    28  F   11.833305  13.203953  13.932213  13.273982   2.268678
    29  F   10.997883  12.667586  13.241618  12.434627   2.268680
    30  H    9.191386  10.964474  11.453014  10.817551   2.717519
    31  H    9.186136   9.769639  10.872420   9.908106   2.587310
                   26         27         28         29         30
    26  C    0.000000
    27  F    1.381395   0.000000
    28  F    1.383842   2.247350   0.000000
    29  F    1.383835   2.247359   2.266368   0.000000
    30  H    2.698078   4.009058   3.013358   2.109632   0.000000
    31  H    3.967519   4.568737   4.636096   4.661758   4.307188
                   31
    31  H    0.000000
 Symmetry turned off by external request.
 Stoichiometry    C11H13F3N2O2
 Framework group  C1[X(C11H13F3N2O2)]
 Deg. of freedom    87
 Full point group                 C1      NOp   1
 Rotational constants (GHZ):      2.0256614      0.1074717      0.1046969
 General basis read from cards:  (6D, 7F)
   368 basis functions,   628 primitive gaussians,   368 cartesian basis functions
    68 alpha electrons       68 beta electrons
       nuclear repulsion energy      1278.2637976922 Hartrees.
 NAtoms=   31 NActive=   31 NUniq=   31 SFac= 1.00D+00 NAtFMM=   60 NAOKFM=F Big=F
 Integral buffers will be    131072 words long.
 Raffenetti 2 integral format.
 Two-electron integral symmetry is turned off.
 One-electron integrals computed using PRISM.
 NBasis=   368 RedAO= T EigKep=  2.16D-06  NBF=   368
 NBsUse=   368 1.00D-06 EigRej= -1.00D+00 NBFU=   368
 ExpMin= 4.38D-02 ExpMax= 7.00D+03 ExpMxC= 1.05D+03 IAcc=3 IRadAn=         5 AccDes= 0.00D+00
 Harris functional with IExCor= 1009 and IRadAn=       5 diagonalized for initial guess.
 HarFok:  IExCor= 1009 AccDes= 0.00D+00 IRadAn=         5 IDoV= 1 UseB2=F ITyADJ=14
 ICtDFT=  3500011 ScaDFX=  1.000000  1.000000  1.000000  1.000000
 FoFCou: FMM=F IPFlag=           0 FMFlag=      100000 FMFlg1=           0
         NFxFlg=           0 DoJE=T BraDBF=F KetDBF=T FulRan=T
         wScrn=  0.000000 ICntrl=     500 IOpCl=  0 I1Cent=   200000004 NGrid=           0
         NMat0=    1 NMatS0=      1 NMatT0=    0 NMatD0=    1 NMtDS0=    0 NMtDT0=    0
 Symmetry not used in FoFCou.
 Requested convergence on RMS density matrix=1.00D-08 within 128 cycles.
 Requested convergence on MAX density matrix=1.00D-06.
 Requested convergence on             energy=1.00D-06.
 No special actions if energy rises.
 SCF Done:  E(RM062X) =  -986.140678135     A.U. after   16 cycles
            NFock= 16  Conv=0.28D-08     -V/T= 2.0089

 **********************************************************************

            Population analysis using the SCF density.

 **********************************************************************

 Alpha  occ. eigenvalues --  -25.32553 -25.32318 -25.32158 -19.72777 -19.60206
 Alpha  occ. eigenvalues --  -14.81166 -14.79528 -10.89287 -10.68389 -10.63973
 Alpha  occ. eigenvalues --  -10.61902 -10.59312 -10.57466 -10.57187 -10.56943
 Alpha  occ. eigenvalues --  -10.56669 -10.56660 -10.55460  -1.46980  -1.38830
 Alpha  occ. eigenvalues --   -1.38376  -1.24555  -1.17862  -1.05269  -1.03202
 Alpha  occ. eigenvalues --   -0.96933  -0.89705  -0.88157  -0.86059  -0.81927
 Alpha  occ. eigenvalues --   -0.78375  -0.75017  -0.72693  -0.71018  -0.69942
 Alpha  occ. eigenvalues --   -0.69591  -0.68776  -0.66140  -0.64045  -0.61800
 Alpha  occ. eigenvalues --   -0.59348  -0.58899  -0.57409  -0.56729  -0.55758
 Alpha  occ. eigenvalues --   -0.55518  -0.55087  -0.54692  -0.53305  -0.52610
 Alpha  occ. eigenvalues --   -0.52148  -0.51161  -0.50359  -0.49568  -0.48171
 Alpha  occ. eigenvalues --   -0.47466  -0.46885  -0.46824  -0.43737  -0.43497
 Alpha  occ. eigenvalues --   -0.41815  -0.41190  -0.41095  -0.36419  -0.34178
 Alpha  occ. eigenvalues --   -0.32241  -0.31951  -0.27361
 Alpha virt. eigenvalues --   -0.00660   0.00589   0.01389   0.01834   0.02377
 Alpha virt. eigenvalues --    0.03061   0.03412   0.03886   0.04291   0.04716
 Alpha virt. eigenvalues --    0.05228   0.05790   0.06188   0.06719   0.06880
 Alpha virt. eigenvalues --    0.07095   0.08245   0.08413   0.08995   0.09261
 Alpha virt. eigenvalues --    0.09616   0.09966   0.10788   0.11259   0.11450
 Alpha virt. eigenvalues --    0.12103   0.13036   0.13641   0.13967   0.14078
 Alpha virt. eigenvalues --    0.14678   0.15474   0.15731   0.16098   0.16450
 Alpha virt. eigenvalues --    0.17242   0.17530   0.18092   0.18454   0.18806
 Alpha virt. eigenvalues --    0.19228   0.19431   0.19788   0.20733   0.20801
 Alpha virt. eigenvalues --    0.21022   0.21884   0.22258   0.22575   0.23161
 Alpha virt. eigenvalues --    0.23248   0.23871   0.24010   0.24262   0.24552
 Alpha virt. eigenvalues --    0.24994   0.25647   0.26227   0.26345   0.27260
 Alpha virt. eigenvalues --    0.27762   0.27943   0.28118   0.29035   0.29537
 Alpha virt. eigenvalues --    0.29723   0.30047   0.30681   0.31229   0.31425
 Alpha virt. eigenvalues --    0.31867   0.32110   0.32469   0.33158   0.33356
 Alpha virt. eigenvalues --    0.33852   0.34105   0.34981   0.35366   0.35437
 Alpha virt. eigenvalues --    0.36697   0.36870   0.37250   0.37637   0.38426
 Alpha virt. eigenvalues --    0.38750   0.39143   0.39367   0.39849   0.40753
 Alpha virt. eigenvalues --    0.40895   0.42172   0.42403   0.43324   0.43713
 Alpha virt. eigenvalues --    0.45438   0.46308   0.47406   0.47975   0.50003
 Alpha virt. eigenvalues --    0.50894   0.54148   0.54750   0.55362   0.58179
 Alpha virt. eigenvalues --    0.63054   0.67169   0.67825   0.68509   0.68793
 Alpha virt. eigenvalues --    0.71546   0.72393   0.73883   0.74923   0.76203
 Alpha virt. eigenvalues --    0.76501   0.77863   0.78556   0.79939   0.80315
 Alpha virt. eigenvalues --    0.81568   0.82179   0.82915   0.83319   0.84298
 Alpha virt. eigenvalues --    0.84973   0.85782   0.87308   0.88231   0.89081
 Alpha virt. eigenvalues --    0.90687   0.92876   0.96448   0.96796   0.98555
 Alpha virt. eigenvalues --    0.98918   1.00127   1.00786   1.01753   1.03255
 Alpha virt. eigenvalues --    1.03537   1.04866   1.05727   1.07506   1.08242
 Alpha virt. eigenvalues --    1.09377   1.10009   1.10781   1.11221   1.12233
 Alpha virt. eigenvalues --    1.13742   1.14281   1.14952   1.15320   1.16848
 Alpha virt. eigenvalues --    1.18930   1.19946   1.21579   1.23013   1.26679
 Alpha virt. eigenvalues --    1.27788   1.28765   1.30701   1.32262   1.33069
 Alpha virt. eigenvalues --    1.35107   1.36414   1.37948   1.38540   1.39695
 Alpha virt. eigenvalues --    1.41502   1.41949   1.44522   1.45235   1.45978
 Alpha virt. eigenvalues --    1.47194   1.48771   1.49543   1.50840   1.52310
 Alpha virt. eigenvalues --    1.54115   1.55254   1.56328   1.57382   1.58811
 Alpha virt. eigenvalues --    1.61150   1.62391   1.65135   1.66493   1.68398
 Alpha virt. eigenvalues --    1.70217   1.70832   1.71381   1.72035   1.74070
 Alpha virt. eigenvalues --    1.75158   1.76755   1.78027   1.80846   1.83703
 Alpha virt. eigenvalues --    1.84654   1.86075   1.87002   1.87299   1.87392
 Alpha virt. eigenvalues --    1.88105   1.89038   1.89715   1.90138   1.90455
 Alpha virt. eigenvalues --    1.91836   1.93108   1.93447   1.95469   1.96267
 Alpha virt. eigenvalues --    1.96719   1.98246   1.99318   1.99838   2.01006
 Alpha virt. eigenvalues --    2.02756   2.02939   2.03477   2.03803   2.04492
 Alpha virt. eigenvalues --    2.05237   2.06165   2.07487   2.08136   2.10992
 Alpha virt. eigenvalues --    2.12242   2.13854   2.16800   2.17209   2.18842
 Alpha virt. eigenvalues --    2.19382   2.20099   2.20571   2.22181   2.24890
 Alpha virt. eigenvalues --    2.27348   2.29565   2.32660   2.34643   2.35467
 Alpha virt. eigenvalues --    2.35815   2.37627   2.38626   2.40780   2.40982
 Alpha virt. eigenvalues --    2.44323   2.48178   2.50273   2.54055   2.56864
 Alpha virt. eigenvalues --    2.59425   2.63172   2.64427   2.65891   2.66266
 Alpha virt. eigenvalues --    2.70171   2.71600   2.73537   2.74289   2.77097
 Alpha virt. eigenvalues --    2.78255   2.78594   2.81495   2.83541   2.86118
 Alpha virt. eigenvalues --    2.90423   2.95205   2.98029   3.09426   3.11636
 Alpha virt. eigenvalues --    3.14526   3.20792   3.24078   3.27315   3.28256
 Alpha virt. eigenvalues --    3.35056   3.44388   4.14340   4.24151   4.27089
 Alpha virt. eigenvalues --    4.29686   4.34006   4.39873   4.41335   4.41710
 Alpha virt. eigenvalues --    4.47548   4.49247   4.55015   4.56829   4.65247
 Alpha virt. eigenvalues --    4.69258   4.85036   5.59132   5.90366   6.53567
          Condensed to atoms (all electrons):
               1          2          3          4          5          6
     1  C   10.516037   1.319286  -0.644423  -2.557264  -0.659182  -2.102177
     2  C    1.319286  13.284153  -4.818480  -2.105646  -0.588546  -1.788745
     3  C   -0.644423  -4.818480  15.897327   0.677548  -2.709082  -0.881143
     4  C   -2.557264  -2.105646   0.677548  10.820170  -0.345176   0.482336
     5  C   -0.659182  -0.588546  -2.709082  -0.345176  10.361354  -1.040490
     6  C   -2.102177  -1.788745  -0.881143   0.482336  -1.040490  11.905610
     7  N    0.026523   0.092766   0.352515  -0.014694  -0.255046  -0.092016
     8  C   -0.278768  -0.057890  -0.588934  -0.538208   0.190696   0.122337
     9  N   -0.004035   0.030877  -0.101431  -0.152796   0.020305   0.016538
    10  O   -0.017964   0.009560  -0.160561  -0.252747   0.238673   0.100328
    11  C   -0.015753   0.004925  -0.074571  -0.250426   0.016643   0.006564
    12  C   -0.000280  -0.001513   0.003385   0.015566  -0.008864  -0.000926
    13  C   -0.000087   0.000053  -0.000940  -0.003292   0.000201  -0.000140
    14  H    0.020019   0.113894   0.163602   0.006684   0.039394  -0.033745
    15  H    0.048544  -0.018867   0.042598  -0.019759   0.291955  -0.034904
    16  H   -0.003990   0.052804  -0.126028   0.015999   0.034125   0.015973
    17  H   -0.000037  -0.000519  -0.000967   0.018824   0.002349   0.000411
    18  H   -0.000024   0.000037  -0.001793  -0.004115   0.003565   0.000482
    19  H    0.000008   0.000007   0.000287   0.000857  -0.000130   0.000246
    20  H    0.000001  -0.000005  -0.000073  -0.000052   0.000380   0.000037
    21  H   -0.000002   0.000014   0.000263  -0.000328  -0.000549  -0.000040
    22  H   -0.000000   0.000000   0.000009   0.000034  -0.000048  -0.000003
    23  H   -0.000000  -0.000000  -0.000001  -0.000030   0.000003   0.000000
    24  H    0.000000   0.000000  -0.000000   0.000063  -0.000004   0.000000
    25  O    0.191943   0.003895   0.015866  -0.013623   0.043782  -0.346919
    26  C    0.266167  -0.151964  -0.232543  -0.127317   0.012275  -0.030640
    27  F   -0.024259   0.003689   0.011200  -0.000720  -0.002912   0.009284
    28  F   -0.042594   0.015917   0.023968   0.015257  -0.003831   0.018535
    29  F    0.025500   0.043043  -0.001975  -0.002585  -0.007534  -0.036532
    30  H    0.005193   0.225137   0.066777   0.020729  -0.007680   0.003992
    31  H    0.060493   0.037232  -0.027430  -0.001863  -0.028146   0.273127
               7          8          9         10         11         12
     1  C    0.026523  -0.278768  -0.004035  -0.017964  -0.015753  -0.000280
     2  C    0.092766  -0.057890   0.030877   0.009560   0.004925  -0.001513
     3  C    0.352515  -0.588934  -0.101431  -0.160561  -0.074571   0.003385
     4  C   -0.014694  -0.538208  -0.152796  -0.252747  -0.250426   0.015566
     5  C   -0.255046   0.190696   0.020305   0.238673   0.016643  -0.008864
     6  C   -0.092016   0.122337   0.016538   0.100328   0.006564  -0.000926
     7  N    7.917377   0.091270  -0.466267  -0.137181  -0.117806   0.008402
     8  C    0.091270   5.968281   0.245210   0.696128  -0.537447   0.123610
     9  N   -0.466267   0.245210   7.784753  -0.188378   0.392939  -0.078307
    10  O   -0.137181   0.696128  -0.188378   8.343907  -0.056718   0.019730
    11  C   -0.117806  -0.537447   0.392939  -0.056718   6.547328  -0.382296
    12  C    0.008402   0.123610  -0.078307   0.019730  -0.382296   6.137732
    13  C   -0.000052  -0.025590   0.000033  -0.001531  -0.021620   0.010526
    14  H   -0.008331  -0.007359   0.000666  -0.000014  -0.000478   0.000018
    15  H   -0.007961   0.011773   0.000019  -0.006644   0.001556  -0.000049
    16  H    0.222210  -0.014377   0.030723   0.007846   0.008183  -0.000120
    17  H    0.033780   0.036119   0.231895   0.008212  -0.080267  -0.002073
    18  H    0.001092  -0.004097  -0.058021   0.000860   0.418094  -0.050913
    19  H   -0.000039  -0.001577  -0.059871   0.000901   0.421173  -0.057873
    20  H    0.000560   0.010834   0.007664  -0.000183  -0.093436   0.422961
    21  H   -0.000221  -0.008476   0.007075  -0.000250  -0.069398   0.410415
    22  H    0.000030   0.001417   0.000740  -0.000056  -0.010049  -0.061480
    23  H    0.000011  -0.001731   0.000603   0.000008   0.027338  -0.084516
    24  H    0.000023   0.003011   0.000638  -0.000052  -0.007691  -0.063491
    25  O   -0.000186   0.001833   0.000002   0.000040   0.000032  -0.000000
    26  C    0.001429  -0.005325   0.000119  -0.000098  -0.000059  -0.000002
    27  F   -0.000003  -0.000032  -0.000000   0.000000  -0.000000   0.000000
    28  F   -0.000044   0.000063  -0.000000   0.000000   0.000000   0.000000
    29  F    0.000154   0.000337   0.000001  -0.000002   0.000001  -0.000000
    30  H    0.000047   0.002132  -0.000005  -0.000000   0.000011   0.000000
    31  H   -0.000572  -0.001660  -0.000005   0.000103  -0.000039   0.000001
              13         14         15         16         17         18
     1  C   -0.000087   0.020019   0.048544  -0.003990  -0.000037  -0.000024
     2  C    0.000053   0.113894  -0.018867   0.052804  -0.000519   0.000037
     3  C   -0.000940   0.163602   0.042598  -0.126028  -0.000967  -0.001793
     4  C   -0.003292   0.006684  -0.019759   0.015999   0.018824  -0.004115
     5  C    0.000201   0.039394   0.291955   0.034125   0.002349   0.003565
     6  C   -0.000140  -0.033745  -0.034904   0.015973   0.000411   0.000482
     7  N   -0.000052  -0.008331  -0.007961   0.222210   0.033780   0.001092
     8  C   -0.025590  -0.007359   0.011773  -0.014377   0.036119  -0.004097
     9  N    0.000033   0.000666   0.000019   0.030723   0.231895  -0.058021
    10  O   -0.001531  -0.000014  -0.006644   0.007846   0.008212   0.000860
    11  C   -0.021620  -0.000478   0.001556   0.008183  -0.080267   0.418094
    12  C    0.010526   0.000018  -0.000049  -0.000120  -0.002073  -0.050913
    13  C    5.551755  -0.000001   0.000005  -0.000022  -0.001247   0.003896
    14  H   -0.000001   0.502893  -0.000110   0.005088   0.000004   0.000000
    15  H    0.000005  -0.000110   0.436653  -0.000110   0.000001  -0.000000
    16  H   -0.000022   0.005088  -0.000110   0.351333   0.002466   0.000007
    17  H   -0.001247   0.000004   0.000001   0.002466   0.347356   0.002808
    18  H    0.003896   0.000000  -0.000000   0.000007   0.002808   0.495601
    19  H    0.004362   0.000000   0.000000   0.000002   0.002810  -0.035463
    20  H   -0.037246  -0.000000  -0.000000   0.000002   0.001098   0.003915
    21  H   -0.027186   0.000000   0.000000   0.000003   0.000945  -0.005416
    22  H    0.413974   0.000000   0.000000   0.000000   0.000001  -0.000327
    23  H    0.409392  -0.000000  -0.000000  -0.000000  -0.000003  -0.000062
    24  H    0.412221  -0.000000  -0.000000  -0.000000   0.000001   0.002726
    25  O    0.000000  -0.000681  -0.000361   0.000007  -0.000000  -0.000000
    26  C   -0.000000   0.001353   0.000316   0.000047  -0.000000  -0.000000
    27  F   -0.000000  -0.000000  -0.000000  -0.000000   0.000000  -0.000000
    28  F    0.000000   0.000008   0.000001   0.000000  -0.000000  -0.000000
    29  F    0.000000   0.000147   0.000001  -0.000000  -0.000000   0.000000
    30  H    0.000000  -0.004685   0.000011  -0.000009   0.000000  -0.000000
    31  H   -0.000000   0.000013  -0.004180   0.000002  -0.000000  -0.000000
              19         20         21         22         23         24
     1  C    0.000008   0.000001  -0.000002  -0.000000  -0.000000   0.000000
     2  C    0.000007  -0.000005   0.000014   0.000000  -0.000000   0.000000
     3  C    0.000287  -0.000073   0.000263   0.000009  -0.000001  -0.000000
     4  C    0.000857  -0.000052  -0.000328   0.000034  -0.000030   0.000063
     5  C   -0.000130   0.000380  -0.000549  -0.000048   0.000003  -0.000004
     6  C    0.000246   0.000037  -0.000040  -0.000003   0.000000   0.000000
     7  N   -0.000039   0.000560  -0.000221   0.000030   0.000011   0.000023
     8  C   -0.001577   0.010834  -0.008476   0.001417  -0.001731   0.003011
     9  N   -0.059871   0.007664   0.007075   0.000740   0.000603   0.000638
    10  O    0.000901  -0.000183  -0.000250  -0.000056   0.000008  -0.000052
    11  C    0.421173  -0.093436  -0.069398  -0.010049   0.027338  -0.007691
    12  C   -0.057873   0.422961   0.410415  -0.061480  -0.084516  -0.063491
    13  C    0.004362  -0.037246  -0.027186   0.413974   0.409392   0.412221
    14  H    0.000000  -0.000000   0.000000   0.000000  -0.000000  -0.000000
    15  H    0.000000  -0.000000   0.000000   0.000000  -0.000000  -0.000000
    16  H    0.000002   0.000002   0.000003   0.000000  -0.000000  -0.000000
    17  H    0.002810   0.001098   0.000945   0.000001  -0.000003   0.000001
    18  H   -0.035463   0.003915  -0.005416  -0.000327  -0.000062   0.002726
    19  H    0.498153  -0.005480   0.003944   0.002703  -0.000060  -0.000336
    20  H   -0.005480   0.512436  -0.034058  -0.004881  -0.003090   0.003971
    21  H    0.003944  -0.034058   0.512742   0.003973  -0.003081  -0.004872
    22  H    0.002703  -0.004881   0.003973   0.493609  -0.024206  -0.027867
    23  H   -0.000060  -0.003090  -0.003081  -0.024206   0.492231  -0.024177
    24  H   -0.000336   0.003971  -0.004872  -0.027867  -0.024177   0.493007
    25  O    0.000000  -0.000000   0.000000   0.000000   0.000000   0.000000
    26  C   -0.000000   0.000000  -0.000000  -0.000000  -0.000000   0.000000
    27  F    0.000000  -0.000000   0.000000  -0.000000   0.000000   0.000000
    28  F    0.000000   0.000000  -0.000000  -0.000000  -0.000000   0.000000
    29  F   -0.000000   0.000000  -0.000000  -0.000000  -0.000000   0.000000
    30  H    0.000000  -0.000000   0.000000   0.000000  -0.000000   0.000000
    31  H   -0.000000   0.000000  -0.000000  -0.000000  -0.000000   0.000000
              25         26         27         28         29         30
     1  C    0.191943   0.266167  -0.024259  -0.042594   0.025500   0.005193
     2  C    0.003895  -0.151964   0.003689   0.015917   0.043043   0.225137
     3  C    0.015866  -0.232543   0.011200   0.023968  -0.001975   0.066777
     4  C   -0.013623  -0.127317  -0.000720   0.015257  -0.002585   0.020729
     5  C    0.043782   0.012275  -0.002912  -0.003831  -0.007534  -0.007680
     6  C   -0.346919  -0.030640   0.009284   0.018535  -0.036532   0.003992
     7  N   -0.000186   0.001429  -0.000003  -0.000044   0.000154   0.000047
     8  C    0.001833  -0.005325  -0.000032   0.000063   0.000337   0.002132
     9  N    0.000002   0.000119  -0.000000  -0.000000   0.000001  -0.000005
    10  O    0.000040  -0.000098   0.000000   0.000000  -0.000002  -0.000000
    11  C    0.000032  -0.000059  -0.000000   0.000000   0.000001   0.000011
    12  C   -0.000000  -0.000002   0.000000   0.000000  -0.000000   0.000000
    13  C    0.000000  -0.000000  -0.000000   0.000000   0.000000   0.000000
    14  H   -0.000681   0.001353  -0.000000   0.000008   0.000147  -0.004685
    15  H   -0.000361   0.000316  -0.000000   0.000001   0.000001   0.000011
    16  H    0.000007   0.000047  -0.000000   0.000000  -0.000000  -0.000009
    17  H   -0.000000  -0.000000   0.000000  -0.000000  -0.000000   0.000000
    18  H   -0.000000  -0.000000  -0.000000  -0.000000   0.000000  -0.000000
    19  H    0.000000  -0.000000   0.000000   0.000000  -0.000000   0.000000
    20  H   -0.000000   0.000000  -0.000000   0.000000   0.000000  -0.000000
    21  H    0.000000  -0.000000   0.000000  -0.000000  -0.000000   0.000000
    22  H    0.000000  -0.000000  -0.000000  -0.000000  -0.000000   0.000000
    23  H    0.000000  -0.000000   0.000000  -0.000000  -0.000000  -0.000000
    24  H    0.000000   0.000000   0.000000   0.000000   0.000000   0.000000
    25  O    8.474669   0.236602  -0.021060  -0.059455  -0.066982  -0.009761
    26  C    0.236602   4.136669   0.234294   0.234319   0.199324   0.001420
    27  F   -0.021060   0.234294   9.182655  -0.049150  -0.041663   0.000389
    28  F   -0.059455   0.234319  -0.049150   9.192758  -0.039365  -0.000190
    29  F   -0.066982   0.199324  -0.041663  -0.039365   9.251181  -0.010344
    30  H   -0.009761   0.001420   0.000389  -0.000190  -0.010344   0.478418
    31  H   -0.004755  -0.001055  -0.000015   0.000007   0.000079  -0.000120
              31
     1  C    0.060493
     2  C    0.037232
     3  C   -0.027430
     4  C   -0.001863
     5  C   -0.028146
     6  C    0.273127
     7  N   -0.000572
     8  C   -0.001660
     9  N   -0.000005
    10  O    0.000103
    11  C   -0.000039
    12  C    0.000001
    13  C   -0.000000
    14  H    0.000013
    15  H   -0.004180
    16  H    0.000002
    17  H   -0.000000
    18  H   -0.000000
    19  H   -0.000000
    20  H    0.000000
    21  H   -0.000000
    22  H   -0.000000
    23  H   -0.000000
    24  H    0.000000
    25  O   -0.004755
    26  C   -0.001055
    27  F   -0.000015
    28  F    0.000007
    29  F    0.000079
    30  H   -0.000120
    31  H    0.470689
 Mulliken charges:
               1
     1  C   -0.128874
     2  C    0.294887
     3  C   -0.884970
     4  C    0.316577
     5  C    0.401521
     6  C   -0.567382
     7  N   -0.647770
     8  C    0.566419
     9  N   -0.661685
    10  O   -0.603916
    11  C   -0.126733
    12  C   -0.359642
    13  C   -0.687463
    14  H    0.201621
    15  H    0.259511
    16  H    0.397836
    17  H    0.396032
    18  H    0.227149
    19  H    0.225376
    20  H    0.214645
    21  H    0.214505
    22  H    0.212429
    23  H    0.211371
    24  H    0.212828
    25  O   -0.444886
    26  C    1.224669
    27  F   -0.301697
    28  F   -0.306205
    29  F   -0.312786
    30  H    0.228537
    31  H    0.228093
 Sum of Mulliken charges =  -0.00000
 Mulliken charges with hydrogens summed into heavy atoms:
               1
     1  C   -0.128874
     2  C    0.523425
     3  C   -0.683349
     4  C    0.316577
     5  C    0.661032
     6  C   -0.339288
     7  N   -0.249933
     8  C    0.566419
     9  N   -0.265654
    10  O   -0.603916
    11  C    0.325792
    12  C    0.069508
    13  C   -0.050835
    25  O   -0.444886
    26  C    1.224669
    27  F   -0.301697
    28  F   -0.306205
    29  F   -0.312786
 Electronic spatial extent (au):  <R**2>=          32787.2125
 Charge=             -0.0000 electrons
 Dipole moment (field-independent basis, Debye):
    X=             -0.0569    Y=             -0.7063    Z=              5.6144  Tot=              5.6590
 Quadrupole moment (field-independent basis, Debye-Ang):
   XX=           -106.0813   YY=           -118.8259   ZZ=            -67.6296
   XY=              1.1330   XZ=            -21.7279   YZ=             29.6455
 Traceless Quadrupole moment (field-independent basis, Debye-Ang):
   XX=             -8.5690   YY=            -21.3136   ZZ=             29.8826
   XY=              1.1330   XZ=            -21.7279   YZ=             29.6455
 Octapole moment (field-independent basis, Debye-Ang**2):
  XXX=           1156.4767  YYY=          -1919.0909  ZZZ=           -375.4784  XYY=            416.9395
  XXY=           -595.1141  XXZ=           -104.0211  XZZ=            298.3850  YZZ=           -347.5354
  YYZ=            -51.6858  XYZ=            -94.1614
 Hexadecapole moment (field-independent basis, Debye-Ang**3):
 XXXX=         -11962.8342 YYYY=         -22982.5520 ZZZZ=          -7446.5442 XXXY=           5310.8543
 XXXZ=           -386.1656 YYYX=           5671.7080 YYYZ=          -4163.2902 ZZZX=           -380.6919
 ZZZY=          -3367.9895 XXYY=          -5716.8789 XXZZ=          -3233.3002 YYZZ=          -3524.0961
 XXYZ=          -1249.2658 YYXZ=           -320.5701 ZZXY=           1293.3314
 N-N= 1.278263797692D+03 E-N=-4.865599549088D+03  KE= 9.774340429071D+02
 Calling FoFJK, ICntrl=      2127 FMM=F ISym2X=0 I1Cent= 0 IOpClX= 0 NMat=1 NMatS=1 NMatT=0.
 -------------------------------------------------------------------
 Center     Atomic                   Forces (Hartrees/Bohr)
 Number     Number              X              Y              Z
 -------------------------------------------------------------------
      1        6          -0.005026513    0.002598496    0.040516616
      2        6           0.008238771   -0.000570434    0.000959246
      3        6           0.010685407    0.002278093   -0.006952520
      4        6           0.004568705    0.005904159    0.003158672
      5        6          -0.010681592   -0.004495127    0.002228520
      6        6          -0.007419229   -0.002278935    0.002173877
      7        7          -0.021748217   -0.023740184    0.010042196
      8        6           0.018259610    0.016206525   -0.016031726
      9        7          -0.023561748   -0.022297761    0.021870282
     10        8           0.005287699    0.004911556   -0.011043543
     11        6           0.005571016    0.005237938   -0.001145197
     12        6          -0.005491466   -0.004920727    0.000046370
     13        6           0.003984457    0.003363003    0.003424721
     14        1          -0.001081365    0.000701820    0.002554107
     15        1           0.004921637    0.004025655    0.008327191
     16        1           0.003988340    0.005915725   -0.015934758
     17        1           0.010732056    0.010234245   -0.009590468
     18        1           0.004477391   -0.010012421    0.000723845
     19        1          -0.009309385    0.005492568    0.001665016
     20        1          -0.004744269    0.007635833   -0.002515117
     21        1           0.006863671   -0.005386205   -0.003331522
     22        1          -0.008230530    0.005182309    0.004598921
     23        1           0.001354788    0.001876735   -0.011018683
     24        1           0.004452397   -0.009076242    0.003714474
     25        8          -0.027456822   -0.013386702   -0.046261454
     26        6           0.009929812    0.008493285    0.006390096
     27        9           0.011405230   -0.012393514    0.050360724
     28        9          -0.008686040    0.043963914   -0.005448449
     29        9           0.017585887   -0.024464315   -0.032626251
     30        1           0.001053012   -0.000695525    0.000827379
     31        1           0.000077291   -0.000303768   -0.001682562
 -------------------------------------------------------------------
 Cartesian Forces:  Max     0.050360724 RMS     0.013778856

 GradGradGradGradGradGradGradGradGradGradGradGradGradGradGradGradGradGrad
 Berny optimization.
 FormGI is forming the generalized inverse of G from B-inverse, IUseBI=4.
 Internal  Forces:  Max     0.053057069 RMS     0.010183473
 Search for a local minimum.
 Step number   1 out of a maximum of  158
 All quantities printed in internal units (Hartrees-Bohrs-Radians)
 Mixed Optimization -- RFO/linear search
 Second derivative matrix not updated -- first step.
 ITU=  0
     Eigenvalues ---    0.00329   0.00423   0.00994   0.01168   0.01468
     Eigenvalues ---    0.01635   0.01697   0.01937   0.01950   0.01990
     Eigenvalues ---    0.02040   0.02062   0.02070   0.02100   0.02101
     Eigenvalues ---    0.02106   0.02118   0.02138   0.02178   0.02226
     Eigenvalues ---    0.03755   0.04435   0.04933   0.05553   0.05673
     Eigenvalues ---    0.05783   0.08033   0.09179   0.11975   0.12669
     Eigenvalues ---    0.15867   0.16000   0.16000   0.16000   0.16000
     Eigenvalues ---    0.16000   0.16000   0.16000   0.16000   0.16000
     Eigenvalues ---    0.16195   0.21964   0.22000   0.22000   0.22000
     Eigenvalues ---    0.22004   0.22960   0.24000   0.25000   0.25000
     Eigenvalues ---    0.25000   0.25000   0.25000   0.25000   0.25000
     Eigenvalues ---    0.25000   0.29144   0.29805   0.32337   0.32338
     Eigenvalues ---    0.32405   0.32405   0.32505   0.32505   0.32560
     Eigenvalues ---    0.35606   0.35622   0.35874   0.36703   0.37888
     Eigenvalues ---    0.39641   0.40591   0.41362   0.42437   0.42459
     Eigenvalues ---    0.43926   0.44836   0.45798   0.46023   0.48407
     Eigenvalues ---    0.48408   0.48841   0.48848   0.51147   0.52300
     Eigenvalues ---    0.53031   0.95087
 RFO step:  Lambda=-3.93036768D-02 EMin= 3.28888028D-03
 Linear search not attempted -- first point.
 Maximum step size (   0.300) exceeded in Quadratic search.
    -- Step size scaled by   0.968
 Iteration  1 RMS(Cart)=  0.09731169 RMS(Int)=  0.00602334
 Iteration  2 RMS(Cart)=  0.00759250 RMS(Int)=  0.00031447
 Iteration  3 RMS(Cart)=  0.00005664 RMS(Int)=  0.00031278
 Iteration  4 RMS(Cart)=  0.00000004 RMS(Int)=  0.00031278
 Variable       Old X    -DE/DX   Delta X   Delta X   Delta X     New X
                                 (Linear)    (Quad)   (Total)
    R1        2.65664  -0.00825   0.00000  -0.01577  -0.01579   2.64085
    R2        2.63983  -0.00704   0.00000  -0.01320  -0.01324   2.62660
    R3        2.56925   0.02331   0.00000   0.03960   0.03960   2.60885
    R4        2.63964  -0.00646   0.00000  -0.01225  -0.01224   2.62740
    R5        2.04279  -0.00074   0.00000  -0.00179  -0.00179   2.04100
    R6        2.66074  -0.01140   0.00000  -0.02328  -0.02325   2.63749
    R7        2.04677   0.00263   0.00000   0.00643   0.00643   2.05319
    R8        2.67474  -0.01994   0.00000  -0.04167  -0.04165   2.63310
    R9        2.72044  -0.02733   0.00000  -0.06071  -0.06071   2.65973
   R10        2.64303  -0.00705   0.00000  -0.01394  -0.01395   2.62908
   R11        2.02997   0.00575   0.00000   0.01371   0.01371   2.04367
   R12        2.04701   0.00141   0.00000   0.00346   0.00346   2.05047
   R13        2.58726   0.00818   0.00000   0.01438   0.01438   2.60164
   R14        1.95043  -0.01674   0.00000  -0.03493  -0.03493   1.91550
   R15        2.57613   0.00289   0.00000   0.00498   0.00498   2.58111
   R16        2.30673   0.01292   0.00000   0.01263   0.01263   2.31936
   R17        2.74528  -0.00220   0.00000  -0.00509  -0.00509   2.74020
   R18        1.95070  -0.01726   0.00000  -0.03602  -0.03602   1.91467
   R19        2.89703  -0.00527   0.00000  -0.01543  -0.01543   2.88160
   R20        2.10231  -0.01040   0.00000  -0.02776  -0.02776   2.07455
   R21        2.10230  -0.01035   0.00000  -0.02762  -0.02762   2.07468
   R22        2.88354   0.00218   0.00000   0.00626   0.00626   2.88980
   R23        2.10109  -0.00888   0.00000  -0.02365  -0.02365   2.07744
   R24        2.10109  -0.00889   0.00000  -0.02367  -0.02367   2.07742
   R25        2.09929  -0.01048   0.00000  -0.02785  -0.02785   2.07144
   R26        2.09831  -0.01087   0.00000  -0.02883  -0.02883   2.06948
   R27        2.09929  -0.01050   0.00000  -0.02788  -0.02788   2.07141
   R28        2.61053  -0.03702   0.00000  -0.06790  -0.06790   2.54264
   R29        2.61046  -0.05306   0.00000  -0.09730  -0.09730   2.51316
   R30        2.61508  -0.04429   0.00000  -0.08191  -0.08191   2.53317
   R31        2.61507  -0.04158   0.00000  -0.07689  -0.07689   2.53818
    A1        2.07402   0.00187   0.00000   0.00864   0.00853   2.08254
    A2        2.14686   0.01787   0.00000   0.05861   0.05857   2.20542
    A3        2.06231  -0.01975   0.00000  -0.06725  -0.06727   1.99504
    A4        2.10008  -0.00483   0.00000  -0.01574  -0.01575   2.08432
    A5        2.11796   0.00313   0.00000   0.01132   0.01132   2.12928
    A6        2.06515   0.00171   0.00000   0.00443   0.00443   2.06958
    A7        2.11877  -0.00032   0.00000  -0.00094  -0.00090   2.11787
    A8        2.06694   0.00104   0.00000   0.00475   0.00473   2.07167
    A9        2.09747  -0.00072   0.00000  -0.00381  -0.00383   2.09365
   A10        2.05555   0.00651   0.00000   0.02039   0.02042   2.07597
   A11        2.05360   0.00228   0.00000   0.00831   0.00827   2.06187
   A12        2.17404  -0.00878   0.00000  -0.02870  -0.02874   2.14530
   A13        2.10572  -0.00346   0.00000  -0.01407  -0.01406   2.09166
   A14        2.15568  -0.00710   0.00000  -0.03584  -0.03585   2.11983
   A15        2.02178   0.01056   0.00000   0.04991   0.04990   2.07168
   A16        2.11224   0.00022   0.00000   0.00173   0.00169   2.11393
   A17        2.08828  -0.00109   0.00000  -0.00564  -0.00561   2.08267
   A18        2.08266   0.00087   0.00000   0.00390   0.00392   2.08659
   A19        2.23312  -0.01096   0.00000  -0.04090  -0.04090   2.19222
   A20        2.02250   0.00075   0.00000  -0.00252  -0.00252   2.01998
   A21        2.02757   0.01021   0.00000   0.04342   0.04342   2.07098
   A22        2.08474  -0.02426   0.00000  -0.08117  -0.08117   2.00357
   A23        2.11729   0.00910   0.00000   0.03044   0.03044   2.14773
   A24        2.08116   0.01516   0.00000   0.05073   0.05073   2.13189
   A25        2.12691  -0.00632   0.00000  -0.02357  -0.02357   2.10334
   A26        2.07869   0.00681   0.00000   0.02954   0.02954   2.10823
   A27        2.07759  -0.00050   0.00000  -0.00596  -0.00596   2.07162
   A28        1.93748  -0.00405   0.00000  -0.01250  -0.01246   1.92502
   A29        1.90620   0.00084   0.00000   0.00196   0.00201   1.90821
   A30        1.90620   0.00082   0.00000   0.00171   0.00176   1.90796
   A31        1.90560   0.00257   0.00000   0.01403   0.01401   1.91961
   A32        1.90562   0.00257   0.00000   0.01392   0.01391   1.91953
   A33        1.90242  -0.00276   0.00000  -0.01940  -0.01947   1.88295
   A34        1.94141  -0.00075   0.00000  -0.00003  -0.00003   1.94138
   A35        1.91064  -0.00015   0.00000  -0.00223  -0.00225   1.90839
   A36        1.91066  -0.00016   0.00000  -0.00230  -0.00233   1.90833
   A37        1.90108   0.00129   0.00000   0.00953   0.00953   1.91062
   A38        1.90109   0.00129   0.00000   0.00952   0.00952   1.91061
   A39        1.89843  -0.00154   0.00000  -0.01480  -0.01484   1.88359
   A40        1.92579   0.00214   0.00000   0.00980   0.00973   1.93553
   A41        1.91260   0.00354   0.00000   0.01836   0.01824   1.93084
   A42        1.92578   0.00215   0.00000   0.00983   0.00976   1.93554
   A43        1.89674  -0.00260   0.00000  -0.01148  -0.01159   1.88515
   A44        1.90570  -0.00280   0.00000  -0.01586  -0.01587   1.88983
   A45        1.89673  -0.00259   0.00000  -0.01141  -0.01153   1.88520
   A46        2.21408   0.00020   0.00000   0.00066   0.00066   2.21474
   A47        1.90068  -0.00581   0.00000  -0.02293  -0.02294   1.87773
   A48        1.92428   0.01044   0.00000   0.03548   0.03416   1.95844
   A49        1.92429   0.02726   0.00000   0.09424   0.09301   2.01730
   A50        1.89759  -0.00717   0.00000  -0.02999  -0.03003   1.86756
   A51        1.89761  -0.01111   0.00000  -0.03811  -0.03809   1.85952
   A52        1.91888  -0.01434   0.00000  -0.04134  -0.04344   1.87544
    D1       -0.00001   0.00090   0.00000   0.01446   0.01445   0.01445
    D2       -3.14158   0.00101   0.00000   0.01632   0.01651  -3.12507
    D3        3.14158  -0.00039   0.00000  -0.00621  -0.00692   3.13467
    D4        0.00001  -0.00028   0.00000  -0.00436  -0.00486  -0.00485
    D5        0.00000  -0.00066   0.00000  -0.01069  -0.01065  -0.01065
    D6        3.14159  -0.00055   0.00000  -0.00883  -0.00863   3.13295
    D7       -3.14158   0.00056   0.00000   0.00897   0.00823  -3.13336
    D8       -0.00000   0.00068   0.00000   0.01083   0.01025   0.01025
    D9        0.00002   0.00584   0.00000   0.09197   0.09192   0.09193
   D10       -3.14158   0.00456   0.00000   0.07142   0.07147  -3.07011
   D11        0.00001  -0.00061   0.00000  -0.00969  -0.00976  -0.00975
   D12        3.14159  -0.00043   0.00000  -0.00675  -0.00665   3.13494
   D13        3.14158  -0.00072   0.00000  -0.01149  -0.01174   3.12984
   D14       -0.00003  -0.00054   0.00000  -0.00855  -0.00863  -0.00865
   D15       -0.00001   0.00007   0.00000   0.00083   0.00091   0.00091
   D16        3.14158   0.00067   0.00000   0.01128   0.01155  -3.13005
   D17       -3.14159  -0.00012   0.00000  -0.00215  -0.00223   3.13936
   D18        0.00000   0.00049   0.00000   0.00829   0.00840   0.00840
   D19        0.00000   0.00017   0.00000   0.00303   0.00311   0.00311
   D20        3.14159  -0.00016   0.00000  -0.00244  -0.00241   3.13918
   D21       -3.14159  -0.00048   0.00000  -0.00821  -0.00807   3.13353
   D22        0.00000  -0.00081   0.00000  -0.01367  -0.01359  -0.01359
   D23       -2.75105  -0.00145   0.00000  -0.02710  -0.02704  -2.77809
   D24        0.39053  -0.00151   0.00000  -0.02797  -0.02790   0.36264
   D25        0.39053  -0.00080   0.00000  -0.01588  -0.01595   0.37458
   D26       -2.75106  -0.00085   0.00000  -0.01675  -0.01681  -2.76787
   D27        0.00000   0.00013   0.00000   0.00198   0.00181   0.00181
   D28       -3.14158   0.00001   0.00000   0.00013  -0.00022   3.14139
   D29       -3.14159   0.00044   0.00000   0.00704   0.00718  -3.13441
   D30        0.00001   0.00032   0.00000   0.00519   0.00515   0.00517
   D31       -3.14158  -0.00030   0.00000  -0.00482  -0.00483   3.13678
   D32        0.00000  -0.00035   0.00000  -0.00565  -0.00565  -0.00565
   D33        0.00002  -0.00025   0.00000  -0.00394  -0.00394  -0.00393
   D34       -3.14159  -0.00030   0.00000  -0.00477  -0.00476   3.13683
   D35       -3.14159  -0.00000   0.00000   0.00004   0.00004  -3.14155
   D36       -0.00000  -0.00005   0.00000  -0.00082  -0.00083  -0.00083
   D37        0.00002   0.00005   0.00000   0.00085   0.00086   0.00087
   D38       -3.14159   0.00000   0.00000  -0.00001  -0.00002   3.14158
   D39        3.14158  -0.00002   0.00000  -0.00034  -0.00034   3.14125
   D40        1.03952  -0.00121   0.00000  -0.01117  -0.01117   1.02835
   D41       -1.03951   0.00115   0.00000   0.01020   0.01020  -1.02931
   D42        0.00000   0.00003   0.00000   0.00052   0.00051   0.00052
   D43       -2.10206  -0.00116   0.00000  -0.01031  -0.01032  -2.11238
   D44        2.10209   0.00120   0.00000   0.01106   0.01106   2.11315
   D45        3.14159  -0.00001   0.00000  -0.00020  -0.00020   3.14139
   D46        1.03976  -0.00105   0.00000  -0.01061  -0.01060   1.02916
   D47       -1.03974   0.00102   0.00000   0.01016   0.01014  -1.02960
   D48       -1.03918   0.00015   0.00000   0.00349   0.00346  -1.03572
   D49       -3.14101  -0.00088   0.00000  -0.00693  -0.00694   3.13523
   D50        1.06267   0.00119   0.00000   0.01384   0.01380   1.07647
   D51        1.03916  -0.00015   0.00000  -0.00351  -0.00348   1.03568
   D52       -1.06267  -0.00118   0.00000  -0.01393  -0.01388  -1.07655
   D53        3.14101   0.00088   0.00000   0.00684   0.00686  -3.13531
   D54       -1.05371   0.00034   0.00000   0.00345   0.00348  -1.05023
   D55       -3.14159  -0.00000   0.00000  -0.00001  -0.00001   3.14158
   D56        1.05374  -0.00035   0.00000  -0.00357  -0.00360   1.05013
   D57        1.05375   0.00053   0.00000   0.00692   0.00695   1.06070
   D58       -1.03413   0.00019   0.00000   0.00345   0.00345  -1.03067
   D59       -3.12199  -0.00017   0.00000  -0.00011  -0.00013  -3.12212
   D60        3.12199   0.00016   0.00000   0.00009   0.00011   3.12210
   D61        1.03411  -0.00018   0.00000  -0.00338  -0.00338   1.03073
   D62       -1.05375  -0.00053   0.00000  -0.00694  -0.00697  -1.06072
   D63        2.74079   0.00768   0.00000   0.10616   0.10611   2.84690
   D64       -1.46180   0.00160   0.00000   0.07665   0.07516  -1.38664
   D65        0.66017   0.00851   0.00000   0.11043   0.11198   0.77214
         Item               Value     Threshold  Converged?
 Maximum Force            0.053057     0.000450     NO 
 RMS     Force            0.010183     0.000300     NO 
 Maximum Displacement     0.531856     0.001800     NO 
 RMS     Displacement     0.097096     0.001200     NO 
 Predicted change in Energy=-2.234760D-02
 GradGradGradGradGradGradGradGradGradGradGradGradGradGradGradGradGradGrad

                          Input orientation:                          
 ---------------------------------------------------------------------
 Center     Atomic      Atomic             Coordinates (Angstroms)
 Number     Number       Type             X           Y           Z
 ---------------------------------------------------------------------
      1          6           0       -4.824895    4.583776   -0.180633
      2          6           0       -5.553934    4.402743    0.997785
      3          6           0       -4.995410    4.785564    2.212116
      4          6           0       -3.715201    5.337244    2.280647
      5          6           0       -2.989401    5.505257    1.103158
      6          6           0       -3.547485    5.127563   -0.113996
      7          7           0       -3.210457    5.687810    3.546864
      8          6           0       -2.190390    6.581529    3.783736
      9          7           0       -1.880878    6.761309    5.101867
     10          8           0       -1.598447    7.174836    2.887081
     11          6           0       -0.825252    7.675615    5.492175
     12          6           0       -0.677944    7.696543    7.009774
     13          6           0        0.431200    8.654959    7.445376
     14          1           0       -5.575057    4.645261    3.120308
     15          1           0       -1.995076    5.930525    1.108882
     16          1           0       -3.650759    5.231850    4.337875
     17          1           0       -2.383086    6.260659    5.825548
     18          1           0       -1.062062    8.682460    5.124261
     19          1           0        0.118369    7.360301    5.027975
     20          1           0       -0.447568    6.682802    7.367255
     21          1           0       -1.629789    8.007137    7.463681
     22          1           0        1.396306    8.354775    7.021087
     23          1           0        0.528429    8.662296    8.536149
     24          1           0        0.214830    9.678275    7.117446
     25          8           0       -5.234669    4.250130   -1.456043
     26          6           0       -6.442403    3.781715   -1.819842
     27          9           0       -6.553894    3.937122   -3.135925
     28          9           0       -6.575056    2.471951   -1.567150
     29          9           0       -7.496548    4.406847   -1.270271
     30          1           0       -6.543678    3.970406    0.997762
     31          1           0       -2.978176    5.260680   -1.028069
 ---------------------------------------------------------------------
                    Distance matrix (angstroms):
                    1          2          3          4          5
     1  C    0.000000
     2  C    1.397477   0.000000
     3  C    2.407289   1.390359   0.000000
     4  C    2.803040   2.428984   1.395701   0.000000
     5  C    2.422042   2.793469   2.402461   1.393375   0.000000
     6  C    1.389936   2.405672   2.761204   2.409649   1.391250
     7  N    4.209458   3.693384   2.404508   1.407469   2.460465
     8  C    5.162156   4.880785   3.682882   2.476403   2.997045
     9  N    6.427573   5.991465   4.685567   3.654036   4.335454
    10  O    5.151158   5.186503   4.207559   2.867953   2.811517
    11  C    7.598510   7.298744   6.041638   4.912606   5.353266
    12  C    8.865014   8.412396   7.080384   6.095561   6.710639
    13  C   10.117167   9.771110   8.473920   7.407718   7.864150
    14  H    3.385666   2.136437   1.086503   2.154747   3.390296
    15  H    3.388873   3.874523   3.395595   2.164220   1.081466
    16  H    4.713333   3.932644   2.554625   2.060934   3.312935
    17  H    6.696908   6.067406   4.696492   3.897890   4.820707
    18  H    7.687655   7.451221   6.256007   5.129889   5.475265
    19  H    7.698997   7.560727   6.380366   5.131942   5.338877
    20  H    8.974270   8.476072   7.131469   6.193669   6.861956
    21  H    8.964577   8.378447   7.020319   6.192020   6.968802
    22  H   10.236628  10.010223   8.758967   7.596366   7.897851
    23  H   11.012479  10.581392   9.248526   8.258067   8.808596
    24  H   10.228133   9.927745   8.668765   7.595019   7.990797
    25  O    1.380546   2.479213   3.714745   4.177733   3.628510
    26  C    2.438573   3.018953   4.399794   5.164427   4.841255
    27  F    3.484444   4.278350   5.634737   6.273577   5.756256
    28  F    3.073320   3.368908   4.704353   5.585178   5.402630
    29  F    2.890735   2.986277   4.304200   5.270033   5.210955
    30  H    2.172338   1.080050   2.129852   3.393276   3.872953
    31  H    2.141662   3.387428   3.846266   3.390674   2.145244
                    6          7          8          9         10
     6  C    0.000000
     7  N    3.718785   0.000000
     8  C    4.375847   1.376727   0.000000
     9  N    5.714187   2.310457   1.365865   0.000000
    10  O    4.122686   2.290226   1.227355   2.270693   0.000000
    11  C    6.732925   3.663987   2.445279   1.450049   2.763173
    12  C    8.098273   4.737127   3.733372   2.441685   4.256301
    13  C    9.242108   6.104427   4.957766   3.797848   5.204640
    14  H    3.847647   2.619197   3.955407   4.695870   4.718747
    15  H    2.133109   2.734926   2.759855   4.080094   2.206267
    16  H    4.454290   1.013639   2.064312   2.460774   3.176788
    17  H    6.157752   2.491003   2.075833   1.013202   3.175841
    18  H    6.801027   4.008954   2.735698   2.088489   2.750567
    19  H    6.698020   4.008990   2.735870   2.088359   2.750506
    20  H    8.246052   4.818605   3.986138   2.681889   4.651729
    21  H    8.330108   4.818635   3.986054   2.682033   4.651772
    22  H    9.260960   6.356508   5.146769   4.118553   5.239352
    23  H   10.194725   6.907951   5.857217   4.605736   6.216760
    24  H    9.335832   6.356529   5.146702   4.118646   5.239387
    25  O    2.327568   5.585109   6.492946   7.782038   6.374853
    26  C    3.619637   6.548298   7.570909   8.808833   7.558591
    27  F    4.425799   7.674839   8.597370   9.883032   8.444871
    28  F    4.281369   6.914869   8.046484   9.214645   8.168472
    29  F    4.177500   6.573906   7.643792   8.813818   7.728709
    30  H    3.398851   4.534067   5.790573   6.809884   6.188150
    31  H    1.085063   4.600696   5.051605   6.405627   4.571219
                   11         12         13         14         15
    11  C    0.000000
    12  C    1.524875   0.000000
    13  C    2.520472   1.529218   0.000000
    14  H    6.113055   6.958447   8.417779   0.000000
    15  H    4.860770   6.298744   7.311669   4.302790   0.000000
    16  H    3.909973   4.695891   6.167384   2.351484   3.695379
    17  H    2.130747   2.524216   4.034441   4.485144   4.744099
    18  H    1.097806   2.162114   2.760101   6.378239   4.956504
    19  H    1.097873   2.162106   2.760041   6.589821   4.676558
    20  H    2.155051   1.099334   2.160494   6.962707   6.490604
    21  H    2.155000   1.099323   2.160482   6.762562   6.695463
    22  H    2.781034   2.176215   1.096158   8.807751   7.234129
    23  H    3.474445   2.172058   1.095122   9.095078   8.306319
    24  H    2.780994   2.176212   1.096143   8.650499   7.418366
    25  O    8.913733  10.213304  11.434153   4.605973   4.460665
    26  C   10.009017  11.247977  12.523545   5.089507   5.742258
    27  F   11.010803  12.312402  13.528246   6.371815   6.540250
    28  F   10.486774  11.646283  12.982404   5.262655   6.332385
    29  F   10.045980  11.219386  12.524302   4.798558   6.184510
    30  H    8.162641   9.188864  10.590829   2.428756   4.954210
    31  H    7.278775   8.708123   9.743933   4.932703   2.445759
                   16         17         18         19         20
    16  H    0.000000
    17  H    2.208759   0.000000
    18  H    4.384800   2.846407   0.000000
    19  H    4.383249   2.846509   1.775048   0.000000
    20  H    4.641427   2.510238   3.067125   2.500304   0.000000
    21  H    4.642974   2.510204   2.500252   3.067103   1.777866
    22  H    6.513460   4.483129   3.122322   2.567995   2.513006
    23  H    6.845369   4.646734   3.764444   3.764389   2.497454
    24  H    6.514560   4.483109   2.568051   3.122210   3.077991
    25  O    6.086217   8.074362   8.964185   8.964969  10.328835
    26  C    6.914741   9.004177  10.059123  10.136203  11.347119
    27  F    8.121711  10.153938  10.995869  11.085419  12.455632
    28  F    7.144079   9.304778  10.664826  10.592147  11.623294
    29  F    6.849965   8.940625  10.028636  10.313960  11.378707
    30  H    4.595277   6.772245   8.323435   8.492166   9.224429
    31  H    5.408008   6.951701   7.295974   7.118473   8.883010
                   21         22         23         24         25
    21  H    0.000000
    22  H    3.077986   0.000000
    23  H    2.497464   1.772906   0.000000
    24  H    2.513006   1.776745   1.772928   0.000000
    25  O   10.328202  11.518667  12.350077  11.518096   0.000000
    26  C   11.278264  12.669659  13.403698  12.608065   1.345505
    27  F   12.375923  13.634010  14.447279  13.561271   2.158780
    28  F   11.689733  13.111371  13.815083  13.170265   2.229552
    29  F   11.120381  12.783412  13.366936  12.554167   2.274900
    30  H    9.069157  10.887905  11.351467  10.756753   2.795158
    31  H    9.026128   9.669458  10.739717   9.801013   2.509210
                   26         27         28         29         30
    26  C    0.000000
    27  F    1.329908   0.000000
    28  F    1.340498   2.146679   0.000000
    29  F    1.343145   2.142406   2.163587   0.000000
    30  H    2.825731   4.133833   2.970711   2.498483   0.000000
    31  H    3.849040   4.356676   4.583139   4.604713   4.299023
                   31
    31  H    0.000000
 Symmetry turned off by external request.
 Stoichiometry    C11H13F3N2O2
 Framework group  C1[X(C11H13F3N2O2)]
 Deg. of freedom    87
 Full point group                 C1      NOp   1
 Rotational constants (GHZ):      2.0687803      0.1092059      0.1062475
 Basis read from rwf:  (6D, 7F)
   368 basis functions,   628 primitive gaussians,   368 cartesian basis functions
    68 alpha electrons       68 beta electrons
       nuclear repulsion energy      1289.5813008272 Hartrees.
 NAtoms=   31 NActive=   31 NUniq=   31 SFac= 1.00D+00 NAtFMM=   60 NAOKFM=F Big=F
 Integral buffers will be    131072 words long.
 Raffenetti 2 integral format.
 Two-electron integral symmetry is turned off.
 One-electron integrals computed using PRISM.
 NBasis=   368 RedAO= T EigKep=  2.02D-06  NBF=   368
 NBsUse=   368 1.00D-06 EigRej= -1.00D+00 NBFU=   368
 Initial guess from the checkpoint file:  "aryl_urea_OCF3.M062X.opt.chk"
 B after Tr=    -0.187976   -0.219107    0.297386
         Rot=    0.999840    0.008690    0.009083    0.012753 Ang=   2.05 deg.
 ExpMin= 4.38D-02 ExpMax= 7.00D+03 ExpMxC= 1.05D+03 IAcc=2 IRadAn=         4 AccDes= 0.00D+00
 Harris functional with IExCor= 1009 and IRadAn=       4 diagonalized for initial guess.
 HarFok:  IExCor= 1009 AccDes= 0.00D+00 IRadAn=         4 IDoV= 1 UseB2=F ITyADJ=14
 ICtDFT=  3500011 ScaDFX=  1.000000  1.000000  1.000000  1.000000
[...]
 ,-0.00019939,-0.00009323,-0.00004240,0.00015762,0.00041103,0.00021062,
 0.00143488,0.00007656,-0.00007899,0.00029379,0.00037416,0.00006979,-0.
 00013607,0.00030805,-0.00007716,-0.00038455,0.00007090,0.00001557,-0.0
 0003444,0.00027346,0.00010400,0.00007885,-0.00001588,-0.00001578,0.000
 02979,-0.00004150,-0.00000140,-0.00000112,0.00001507,-0.00000174,-0.00
 004094,0.00006439,0.00005582,0.00012377,0.00001300,0.00001041,-0.00005
 151,-0.21384877,-0.08602605,-0.01095458,0.59400321,-0.01722200,-0.0208
 6503,-0.02583078,0.00403399,0.00100115,0.00288665,0.00108256,-0.000029
 96,0.00220047,-0.00261128,-0.00085797,-0.00260041,-0.00106246,0.000757
 21,-0.00008769,0.00301019,0.00188802,0.00288433,0.00366163,0.00193910,
 0.00419199,-0.00377554,-0.00234380,-0.00204712,0.00071366,0.00087767,0
 .00205023,0.00128931,0.00072664,0.00021378,-0.00059611,-0.00045124,-0.
 00018627,0.00013726,0.00007843,-0.00012422,-0.00005881,-0.00002092,0.0
 0009440,0.00013605,0.00030332,0.00084975,-0.00002614,0.00005723,0.0001
 5227,0.00010823,0.00020181,-0.00010111,0.00012525,0.00001979,-0.000221
 15,0.00003337,-0.00000217,-0.00001442,0.00019878,0.00005270,0.00004212
 ,-0.00001383,-0.00002622,0.00003120,-0.00000813,-0.00001174,-0.0000129
 5,0.00002389,-0.00000590,-0.00002908,0.00003627,0.00003902,0.00007415,
 0.00000139,-0.00000375,-0.00002446,-0.08602628,-0.12019712,-0.00940317
 ,0.02781975,0.56822369,-0.03508144,-0.02027058,-0.00444628,-0.00363671
 ,-0.00173497,0.00230054,0.00029474,0.00009369,-0.00223933,0.00089071,0
 .00034903,-0.00216506,-0.00057869,-0.00021272,0.00273334,-0.00155064,-
 0.00138379,-0.00652393,0.00226365,0.00161655,0.00170460,-0.00261845,-0
 .00192160,-0.00122680,0.00060577,0.00069923,0.00137552,0.00098019,0.00
 069538,0.00002599,-0.00048669,-0.00039038,-0.00014105,0.00011075,0.000
 03329,-0.00007495,-0.00005222,-0.00002172,0.00007028,-0.00003495,-0.00
 002140,0.00029561,-0.00012778,-0.00009356,-0.00035065,-0.00006929,-0.0
 0007578,-0.00014245,0.00005095,-0.00001938,-0.00017180,0.00002698,0.00
 001613,-0.00001674,0.00014412,0.00003324,0.00003212,-0.00001180,0.0000
 0708,0.00000682,-0.00000787,-0.00001426,-0.00000635,0.00001840,-0.0000
 0845,-0.00001922,0.00002941,0.00002698,0.00005959,0.00000434,0.0000148
 1,-0.00002571,-0.00604920,-0.00654670,-0.11456740,0.02662617,0.0215137
 2,0.64205351,0.00109216,-0.00120795,0.00764794,-0.00075747,-0.00062793
 ,-0.00071421,-0.00008495,-0.00002002,-0.00055819,0.00055419,0.00036890
 ,0.00074191,-0.00042611,-0.00007060,0.00026590,-0.00047836,-0.00046865
 ,-0.00227426,-0.00083877,-0.00059197,-0.00099795,0.00093349,0.00064505
 ,0.00055953,-0.00017059,-0.00024384,-0.00054940,-0.00030969,-0.0002515
 2,-0.00009434,0.00014569,0.00013723,0.00004962,-0.00004068,-0.00001200
 ,0.00003180,0.00001599,0.00000670,-0.00002575,-0.00007145,-0.00002947,
 -0.00023927,-0.00000963,0.00001734,-0.00015463,-0.00004352,-0.00000193
 ,0.00002298,-0.00004473,0.00001338,0.00006000,-0.00001086,-0.00000211,
 0.00000700,-0.00004506,-0.00001653,-0.00001191,0.00000271,0.00000193,-
 0.00000507,0.00000648,0.00000094,0.00000045,-0.00000294,0.00000054,0.0
 0000697,-0.00001057,-0.00000938,-0.00002086,-0.00000216,-0.00000203,0.
 00000864,-0.02350357,-0.02370812,-0.05963249,-0.08187263,-0.00399246,-
 0.03011490,0.09336384,-0.00152103,0.00300631,0.00500735,-0.00056154,-0
 .00005672,-0.00051305,-0.00001394,-0.00016849,-0.00030417,0.00041037,0
 .00016321,0.00052948,-0.00017875,-0.00028927,0.00015776,-0.00034356,-0
 .00018415,-0.00152700,-0.00063450,-0.00033291,-0.00068561,0.00065278,0
 .00042678,0.00040424,-0.00013019,-0.00016795,-0.00038433,-0.00023550,-
 0.00014776,-0.00008045,0.00011403,0.00009022,0.00003497,-0.00002671,-0
 .00001375,0.00002296,0.00001234,0.00000401,-0.00001797,-0.00002014,-0.
 00005860,-0.00015142,0.00000985,-0.00001022,-0.00010114,-0.00000942,-0
 .00002828,0.00002028,-0.00002238,-0.00000068,0.00004142,-0.00000631,-0
 .00000031,0.00000375,-0.00003687,-0.00000950,-0.00000737,0.00000266,0.
 00000390,-0.00000535,0.00000187,0.00000234,0.00000218,-0.00000483,0.00
 000123,0.00000537,-0.00000710,-0.00000720,-0.00001451,-0.00000054,-0.0
 0000017,0.00000529,-0.02222813,-0.00546334,-0.03863288,-0.00403934,-0.
 08346234,-0.03298863,0.01030051,0.09149615,0.00043874,0.00050809,0.010
 26626,0.00032352,0.00010298,-0.00090102,-0.00048448,-0.00027054,0.0001
 1451,0.00057069,0.00035989,0.00136065,-0.00059059,-0.00028404,-0.00013
 152,-0.00010947,-0.00020871,-0.00231313,-0.00155270,-0.00103387,-0.001
 50917,0.00173433,0.00120916,0.00089943,-0.00036053,-0.00044246,-0.0009
 3435,-0.00063211,-0.00046623,-0.00008837,0.00030078,0.00024811,0.00009
 248,-0.00007045,-0.00002385,0.00005173,0.00003177,0.00001415,-0.000045
 52,-0.00001497,-0.00001151,-0.00020456,0.00002346,0.00002810,-0.000142
 17,-0.00000916,0.00001220,0.00007059,-0.00004971,0.00001394,0.00010810
 ,-0.00001803,-0.00000752,0.00001038,-0.00009138,-0.00002402,-0.0000214
 6,0.00000683,-0.00000120,-0.00000668,0.00000634,0.00000727,0.00000362,
 -0.00001056,0.00000437,0.00001252,-0.00001887,-0.00001737,-0.00003770,
 -0.00000271,-0.00000727,0.00001590,-0.03581423,-0.02439225,-0.04127035
 ,-0.03094637,-0.03359688,-0.29927683,0.04943749,0.05445521,0.44464144,
 0.00315345,0.00148620,0.00752608,-0.00071088,-0.00089684,-0.00070637,0
 .00000397,-0.00027508,-0.00030844,0.00040788,0.00030498,0.00066931,-0.
 00001824,0.00026897,-0.00000209,-0.00063187,-0.00041450,-0.00098446,-0
 .00076617,-0.00052995,-0.00095503,0.00085065,0.00061384,0.00050459,-0.
 00014723,-0.00022459,-0.00050220,-0.00027071,-0.00021761,-0.00006002,0
 .00013022,0.00011974,0.00004594,-0.00003705,-0.00001083,0.00002998,0.0
 0001350,0.00000635,-0.00002333,-0.00003460,-0.00002811,-0.00017112,-0.
 00000134,0.00002418,-0.00004572,-0.00005468,-0.00001506,0.00001863,-0.
 00004592,0.00001136,0.00005819,-0.00000996,-0.00000190,0.00000585,-0.0
 0003937,-0.00001549,-0.00001092,0.00000235,0.00000256,-0.00000469,0.00
 000620,-0.00000027,-0.00000015,-0.00000194,0.00000021,0.00000633,-0.00
 000955,-0.00000843,-0.00001887,-0.00000186,-0.00000136,0.00000783,-0.0
 0973315,-0.04932391,0.01000211,-0.07736675,-0.00003899,-0.00210590,0.0
 1272943,0.00564849,-0.00869438,0.08255233,0.00590088,0.00386740,0.0127
 3822,-0.00051168,-0.00036077,-0.00214794,-0.00085029,-0.00039245,-0.00
 074399,0.00106078,0.00045444,0.00068403,-0.00000608,0.00038719,0.00029
 747,-0.00154228,-0.00061284,-0.00204765,-0.00131771,-0.00072939,-0.001
 52866,0.00131815,0.00081917,0.00077620,-0.00025834,-0.00030353,-0.0007
 5930,-0.00043778,-0.00025142,-0.00011754,0.00021056,0.00016091,0.00006
 371,-0.00004870,-0.00003159,0.00004710,0.00002131,0.00000722,-0.000034
 50,-0.00000297,-0.00015882,-0.00029108,0.00001475,-0.00004399,-0.00008
 125,-0.00002643,-0.00010466,0.00004020,-0.00005109,-0.00001263,0.00007
 522,-0.00001111,0.00000288,0.00000767,-0.00007170,-0.00002145,-0.00001
 577,0.00000450,0.00001295,-0.00001372,0.00000307,0.00000371,0.00000535
 ,-0.00000880,0.00000146,0.00001061,-0.00001305,-0.00001421,-0.00002647
 ,-0.00000040,0.00000314,0.00000823,-0.03812628,-0.05586310,0.01286591,
 0.00309624,-0.22815064,0.07203001,0.00290413,-0.00361842,0.03266177,-0
 .00863331,0.34715855,-0.00169403,-0.00042103,-0.00512631,0.00194838,-0
 .00151834,-0.00281745,0.00009782,-0.00044160,0.00142192,-0.00086612,-0
 .00028096,0.00021328,-0.00011620,-0.00032632,-0.00085316,0.00114851,0.
 00072038,0.00147946,-0.00008319,-0.00006116,0.00022500,0.00008431,0.00
 014759,0.00004058,-0.00005535,-0.00005746,-0.00006682,-0.00006498,-0.0
 0006584,-0.00001124,0.00004279,0.00003553,0.00000812,-0.00000935,0.000
 00104,0.00000203,0.00000515,0.00000216,-0.00000513,0.00007455,0.000029
 17,0.00008717,0.00003053,0.00003454,0.00007487,0.00004554,0.00004927,0
 .00002871,0.00000717,0.00000857,0.00001372,-0.00000256,-0.00000361,0.0
 0000188,-0.00000879,-0.00000049,-0.00000125,0.00000108,-0.00000519,0.0
 0000219,0.00000078,0.00000203,-0.00000016,-0.00000131,0.00000125,0.000
 00094,-0.00000248,-0.00000165,-0.00000499,-0.00000088,-0.00000395,0.00
 000301,0.01126264,0.01456610,0.01456243,-0.00618870,0.07081121,-0.1143
 8139,-0.00676294,0.05109987,-0.06095880,0.00396956,-0.13249789,0.15207
 300,0.00608439,0.00519325,0.01497926,-0.00103142,-0.00062964,-0.002225
 84,-0.00067712,-0.00057122,-0.00089014,0.00111027,0.00070017,0.0009079
 6,0.00034314,-0.00016754,0.00035926,-0.00139225,-0.00128415,-0.0023702
 0,-0.00148050,-0.00099050,-0.00179116,0.00157326,0.00109656,0.00088619
 ,-0.00024300,-0.00042219,-0.00090223,-0.00048763,-0.00041811,-0.000100
 99,0.00021660,0.00022389,0.00007784,-0.00007024,-0.00001516,0.00005324
 ,0.00002369,0.00001088,-0.00004233,-0.00012827,0.00002728,-0.00035498,
 -0.00002845,0.00005113,-0.00010332,-0.00012612,0.00001720,0.00003158,-
 0.00009043,0.00002976,0.00010653,-0.00002059,-0.00000424,0.00000934,-0
 .00006572,-0.00002844,-0.00001961,0.00000385,0.00000307,-0.00000668,0.
 00001402,-0.00000263,-0.00000239,-0.00000088,-0.00000078,0.00001065,-0
 .00001762,-0.00001428,-0.00003323,-0.00000442,-0.00000295,0.00001444,-
 0.08382633,0.00338193,0.00976296,-0.19695499,0.07500925,0.04881418,-0.
 00023713,0.01267785,0.02681501,-0.00998178,0.03695138,-0.00051189,0.28
 891514,-0.00057492,0.00008086,-0.00010335,-0.00065423,0.00027939,0.000
 05207,0.00006118,0.00042767,0.00017969,-0.00009973,-0.00019860,0.00024
 603,0.00001256,-0.00005990,-0.00019393,0.00008757,0.00023839,0.0002237
 8,-0.00006836,0.00000312,-0.00005884,0.00009319,0.00001933,0.00009909,
 -0.00004666,-0.00001096,-0.00006887,-0.00005293,0.00002269,-0.00003884
 ,0.00003606,0.00001002,0.00000911,-0.00000058,-0.00000940,0.00000528,0
 .00000366,-0.00000035,-0.00000263,0.00003488,-0.00004216,0.00000807,0.
 00003351,-0.00002911,0.00001154,0.00002520,-0.00004084,0.00000611,0.00
 000847,-0.00001573,0.00000364,0.00000191,0.00000198,0.00000061,-0.0000
 1412,0.00000006,-0.00000097,0.00000104,0.00000412,-0.00000379,-0.00000
 351,0.00000295,0.00000327,-0.00000446,0.00000149,0.00000187,-0.0000007
 1,-0.00000238,-0.00000293,0.00000132,0.00000169,-0.00000003,-0.0075328
 6,0.01699255,0.00184185,0.07126874,-0.12214981,-0.03167808,0.01668496,
 -0.00103877,-0.02877272,0.05214982,-0.05958463,-0.00039801,-0.13213468
 ,0.16599547,-0.00027254,-0.00140629,-0.00414446,-0.00005017,0.00204498
 ,-0.00347649,-0.00057659,0.00035130,0.00128817,-0.00061505,-0.00046650
 ,0.00020085,-0.00025159,-0.00003209,-0.00078159,0.00094907,0.00062360,
 0.00131915,-0.00013042,-0.00017168,0.00014655,0.00019023,0.00012080,0.
 00008995,-0.00008516,-0.00006770,-0.00010852,-0.00009653,-0.00004979,-
 0.00002740,0.00006157,0.00004138,0.00001178,-0.00001079,-0.00000482,0.
 00000533,0.00000680,0.00000171,-0.00000673,0.00004602,0.00006847,0.000
 06400,0.00003986,0.00000764,0.00007023,0.00005709,0.00002261,0.0000297
 3,0.00001085,-0.00000383,0.00001468,-0.00000126,-0.00000206,0.00000223
 ,-0.00001798,-0.00000118,-0.00000207,0.00000214,-0.00000148,-0.0000004
 5,-0.00000139,0.00000361,0.00000159,-0.00000408,0.00000194,0.00000225,
 -0.00000280,-0.00000310,-0.00000626,0.,-0.00000215,0.00000257,0.012949
 88,0.00284744,0.01593948,0.04589231,-0.03439938,-0.09983894,0.04351026
 ,-0.03635367,-0.05060317,-0.00757155,0.00978110,0.01495388,-0.09149934
 ,0.05831302,0.12580821,-0.00795147,-0.00698647,-0.00270765,-0.27929017
 ,-0.13751066,0.00457337,-0.00590564,-0.00501380,0.00096875,0.00292601,
 -0.00245587,-0.00140604,0.00030884,0.00068425,0.00011000,0.00137915,-0
 .00214489,0.00281225,-0.00051423,-0.00050854,-0.00005914,0.00022063,0.
 00022084,-0.00005238,-0.00008596,-0.00005945,-0.00008291,-0.00006229,-
 0.00007368,0.00004550,0.00002981,0.00002482,-0.00000542,-0.00001021,-0
 .00000749,0.00000734,0.00000345,0.00000089,-0.00000617,-0.00040508,0.0
 0223126,-0.00010910,-0.00022633,0.00028629,-0.00003809,-0.00003820,-0.
 00001980,0.00002314,-0.00000271,-0.00000581,0.00001158,-0.00000182,-0.
 00000004,0.00000062,-0.00001044,-0.00000284,-0.00000241,0.00000057,0.0
 0000193,-0.00000195,0.00000044,0.00000068,0.00000051,-0.00000120,0.000
 00018,0.00000109,-0.00000208,-0.00000203,-0.00000281,0.00000007,0.0000
 0035,0.00000087,-0.00024452,0.00201069,-0.00063382,0.00090497,-0.00160
 105,0.00142132,-0.00000668,0.00014914,-0.00018728,-0.00025807,-0.00015
 831,-0.00207423,-0.00178061,0.00069681,-0.00235718,0.29139026,-0.00526
 745,0.00106092,-0.00134349,-0.13763510,-0.11276982,0.00062976,-0.00679
 836,-0.00066548,0.00061833,-0.00246764,0.00560400,-0.00157169,0.000645
 98,-0.00052552,0.00006628,-0.00216526,0.00436910,0.00089296,-0.0005844
 3,-0.00006223,-0.00007306,0.00024336,0.00015505,-0.00007455,-0.0000255
 2,-0.00008738,-0.00006730,-0.00006990,-0.00002440,0.00007026,0.0000233
 5,0.00001629,-0.00000127,-0.00001164,0.00000030,0.00000296,0.00000195,
 0.00000078,-0.00000461,0.00223790,-0.00308568,0.00029419,0.00030558,-0
 .00055021,0.00004716,-0.00001416,-0.00001513,0.00001322,-0.00001290,0.
 00000898,0.00001125,-0.00000331,-0.00000212,0.00000106,-0.00000276,-0.
 00000220,-0.00000172,0.00000034,-0.00000101,0.00000078,0.00000212,-0.0
 0000132,-0.00000097,0.00000105,-0.00000021,0.00000044,-0.00000194,-0.0
 0000079,-0.00000212,-0.00000075,-0.00000092,0.00000127,0.00193145,-0.0
 0272811,0.00003870,-0.00151817,0.00289702,0.00007782,0.00013709,-0.000
 20389,-0.00003095,-0.00003693,-0.00260581,-0.00136825,0.00074958,-0.00
 081645,-0.00109628,0.15057874,0.10997431,0.02399344,0.01375190,0.00692
 090,0.00234427,-0.00060927,-0.05947641,-0.02462448,-0.01374847,0.00444
 933,-0.00139363,-0.00154369,-0.00435459,-0.00008939,-0.00010669,-0.001
 32688,0.00230233,0.00058735,-0.00491631,-0.00128390,-0.00086784,0.0003
 3507,0.00022102,0.00027551,-0.00038598,-0.00015363,-0.00014554,-0.0000
 7770,-0.00005574,-0.00003623,0.00012814,0.00004254,0.00002283,-0.00003
 160,-0.00002202,-0.00001111,0.00000897,0.00000388,0.00000052,-0.000010
 61,0.00003531,0.00038678,0.00091834,-0.00004022,0.00002776,0.00008729,
 -0.00003055,-0.00002694,0.00003636,-0.00000784,-0.00000205,0.00001940,
 -0.00000218,-0.00000143,0.00000094,-0.00000837,-0.00000207,-0.00000165
 ,-0.00000010,0.00000320,-0.00000149,0.00000186,-0.00000145,0.00000030,
 0.00000019,-0.00000001,0.00000081,-0.00000348,-0.00000258,-0.00000280,
 0.00000014,0.00000055,0.00000075,-0.00216333,-0.00082892,0.00193213,0.
 00265852,0.00075483,-0.00529675,-0.00028203,-0.00007249,0.00078369,-0.
 00067081,-0.00181587,-0.00093487,-0.00195953,0.00033250,-0.00093329,-0
 .00006805,0.00297091,0.06194775,-0.00737738,-0.00558040,0.02520689,-0.
 00336184,-0.00474650,-0.00095019,-0.00065565,0.00003043,-0.00110466,0.
 00115077,-0.00362658,-0.00297007,0.01044688,0.00306615,-0.01193270,-0.
 11803847,-0.03809344,0.11747673,0.00059676,0.00014063,-0.00040716,0.00
 017906,0.00013460,-0.00006999,-0.00006407,-0.00001648,0.00004879,-0.00
 006832,-0.00003253,0.00017402,0.00001582,-0.00000627,-0.00000498,-0.00
 000300,-0.00000252,-0.00000162,0.00000084,-0.00000012,-0.00000018,-0.0
 0009514,0.00023899,0.00005220,-0.00065913,0.00228002,0.00013932,-0.000
 11112,0.00001161,-0.00021830,0.00001898,-0.00000671,0.00001131,0.00000
 053,-0.00000219,-0.00000136,-0.00000596,0.00000233,-0.00000289,0.00000
 054,-0.00000008,0.00000067,-0.00000183,0.00000127,0.00000205,-0.000001
 48,0.00000103,-0.00000093,-0.00000033,0.,0.00000152,0.00000068,-0.0000
 0045,-0.00000101,0.00104451,0.00258886,0.00059681,-0.00096203,-0.00038
 780,0.00024485,0.00012361,0.00004089,-0.00003099,0.00027112,0.00059057
 ,-0.00027581,0.00036115,-0.00001313,-0.00017164,-0.00036647,-0.0002422
 8,0.00125579,0.11756098,-0.00737341,0.00220632,0.01413080,-0.00466181,
 0.00223660,-0.00081712,0.00003147,-0.00087095,-0.00054142,-0.00374390,
 0.00514723,-0.00228950,0.00468966,0.00549864,-0.00814505,-0.03799627,-
 0.05504872,0.05067017,0.00031884,0.00031957,-0.00039212,0.00014163,0.0
 0017285,-0.00005416,-0.00002579,-0.00003613,0.00000482,-0.00010467,-0.
 00006156,0.00006830,0.00000364,0.00001856,-0.00000143,-0.00000430,-0.0
 0000024,0.00000017,0.00000056,0.00000162,-0.00000201,0.00023500,-0.000
 36726,0.00005908,0.00243742,-0.00328585,0.00052717,-0.00000578,-0.0001
 3773,-0.00014836,0.00000481,-0.00000419,0.00001094,-0.00000156,-0.0000
 0388,-0.00000208,0.00000011,-0.00000110,-0.00000054,-0.00000001,-0.000
 00250,0.00000265,0.00000151,-0.00000008,-0.00000145,0.00000097,-0.0000
 0021,-0.00000049,-0.00000084,-0.00000028,0.00000010,-0.00000056,-0.000
 00216,0.00000044,0.00250718,-0.00196419,0.00055507,-0.00038544,-0.0004
 8417,0.00017504,0.00003780,0.00006857,-0.00003383,0.00003646,-0.000018
 72,-0.00005695,0.00056333,-0.00008269,-0.00016762,-0.00033616,0.000061
 94,0.00070801,0.04363009,0.04664071,-0.00182484,-0.00122485,0.00268375
 ,-0.00029347,-0.00043272,0.00110922,-0.00078792,-0.00038252,0.00014445
 ,-0.00268149,-0.00203430,-0.00231736,0.01288777,0.00586513,-0.01713267
 ,0.11948315,0.05166301,-0.27439240,0.00068133,0.00021760,-0.00095007,0
 .00063975,0.00048252,0.00003962,-0.00015426,-0.00012474,-0.00012753,-0
 .00023492,-0.00017172,0.00020159,0.00006905,0.00004855,0.00000569,-0.0
 0002050,-0.00000697,0.00000772,0.00000656,0.00000246,-0.00000986,0.000
 05405,0.00006460,-0.00004185,-0.00013340,0.00030486,0.00098271,-0.0001
 7224,-0.00009448,-0.00029098,0.00001283,-0.00000910,0.00003572,-0.0000
 0616,-0.00000533,-0.00000145,-0.00002348,-0.00000459,-0.00000731,0.000
 00188,-0.00000087,0.00000025,0.00000073,0.00000238,0.00000165,-0.00000
 238,0.00000097,0.00000083,-0.00000416,-0.00000310,-0.00000416,-0.00000
 045,-0.00000218,0.00000153,-0.00013537,0.00021299,0.00071317,-0.000178
 67,-0.00007202,0.00025370,0.00008772,0.00004989,0.00001351,-0.00000834
 ,0.00002882,-0.00003063,-0.00001457,-0.00001455,-0.00002125,-0.0001817
 2,-0.00010108,0.00018077,-0.12706646,-0.05425864,0.28895162\\-0.000002
 40,-0.00000070,0.00000097,-0.00000642,0.00000228,0.00001252,0.00000450
 ,0.00000545,-0.00000317,-0.00000964,-0.00000468,0.00000209,0.00000727,
 -0.00000166,-0.00003336,0.00000194,-0.00000048,0.00000812,0.00000096,0
 .00001355,0.00001173,-0.00000898,-0.00001117,-0.00001587,-0.00000858,0
 .00001013,0.00001010,0.00000827,0.00000081,0.00000887,0.00000093,-0.00
 000735,-0.00000458,0.00000617,0.00000041,-0.00000222,-0.00000223,0.000
 00045,0.00000091,0.00000282,-0.00000178,0.00000256,-0.00000080,-0.0000
 0044,0.00000622,0.00000541,-0.00000489,-0.00000116,0.00000520,-0.00000
 213,0.00000177,0.00000031,0.00000344,0.00000192,0.00000115,0.00000413,
 -0.00000350,-0.00000259,-0.00000023,0.00000019,0.00000096,0.00000085,0
 .00000054,0.00000097,0.00000113,-0.00000205,0.00000140,-0.00000051,-0.
 00000130,0.00000149,0.00000011,-0.00000158,-0.00002396,-0.00000940,0.0
 0000445,0.00002294,-0.00001656,0.00001836,-0.00000046,0.00000507,-0.00
 002664,0.00000329,0.00001253,0.00000729,-0.00000476,0.00001045,0.00000
 990,-0.00000200,-0.00000711,-0.00001092,-0.00000315,-0.00000169,-0.000
 00214\\\@


 BRING ME INTO THE COMPANY OF THOSE WHO SEEK TRUTH,
 AND DELIVER ME FROM THOSE WHO HAVE FOUND IT.
 Job cpu time:       0 days  2 hours 42 minutes 44.0 seconds.
 File lengths (MBytes):  RWF=    468 Int=      0 D2E=      0 Chk=     11 Scr=      1
 Normal termination of Gaussian 09 at Thu Jul 12 19:38:49 2018.
WARNING: pbs_rusage is deprecated and values produced may not be accurate


=============================================================================
                                     Resource usage:
                                       CPU time:              15:49:34
   JobId:    8352942.r-man2            Elapsed time:          03:59:40
   Project:             q95            Requested time:        36:00:00
   Service Units:     15.98 
                                       Max physical memory:      727MB
                                       Max virtual memory:      1339MB
                                       Requested memory:           0MB

                                       Number of cpus:               4

                                       Max jobfs disk use:       0.5GB
                                       Requested jobfs:         16.0GB
=============================================================================

