 Entering Gaussian System, Link 0=/apps/gaussian/g09e01/g09/g09
 AtFile(1): /home/507/hio507/Basis/6-31pGd.gbs
 Initial command:
 /apps/gaussian/g09e01/g09/l1.exe "/jobfs/local/5892327.r-man2/Gau-11907.inp" -scrdir="/jobfs/local/5892327.r-man2/"
 Entering Link 1 = /apps/gaussian/g09e01/g09/l1.exe PID=     11908.
  
 Copyright (c) 1988,1990,1992,1993,1995,1998,2003,2009,2015,
            Gaussian, Inc.  All Rights Reserved.
  
 This is part of the Gaussian(R) 09 program.  It is based on
 the Gaussian(R) 03 system (copyright 2003, Gaussian, Inc.),
 the Gaussian(R) 98 system (copyright 1998, Gaussian, Inc.),
 the Gaussian(R) 94 system (copyright 1995, Gaussian, Inc.),
 the Gaussian 92(TM) system (copyright 1992, Gaussian, Inc.),
 the Gaussian 90(TM) system (copyright 1990, Gaussian, Inc.),
 the Gaussian 88(TM) system (copyright 1988, Gaussian, Inc.),
 the Gaussian 86(TM) system (copyright 1986, Carnegie Mellon
 University), and the Gaussian 82(TM) system (copyright 1983,
 Carnegie Mellon University). Gaussian is a federally registered
 trademark of Gaussian, Inc.
  
 This software contains proprietary and confidential information,
 including trade secrets, belonging to Gaussian, Inc.
  
 This software is provided under written license and may be
 used, copied, transmitted, or stored only in accord with that
 written license.
  
 The following legend is applicable only to US Government
 contracts under FAR:
  
                    RESTRICTED RIGHTS LEGEND
  
 Use, reproduction and disclosure by the US Government is
 subject to restrictions as set forth in subparagraphs (a)
 and (c) of the Commercial Computer Software - Restricted
 Rights clause in FAR 52.227-19.
  
 Gaussian, Inc.
 340 Quinnipiac St., Bldg. 40, Wallingford CT 06492
  
  
 ---------------------------------------------------------------
 Warning -- This program may not be used in any manner that
 competes with the business of Gaussian, Inc. or will provide
 assistance to any competitor of Gaussian, Inc.  The licensee
 of this program is prohibited from giving any competitor of
 Gaussian, Inc. access to this program.  By using this program,
 the user acknowledges that Gaussian, Inc. is engaged in the
 business of creating and licensing software in the field of
 computational chemistry and represents and warrants to the
 licensee that it is not a competitor of Gaussian, Inc. and that
 it will not use this program in any manner prohibited above.
 ---------------------------------------------------------------
  

 Cite this work as:
 Gaussian 09, Revision E.01,
 M. J. Frisch, G. W. Trucks, H. B. Schlegel, G. E. Scuseria, 
 M. A. Robb, J. R. Cheeseman, G. Scalmani, V. Barone, B. Mennucci, 
 G. A. Petersson, H. Nakatsuji, M. Caricato, X. Li, H. P. Hratchian, 
 A. F. Izmaylov, J. Bloino, G. Zheng, J. L. Sonnenberg, M. Hada, 
 M. Ehara, K. Toyota, R. Fukuda, J. Hasegawa, M. Ishida, T. Nakajima, 
 Y. Honda, O. Kitao, H. Nakai, T. Vreven, J. A. Montgomery, Jr., 
 J. E. Peralta, F. Ogliaro, M. Bearpark, J. J. Heyd, E. Brothers, 
 K. N. Kudin, V. N. Staroverov, T. Keith, R. Kobayashi, J. Normand, 
 K. Raghavachari, A. Rendell, J. C. Burant, S. S. Iyengar, J. Tomasi, 
 M. Cossi, N. Rega, J. M. Millam, M. Klene, J. E. Knox, J. B. Cross, 
 V. Bakken, C. Adamo, J. Jaramillo, R. Gomperts, R. E. Stratmann, 
 O. Yazyev, A. J. Austin, R. Cammi, C. Pomelli, J. W. Ochterski, 
 R. L. Martin, K. Morokuma, V. G. Zakrzewski, G. A. Voth, 
 P. Salvador, J. J. Dannenberg, S. Dapprich, A. D. Daniels, 
 O. Farkas, J. B. Foresman, J. V. Ortiz, J. Cioslowski, 
 and D. J. Fox, Gaussian, Inc., Wallingford CT, 2013.
 
 ******************************************
 Gaussian 09:  ES64L-G09RevE.01 30-Nov-2015
                19-Feb-2019 
 ******************************************
 %chk=4OCF3_EtO.M062X_6-31pGd_opt.chk
 %mem=196608000
 %nproc=8
 Will use up to    8 processors via shared memory.
 ----------------------------------------------------------------------
 # M062X/Gen 6D SCF=Tight INT(grid=ultrafine) OPT IOP(2/17=4) maxdisk=2
 684354560
 ----------------------------------------------------------------------
 1/14=-1,18=20,19=15,26=4,38=1/1,3;
 2/9=110,12=2,17=4,18=5,40=1/2;
 3/5=7,8=2,11=2,16=1,25=1,30=1,71=1,74=-55,75=-5/1,2,3;
 4//1;
 5/5=2,32=2,38=5/2;
 6/7=2,8=2,9=2,10=2,28=1/1;
 7//1,2,3,16;
 1/14=-1,18=20,19=15,26=4/3(2);
 2/9=110,17=4/2;
 99//99;
 2/9=110,17=4/2;
 3/5=7,6=1,8=2,11=2,16=1,25=1,30=1,71=1,74=-55,75=-5,82=7/1,2,3;
 4/5=5,16=3,69=1/1;
 5/5=2,32=2,38=5/2;
 7//1,2,3,16;
 1/14=-1,18=20,19=15,26=4/3(-5);
 2/9=110,17=4/2;
 6/7=2,8=2,9=2,10=2,19=2,28=1/1;
 99/9=1/99;
 ---------------------------
 4OCF3_EtO.M062X_6-31pGd_opt
 ---------------------------
 Symbolic Z-matrix:
 Charge = -1 Multiplicity = 1
 C                    -4.08348   3.87981  -1.06576 
 C                    -4.04718   2.49097  -1.05819 
 C                    -2.9383    1.85692  -0.50471 
 C                    -1.87324   2.58988   0.03452 
 C                    -1.94317   3.99013   0.02583 
 C                    -3.04611   4.63004  -0.53017 
 N                    -0.81511   1.87542   0.61418 
 C                     0.50339   2.27661   0.64339 
 N                     1.3443    1.37329   1.18782 
 O                     0.89608   3.3735    0.20005 
 C                     2.76274   1.66191   1.33626 
 C                     3.47094   0.49257   2.00517 
 C                     4.9633    0.76721   2.16051 
 H                    -2.8975    0.77116  -0.49665 
 H                    -1.14871   4.58021   0.4637 
 H                    -0.98576   0.87109   0.77422 
 H                     0.96443   0.52883   1.6331 
 H                     2.89979   2.57244   1.93406 
 H                     3.20458   1.85201   0.3506 
 H                     3.31546  -0.41426   1.40757 
 H                     3.01866   0.31031   2.988 
 H                     5.4352    0.92932   1.18502 
 H                     5.47004  -0.07313   2.64435 
 H                     5.13541   1.66106   2.77044 
 O                    -5.12862   4.63345  -1.63148 
 C                    -6.3555    4.09694  -1.74208 
 F                    -7.20081   5.07274  -2.06747 
 F                    -6.43189   3.15955  -2.7019 
 F                    -6.78479   3.53027  -0.60643 
 H                    -4.84913   1.89145  -1.47411 
 H                    -3.11058   5.71373  -0.53956 
 O                    -1.27669  -0.94261   0.95015 
 O                     0.33817  -1.02645   2.49303 
 C                    -0.60258  -1.55472   1.82686 
 C                    -0.91872  -3.0185    2.11991 
 C                    -2.04289  -3.6168    1.28655 
 H                    -1.14951  -3.08629   3.18997 
 H                     0.01216  -3.58045   1.97759 
 H                    -2.98285  -3.07906   1.44465 
 H                    -2.2037   -4.66484   1.55865 
 H                    -1.80847  -3.57736   0.21831 
 
 Add virtual bond connecting atoms O32        and H16        Dist= 3.49D+00.
 Add virtual bond connecting atoms O33        and H17        Dist= 3.56D+00.

 GradGradGradGradGradGradGradGradGradGradGradGradGradGradGradGradGradGrad
 Berny optimization.
 Initialization pass.
                           ----------------------------
                           !    Initial Parameters    !
                           ! (Angstroms and Degrees)  !
 --------------------------                            --------------------------
 ! Name  Definition              Value          Derivative Info.                !
 --------------------------------------------------------------------------------
 ! R1    R(1,2)                  1.3893         estimate D2E/DX2                !
 ! R2    R(1,6)                  1.3877         estimate D2E/DX2                !
 ! R3    R(1,25)                 1.4072         estimate D2E/DX2                !
 ! R4    R(2,3)                  1.3921         estimate D2E/DX2                !
 ! R5    R(2,30)                 1.0842         estimate D2E/DX2                !
 ! R6    R(3,4)                  1.4008         estimate D2E/DX2                !
 ! R7    R(3,14)                 1.0866         estimate D2E/DX2                !
 ! R8    R(4,5)                  1.402          estimate D2E/DX2                !
 ! R9    R(4,7)                  1.4022         estimate D2E/DX2                !
 ! R10   R(5,6)                  1.3911         estimate D2E/DX2                !
 ! R11   R(5,15)                 1.0822         estimate D2E/DX2                !
 ! R12   R(6,31)                 1.0856         estimate D2E/DX2                !
 ! R13   R(7,8)                  1.3785         estimate D2E/DX2                !
 ! R14   R(7,16)                 1.0312         estimate D2E/DX2                !
 ! R15   R(8,9)                  1.3489         estimate D2E/DX2                !
 ! R16   R(8,10)                 1.2466         estimate D2E/DX2                !
 ! R17   R(9,11)                 1.4551         estimate D2E/DX2                !
 ! R18   R(9,17)                 1.0275         estimate D2E/DX2                !
 ! R19   R(11,12)                1.522          estimate D2E/DX2                !
 ! R20   R(11,18)                1.0978         estimate D2E/DX2                !
 ! R21   R(11,19)                1.0968         estimate D2E/DX2                !
 ! R22   R(12,13)                1.5254         estimate D2E/DX2                !
 ! R23   R(12,20)                1.0971         estimate D2E/DX2                !
 ! R24   R(12,21)                1.0971         estimate D2E/DX2                !
 ! R25   R(13,22)                1.0957         estimate D2E/DX2                !
 ! R26   R(13,23)                1.0941         estimate D2E/DX2                !
 ! R27   R(13,24)                1.0957         estimate D2E/DX2                !
 ! R28   R(16,32)                1.8453         estimate D2E/DX2                !
 ! R29   R(17,33)                1.8843         estimate D2E/DX2                !
 ! R30   R(25,26)                1.3436         estimate D2E/DX2                !
 ! R31   R(26,27)                1.3314         estimate D2E/DX2                !
 ! R32   R(26,28)                1.3438         estimate D2E/DX2                !
 ! R33   R(26,29)                1.3398         estimate D2E/DX2                !
 ! R34   R(32,34)                1.264          estimate D2E/DX2                !
 ! R35   R(33,34)                1.268          estimate D2E/DX2                !
 ! R36   R(34,35)                1.5259         estimate D2E/DX2                !
 ! R37   R(35,36)                1.5219         estimate D2E/DX2                !
 ! R38   R(35,37)                1.0968         estimate D2E/DX2                !
 ! R39   R(35,38)                1.0966         estimate D2E/DX2                !
 ! R40   R(36,39)                1.0944         estimate D2E/DX2                !
 ! R41   R(36,40)                1.0947         estimate D2E/DX2                !
 ! R42   R(36,41)                1.0944         estimate D2E/DX2                !
 ! A1    A(2,1,6)              121.2507         estimate D2E/DX2                !
 ! A2    A(2,1,25)             123.845          estimate D2E/DX2                !
 ! A3    A(6,1,25)             114.8854         estimate D2E/DX2                !
 ! A4    A(1,2,3)              118.5728         estimate D2E/DX2                !
 ! A5    A(1,2,30)             122.0957         estimate D2E/DX2                !
 ! A6    A(3,2,30)             119.3302         estimate D2E/DX2                !
 ! A7    A(2,3,4)              121.3558         estimate D2E/DX2                !
 ! A8    A(2,3,14)             119.2078         estimate D2E/DX2                !
 ! A9    A(4,3,14)             119.4356         estimate D2E/DX2                !
 ! A10   A(3,4,5)              118.833          estimate D2E/DX2                !
 ! A11   A(3,4,7)              117.7927         estimate D2E/DX2                !
 ! A12   A(5,4,7)              123.3052         estimate D2E/DX2                !
 ! A13   A(4,5,6)              120.0964         estimate D2E/DX2                !
 ! A14   A(4,5,15)             120.3624         estimate D2E/DX2                !
 ! A15   A(6,5,15)             119.5349         estimate D2E/DX2                !
 ! A16   A(1,6,5)              119.8844         estimate D2E/DX2                !
 ! A17   A(1,6,31)             119.4661         estimate D2E/DX2                !
 ! A18   A(5,6,31)             120.6455         estimate D2E/DX2                !
 ! A19   A(4,7,8)              125.6095         estimate D2E/DX2                !
 ! A20   A(4,7,16)             115.8193         estimate D2E/DX2                !
 ! A21   A(8,7,16)             116.0042         estimate D2E/DX2                !
 ! A22   A(7,8,9)              114.2006         estimate D2E/DX2                !
 ! A23   A(7,8,10)             123.3572         estimate D2E/DX2                !
 ! A24   A(9,8,10)             122.4408         estimate D2E/DX2                !
 ! A25   A(8,9,11)             121.0675         estimate D2E/DX2                !
 ! A26   A(8,9,17)             119.6588         estimate D2E/DX2                !
 ! A27   A(11,9,17)            118.6334         estimate D2E/DX2                !
 ! A28   A(9,11,12)            110.2453         estimate D2E/DX2                !
 ! A29   A(9,11,18)            109.9833         estimate D2E/DX2                !
 ! A30   A(9,11,19)            109.5974         estimate D2E/DX2                !
 ! A31   A(12,11,18)           109.8661         estimate D2E/DX2                !
 ! A32   A(12,11,19)           109.9196         estimate D2E/DX2                !
 ! A33   A(18,11,19)           107.177          estimate D2E/DX2                !
 ! A34   A(11,12,13)           111.2032         estimate D2E/DX2                !
 ! A35   A(11,12,20)           109.2513         estimate D2E/DX2                !
 ! A36   A(11,12,21)           109.24           estimate D2E/DX2                !
 ! A37   A(13,12,20)           110.0569         estimate D2E/DX2                !
 ! A38   A(13,12,21)           109.9986         estimate D2E/DX2                !
 ! A39   A(20,12,21)           106.9913         estimate D2E/DX2                !
 ! A40   A(12,13,22)           110.9369         estimate D2E/DX2                !
 ! A41   A(12,13,23)           111.0928         estimate D2E/DX2                !
 ! A42   A(12,13,24)           110.9314         estimate D2E/DX2                !
 ! A43   A(22,13,23)           107.9305         estimate D2E/DX2                !
 ! A44   A(22,13,24)           107.8931         estimate D2E/DX2                !
 ! A45   A(23,13,24)           107.9177         estimate D2E/DX2                !
 ! A46   A(1,25,26)            119.8285         estimate D2E/DX2                !
 ! A47   A(25,26,27)           107.8908         estimate D2E/DX2                !
 ! A48   A(25,26,28)           112.9071         estimate D2E/DX2                !
 ! A49   A(25,26,29)           113.0594         estimate D2E/DX2                !
 ! A50   A(27,26,28)           107.4938         estimate D2E/DX2                !
 ! A51   A(27,26,29)           108.2832         estimate D2E/DX2                !
 ! A52   A(28,26,29)           106.988          estimate D2E/DX2                !
 ! A53   A(16,32,34)           117.2592         estimate D2E/DX2                !
 ! A54   A(17,33,34)           110.5298         estimate D2E/DX2                !
 ! A55   A(32,34,33)           123.9383         estimate D2E/DX2                !
 ! A56   A(32,34,35)           119.16           estimate D2E/DX2                !
 ! A57   A(33,34,35)           116.9017         estimate D2E/DX2                !
 ! A58   A(34,35,36)           115.1497         estimate D2E/DX2                !
 ! A59   A(34,35,37)           106.8734         estimate D2E/DX2                !
 ! A60   A(34,35,38)           106.9042         estimate D2E/DX2                !
 ! A61   A(36,35,37)           110.7635         estimate D2E/DX2                !
 ! A62   A(36,35,38)           110.763          estimate D2E/DX2                !
 ! A63   A(37,35,38)           105.877          estimate D2E/DX2                !
 ! A64   A(35,36,39)           111.2326         estimate D2E/DX2                !
 ! A65   A(35,36,40)           110.4131         estimate D2E/DX2                !
 ! A66   A(35,36,41)           111.2298         estimate D2E/DX2                !
 ! A67   A(39,36,40)           107.9599         estimate D2E/DX2                !
 ! A68   A(39,36,41)           107.8955         estimate D2E/DX2                !
 ! A69   A(40,36,41)           107.975          estimate D2E/DX2                !
 ! A70   L(7,16,32,2,-1)       178.8937         estimate D2E/DX2                !
 ! A71   L(9,17,33,1,-1)       182.4005         estimate D2E/DX2                !
 ! A72   L(7,16,32,2,-2)       176.4761         estimate D2E/DX2                !
 ! A73   L(9,17,33,1,-2)       180.8157         estimate D2E/DX2                !
 ! D1    D(6,1,2,3)             -0.3209         estimate D2E/DX2                !
 ! D2    D(6,1,2,30)          -179.9039         estimate D2E/DX2                !
 ! D3    D(25,1,2,3)           178.0175         estimate D2E/DX2                !
 ! D4    D(25,1,2,30)           -1.5656         estimate D2E/DX2                !
 ! D5    D(2,1,6,5)              0.0878         estimate D2E/DX2                !
 ! D6    D(2,1,6,31)          -179.1915         estimate D2E/DX2                !
 ! D7    D(25,1,6,5)          -178.3908         estimate D2E/DX2                !
 ! D8    D(25,1,6,31)            2.3298         estimate D2E/DX2                !
 ! D9    D(2,1,25,26)           25.2114         estimate D2E/DX2                !
 ! D10   D(6,1,25,26)         -156.3546         estimate D2E/DX2                !
 ! D11   D(1,2,3,4)             -0.1165         estimate D2E/DX2                !
 ! D12   D(1,2,3,14)          -179.7783         estimate D2E/DX2                !
 ! D13   D(30,2,3,4)           179.4784         estimate D2E/DX2                !
 ! D14   D(30,2,3,14)           -0.1835         estimate D2E/DX2                !
 ! D15   D(2,3,4,5)              0.7707         estimate D2E/DX2                !
 ! D16   D(2,3,4,7)            177.8475         estimate D2E/DX2                !
 ! D17   D(14,3,4,5)          -179.5681         estimate D2E/DX2                !
 ! D18   D(14,3,4,7)            -2.4914         estimate D2E/DX2                !
 ! D19   D(3,4,5,6)             -0.9992         estimate D2E/DX2                !
 ! D20   D(3,4,5,15)           178.0831         estimate D2E/DX2                !
 ! D21   D(7,4,5,6)           -177.9048         estimate D2E/DX2                !
 ! D22   D(7,4,5,15)             1.1775         estimate D2E/DX2                !
 ! D23   D(3,4,7,8)            148.9486         estimate D2E/DX2                !
 ! D24   D(3,4,7,16)           -12.0653         estimate D2E/DX2                !
 ! D25   D(5,4,7,8)            -34.1156         estimate D2E/DX2                !
 ! D26   D(5,4,7,16)           164.8704         estimate D2E/DX2                !
 ! D27   D(4,5,6,1)              0.5837         estimate D2E/DX2                !
 ! D28   D(4,5,6,31)           179.8544         estimate D2E/DX2                !
 ! D29   D(15,5,6,1)          -178.5062         estimate D2E/DX2                !
 ! D30   D(15,5,6,31)            0.7645         estimate D2E/DX2                !
 ! D31   D(4,7,8,9)           -176.0972         estimate D2E/DX2                !
 ! D32   D(4,7,8,10)             3.4707         estimate D2E/DX2                !
 ! D33   D(16,7,8,9)           -15.1142         estimate D2E/DX2                !
 ! D34   D(16,7,8,10)          164.4537         estimate D2E/DX2                !
 ! D35   D(4,7,32,34)         -157.1066         estimate D2E/DX2                !
 ! D36   D(8,7,32,34)           42.135          estimate D2E/DX2                !
 ! D37   D(7,8,9,11)          -177.8391         estimate D2E/DX2                !
 ! D38   D(7,8,9,17)            -7.1367         estimate D2E/DX2                !
 ! D39   D(10,8,9,11)            2.5885         estimate D2E/DX2                !
 ! D40   D(10,8,9,17)          173.291          estimate D2E/DX2                !
 ! D41   D(8,9,11,12)          178.66           estimate D2E/DX2                !
 ! D42   D(8,9,11,18)           57.3596         estimate D2E/DX2                !
 ! D43   D(8,9,11,19)          -60.2235         estimate D2E/DX2                !
 ! D44   D(17,9,11,12)           7.8644         estimate D2E/DX2                !
 ! D45   D(17,9,11,18)        -113.436          estimate D2E/DX2                !
 ! D46   D(17,9,11,19)         128.9809         estimate D2E/DX2                !
 ! D47   D(8,9,33,34)           42.8625         estimate D2E/DX2                !
 ! D48   D(11,9,33,34)        -146.7686         estimate D2E/DX2                !
 ! D49   D(9,11,12,13)         179.4954         estimate D2E/DX2                !
 ! D50   D(9,11,12,20)          57.8185         estimate D2E/DX2                !
 ! D51   D(9,11,12,21)         -58.9084         estimate D2E/DX2                !
 ! D52   D(18,11,12,13)        -59.1345         estimate D2E/DX2                !
 ! D53   D(18,11,12,20)        179.1886         estimate D2E/DX2                !
 ! D54   D(18,11,12,21)         62.4617         estimate D2E/DX2                !
 ! D55   D(19,11,12,13)         58.5714         estimate D2E/DX2                !
 ! D56   D(19,11,12,20)        -63.1055         estimate D2E/DX2                !
 ! D57   D(19,11,12,21)       -179.8325         estimate D2E/DX2                !
 ! D58   D(11,12,13,22)        -60.12           estimate D2E/DX2                !
 ! D59   D(11,12,13,23)        179.822          estimate D2E/DX2                !
 ! D60   D(11,12,13,24)         59.7839         estimate D2E/DX2                !
 ! D61   D(20,12,13,22)         61.0863         estimate D2E/DX2                !
 ! D62   D(20,12,13,23)        -58.9717         estimate D2E/DX2                !
 ! D63   D(20,12,13,24)       -179.0099         estimate D2E/DX2                !
 ! D64   D(21,12,13,22)        178.7273         estimate D2E/DX2                !
 ! D65   D(21,12,13,23)         58.6692         estimate D2E/DX2                !
 ! D66   D(21,12,13,24)        -61.3689         estimate D2E/DX2                !
 ! D67   D(1,25,26,27)         168.673          estimate D2E/DX2                !
 ! D68   D(1,25,26,28)         -72.6854         estimate D2E/DX2                !
 ! D69   D(1,25,26,29)          48.9568         estimate D2E/DX2                !
 ! D70   D(16,32,34,33)         -6.9538         estimate D2E/DX2                !
 ! D71   D(16,32,34,35)        173.0949         estimate D2E/DX2                !
 ! D72   D(17,33,34,32)        -18.9635         estimate D2E/DX2                !
 ! D73   D(17,33,34,35)        160.9889         estimate D2E/DX2                !
 ! D74   D(32,34,35,36)          0.6565         estimate D2E/DX2                !
 ! D75   D(32,34,35,37)       -122.8246         estimate D2E/DX2                !
 ! D76   D(32,34,35,38)        124.1605         estimate D2E/DX2                !
 ! D77   D(33,34,35,36)       -179.2983         estimate D2E/DX2                !
 ! D78   D(33,34,35,37)         57.2206         estimate D2E/DX2                !
 ! D79   D(33,34,35,38)        -55.7942         estimate D2E/DX2                !
 ! D80   D(34,35,36,39)        -60.1803         estimate D2E/DX2                !
 ! D81   D(34,35,36,40)        179.9805         estimate D2E/DX2                !
 ! D82   D(34,35,36,41)         60.1242         estimate D2E/DX2                !
 ! D83   D(37,35,36,39)         61.2144         estimate D2E/DX2                !
 ! D84   D(37,35,36,40)        -58.6249         estimate D2E/DX2                !
 ! D85   D(37,35,36,41)       -178.4812         estimate D2E/DX2                !
 ! D86   D(38,35,36,39)        178.3847         estimate D2E/DX2                !
 ! D87   D(38,35,36,40)         58.5454         estimate D2E/DX2                !
 ! D88   D(38,35,36,41)        -61.3109         estimate D2E/DX2                !
 --------------------------------------------------------------------------------
 Trust Radius=3.00D-01 FncErr=1.00D-07 GrdErr=1.00D-06
 Number of steps in this run=    213 maximum allowed number of steps=    246.
 GradGradGradGradGradGradGradGradGradGradGradGradGradGradGradGradGradGrad

                          Input orientation:                          
 ---------------------------------------------------------------------
 Center     Atomic      Atomic             Coordinates (Angstroms)
 Number     Number       Type             X           Y           Z
 ---------------------------------------------------------------------
      1          6           0       -4.083480    3.879810   -1.065755
      2          6           0       -4.047175    2.490968   -1.058186
      3          6           0       -2.938297    1.856924   -0.504713
      4          6           0       -1.873237    2.589882    0.034518
      5          6           0       -1.943170    3.990125    0.025834
      6          6           0       -3.046110    4.630042   -0.530173
      7          7           0       -0.815112    1.875419    0.614176
      8          6           0        0.503390    2.276609    0.643395
      9          7           0        1.344297    1.373295    1.187817
     10          8           0        0.896077    3.373496    0.200049
     11          6           0        2.762745    1.661911    1.336256
     12          6           0        3.470942    0.492566    2.005169
     13          6           0        4.963300    0.767214    2.160513
     14          1           0       -2.897503    0.771157   -0.496654
     15          1           0       -1.148710    4.580215    0.463699
     16          1           0       -0.985761    0.871088    0.774222
     17          1           0        0.964435    0.528831    1.633100
     18          1           0        2.899787    2.572436    1.934056
     19          1           0        3.204583    1.852014    0.350595
     20          1           0        3.315462   -0.414258    1.407566
     21          1           0        3.018664    0.310310    2.987998
     22          1           0        5.435204    0.929316    1.185017
     23          1           0        5.470037   -0.073127    2.644346
     24          1           0        5.135412    1.661065    2.770444
     25          8           0       -5.128621    4.633449   -1.631484
     26          6           0       -6.355500    4.096941   -1.742080
     27          9           0       -7.200807    5.072739   -2.067472
     28          9           0       -6.431887    3.159551   -2.701903
     29          9           0       -6.784789    3.530267   -0.606426
     30          1           0       -4.849125    1.891447   -1.474108
     31          1           0       -3.110583    5.713728   -0.539558
     32          8           0       -1.276689   -0.942611    0.950148
     33          8           0        0.338170   -1.026445    2.493031
     34          6           0       -0.602581   -1.554725    1.826864
     35          6           0       -0.918719   -3.018503    2.119913
     36          6           0       -2.042888   -3.616801    1.286551
     37          1           0       -1.149510   -3.086293    3.189974
     38          1           0        0.012157   -3.580445    1.977594
     39          1           0       -2.982849   -3.079057    1.444646
     40          1           0       -2.203701   -4.664837    1.558646
     41          1           0       -1.808467   -3.577363    0.218314
 ---------------------------------------------------------------------
                    Distance matrix (angstroms):
                    1          2          3          4          5
     1  C    0.000000
     2  C    1.389338   0.000000
     3  C    2.391293   1.392105   0.000000
     4  C    2.785623   2.435118   1.400840   0.000000
     5  C    2.405133   2.801680   2.412946   1.402015   0.000000
     6  C    1.387744   2.420035   2.775330   2.420074   1.391084
     7  N    4.185928   3.690790   2.400036   1.402173   2.467923
     8  C    5.150809   4.863021   3.652328   2.473303   3.050111
     9  N    6.389208   5.946570   4.630245   3.628044   4.359523
    10  O    5.162810   5.176655   4.183194   2.882803   2.910654
    11  C    7.586800   7.266065   5.994087   4.903873   5.411416
    12  C    8.830249   8.360613   7.017074   6.069798   6.742648
    13  C   10.096599   9.722141   8.409884   7.387842   7.914755
    14  H    3.375521   2.143551   1.086563   2.153840   3.397867
    15  H    3.382702   3.883579   3.399523   2.161147   1.082173
    16  H    4.694017   3.918417   2.533761   2.070997   3.347404
    17  H    6.632822   6.017411   4.643855   3.854319   4.797710
    18  H    7.711947   7.564420   6.367322   5.137150   5.394941
    19  H    7.696355   7.414913   6.202141   5.140876   5.583579
    20  H    8.905094   8.290278   6.922759   6.150830   6.997213
    21  H    8.922707   8.429292   7.076471   6.152251   6.850931
    22  H   10.216494   9.868446   8.592506   7.582508   8.071720
    23  H   10.984546  10.529039   9.183777   8.235684   8.849986
    24  H   10.228746   9.983339   8.714918   7.580841   7.941268
    25  O    1.407246   2.467473   3.711634   4.189184   3.647968
    26  C    2.380469   2.893997   4.269195   5.051555   4.754533
    27  F    3.484859   4.198761   5.563513   6.242271   5.761661
    28  F    2.951400   2.972483   4.327776   5.347318   5.317798
    29  F    2.762288   2.962897   4.195941   5.041675   4.904335
    30  H    2.169459   1.084223   2.142938   3.408765   3.885724
    31  H    2.141651   3.395934   3.860808   3.408666   2.157158
    32  O    5.932765   4.847522   3.565804   3.697669   5.062652
    33  O    7.502486   6.649405   5.294858   4.900247   6.038009
    34  C    7.072346   6.046186   4.746700   4.690931   5.982161
    35  C    8.231094   7.088146   5.893822   6.059204   7.386171
    36  C    8.117669   6.842500   5.828555   6.333979   7.711335
    37  H    8.674445   7.586116   6.425407   6.534496   7.792135
    38  H    9.038343   7.909248   6.665734   6.738189   8.058921
    39  H    7.479261   6.198559   5.307155   5.946139   7.284730
    40  H    9.134115   7.839117   6.879713   7.420453   8.793507
    41  H    7.901516   6.592868   5.597389   6.170323   7.571134
                    6          7          8          9         10
     6  C    0.000000
     7  N    3.724894   0.000000
     8  C    4.417562   1.378497   0.000000
     9  N    5.730058   2.290030   1.348887   0.000000
    10  O    4.201544   2.311688   1.246563   2.275388   0.000000
    11  C    6.784994   3.656233   2.441842   1.455104   2.775776
    12  C    8.125185   4.713534   3.720699   2.442615   4.264756
    13  C    9.290419   6.083529   4.946789   3.796137   5.213293
    14  H    3.861890   2.605704   3.890010   4.603573   4.652829
    15  H    2.142519   2.729442   2.840480   4.125987   2.388899
    16  H    4.480649   1.031221   2.051872   2.419182   3.183243
    17  H    6.130591   2.453220   2.060778   1.027468   3.185973
    18  H    6.757208   4.003547   2.737889   2.101039   2.768272
    19  H    6.896692   4.028395   2.749992   2.095419   2.768893
    20  H    8.346819   4.788917   3.966418   2.670043   4.653880
    21  H    8.235235   4.773095   3.961073   2.678450   4.654153
    22  H    9.411160   6.347237   5.141142   4.114930   5.248604
    23  H   10.233383   6.886328   5.847448   4.608182   6.226950
    24  H    9.308394   6.332785   5.134088   4.118261   5.245122
    25  O    2.355791   5.590715   6.515315   7.776615   6.421759
    26  C    3.564404   6.417399   7.486553   8.676947   7.541924
    27  F    4.452054   7.628316   8.632601   9.864157   8.578381
    28  F    4.282784   6.647822   7.750398   8.876354   7.884552
    29  F    3.897825   6.313909   7.500085   8.599644   7.724681
    30  H    3.412005   4.542516   5.769020   6.761124   6.164951
    31  H    1.085643   4.618757   5.125814   6.455164   4.698621
    32  O    6.031307   2.875278   3.691363   3.505634   4.890025
    33  O    7.251824   3.644306   3.789277   2.911120   4.992845
    34  C    7.055338   3.644402   4.159675   3.573795   5.401839
    35  C    8.369527   5.121371   5.678091   5.027716   6.916430
    36  C    8.503962   5.667804   6.452091   6.031901   7.660435
    37  H    8.773733   5.600459   6.162618   5.487770   7.406277
    38  H    9.113396   5.684165   6.027146   5.190172   7.231755
    39  H    7.958274   5.471343   6.440422   6.213983   7.630893
    40  H    9.563869   6.752419   7.506645   7.013191   8.721767
    41  H    8.333876   5.556644   6.308278   5.948854   7.458508
                   11         12         13         14         15
    11  C    0.000000
    12  C    1.521958   0.000000
    13  C    2.514424   1.525351   0.000000
    14  H    6.015930   6.847907   8.297758   0.000000
    15  H    4.957553   6.358160   7.401002   4.299939   0.000000
    16  H    3.872025   4.639042   6.109331   2.297797   3.725668
    17  H    2.146137   2.534232   4.040534   4.416915   4.716629
    18  H    1.097816   2.158039   2.751036   6.539231   4.752206
    19  H    1.096762   2.157930   2.746940   6.254722   5.138778
    20  H    2.149665   1.097103   2.162909   6.605468   6.764945
    21  H    2.149552   1.097144   2.162198   6.881586   6.478518
    22  H    2.775177   2.172953   1.095702   8.502179   7.562889
    23  H    3.471439   2.173692   1.094097   8.977440   8.379536
    24  H    2.772444   2.172900   1.095723   8.717431   7.302925
    25  O    8.939305  10.213944  11.453118   4.602502   4.498035
    26  C    9.927130  11.117210  12.427089   4.956779   5.675356
    27  F   11.067587  12.306528  13.578620   6.284067   6.578547
    28  F   10.153369  11.284297  12.618108   4.802022   6.320702
    29  F    9.920694  11.010363  12.381762   4.768200   5.832062
    30  H    8.117352   9.126103  10.524166   2.453425   4.967659
    31  H    7.377797   8.777964   9.846115   4.947348   2.477967
    32  O    4.821788   5.070780   6.582245   2.767179   5.545685
    33  O    3.800520   3.515632   4.971882   4.758064   6.145213
    34  C    4.681118   4.562542   6.040013   4.009380   6.308246
    35  C    6.006128   5.622268   6.995102   5.012338   7.780517
    36  C    7.138724   6.914162   8.310841   4.812938   8.286599
    37  H    6.425531   5.963269   7.299024   5.614857   8.136825
    38  H    5.954775   5.343536   6.591617   5.790032   8.380684
    39  H    7.449857   7.397439   8.857062   4.312781   7.936673
    40  H    8.046291   7.681131   9.013065   5.852833   9.369253
    41  H    7.042426   6.901401   8.276733   4.539472   8.187892
                   16         17         18         19         20
    16  H    0.000000
    17  H    2.158257   0.000000
    18  H    4.397418   2.830633   0.000000
    19  H    4.324426   2.900671   1.766142   0.000000
    20  H    4.533625   2.543150   3.061098   2.503092   0.000000
    21  H    4.609848   2.470498   2.498428   3.060606   1.763761
    22  H    6.434355   4.510980   3.112754   2.554075   2.519528
    23  H    6.787211   4.656761   3.756288   3.754962   2.507626
    24  H    6.486734   4.469067   2.555027   3.101650   3.078412
    25  O    6.091476   8.039324   9.023093   9.005960  10.296491
    26  C    6.750704   8.815026  10.074643  10.040626  11.126486
    27  F    8.022213  10.050498  11.148352  11.157611  12.360217
    28  F    6.854254   8.967636  10.436329  10.192593  11.165601
    29  F    6.527339   8.606658  10.057958  10.174477  11.028623
    30  H    4.584943   6.731192   8.492642   8.257924   8.959956
    31  H    5.449042   6.943297   7.218798   7.455638   9.090521
    32  O    1.845289   2.766623   5.546764   5.315185   4.645023
    33  O    2.882313   1.884297   4.452671   4.592590   3.227581
    34  C    2.671975   2.614248   5.414013   5.317870   4.102139
    35  C    4.116344   4.045595   6.773045   6.622239   5.021735
    36  C    4.639089   5.133260   7.947073   7.636747   6.243625
    37  H    4.639346   4.467856   7.070739   7.169873   5.500248
    38  H    4.718060   4.232217   6.796930   6.507713   4.611020
    39  H    4.476770   5.351021   8.172167   7.987285   6.838951
    40  H    5.722339   6.084145   8.863671   8.554431   6.967885
    41  H    4.557916   5.152808   7.932935   7.390961   6.137932
                   21         22         23         24         25
    21  H    0.000000
    22  H    3.077917   0.000000
    23  H    2.504865   1.770804   0.000000
    24  H    2.520415   1.771697   1.770677   0.000000
    25  O   10.315397  11.543296  12.359860  11.556921   0.000000
    26  C   11.161862  12.554777  13.284334  12.583220   1.343616
    27  F   12.356218  13.689975  14.464836  13.683101   2.162641
    28  F   11.393246  12.685028  13.442037  12.883883   2.239793
    29  F   10.926835  12.621507  13.180772  12.529500   2.238448
    30  H    9.182184  10.666024  11.283010  10.851741   2.760700
    31  H    8.899902   9.944608  10.828296   9.766096   2.536096
    32  O    4.916574   6.972000   7.010322   7.155952   7.252218
    33  O    3.035944   5.613881   5.221855   5.505742   8.884359
    34  C    4.235565   6.560280   6.303975   6.645014   8.410631
    35  C    5.228533   7.538677   7.054536   7.679456   9.505189
    36  C    6.628456   8.752106   8.416964   9.032486   9.279187
    37  H    5.380649   7.968904   7.293510   7.887563   9.933489
    38  H    5.019759   7.097574   6.521832   7.372230  10.340267
    39  H    7.063137   9.327276   9.051308   9.493822   8.576111
    40  H    7.353111   9.475602   9.008264   9.764634  10.256229
    41  H    6.788692   8.585770   8.434567   9.064875   9.047797
                   26         27         28         29         30
    26  C    0.000000
    27  F    1.331393   0.000000
    28  F    1.343798   2.157320   0.000000
    29  F    1.339820   2.164936   2.157080   0.000000
    30  H    2.684246   4.000389   2.370802   2.680559   0.000000
    31  H    3.819626   4.413085   4.714935   4.274549   4.301831
    32  O    7.644573   8.965805   7.532681   7.264209   5.164417
    33  O    9.433476  10.716082   9.504923   9.005932   7.152644
    34  C    8.819000  10.130435   8.758706   8.366465   6.387930
    35  C    9.752082  11.066482   9.581924   9.204895   7.243803
    36  C    9.342004  10.647146   9.005000   8.783483   6.770303
    37  H   10.150188  11.438039  10.081085   9.484086   7.760071
    38  H   10.645435  11.969420  10.433165  10.170441   8.092461
    39  H    8.545463   9.827407   8.246815   7.895873   6.058715
    40  H   10.242118  11.529970   9.861586   9.635022   7.692901
    41  H    9.133104  10.446359   8.676963   8.715640   6.482112
                   31         32         33         34         35
    31  H    0.000000
    32  O    7.063232   0.000000
    33  O    8.156006   2.235013   0.000000
    34  C    8.044902   1.264015   1.268019   0.000000
    35  C    9.387700   2.409526   2.384802   1.525931   0.000000
    36  C    9.567311   2.802057   3.719540   2.572660   1.521909
    37  H    9.756823   3.102960   2.634747   2.122004   1.096763
    38  H   10.122709   3.110456   2.625810   2.122302   1.096616
    39  H    9.014791   2.778473   4.042461   2.852254   2.172621
    40  H   10.627301   3.883888   4.535646   3.508322   2.162549
    41  H    9.412453   2.785729   4.036034   2.851781   2.172568
                   36         37         38         39         40
    36  C    0.000000
    37  H    2.168544   0.000000
    38  H    2.168426   1.750293   0.000000
    39  H    1.094390   2.531275   3.083096   0.000000
    40  H    1.094658   2.502869   2.502289   1.770527   0.000000
    41  H    1.094367   3.083202   2.531747   1.769568   1.770678
                   41
    41  H    0.000000
 Stoichiometry    C14H18F3N2O4(1-)
 Framework group  C1[X(C14H18F3N2O4)]
 Deg. of freedom   117
 Full point group                 C1      NOp   1
 Largest Abelian subgroup         C1      NOp   1
 Largest concise Abelian subgroup C1      NOp   1
                         Standard orientation:                         
 ---------------------------------------------------------------------
 Center     Atomic      Atomic             Coordinates (Angstroms)
 Number     Number       Type             X           Y           Z
 ---------------------------------------------------------------------
      1          6           0       -3.322564   -0.781230    0.029862
      2          6           0       -2.668199    0.385699    0.404487
      3          6           0       -1.277461    0.415816    0.350671
      4          6           0       -0.539858   -0.699204   -0.067690
      5          6           0       -1.227255   -1.858763   -0.453116
      6          6           0       -2.616674   -1.897188   -0.396974
      7          7           0        0.854772   -0.571834   -0.137491
      8          6           0        1.764849   -1.585760    0.072198
      9          7           0        3.053570   -1.189749    0.028958
     10          8           0        1.435537   -2.767784    0.291952
     11          6           0        4.138769   -2.146580    0.184351
     12          6           0        5.482795   -1.442979    0.062296
     13          6           0        6.637230   -2.425007    0.234329
     14          1           0       -0.754963    1.321963    0.644800
     15          1           0       -0.683646   -2.723823   -0.809850
     16          1           0        1.222429    0.388607   -0.061345
     17          1           0        3.281042   -0.229415   -0.256884
     18          1           0        4.058336   -2.932198   -0.578234
     19          1           0        4.060585   -2.635772    1.162853
     20          1           0        5.546550   -0.651063    0.818893
     21          1           0        5.547901   -0.955428   -0.918408
     22          1           0        6.599852   -2.904658    1.218758
     23          1           0        7.602424   -1.917922    0.143143
     24          1           0        6.597334   -3.213104   -0.525881
     25          8           0       -4.719097   -0.947236    0.079639
     26          6           0       -5.522868    0.126903    0.005602
     27          9           0       -6.768828   -0.306257   -0.174852
     28          9           0       -5.511037    0.867327    1.126952
     29          9           0       -5.211806    0.946262   -1.007813
     30          1           0       -3.205819    1.264883    0.741443
     31          1           0       -3.158100   -2.789580   -0.695498
     32          8           0        1.859786    2.102641    0.185550
     33          8           0        3.774350    1.505815   -0.801125
     34          6           0        3.001161    2.369628   -0.287435
     35          6           0        3.503337    3.810061   -0.249506
     36          6           0        2.551205    4.810337    0.390103
     37          1           0        3.729868    4.095564   -1.283944
     38          1           0        4.465697    3.798506    0.276132
     39          1           0        1.597923    4.848798   -0.146051
     40          1           0        2.986806    5.814501    0.376618
     41          1           0        2.340998    4.547348    1.431395
 ---------------------------------------------------------------------
 Rotational constants (GHZ):      0.3736936      0.0946033      0.0773473
 General basis read from cards:  (6D, 7F)
 There are   473 symmetry adapted cartesian basis functions of A   symmetry.
 There are   473 symmetry adapted basis functions of A   symmetry.
   473 basis functions,   808 primitive gaussians,   473 cartesian basis functions
    88 alpha electrons       88 beta electrons
       nuclear repulsion energy      1928.7479472675 Hartrees.
 NAtoms=   41 NActive=   41 NUniq=   41 SFac= 1.00D+00 NAtFMM=   60 NAOKFM=F Big=F
 Integral buffers will be    131072 words long.
 Raffenetti 2 integral format.
 Two-electron integral symmetry is turned on.
 One-electron integrals computed using PRISM.
 NBasis=   473 RedAO= T EigKep=  1.94D-06  NBF=   473
 NBsUse=   472 1.00D-06 EigRej=  9.85D-07 NBFU=   472
 ExpMin= 4.38D-02 ExpMax= 7.00D+03 ExpMxC= 1.05D+03 IAcc=3 IRadAn=         5 AccDes= 0.00D+00
 Harris functional with IExCor= 1009 and IRadAn=       5 diagonalized for initial guess.
 HarFok:  IExCor= 1009 AccDes= 0.00D+00 IRadAn=         5 IDoV= 1 UseB2=F ITyADJ=14
 ICtDFT=  3500011 ScaDFX=  1.000000  1.000000  1.000000  1.000000
 FoFCou: FMM=F IPFlag=           0 FMFlag=      100000 FMFlg1=           0
         NFxFlg=           0 DoJE=T BraDBF=F KetDBF=T FulRan=T
         wScrn=  0.000000 ICntrl=     500 IOpCl=  0 I1Cent=   200000004 NGrid=           0
         NMat0=    1 NMatS0=      1 NMatT0=    0 NMatD0=    1 NMtDS0=    0 NMtDT0=    0
 Petite list used in FoFCou.
 Requested convergence on RMS density matrix=1.00D-08 within 128 cycles.
 Requested convergence on MAX density matrix=1.00D-06.
 Requested convergence on             energy=1.00D-06.
 No special actions if energy rises.
 SCF Done:  E(RM062X) =  -1253.95984001     A.U. after   15 cycles
            NFock= 15  Conv=0.72D-08     -V/T= 2.0082

 **********************************************************************

            Population analysis using the SCF density.

 **********************************************************************

 Orbital symmetries:
       Occupied  (A) (A) (A) (A) (A) (A) (A) (A) (A) (A) (A) (A)
                 (A) (A) (A) (A) (A) (A) (A) (A) (A) (A) (A) (A)
                 (A) (A) (A) (A) (A) (A) (A) (A) (A) (A) (A) (A)
                 (A) (A) (A) (A) (A) (A) (A) (A) (A) (A) (A) (A)
                 (A) (A) (A) (A) (A) (A) (A) (A) (A) (A) (A) (A)
                 (A) (A) (A) (A) (A) (A) (A) (A) (A) (A) (A) (A)
                 (A) (A) (A) (A) (A) (A) (A) (A) (A) (A) (A) (A)
                 (A) (A) (A) (A)
       Virtual   (A) (A) (A) (A) (A) (A) (A) (A) (A) (A) (A) (A)
                 (A) (A) (A) (A) (A) (A) (A) (A) (A) (A) (A) (A)
                 (A) (A) (A) (A) (A) (A) (A) (A) (A) (A) (A) (A)
                 (A) (A) (A) (A) (A) (A) (A) (A) (A) (A) (A) (A)
                 (A) (A) (A) (A) (A) (A) (A) (A) (A) (A) (A) (A)
                 (A) (A) (A) (A) (A) (A) (A) (A) (A) (A) (A) (A)
                 (A) (A) (A) (A) (A) (A) (A) (A) (A) (A) (A) (A)
                 (A) (A) (A) (A) (A) (A) (A) (A) (A) (A) (A) (A)
                 (A) (A) (A) (A) (A) (A) (A) (A) (A) (A) (A) (A)
                 (A) (A) (A) (A) (A) (A) (A) (A) (A) (A) (A) (A)
                 (A) (A) (A) (A) (A) (A) (A) (A) (A) (A) (A) (A)
                 (A) (A) (A) (A) (A) (A) (A) (A) (A) (A) (A) (A)
                 (A) (A) (A) (A) (A) (A) (A) (A) (A) (A) (A) (A)
                 (A) (A) (A) (A) (A) (A) (A) (A) (A) (A) (A) (A)
                 (A) (A) (A) (A) (A) (A) (A) (A) (A) (A) (A) (A)
                 (A) (A) (A) (A) (A) (A) (A) (A) (A) (A) (A) (A)
                 (A) (A) (A) (A) (A) (A) (A) (A) (A) (A) (A) (A)
                 (A) (A) (A) (A) (A) (A) (A) (A) (A) (A) (A) (A)
                 (A) (A) (A) (A) (A) (A) (A) (A) (A) (A) (A) (A)
                 (A) (A) (A) (A) (A) (A) (A) (A) (A) (A) (A) (A)
                 (A) (A) (A) (A) (A) (A) (A) (A) (A) (A) (A) (A)
                 (A) (A) (A) (A) (A) (A) (A) (A) (A) (A) (A) (A)
                 (A) (A) (A) (A) (A) (A) (A) (A) (A) (A) (A) (A)
                 (A) (A) (A) (A) (A) (A) (A) (A) (A) (A) (A) (A)
                 (A) (A) (A) (A) (A) (A) (A) (A) (A) (A) (A) (A)
                 (A) (A) (A) (A) (A) (A) (A) (A) (A) (A) (A) (A)
                 (A) (A) (A) (A) (A) (A) (A) (A) (A) (A) (A) (A)
                 (A) (A) (A) (A) (A) (A) (A) (A) (A) (A) (A) (A)
                 (A) (A) (A) (A) (A) (A) (A) (A) (A) (A) (A) (A)
                 (A) (A) (A) (A) (A) (A) (A) (A) (A) (A) (A) (A)
                 (A) (A) (A) (A) (A) (A) (A) (A) (A) (A) (A) (A)
                 (A) (A) (A) (A) (A) (A) (A) (A) (A) (A) (A) (A)
 The electronic state is 1-A.
 Alpha  occ. eigenvalues --  -25.23875 -25.23458 -25.23392 -19.63139 -19.47799
 Alpha  occ. eigenvalues --  -19.45753 -19.45072 -14.65739 -14.64416 -10.78874
 Alpha  occ. eigenvalues --  -10.55053 -10.53018 -10.50544 -10.49565 -10.46952
 Alpha  occ. eigenvalues --  -10.46855 -10.46662 -10.45641 -10.45473 -10.45189
 Alpha  occ. eigenvalues --  -10.44415 -10.42580 -10.42427  -1.41429  -1.31591
 Alpha  occ. eigenvalues --   -1.31029  -1.15323  -1.03676  -1.01431  -0.92407
 Alpha  occ. eigenvalues --   -0.91438  -0.89843  -0.86246  -0.78674  -0.77226
 Alpha  occ. eigenvalues --   -0.75731  -0.74660  -0.72125  -0.67900  -0.65002
 Alpha  occ. eigenvalues --   -0.64448  -0.63858  -0.60954  -0.60409  -0.58561
 Alpha  occ. eigenvalues --   -0.56880  -0.54521  -0.51560  -0.51154  -0.50374
 Alpha  occ. eigenvalues --   -0.50311  -0.48184  -0.47044  -0.46873  -0.45369
 Alpha  occ. eigenvalues --   -0.44958  -0.44678  -0.44369  -0.42978  -0.42104
 Alpha  occ. eigenvalues --   -0.41011  -0.40966  -0.40175  -0.39530  -0.39301
 Alpha  occ. eigenvalues --   -0.38880  -0.37821  -0.36857  -0.35990  -0.35438
 Alpha  occ. eigenvalues --   -0.35243  -0.33165  -0.33047  -0.32755  -0.32229
 Alpha  occ. eigenvalues --   -0.31231  -0.30434  -0.29949  -0.29692  -0.28058
 Alpha  occ. eigenvalues --   -0.24887  -0.22215  -0.21084  -0.19043  -0.18316
 Alpha  occ. eigenvalues --   -0.18084  -0.17305  -0.15241
 Alpha virt. eigenvalues --    0.09546   0.10385   0.11164   0.11222   0.11356
 Alpha virt. eigenvalues --    0.11576   0.11974   0.12742   0.13113   0.13482
 Alpha virt. eigenvalues --    0.13600   0.13905   0.14212   0.15019   0.15298
 Alpha virt. eigenvalues --    0.15584   0.16073   0.16486   0.16883   0.17470
 Alpha virt. eigenvalues --    0.17942   0.18072   0.18604   0.19051   0.19069
 Alpha virt. eigenvalues --    0.19151   0.20369   0.20671   0.20987   0.21652
 Alpha virt. eigenvalues --    0.21958   0.22374   0.22643   0.23026   0.23355
 Alpha virt. eigenvalues --    0.23944   0.24267   0.24760   0.25063   0.25491
 Alpha virt. eigenvalues --    0.25948   0.26031   0.26381   0.26721   0.27497
 Alpha virt. eigenvalues --    0.28202   0.29251   0.29469   0.29664   0.30144
 Alpha virt. eigenvalues --    0.30888   0.31285   0.31462   0.31722   0.31915
 Alpha virt. eigenvalues --    0.32261   0.32799   0.33224   0.33379   0.33533
 Alpha virt. eigenvalues --    0.33939   0.34326   0.34552   0.34951   0.35257
 Alpha virt. eigenvalues --    0.35415   0.35785   0.36075   0.36392   0.36808
 Alpha virt. eigenvalues --    0.37225   0.37388   0.37787   0.38357   0.38622
 Alpha virt. eigenvalues --    0.39253   0.39304   0.39711   0.40118   0.40300
 Alpha virt. eigenvalues --    0.40419   0.40691   0.41281   0.41408   0.41688
 Alpha virt. eigenvalues --    0.42515   0.42601   0.42924   0.43028   0.43310
 Alpha virt. eigenvalues --    0.43803   0.43869   0.44178   0.44757   0.45207
 Alpha virt. eigenvalues --    0.45577   0.45860   0.46219   0.46614   0.46798
 Alpha virt. eigenvalues --    0.47082   0.47507   0.47979   0.48555   0.48758
 Alpha virt. eigenvalues --    0.49224   0.49604   0.49861   0.50402   0.50407
 Alpha virt. eigenvalues --    0.50579   0.51215   0.51705   0.52063   0.53972
 Alpha virt. eigenvalues --    0.54219   0.54413   0.55097   0.55561   0.56060
 Alpha virt. eigenvalues --    0.56408   0.56839   0.58321   0.59134   0.60586
 Alpha virt. eigenvalues --    0.62438   0.62834   0.62971   0.64382   0.65053
 Alpha virt. eigenvalues --    0.66817   0.69613   0.70087   0.72217   0.75382
 Alpha virt. eigenvalues --    0.77853   0.78699   0.79013   0.80941   0.81338
 Alpha virt. eigenvalues --    0.83916   0.84112   0.84378   0.84852   0.86550
 Alpha virt. eigenvalues --    0.86828   0.87885   0.88503   0.89345   0.89906
 Alpha virt. eigenvalues --    0.90557   0.91013   0.91677   0.91874   0.92149
 Alpha virt. eigenvalues --    0.93335   0.94291   0.94670   0.96417   0.97156
 Alpha virt. eigenvalues --    0.98837   0.99283   0.99865   1.00899   1.01806
 Alpha virt. eigenvalues --    1.02749   1.04968   1.05809   1.07004   1.07219
 Alpha virt. eigenvalues --    1.08490   1.09840   1.10744   1.11223   1.11323
 Alpha virt. eigenvalues --    1.12115   1.13098   1.14177   1.15012   1.15592
 Alpha virt. eigenvalues --    1.17571   1.18892   1.19394   1.19754   1.21099
 Alpha virt. eigenvalues --    1.22242   1.22640   1.23494   1.24111   1.24998
 Alpha virt. eigenvalues --    1.26068   1.26907   1.27896   1.28393   1.28890
 Alpha virt. eigenvalues --    1.29794   1.30200   1.32797   1.33256   1.33603
 Alpha virt. eigenvalues --    1.35501   1.36363   1.37493   1.38879   1.40465
 Alpha virt. eigenvalues --    1.41531   1.42788   1.43361   1.44505   1.46287
 Alpha virt. eigenvalues --    1.47629   1.48780   1.49502   1.50130   1.51701
 Alpha virt. eigenvalues --    1.52400   1.53033   1.53971   1.54179   1.55018
 Alpha virt. eigenvalues --    1.56509   1.57356   1.58120   1.58742   1.59332
 Alpha virt. eigenvalues --    1.60844   1.61705   1.62400   1.62837   1.63727
 Alpha virt. eigenvalues --    1.64400   1.65682   1.66819   1.67744   1.69531
 Alpha virt. eigenvalues --    1.69978   1.71395   1.72015   1.73424   1.73556
 Alpha virt. eigenvalues --    1.75994   1.76485   1.77089   1.77887   1.79500
 Alpha virt. eigenvalues --    1.79791   1.80545   1.81961   1.82627   1.84539
 Alpha virt. eigenvalues --    1.85192   1.86640   1.89245   1.91284   1.92221
 Alpha virt. eigenvalues --    1.95003   1.95622   1.97160   1.97485   1.97839
 Alpha virt. eigenvalues --    1.97981   1.99152   1.99245   1.99882   2.01117
 Alpha virt. eigenvalues --    2.01405   2.02109   2.02657   2.03667   2.04427
 Alpha virt. eigenvalues --    2.05269   2.06301   2.06668   2.08218   2.08375
 Alpha virt. eigenvalues --    2.09321   2.09500   2.10142   2.11781   2.12845
 Alpha virt. eigenvalues --    2.14333   2.14905   2.16287   2.16825   2.17178
 Alpha virt. eigenvalues --    2.17809   2.18538   2.19353   2.19566   2.20405
 Alpha virt. eigenvalues --    2.20885   2.21701   2.22231   2.23452   2.24532
 Alpha virt. eigenvalues --    2.24857   2.25076   2.25845   2.28562   2.30236
 Alpha virt. eigenvalues --    2.30817   2.32011   2.32532   2.34420   2.35354
 Alpha virt. eigenvalues --    2.35864   2.37177   2.41425   2.42492   2.43600
 Alpha virt. eigenvalues --    2.43754   2.47468   2.48039   2.50091   2.50237
 Alpha virt. eigenvalues --    2.50784   2.51148   2.51944   2.53564   2.54469
 Alpha virt. eigenvalues --    2.56671   2.57657   2.63767   2.65867   2.67825
 Alpha virt. eigenvalues --    2.68797   2.70905   2.72732   2.74368   2.75392
 Alpha virt. eigenvalues --    2.75570   2.76423   2.78259   2.81205   2.82306
 Alpha virt. eigenvalues --    2.85169   2.86118   2.87289   2.89287   2.89851
 Alpha virt. eigenvalues --    2.91346   2.91608   2.93302   2.96454   3.00008
 Alpha virt. eigenvalues --    3.04484   3.05900   3.07957   3.11307   3.20596
 Alpha virt. eigenvalues --    3.22645   3.24419   3.25379   3.27198   3.31115
 Alpha virt. eigenvalues --    3.35100   3.36843   3.40509   3.44165   3.48404
 Alpha virt. eigenvalues --    3.57613   4.35090   4.36797   4.38788   4.41266
 Alpha virt. eigenvalues --    4.45164   4.49777   4.51258   4.52059   4.54334
 Alpha virt. eigenvalues --    4.54834   4.58976   4.62411   4.64014   4.68753
 Alpha virt. eigenvalues --    4.73128   4.75354   4.76552   4.83496   4.91428
 Alpha virt. eigenvalues --    4.96782   5.81495   6.18655   6.94732
          Condensed to atoms (all electrons):
               1          2          3          4          5          6
     1  C   10.427841   0.423338  -0.906182  -2.425868  -0.284719  -1.034520
     2  C    0.423338  11.787790  -2.869949  -1.298871   1.841225  -4.636415
     3  C   -0.906182  -2.869949  13.370618   0.635102  -4.928732   1.409153
     4  C   -2.425868  -1.298871   0.635102  10.634364  -0.815889   0.258971
     5  C   -0.284719   1.841225  -4.928732  -0.815889  11.140041  -1.483883
     6  C   -1.034520  -4.636415   1.409153   0.258971  -1.483883  12.340373
     7  N   -0.032158  -0.036234  -0.124212   0.261573  -0.102565   0.014737
     8  C   -0.243956  -0.012531  -0.432285  -0.609792   0.243810  -0.089581
     9  N   -0.002323   0.016015  -0.007296  -0.048659  -0.059325  -0.030230
    10  O   -0.019621  -0.008975  -0.037924  -0.124306   0.069562   0.036172
    11  C   -0.013284   0.004519  -0.083898  -0.234548   0.009004  -0.012078
    12  C   -0.000783  -0.003662   0.016626   0.021554  -0.021870   0.000240
    13  C   -0.000166  -0.000301  -0.002254  -0.004475   0.000660   0.000417
    14  H    0.017295   0.051703   0.140420   0.062300   0.071365  -0.036881
    15  H    0.034720  -0.010279   0.054279   0.004395   0.255411  -0.040414
    16  H    0.008889   0.025435  -0.049847  -0.027771   0.057087  -0.001184
    17  H    0.000034  -0.000833   0.003799   0.007917  -0.001254   0.000280
    18  H    0.000060  -0.000063   0.000640  -0.001428   0.002354   0.000721
    19  H   -0.000015   0.000124  -0.000862  -0.001600  -0.001016  -0.000406
    20  H    0.000000   0.000003   0.000531  -0.000462  -0.000495  -0.000020
    21  H   -0.000001  -0.000005  -0.000383  -0.000781   0.000511   0.000030
    22  H    0.000000   0.000000  -0.000010   0.000017   0.000010   0.000000
    23  H   -0.000000  -0.000000  -0.000001  -0.000012   0.000002   0.000000
    24  H   -0.000000  -0.000000   0.000006   0.000008  -0.000008  -0.000001
    25  O    0.247233   0.004443  -0.015630  -0.007782   0.046286  -0.342922
    26  C    0.126067  -0.031587  -0.183119  -0.094533   0.061240  -0.132805
    27  F   -0.031141   0.016761   0.009186   0.002835  -0.004897   0.019257
    28  F   -0.083650   0.094752   0.021277   0.005806   0.000931  -0.037605
    29  F    0.105659  -0.085864   0.021403  -0.003158  -0.015889   0.012259
    30  H    0.032734   0.304092  -0.021372  -0.007421  -0.025004   0.017099
    31  H    0.064684   0.040509  -0.031602  -0.010284  -0.014263   0.260396
    32  O    0.004683   0.037996   0.091296  -0.124251   0.014448  -0.002499
    33  O   -0.000707  -0.006096   0.005508  -0.007549  -0.010316   0.000917
    34  C   -0.001187  -0.019758   0.015072  -0.011424  -0.027337   0.002258
    35  C   -0.000714  -0.006980   0.019843  -0.023061  -0.002221  -0.000493
    36  C    0.002004   0.013090   0.002257  -0.014480   0.000437  -0.000532
    37  H    0.000009   0.000054   0.001129  -0.000925  -0.000195  -0.000011
    38  H   -0.000005  -0.000084  -0.000218  -0.000151   0.000035   0.000005
    39  H    0.000020   0.000268   0.000191  -0.001053  -0.000036   0.000018
    40  H   -0.000001  -0.000033  -0.000045   0.000031   0.000003   0.000000
    41  H    0.000028   0.000301   0.000806  -0.000912  -0.000126  -0.000007
               7          8          9         10         11         12
     1  C   -0.032158  -0.243956  -0.002323  -0.019621  -0.013284  -0.000783
     2  C   -0.036234  -0.012531   0.016015  -0.008975   0.004519  -0.003662
     3  C   -0.124212  -0.432285  -0.007296  -0.037924  -0.083898   0.016626
     4  C    0.261573  -0.609792  -0.048659  -0.124306  -0.234548   0.021554
     5  C   -0.102565   0.243810  -0.059325   0.069562   0.009004  -0.021870
     6  C    0.014737  -0.089581  -0.030230   0.036172  -0.012078   0.000240
     7  N    7.854449   0.221990  -0.383317  -0.122600  -0.082971   0.026327
     8  C    0.221990   6.028904   0.305260   0.679981  -0.742187   0.234709
     9  N   -0.383317   0.305260   7.842062  -0.160126   0.370204  -0.087050
    10  O   -0.122600   0.679981  -0.160126   8.381084  -0.083228   0.023283
    11  C   -0.082971  -0.742187   0.370204  -0.083228   6.900070  -0.601489
    12  C    0.026327   0.234709  -0.087050   0.023283  -0.601489   6.494999
    13  C    0.002932  -0.034864  -0.014031  -0.001444  -0.008242  -0.269710
    14  H   -0.012656   0.002839   0.000266   0.000021  -0.000068  -0.000013
    15  H   -0.004146   0.019364   0.000681  -0.011639   0.002020  -0.000137
    16  H    0.130489  -0.029349   0.018069   0.003102   0.003636  -0.001367
    17  H    0.014704   0.006638   0.161869   0.003342  -0.046607   0.002885
    18  H    0.001616  -0.003091  -0.067805   0.003011   0.440858  -0.054547
    19  H   -0.002235  -0.040311  -0.046384  -0.001160   0.461233  -0.049304
    20  H   -0.000226  -0.001868   0.002990  -0.000106  -0.073106   0.430937
    21  H   -0.000267  -0.001994   0.005934  -0.000089  -0.080542   0.432063
    22  H    0.000008   0.000562   0.000039  -0.000016  -0.007991  -0.071268
    23  H    0.000017  -0.000305   0.000414   0.000003   0.030091  -0.135969
    24  H    0.000046   0.001597   0.000322  -0.000021  -0.012882  -0.061080
    25  O    0.000314   0.003239   0.000001   0.000048   0.000048  -0.000001
    26  C    0.001410  -0.002764   0.000143  -0.000250   0.000006  -0.000011
    27  F    0.000003   0.000045   0.000000   0.000000   0.000000   0.000000
    28  F    0.000092   0.000096   0.000000  -0.000001   0.000000  -0.000000
    29  F   -0.000193  -0.000656  -0.000001   0.000001  -0.000004   0.000000
    30  H   -0.000284   0.000847  -0.000011  -0.000003  -0.000004   0.000001
    31  H   -0.000383  -0.002341  -0.000018   0.000115  -0.000059   0.000001
    32  O   -0.031435  -0.018693   0.027592   0.000219   0.003761  -0.003196
    33  O    0.023890   0.008730  -0.056480  -0.000554  -0.005312   0.000946
    34  C    0.005122  -0.005709  -0.003630  -0.000575   0.020670  -0.013112
    35  C   -0.026644  -0.024904  -0.035851  -0.001123   0.015994   0.000263
    36  C    0.001465  -0.000587   0.006412   0.000104  -0.001786  -0.000850
    37  H    0.000032  -0.000462  -0.000151  -0.000000   0.000074  -0.000074
    38  H    0.000105   0.000264  -0.000259  -0.000000  -0.000296   0.000770
    39  H   -0.000019   0.000176   0.000010  -0.000000  -0.000003   0.000028
    40  H    0.000025   0.000036  -0.000005   0.000000  -0.000004   0.000006
    41  H   -0.000049  -0.000192  -0.000048  -0.000000  -0.000052   0.000010
              13         14         15         16         17         18
     1  C   -0.000166   0.017295   0.034720   0.008889   0.000034   0.000060
     2  C   -0.000301   0.051703  -0.010279   0.025435  -0.000833  -0.000063
     3  C   -0.002254   0.140420   0.054279  -0.049847   0.003799   0.000640
     4  C   -0.004475   0.062300   0.004395  -0.027771   0.007917  -0.001428
     5  C    0.000660   0.071365   0.255411   0.057087  -0.001254   0.002354
     6  C    0.000417  -0.036881  -0.040414  -0.001184   0.000280   0.000721
     7  N    0.002932  -0.012656  -0.004146   0.130489   0.014704   0.001616
     8  C   -0.034864   0.002839   0.019364  -0.029349   0.006638  -0.003091
     9  N   -0.014031   0.000266   0.000681   0.018069   0.161869  -0.067805
    10  O   -0.001444   0.000021  -0.011639   0.003102   0.003342   0.003011
    11  C   -0.008242  -0.000068   0.002020   0.003636  -0.046607   0.440858
    12  C   -0.269710  -0.000013  -0.000137  -0.001367   0.002885  -0.054547
    13  C    5.913798  -0.000003   0.000015   0.000091   0.001708  -0.019587
    14  H   -0.000003   0.443801  -0.000118   0.006136   0.000004   0.000000
    15  H    0.000015  -0.000118   0.454341  -0.000148   0.000003   0.000000
    16  H    0.000091   0.006136  -0.000148   0.254138   0.006745   0.000019
    17  H    0.001708   0.000004   0.000003   0.006745   0.240269   0.001689
    18  H   -0.019587   0.000000   0.000000   0.000019   0.001689   0.535028
    19  H   -0.010141   0.000000  -0.000000  -0.000002   0.001540  -0.047083
    20  H   -0.041847   0.000000   0.000000   0.000001   0.000402   0.004399
    21  H   -0.035709  -0.000000  -0.000000   0.000004   0.001117  -0.005709
    22  H    0.425406  -0.000000  -0.000000   0.000000  -0.000000  -0.000356
    23  H    0.459309  -0.000000  -0.000000  -0.000000  -0.000000  -0.000071
    24  H    0.418799   0.000000   0.000000  -0.000000  -0.000001   0.002937
    25  O    0.000000  -0.000525  -0.000413  -0.000003  -0.000000  -0.000000
    26  C   -0.000001   0.001324   0.000489   0.000094  -0.000001   0.000000
    27  F    0.000000  -0.000001  -0.000000  -0.000000   0.000000  -0.000000
    28  F   -0.000000   0.000058   0.000001   0.000000  -0.000000  -0.000000
    29  F   -0.000000   0.000002   0.000001   0.000000   0.000000   0.000000
    30  H   -0.000000  -0.003756   0.000013  -0.000007   0.000000   0.000000
    31  H   -0.000000   0.000013  -0.003730   0.000002  -0.000000  -0.000000
    32  O   -0.000803  -0.001960   0.000008   0.076773  -0.000913   0.000016
    33  O    0.011086  -0.000053   0.000003  -0.001143   0.065916   0.000117
    34  C   -0.005880   0.000046   0.000084  -0.008926  -0.004531   0.000041
    35  C    0.005259   0.001376   0.000012   0.015638   0.013470  -0.000033
    36  C   -0.000725  -0.000335  -0.000002  -0.002530  -0.002879  -0.000000
    37  H   -0.000002   0.000000   0.000000  -0.000020   0.000011  -0.000000
    38  H    0.000183  -0.000000  -0.000000  -0.000017  -0.000019   0.000000
    39  H    0.000001   0.000004   0.000000  -0.000008  -0.000000   0.000000
    40  H    0.000001   0.000000  -0.000000   0.000000   0.000000   0.000000
    41  H    0.000000  -0.000000   0.000000  -0.000008   0.000000  -0.000000
              19         20         21         22         23         24
     1  C   -0.000015   0.000000  -0.000001   0.000000  -0.000000  -0.000000
     2  C    0.000124   0.000003  -0.000005   0.000000  -0.000000  -0.000000
     3  C   -0.000862   0.000531  -0.000383  -0.000010  -0.000001   0.000006
     4  C   -0.001600  -0.000462  -0.000781   0.000017  -0.000012   0.000008
     5  C   -0.001016  -0.000495   0.000511   0.000010   0.000002  -0.000008
     6  C   -0.000406  -0.000020   0.000030   0.000000   0.000000  -0.000001
     7  N   -0.002235  -0.000226  -0.000267   0.000008   0.000017   0.000046
     8  C   -0.040311  -0.001868  -0.001994   0.000562  -0.000305   0.001597
     9  N   -0.046384   0.002990   0.005934   0.000039   0.000414   0.000322
    10  O   -0.001160  -0.000106  -0.000089  -0.000016   0.000003  -0.000021
    11  C    0.461233  -0.073106  -0.080542  -0.007991   0.030091  -0.012882
    12  C   -0.049304   0.430937   0.432063  -0.071268  -0.135969  -0.061080
    13  C   -0.010141  -0.041847  -0.035709   0.425406   0.459309   0.418799
    14  H    0.000000   0.000000  -0.000000  -0.000000  -0.000000   0.000000
    15  H   -0.000000   0.000000  -0.000000  -0.000000  -0.000000   0.000000
    16  H   -0.000002   0.000001   0.000004   0.000000  -0.000000  -0.000000
    17  H    0.001540   0.000402   0.001117  -0.000000  -0.000000  -0.000001
    18  H   -0.047083   0.004399  -0.005709  -0.000356  -0.000071   0.002937
    19  H    0.528820  -0.005668   0.004255   0.003058  -0.000067  -0.000392
    20  H   -0.005668   0.488463  -0.029893  -0.004631  -0.003125   0.003937
    21  H    0.004255  -0.029893   0.476621   0.003875  -0.003088  -0.004509
    22  H    0.003058  -0.004631   0.003875   0.513463  -0.027801  -0.033144
    23  H   -0.000067  -0.003125  -0.003088  -0.027801   0.510594  -0.027656
    24  H   -0.000392   0.003937  -0.004509  -0.033144  -0.027656   0.512900
    25  O    0.000000  -0.000000   0.000000   0.000000   0.000000  -0.000000
    26  C    0.000000  -0.000000   0.000000   0.000000  -0.000000  -0.000000
    27  F   -0.000000   0.000000  -0.000000  -0.000000   0.000000   0.000000
    28  F    0.000000  -0.000000   0.000000   0.000000  -0.000000  -0.000000
    29  F   -0.000000   0.000000   0.000000   0.000000   0.000000  -0.000000
    30  H   -0.000000   0.000000  -0.000000   0.000000  -0.000000   0.000000
    31  H    0.000000  -0.000000   0.000000   0.000000  -0.000000  -0.000000
    32  O   -0.000015   0.000103  -0.000080  -0.000000   0.000000   0.000000
    33  O   -0.000253  -0.000908  -0.003684  -0.000028  -0.000016   0.000005
    34  C    0.000755  -0.000886   0.000199   0.000007  -0.000140  -0.000053
    35  C   -0.000054  -0.000292   0.000245  -0.000006   0.000045  -0.000016
    36  C    0.000011  -0.000073  -0.000014   0.000001  -0.000000  -0.000000
    37  H   -0.000000   0.000000  -0.000000  -0.000000  -0.000000   0.000000
    38  H   -0.000000  -0.000000  -0.000001   0.000000   0.000000  -0.000000
    39  H    0.000000  -0.000000   0.000000   0.000000   0.000000  -0.000000
    40  H   -0.000000  -0.000000  -0.000000  -0.000000   0.000000  -0.000000
    41  H   -0.000000  -0.000000   0.000000  -0.000000  -0.000000  -0.000000
              25         26         27         28         29         30
     1  C    0.247233   0.126067  -0.031141  -0.083650   0.105659   0.032734
     2  C    0.004443  -0.031587   0.016761   0.094752  -0.085864   0.304092
     3  C   -0.015630  -0.183119   0.009186   0.021277   0.021403  -0.021372
     4  C   -0.007782  -0.094533   0.002835   0.005806  -0.003158  -0.007421
     5  C    0.046286   0.061240  -0.004897   0.000931  -0.015889  -0.025004
     6  C   -0.342922  -0.132805   0.019257  -0.037605   0.012259   0.017099
     7  N    0.000314   0.001410   0.000003   0.000092  -0.000193  -0.000284
     8  C    0.003239  -0.002764   0.000045   0.000096  -0.000656   0.000847
     9  N    0.000001   0.000143   0.000000   0.000000  -0.000001  -0.000011
    10  O    0.000048  -0.000250   0.000000  -0.000001   0.000001  -0.000003
    11  C    0.000048   0.000006   0.000000   0.000000  -0.000004  -0.000004
    12  C   -0.000001  -0.000011   0.000000  -0.000000   0.000000   0.000001
    13  C    0.000000  -0.000001   0.000000  -0.000000  -0.000000  -0.000000
    14  H   -0.000525   0.001324  -0.000001   0.000058   0.000002  -0.003756
    15  H   -0.000413   0.000489  -0.000000   0.000001   0.000001   0.000013
    16  H   -0.000003   0.000094  -0.000000   0.000000   0.000000  -0.000007
    17  H   -0.000000  -0.000001   0.000000  -0.000000   0.000000   0.000000
    18  H   -0.000000   0.000000  -0.000000  -0.000000   0.000000   0.000000
    19  H    0.000000   0.000000  -0.000000   0.000000  -0.000000  -0.000000
    20  H   -0.000000  -0.000000   0.000000  -0.000000   0.000000   0.000000
    21  H    0.000000   0.000000  -0.000000   0.000000   0.000000  -0.000000
    22  H    0.000000   0.000000  -0.000000   0.000000   0.000000   0.000000
    23  H    0.000000  -0.000000   0.000000  -0.000000   0.000000  -0.000000
    24  H   -0.000000  -0.000000   0.000000  -0.000000  -0.000000   0.000000
    25  O    8.444630   0.233695  -0.035694  -0.055345  -0.079673  -0.007892
    26  C    0.233695   4.139162   0.207397   0.222289   0.220732   0.008108
    27  F   -0.035694   0.207397   9.252133  -0.052113  -0.043130   0.000544
    28  F   -0.055345   0.222289  -0.052113   9.274942  -0.059501  -0.001263
    29  F   -0.079673   0.220732  -0.043130  -0.059501   9.265614  -0.001655
    30  H   -0.007892   0.008108   0.000544  -0.001263  -0.001655   0.487135
    31  H   -0.004725  -0.000453  -0.000016   0.000056  -0.000074  -0.000131
    32  O    0.000010   0.000069   0.000000   0.000000  -0.000000   0.000026
    33  O    0.000000  -0.000008   0.000000  -0.000000  -0.000000   0.000000
    34  C   -0.000004  -0.000219   0.000000  -0.000000   0.000001   0.000001
    35  C    0.000001   0.000003  -0.000000   0.000001  -0.000000  -0.000007
    36  C   -0.000001   0.000039  -0.000000  -0.000000  -0.000000  -0.000001
    37  H   -0.000000   0.000000  -0.000000  -0.000000  -0.000000  -0.000000
    38  H    0.000000  -0.000000   0.000000  -0.000000  -0.000000  -0.000000
    39  H    0.000000  -0.000001   0.000000  -0.000000   0.000000  -0.000000
    40  H   -0.000000  -0.000000   0.000000   0.000000  -0.000000   0.000000
    41  H    0.000000   0.000000  -0.000000   0.000000   0.000000   0.000000
              31         32         33         34         35         36
     1  C    0.064684   0.004683  -0.000707  -0.001187  -0.000714   0.002004
     2  C    0.040509   0.037996  -0.006096  -0.019758  -0.006980   0.013090
     3  C   -0.031602   0.091296   0.005508   0.015072   0.019843   0.002257
     4  C   -0.010284  -0.124251  -0.007549  -0.011424  -0.023061  -0.014480
     5  C   -0.014263   0.014448  -0.010316  -0.027337  -0.002221   0.000437
     6  C    0.260396  -0.002499   0.000917   0.002258  -0.000493  -0.000532
     7  N   -0.000383  -0.031435   0.023890   0.005122  -0.026644   0.001465
     8  C   -0.002341  -0.018693   0.008730  -0.005709  -0.024904  -0.000587
     9  N   -0.000018   0.027592  -0.056480  -0.003630  -0.035851   0.006412
    10  O    0.000115   0.000219  -0.000554  -0.000575  -0.001123   0.000104
    11  C   -0.000059   0.003761  -0.005312   0.020670   0.015994  -0.001786
    12  C    0.000001  -0.003196   0.000946  -0.013112   0.000263  -0.000850
    13  C   -0.000000  -0.000803   0.011086  -0.005880   0.005259  -0.000725
    14  H    0.000013  -0.001960  -0.000053   0.000046   0.001376  -0.000335
    15  H   -0.003730   0.000008   0.000003   0.000084   0.000012  -0.000002
    16  H    0.000002   0.076773  -0.001143  -0.008926   0.015638  -0.002530
    17  H   -0.000000  -0.000913   0.065916  -0.004531   0.013470  -0.002879
    18  H   -0.000000   0.000016   0.000117   0.000041  -0.000033  -0.000000
    19  H    0.000000  -0.000015  -0.000253   0.000755  -0.000054   0.000011
    20  H   -0.000000   0.000103  -0.000908  -0.000886  -0.000292  -0.000073
    21  H    0.000000  -0.000080  -0.003684   0.000199   0.000245  -0.000014
    22  H    0.000000  -0.000000  -0.000028   0.000007  -0.000006   0.000001
    23  H   -0.000000   0.000000  -0.000016  -0.000140   0.000045  -0.000000
    24  H   -0.000000   0.000000   0.000005  -0.000053  -0.000016  -0.000000
    25  O   -0.004725   0.000010   0.000000  -0.000004   0.000001  -0.000001
    26  C   -0.000453   0.000069  -0.000008  -0.000219   0.000003   0.000039
    27  F   -0.000016   0.000000   0.000000   0.000000  -0.000000  -0.000000
    28  F    0.000056   0.000000  -0.000000  -0.000000   0.000001  -0.000000
    29  F   -0.000074  -0.000000  -0.000000   0.000001  -0.000000  -0.000000
    30  H   -0.000131   0.000026   0.000000   0.000001  -0.000007  -0.000001
    31  H    0.495948  -0.000000  -0.000000   0.000003   0.000000   0.000000
    32  O   -0.000000   8.565870  -0.186999   0.324594  -0.165095   0.065416
    33  O   -0.000000  -0.186999   8.567635   0.520780  -0.315208   0.043859
    34  C    0.000003   0.324594   0.520780   5.614780  -0.895748   0.030109
    35  C    0.000000  -0.165095  -0.315208  -0.895748   7.557882  -0.405551
    36  C    0.000000   0.065416   0.043859   0.030109  -0.405551   5.861460
    37  H    0.000000   0.001661  -0.001963  -0.097164   0.469305  -0.053246
    38  H    0.000000   0.000842  -0.001233  -0.075214   0.437968  -0.045312
    39  H   -0.000000  -0.005203   0.000017  -0.004986  -0.056102   0.419750
    40  H    0.000000   0.002234  -0.000244   0.036422  -0.088292   0.389383
    41  H   -0.000000  -0.004999   0.000103  -0.018035  -0.037235   0.413070
              37         38         39         40         41
     1  C    0.000009  -0.000005   0.000020  -0.000001   0.000028
     2  C    0.000054  -0.000084   0.000268  -0.000033   0.000301
     3  C    0.001129  -0.000218   0.000191  -0.000045   0.000806
     4  C   -0.000925  -0.000151  -0.001053   0.000031  -0.000912
     5  C   -0.000195   0.000035  -0.000036   0.000003  -0.000126
     6  C   -0.000011   0.000005   0.000018   0.000000  -0.000007
     7  N    0.000032   0.000105  -0.000019   0.000025  -0.000049
     8  C   -0.000462   0.000264   0.000176   0.000036  -0.000192
     9  N   -0.000151  -0.000259   0.000010  -0.000005  -0.000048
    10  O   -0.000000  -0.000000  -0.000000   0.000000  -0.000000
    11  C    0.000074  -0.000296  -0.000003  -0.000004  -0.000052
    12  C   -0.000074   0.000770   0.000028   0.000006   0.000010
    13  C   -0.000002   0.000183   0.000001   0.000001   0.000000
    14  H    0.000000  -0.000000   0.000004   0.000000  -0.000000
    15  H    0.000000  -0.000000   0.000000  -0.000000   0.000000
    16  H   -0.000020  -0.000017  -0.000008   0.000000  -0.000008
    17  H    0.000011  -0.000019  -0.000000   0.000000   0.000000
    18  H   -0.000000   0.000000   0.000000   0.000000  -0.000000
    19  H   -0.000000  -0.000000   0.000000  -0.000000  -0.000000
    20  H    0.000000  -0.000000  -0.000000  -0.000000  -0.000000
    21  H   -0.000000  -0.000001   0.000000  -0.000000   0.000000
    22  H   -0.000000   0.000000   0.000000  -0.000000  -0.000000
    23  H   -0.000000   0.000000   0.000000   0.000000  -0.000000
    24  H    0.000000  -0.000000  -0.000000  -0.000000  -0.000000
    25  O   -0.000000   0.000000   0.000000  -0.000000   0.000000
    26  C    0.000000  -0.000000  -0.000001  -0.000000   0.000000
    27  F   -0.000000   0.000000   0.000000   0.000000  -0.000000
    28  F   -0.000000  -0.000000  -0.000000   0.000000   0.000000
    29  F   -0.000000  -0.000000   0.000000  -0.000000   0.000000
    30  H   -0.000000  -0.000000  -0.000000   0.000000   0.000000
    31  H    0.000000   0.000000  -0.000000   0.000000  -0.000000
    32  O    0.001661   0.000842  -0.005203   0.002234  -0.004999
    33  O   -0.001963  -0.001233   0.000017  -0.000244   0.000103
    34  C   -0.097164  -0.075214  -0.004986   0.036422  -0.018035
    35  C    0.469305   0.437968  -0.056102  -0.088292  -0.037235
    36  C   -0.053246  -0.045312   0.419750   0.389383   0.413070
    37  H    0.504523  -0.029541  -0.003827  -0.002281   0.003649
    38  H   -0.029541   0.506562   0.003656  -0.002302  -0.003927
    39  H   -0.003827   0.003656   0.488445  -0.031393  -0.025234
    40  H   -0.002281  -0.002302  -0.031393   0.557257  -0.031437
    41  H    0.003649  -0.003927  -0.025234  -0.031437   0.490272
 Mulliken charges:
               1
     1  C   -0.414295
     2  C    0.366099
     3  C   -0.123322
     4  C    0.006571
     5  C   -0.014384
     6  C   -0.490819
     7  N   -0.598752
     8  C    0.539336
     9  N   -0.755282
    10  O   -0.626286
    11  C   -0.171548
    12  C   -0.310156
    13  C   -0.789482
    14  H    0.257396
    15  H    0.245188
    16  H    0.515983
    17  H    0.522694
    18  H    0.206270
    19  H    0.207172
    20  H    0.231840
    21  H    0.241894
    22  H    0.198806
    23  H    0.197776
    24  H    0.199206
    25  O   -0.429337
    26  C    1.223484
    27  F   -0.341168
    28  F   -0.330823
    29  F   -0.335874
    30  H    0.218210
    31  H    0.206352
    32  O   -0.671476
    33  O   -0.650754
    34  C    0.623575
    35  C   -0.451676
    36  C   -0.719961
    37  H    0.209415
    38  H    0.208189
    39  H    0.215281
    40  H    0.170637
    41  H    0.214020
 Sum of Mulliken charges =  -1.00000
 Mulliken charges with hydrogens summed into heavy atoms:
               1
     1  C   -0.414295
     2  C    0.584310
     3  C    0.134074
     4  C    0.006571
     5  C    0.230804
     6  C   -0.284466
     7  N   -0.082769
     8  C    0.539336
     9  N   -0.232588
    10  O   -0.626286
    11  C    0.241895
    12  C    0.163578
    13  C   -0.193693
    25  O   -0.429337
    26  C    1.223484
    27  F   -0.341168
    28  F   -0.330823
    29  F   -0.335874
    32  O   -0.671476
    33  O   -0.650754
    34  C    0.623575
    35  C   -0.034072
    36  C   -0.120024
 Electronic spatial extent (au):  <R**2>=          12907.4203
 Charge=             -1.0000 electrons
 Dipole moment (field-independent basis, Debye):
    X=             -4.7654    Y=             -0.4663    Z=              0.3258  Tot=              4.7992
 Quadrupole moment (field-independent basis, Debye-Ang):
   XX=           -195.0217   YY=           -164.5641   ZZ=           -143.0667
   XY=             -7.5673   XZ=              5.1087   YZ=              5.1217
 Traceless Quadrupole moment (field-independent basis, Debye-Ang):
[...]
 00307,-0.00000388,0.00000364,0.00001378,-0.00000394,-0.00000125,0.0000
 0231,0.00000892,0.00000469,-0.00007324,0.00004892,-0.00000068,0.000087
 43,-0.00006438,-0.00004685,-0.00002996,0.00001708,-0.00000546,-0.00001
 908,0.00000584,0.00001444,-0.00001058,0.00002413,0.00001739,0.00000416
 ,-0.00000890,-0.00000265,-0.00000176,0.00000642,-0.00000446,0.00088282
 ,0.00259024,0.00061967,0.00060344,-0.00010400,0.00282626,-0.00290463,-
 0.00192127,-0.00886303,-0.00972116,0.03020952,-0.30846921,0.00005061,0
 .00093792,-0.00893553,0.01384305,-0.03220442,0.33454537,0.00002416,-0.
 00000522,0.00000979,0.00000152,0.00000093,-0.00000520,0.00002448,-0.00
 002640,0.00000211,-0.00006555,0.00005672,-0.00004057,0.00001757,-0.000
 01549,0.00001176,-0.00001633,0.00001129,-0.00001098,0.00013440,0.00006
 177,-0.00000128,-0.00019414,0.00004245,-0.00007630,0.00008999,-0.00006
 598,0.00001683,0.00004778,-0.00001127,0.00001927,-0.00001421,0.0000044
 6,0.00000491,-0.00000117,0.00001190,0.00000041,0.00000169,-0.00000418,
 0.00000245,-0.00001918,-0.00002485,0.00002555,-0.00000599,0.00000614,-
 0.00000158,-0.00006230,-0.00007377,0.00005344,0.00001008,0.00010846,-0
 .00002790,0.00000500,0.00000043,-0.00000026,0.00000024,-0.00000026,0.0
 0000154,0.00000315,-0.00000160,-0.00000374,0.00000849,0.00000158,0.000
 00792,-0.00000264,-0.00000068,0.00000045,0.00000314,-0.00000128,0.0000
 0125,-0.00000064,-0.00000088,-0.00000283,-0.00000773,0.00001807,-0.000
 00702,0.00000325,-0.00004977,0.00002507,-0.00001027,0.00001158,-0.0000
 1074,0.00000650,0.00001976,-0.00001530,0.00000136,0.00001440,0.0000008
 8,0.00000726,-0.00000733,0.00001136,-0.00000043,0.00000303,0.00000029,
 0.00089019,0.00019806,0.00090963,0.00015184,-0.00101152,0.00043571,0.0
 0284236,-0.00373611,-0.00443837,-0.18397583,0.10925433,0.07397187,-0.0
 2135817,0.01667564,0.01176014,0.00053985,-0.00075640,-0.00008423,0.203
 73827,-0.00003346,-0.00000351,-0.00001077,-0.00003703,-0.00001084,-0.0
 0000843,0.00008364,0.00006839,0.00001114,-0.00021829,0.00003840,-0.000
 09199,0.00002899,-0.00003380,0.00002810,0.00000433,-0.00001052,0.00000
 663,-0.00014897,-0.00067029,0.00000592,0.00041034,0.00005080,0.0001169
 9,-0.00012680,0.00003098,-0.00008055,-0.00015028,-0.00013410,0.0000018
 9,0.00010776,0.00002265,0.00002763,-0.00000967,-0.00002281,-0.00003144
 ,-0.00000654,0.00000597,0.00000518,-0.00007752,0.00003750,-0.00004613,
 -0.00000015,-0.00000057,-0.00000237,0.00016234,0.00107326,0.00003873,0
 .00002258,0.00010714,0.00011274,-0.00002341,0.,-0.00001235,-0.00001293
 ,-0.00000619,-0.00000114,-0.00000868,-0.00000614,0.00002575,0.00002212
 ,-0.00000929,-0.00000772,0.00000094,-0.00000027,-0.00000187,-0.0000180
 7,0.00000403,-0.00000771,0.00000308,0.00000360,0.00000689,0.00007876,-
 0.00004540,0.00001311,-0.00008929,0.00004811,0.00001735,0.00003444,-0.
 00001632,0.00001250,0.00001864,-0.00000398,-0.00000707,0.00001327,-0.0
 0001480,-0.00000713,0.00000750,0.00000237,-0.00000054,0.00000508,-0.00
 000836,0.00000224,-0.00235564,-0.00497755,0.00497931,-0.00357200,0.002
 05218,0.00277628,0.02701130,-0.01657305,-0.01623306,0.11095706,-0.1345
 3985,-0.06298288,-0.00932607,0.00653317,0.00476621,-0.00353855,0.00231
 784,0.00170216,-0.11812635,0.14408800,-0.00001205,0.00000218,-0.000006
 44,-0.00000991,0.00000182,-0.00000320,0.00001425,0.00000421,0.00000364
 ,-0.00003224,0.00001717,-0.00001602,0.00000466,-0.00000776,-0.00000059
 ,-0.00000001,0.00000185,0.00000068,0.00001916,0.00005407,0.00005237,-0
 .00003533,0.00006875,-0.00002539,-0.00003064,-0.00008827,0.00004902,-0
 .00000228,-0.00005302,0.00000523,0.00006276,0.00000742,0.00001516,-0.0
 0001343,0.00000061,0.00000750,0.00000411,-0.00000433,-0.00000176,-0.00
 000826,-0.00000542,0.00000177,-0.00000079,0.00000132,-0.00000117,0.000
 00575,-0.00009850,-0.00009047,0.00005302,0.00012925,-0.00008515,-0.000
 00498,0.00000070,-0.00000658,-0.00001231,-0.00000201,0.00000086,0.0000
 0386,-0.00000386,0.00000602,0.00002118,-0.00001479,-0.00000456,-0.0000
 0063,0.00000247,-0.00000146,-0.00001516,0.00000437,-0.00000143,-0.0000
 0026,-0.00000147,0.00000015,0.00002519,-0.00001391,0.00000317,-0.00003
 263,0.00001907,0.00000272,0.00001292,-0.00000644,0.00000531,0.00000645
 ,-0.00000228,-0.00000115,0.00000494,-0.00000553,-0.00000172,0.00000037
 ,0.00000060,0.00000139,0.00000024,-0.00000165,0.00000094,0.00042561,0.
 00126031,-0.00193290,-0.00113214,-0.00116543,-0.00038989,-0.00548882,0
 .00688438,0.00361325,0.07330583,-0.05979983,-0.08456819,-0.00969845,0.
 00781415,0.00497293,0.02433820,-0.02040312,-0.01346794,-0.07998506,0.0
 6502030,0.09101751,0.00002547,0.00000088,0.00000983,0.00001751,0.00000
 423,-0.00000167,0.00001535,-0.00003499,-0.00001330,-0.00004011,0.00004
 604,-0.00002394,0.00001590,-0.00001672,0.00000736,-0.00001734,0.000009
 64,-0.00000990,0.00011999,0.00006210,0.00000397,-0.00023146,0.00002643
 ,-0.00007259,0.00008271,-0.00013962,0.00002966,0.00006134,-0.00001053,
 0.00001316,-0.00003429,-0.00000285,0.00000483,0.00000439,0.00001624,0.
 00000059,0.00000354,-0.00000523,0.00000364,-0.00001485,-0.00004835,0.0
 0006389,-0.00000586,0.00000595,-0.00000047,-0.00003527,-0.00011658,0.0
 0005193,0.00000490,0.00012910,-0.00001881,0.00000686,-0.00000448,-0.00
 000083,0.00000150,-0.00000295,0.00000038,0.00000615,0.00000326,-0.0000
 1376,-0.00000301,0.00000783,0.00001507,-0.00000432,-0.00000338,0.00000
 131,0.00000824,-0.00000106,0.00000242,-0.00000183,-0.00000265,-0.00000
 572,-0.00002036,0.00001858,-0.00000866,0.00002272,-0.00003344,0.000021
 59,-0.00001504,0.00000981,-0.00001130,-0.00000063,0.00001163,-0.000010
 33,-0.00000323,0.00000815,-0.00000186,0.00000220,-0.00000326,0.0000076
 3,-0.00000106,0.00000292,0.00000015,0.00232994,-0.00093717,0.00031719,
 0.00087919,-0.00082576,0.00035946,-0.00168648,0.00304782,-0.00123504,-
 0.02274698,0.01696323,0.01284399,-0.18745789,0.11171137,0.07855293,0.0
 0115515,0.00035143,-0.00030416,-0.00479788,-0.00255423,-0.00292465,0.2
 0610967,0.00003453,0.00000141,0.00001626,0.00003914,0.00001066,0.00000
 875,-0.00003627,-0.00006052,-0.00000795,0.00009860,-0.00002095,0.00002
 801,-0.00000849,0.00001870,-0.00000315,-0.00000792,0.00000455,-0.00000
 527,-0.00000350,0.00018568,-0.00004250,-0.00006507,-0.00008690,-0.0000
 0411,0.00003402,0.00007344,-0.00000911,0.00003559,0.00009412,-0.000006
 42,-0.00003902,-0.00001385,-0.00002341,-0.00000039,-0.00000202,0.00000
 879,-0.00000123,-0.00000075,-0.00000479,0.00002374,-0.00002097,0.00005
 069,0.00000233,0.00000045,0.00000067,-0.00005028,-0.00029607,0.0000550
 7,-0.00004876,-0.00012299,0.00002134,0.00000536,0.00000569,0.00001030,
 0.00000791,0.00000674,-0.00000054,-0.00000335,-0.00000037,0.00000232,-
 0.00000766,-0.00000122,-0.00000916,0.00000350,0.00000365,-0.00000073,0
 .00000448,-0.00000311,0.00000119,0.00000019,0.00000293,0.00000354,-0.0
 0007940,0.00003773,-0.00000486,0.00010180,-0.00001967,-0.00004057,-0.0
 0003186,0.00000994,-0.00000585,-0.00002715,-0.00000938,0.00001948,-0.0
 0001647,0.00000644,0.00000798,-0.00000332,-0.00000231,-0.00000275,-0.0
 0000130,0.00000494,-0.00000281,-0.00006547,-0.00028442,-0.00015980,0.0
 0051695,0.00022596,0.00005525,-0.00102366,0.00009054,0.00042159,-0.007
 24461,0.00623710,0.00447861,0.11372990,-0.13701799,-0.06282044,0.00068
 950,0.00032141,0.00029122,-0.00243705,-0.00012262,-0.00030014,-0.12256
 286,0.14590748,-0.00005210,0.00001296,-0.00002424,0.00000285,-0.000005
 73,0.00000997,-0.00004839,0.00005969,-0.00001766,0.00011043,-0.0000924
 8,0.00006996,-0.00003633,0.00001795,-0.00002099,0.00002862,-0.00002148
 ,0.00001876,-0.00014259,-0.00004244,-0.00004341,0.00018380,0.00001773,
 0.00006415,-0.00008033,0.00005459,-0.00003295,-0.00005514,-0.00002438,
 -0.00001335,0.00002842,0.00001031,0.00001085,-0.00000080,-0.00000931,-
 0.00000494,-0.00000123,0.00000370,0.00000160,0.00005793,0.00008663,-0.
 00004256,0.00000655,-0.00001017,0.00000433,0.00002507,0.00008974,-0.00
 002610,0.00001609,-0.00002088,0.00000942,-0.00000742,-0.00000452,-0.00
 000643,-0.00000247,-0.00000316,-0.00000141,0.00000040,0.00000123,0.000
 00079,0.00000184,0.00000308,0.00000231,0.00000006,-0.00000113,-0.00000
 067,-0.00000409,0.00000196,-0.00000145,-0.00000003,-0.00000142,-0.0000
 0015,0.00003999,-0.00004360,0.00000613,-0.00004073,0.00008426,-0.00000
 070,0.00002330,-0.00001966,0.00001266,0.00000140,-0.00002484,0.0000083
 9,0.00000251,-0.00002707,-0.00001055,-0.00001735,0.00002041,-0.0000191
 4,-0.00000098,-0.00000631,0.00000073,-0.00109395,0.00008389,-0.0001816
 5,-0.00014173,0.00029528,-0.00041337,0.00100903,-0.00087726,0.00080339
 ,-0.01004258,0.00795970,0.00514216,0.07899426,-0.06184195,-0.09130003,
 0.00040317,0.00072040,0.00055931,-0.00275555,-0.00085593,0.00004022,-0
 .08317621,0.06934399,0.09570451,0.00000367,-0.00000061,0.00000081,-0.0
 0001215,0.00000155,-0.00000680,0.00007284,-0.00000236,0.00001780,-0.00
 020098,0.00010983,-0.00010099,0.00003861,-0.00004873,0.00002572,-0.000
 01989,0.00001078,-0.00000979,0.00017489,-0.00012733,0.00009710,-0.0002
 7531,0.00018200,-0.00013825,0.00002173,-0.00043789,0.00014265,0.000034
 97,-0.00017883,0.00004937,0.00007415,0.00001303,0.00005345,0.00000334,
 0.00002155,-0.00003274,0.00000636,-0.00000948,0.00001499,-0.00005538,-
 0.00002044,0.00000696,-0.00001019,0.00000973,-0.00000627,0.00000680,0.
 00019585,-0.00004683,0.00013550,0.00061284,-0.00017146,-0.00000604,-0.
 00000857,-0.00001571,-0.00002296,-0.00002000,0.00000091,0.00000909,0.0
 0000299,-0.00000386,0.00002519,0.00000067,0.00003252,-0.00001185,-0.00
 000973,0.00000056,-0.00000950,0.00000718,-0.00000347,-0.00000161,-0.00
 000436,-0.00000656,0.00004067,-0.00001361,0.00000586,-0.00004662,0.000
 00482,0.00001828,0.00001443,-0.00000433,0.00000263,0.00001234,0.000006
 29,-0.00001007,0.00000777,-0.00000178,-0.00000312,0.00001082,-0.000003
 98,0.00000744,0.00000175,-0.00000274,0.00000152,0.00165444,-0.00041501
 ,0.00058664,-0.00210187,-0.00348336,0.00008797,-0.00455633,0.00411230,
 -0.00392690,-0.00464557,-0.03121191,0.00858093,-0.05668780,-0.04442664
 ,0.01160726,0.00116983,0.00061321,-0.00022020,0.00080487,0.00061115,0.
 00080764,0.00553594,0.02211571,-0.00737197,0.06017666,-0.00008226,0.00
 001069,-0.00003532,-0.00005688,-0.00000839,-0.00001710,0.00009202,0.00
 009322,0.00002296,-0.00024861,0.00006859,-0.00011679,0.00002502,-0.000
 05776,0.00002363,0.00000910,-0.00000785,0.00000708,0.00006812,-0.00039
 304,0.00013399,0.00001235,0.00030155,-0.00005902,-0.00007304,-0.000351
 08,0.00008365,-0.00006603,-0.00029324,0.00003984,0.00012482,0.00003515
 ,0.00007368,0.00000519,0.00001633,-0.00003346,0.00000811,-0.00000472,0
 .00001631,-0.00005296,0.00007624,-0.00005881,-0.00000777,0.00000294,-0
 .00000405,0.00008329,0.00065087,-0.00015112,0.00019264,0.00057580,-0.0
 0012718,-0.00001477,-0.00001629,-0.00003042,-0.00002810,-0.00002661,0.
 00000312,0.00001300,0.00000333,-0.00000777,0.00002959,0.00000506,0.000
 03883,-0.00001501,-0.00001485,0.00000281,-0.00001571,0.00001274,-0.000
 00529,-0.00000134,-0.00000828,-0.00001099,0.00017099,-0.00009342,0.000
 02036,-0.00020953,0.00010190,0.00004796,0.00007761,-0.00003500,0.00002
 602,0.00004587,-0.00000567,-0.00002024,0.00003137,-0.00003095,-0.00001
 693,0.00000236,0.00001228,-0.00000323,0.00000305,-0.00001341,0.0000051
 1,-0.00140948,-0.00087797,-0.00017959,-0.00197964,-0.00160044,-0.00046
 802,0.00070238,0.00192763,-0.00004852,0.00080322,-0.00739362,0.0024891
 8,-0.04449407,-0.28801965,0.05620973,-0.00005233,0.00001671,-0.0006101
 3,-0.00048258,0.00051082,0.00015912,-0.00406266,-0.01706648,0.00489287
 ,0.05075476,0.31458251,0.00002616,-0.00000402,0.00000886,0.00000953,0.
 00000443,0.00000855,-0.00000722,-0.00002184,0.00002319,-0.00000424,0.0
 0002373,-0.00001047,0.00000717,-0.00000287,0.00000362,-0.00001053,0.00
 000681,-0.00000562,0.00004865,0.00007918,0.00001586,-0.00013003,-0.000
 01264,-0.00005034,0.00003038,-0.00009473,0.00004591,0.00003713,0.00001
 031,0.00001159,-0.00000571,-0.00000363,0.00000305,-0.00000021,0.000004
 57,-0.00000377,0.00000004,-0.00000201,0.00000219,0.00001427,-0.0000405
 5,-0.00002924,-0.00000181,0.00000296,-0.00000194,-0.00001424,-0.000135
 97,0.00000832,0.00000305,0.00010776,-0.00004559,0.00000241,0.00000040,
 0.00000211,-0.00000189,-0.00000124,-0.00000085,-0.00000005,0.00000109,
 -0.00000134,0.00000173,-0.00000040,0.00000448,-0.00000080,0.00000038,-
 0.00000100,0.00000099,-0.00000092,0.00000096,-0.00000020,-0.00000055,-
 0.00000032,-0.00003454,0.00002202,-0.00000263,0.00004454,-0.00002511,-
 0.00001173,-0.00001642,0.00000785,-0.00000551,-0.00000937,0.00000218,0
 .00000432,-0.00000632,0.00000781,0.00000437,0.00000530,-0.00000608,-0.
 00000071,-0.00000020,0.00000281,-0.00000096,0.00096315,0.00036858,0.00
 110811,-0.00037363,-0.00118993,0.00023260,-0.00280479,0.00164071,-0.00
 140464,-0.00206262,-0.01334214,0.00234949,0.01165522,0.05621536,-0.063
 50470,0.00066986,-0.00010950,0.00022434,0.00051074,0.00053469,0.000158
 75,-0.00400842,-0.01325988,0.00258876,-0.01043695,-0.06291898,0.063104
 34,-0.00001337,0.00000940,-0.00000944,0.00002082,0.00000025,0.00000512
 ,-0.00003548,0.00000721,-0.00001811,0.00008463,-0.00004372,0.00004502,
 -0.00001992,0.00001021,-0.00000920,0.00000882,-0.00000797,0.00000652,-
 0.00004278,0.00006618,-0.00002320,-0.00000827,-0.00000764,-0.00001605,
 -0.00001834,-0.00001670,0.00002375,0.00000315,0.00000728,0.00000396,-0
 .00000512,-0.00000238,-0.00000086,0.00000860,0.00000299,-0.00001820,-0
 .00000161,-0.00000089,0.00000438,0.00003887,0.00002348,0.00001409,0.00
 000279,-0.00000418,0.00000114,-0.00000936,-0.00010116,0.00001206,0.000
 01236,0.00003555,-0.00002197,0.00000016,0.00000316,0.00000219,-0.00000
 022,-0.00000314,0.00000052,-0.00000454,-0.00000004,0.00000551,0.000000
 73,0.00000153,0.00000280,-0.00000206,-0.00000278,0.00000075,0.00000165
 ,0.00000018,-0.00000184,0.00000115,0.00000268,0.00000168,-0.00000131,-
 0.00001033,-0.00000378,0.00000264,0.00002645,0.00000773,0.00000022,-0.
 00000432,-0.00000039,-0.00000267,-0.00000836,0.00000080,-0.00000231,-0
 .00000976,-0.00000572,-0.00001406,0.00001252,-0.00000259,-0.00000160,-
 0.00000151,-0.00000037,0.00026563,-0.00034752,0.00085928,0.00031103,-0
 .00005178,0.00059588,-0.00017842,0.00098509,-0.00110464,-0.00121011,0.
 00323096,-0.03237374,-0.04675250,0.00149542,-0.00715010,-0.00556036,-0
 .00234343,-0.00206547,0.00117503,0.00085061,0.00032387,0.00070923,-0.0
 0367816,0.02413624,-0.00137259,0.00009791,0.00589987,0.05260950,0.0000
 5780,-0.00000582,0.00001971,0.00002867,0.00001416,0.00001632,-0.000026
 24,-0.00007126,0.00003254,0.00003336,0.00003105,0.00001308,0.00001063,
 0.00000488,0.00000200,-0.00002224,0.00001524,-0.00001213,0.00008007,0.
 00020682,-0.00001415,-0.00018231,-0.00008526,-0.00006287,0.00007648,0.
 00001108,0.00002657,0.00006769,0.00009508,0.00000925,-0.00005508,-0.00
 001688,-0.00002444,0.00000273,0.00000588,0.00000640,-0.00000105,-0.000
 00272,-0.00000293,0.00003722,-0.00009282,-0.00002847,-0.00000115,0.000
 00477,-0.00000314,-0.00005411,-0.00034502,0.00005055,-0.00004544,-0.00
 007013,-0.00000212,0.00001051,0.00000731,0.00001285,0.00000790,0.00000
 651,0.00000053,-0.00000424,-0.00000030,-0.00000011,-0.00000795,-0.0000
 0145,-0.00000631,0.00000197,0.00000304,-0.00000015,0.00000793,-0.00000
 411,0.00000261,0.00000056,0.00000263,0.00000214,-0.00008879,0.00005475
 ,-0.00000736,0.00010855,-0.00005906,-0.00003699,-0.00003866,0.00001833
 ,-0.00001107,-0.00002381,0.00000355,0.00001372,-0.00001520,0.00001934,
 0.00001262,0.00000750,-0.00001270,0.00000034,-0.00000114,0.00000751,-0
 .00000272,0.00050084,-0.00032089,0.00100683,0.00071021,-0.00010982,0.0
 0048019,-0.00107690,0.00077251,-0.00176375,0.00023451,0.00089835,-0.00
 960561,0.00155587,-0.05090733,0.03225541,-0.00198892,-0.00024737,-0.00
 072793,0.00033799,0.00021506,0.00052363,-0.00106787,0.00190306,-0.0198
 2663,0.00104544,-0.00268562,0.03212935,-0.00022330,0.05073767,0.000026
 52,-0.00000764,0.00001090,-0.00001215,0.00000361,0.00000382,0.00002666
 ,-0.00001052,0.00004610,-0.00010089,0.00007318,-0.00006642,0.00002525,
 -0.00002221,0.00001893,-0.00001988,0.00001395,-0.00001005,0.00011338,-
 0.00000137,0.00007619,-0.00018154,0.00003505,-0.00009429,0.00004883,-0
 .00013625,0.00007977,0.00004031,-0.00003091,0.00003259,-0.00001048,-0.
 00000564,-0.00000306,0.00001031,0.00001455,-0.00001929,0.00000149,-0.0
 0000510,0.00000485,-0.00001423,-0.00007012,-0.00003325,-0.00000531,0.0
 0000651,-0.00000713,0.00001056,-0.00002005,-0.00002540,0.00003256,0.00
 015208,-0.00006114,0.00000593,0.00000499,0.00000454,-0.00000360,-0.000
 00584,0.00000288,-0.00000144,0.00000162,0.00000188,0.00000330,-0.00000
 055,0.00000982,-0.00000544,-0.00000559,0.00000250,0.00000356,0.0000006
 8,-0.00000149,0.00000066,0.00000272,0.00000019,-0.00001431,0.00002125,
 0.00001033,0.00001994,-0.00003854,-0.00003640,-0.00000453,0.00000660,0
 .00000379,-0.00000422,0.00000608,0.00000879,0.00000009,0.00001673,0.00
 001399,0.00001600,-0.00001311,-0.00000172,0.00000153,0.00000165,-0.000
 00170,0.00166408,-0.00002513,0.00175528,0.00041409,-0.00080640,0.00060
 336,-0.00124538,0.00261804,-0.00157404,-0.00052498,0.00034375,-0.01103
 501,-0.00833534,0.03007569,-0.31792187,-0.00243096,-0.00040925,0.00091
 893,-0.00031645,0.00017735,0.00064740,-0.00046936,0.00188917,-0.012896
 65,0.00036292,0.00062672,-0.00483242,0.01087252,-0.03447776,0.34436448
 \\0.00000154,0.00000049,0.00000125,-0.00000108,0.00000044,-0.00000035,
 0.00000047,0.00000143,0.00000099,0.00000073,-0.00000163,-0.00000048,0.
 00000096,0.00000014,-0.00000044,-0.00000007,0.00000057,0.00000140,-0.0
 0000513,0.00000057,0.00000068,0.00000560,-0.00000356,0.00000055,-0.000
 00103,0.00000764,-0.00000241,-0.00000195,0.00000217,-0.00000004,-0.000
 00039,-0.00000180,-0.00000006,0.00000165,-0.00000057,0.00000286,0.0000
 0055,0.00000082,-0.00000148,-0.00000029,0.00000004,-0.00000047,0.00000
 014,0.00000069,0.00000037,0.00000067,0.00000391,-0.00000224,-0.0000002
 6,-0.00000697,0.00000227,0.00000007,-0.00000149,0.00000018,-0.00000008
 ,-0.00000102,0.00000049,-0.00000126,-0.00000089,-0.00000060,-0.0000002
 7,-0.00000036,-0.00000108,-0.00000010,-0.00000169,0.00000003,0.0000000
 4,-0.00000060,0.00000005,0.00000015,-0.00000155,0.00000070,-0.00000384
 ,0.00000211,0.00000035,0.00000598,0.00000004,-0.00000462,0.00000310,0.
 00000041,0.00000212,-0.00000323,-0.00000252,0.00000303,0.00000020,0.00
 000294,0.00000080,0.00000047,0.00000028,0.00000031,0.00000013,0.000000
 60,0.00000035,0.00000044,-0.00000470,0.00000140,0.00000327,0.00000348,
 0.00000067,-0.00000479,-0.00000039,-0.00000222,-0.00000014,0.00000156,
 0.00000032,-0.00000084,0.00000025,-0.00000025,0.00000009,-0.00000065,-
 0.00000076,-0.00000046,-0.00000016,-0.00000128,-0.00000005,0.00000013,
 -0.00000054,-0.00000029,0.,-0.00000090,-0.00000066,-0.00000016,-0.0000
 0094\\\@


 A true friend is someone who is there for
 you when he'd rather be anywhere else.
                               -- Len Wein
 Job cpu time:       0 days  6 hours 34 minutes 40.0 seconds.
 File lengths (MBytes):  RWF=    979 Int=      0 D2E=      0 Chk=     19 Scr=      1
 Normal termination of Gaussian 09 at Tue Feb 19 20:26:07 2019.
WARNING: pbs_rusage is deprecated and values produced may not be accurate


=============================================================================
                                     Resource usage:
                                       CPU time:              32:11:14
   JobId:    5892327.r-man2            Elapsed time:          04:02:52
   Project:             q95            Requested time:        46:00:00
   Service Units:     32.38 
                                       Max physical memory:     1571MB
                                       Max virtual memory:      2890MB
                                       Requested memory:           0MB

                                       Number of cpus:               8

                                       Max jobfs disk use:       1.0GB
                                       Requested jobfs:         20.0GB
=============================================================================

