 Entering Gaussian System, Link 0=/apps/gaussian/g09e01/g09/g09
 AtFile(1): /home/507/hio507/Basis/6-31pGd.gbs
 Initial command:
 /apps/gaussian/g09e01/g09/l1.exe "/jobfs/local/6010683.r-man2/Gau-26363.inp" -scrdir="/jobfs/local/6010683.r-man2/"
 Entering Link 1 = /apps/gaussian/g09e01/g09/l1.exe PID=     26364.
  
 Copyright (c) 1988,1990,1992,1993,1995,1998,2003,2009,2015,
            Gaussian, Inc.  All Rights Reserved.
  
 This is part of the Gaussian(R) 09 program.  It is based on
 the Gaussian(R) 03 system (copyright 2003, Gaussian, Inc.),
 the Gaussian(R) 98 system (copyright 1998, Gaussian, Inc.),
 the Gaussian(R) 94 system (copyright 1995, Gaussian, Inc.),
 the Gaussian 92(TM) system (copyright 1992, Gaussian, Inc.),
 the Gaussian 90(TM) system (copyright 1990, Gaussian, Inc.),
 the Gaussian 88(TM) system (copyright 1988, Gaussian, Inc.),
 the Gaussian 86(TM) system (copyright 1986, Carnegie Mellon
 University), and the Gaussian 82(TM) system (copyright 1983,
 Carnegie Mellon University). Gaussian is a federally registered
 trademark of Gaussian, Inc.
  
 This software contains proprietary and confidential information,
 including trade secrets, belonging to Gaussian, Inc.
  
 This software is provided under written license and may be
 used, copied, transmitted, or stored only in accord with that
 written license.
  
 The following legend is applicable only to US Government
 contracts under FAR:
  
                    RESTRICTED RIGHTS LEGEND
  
 Use, reproduction and disclosure by the US Government is
 subject to restrictions as set forth in subparagraphs (a)
 and (c) of the Commercial Computer Software - Restricted
 Rights clause in FAR 52.227-19.
  
 Gaussian, Inc.
 340 Quinnipiac St., Bldg. 40, Wallingford CT 06492
  
  
 ---------------------------------------------------------------
 Warning -- This program may not be used in any manner that
 competes with the business of Gaussian, Inc. or will provide
 assistance to any competitor of Gaussian, Inc.  The licensee
 of this program is prohibited from giving any competitor of
 Gaussian, Inc. access to this program.  By using this program,
 the user acknowledges that Gaussian, Inc. is engaged in the
 business of creating and licensing software in the field of
 computational chemistry and represents and warrants to the
 licensee that it is not a competitor of Gaussian, Inc. and that
 it will not use this program in any manner prohibited above.
 ---------------------------------------------------------------
  

 Cite this work as:
 Gaussian 09, Revision E.01,
 M. J. Frisch, G. W. Trucks, H. B. Schlegel, G. E. Scuseria, 
 M. A. Robb, J. R. Cheeseman, G. Scalmani, V. Barone, B. Mennucci, 
 G. A. Petersson, H. Nakatsuji, M. Caricato, X. Li, H. P. Hratchian, 
 A. F. Izmaylov, J. Bloino, G. Zheng, J. L. Sonnenberg, M. Hada, 
 M. Ehara, K. Toyota, R. Fukuda, J. Hasegawa, M. Ishida, T. Nakajima, 
 Y. Honda, O. Kitao, H. Nakai, T. Vreven, J. A. Montgomery, Jr., 
 J. E. Peralta, F. Ogliaro, M. Bearpark, J. J. Heyd, E. Brothers, 
 K. N. Kudin, V. N. Staroverov, T. Keith, R. Kobayashi, J. Normand, 
 K. Raghavachari, A. Rendell, J. C. Burant, S. S. Iyengar, J. Tomasi, 
 M. Cossi, N. Rega, J. M. Millam, M. Klene, J. E. Knox, J. B. Cross, 
 V. Bakken, C. Adamo, J. Jaramillo, R. Gomperts, R. E. Stratmann, 
 O. Yazyev, A. J. Austin, R. Cammi, C. Pomelli, J. W. Ochterski, 
 R. L. Martin, K. Morokuma, V. G. Zakrzewski, G. A. Voth, 
 P. Salvador, J. J. Dannenberg, S. Dapprich, A. D. Daniels, 
 O. Farkas, J. B. Foresman, J. V. Ortiz, J. Cioslowski, 
 and D. J. Fox, Gaussian, Inc., Wallingford CT, 2013.
 
 ******************************************
 Gaussian 09:  ES64L-G09RevE.01 30-Nov-2015
                22-Feb-2019 
 ******************************************
 %chk=4OCF3.M062X_6-31pGd_opt_Pentadecane.chk
 %mem=196608000
 %nproc=4
 Will use up to    4 processors via shared memory.
 ----------------------------------------------------------------------
 # M062X/Gen 6D SCF=Tight INT(grid=ultrafine) OPT IOP(2/17=4) SCRF=(SMD
 ,Solvent=n-Pentadecane) maxdisk=2147483648
 ----------------------------------------------------------------------
 1/14=-1,18=20,19=15,26=4,38=1/1,3;
 2/9=110,12=2,17=4,18=5,40=1/2;
 3/5=7,8=2,11=2,16=1,25=1,30=1,70=32201,71=1,72=151,74=-55,75=-5/1,2,3;
 4//1;
 5/5=2,32=2,38=5,53=151/2;
 6/7=2,8=2,9=2,10=2,28=1/1;
 7//1,2,3,16;
 1/14=-1,18=20,19=15,26=4/3(2);
 2/9=110,17=4/2;
 99//99;
 2/9=110,17=4/2;
 3/5=7,6=1,8=2,11=2,16=1,25=1,30=1,70=32205,71=1,72=151,74=-55,75=-5,82=7/1,2,3;
 4/5=5,16=3,69=1/1;
 5/5=2,32=2,38=5,53=151/2;
 7//1,2,3,16;
 1/14=-1,18=20,19=15,26=4/3(-5);
 2/9=110,17=4/2;
 6/7=2,8=2,9=2,10=2,19=2,28=1/1;
 99/9=1/99;
 -----------------------------------
 4OCF3.M062X_6-31pGd_opt_Pentadecane
 -----------------------------------
 Symbolic Z-matrix:
 Charge =  0 Multiplicity = 1
 C                    -0.34687  -2.48877   0.36432 
 C                     0.98257  -2.08853   0.42258 
 C                     1.27272  -0.72899   0.37206 
 C                     0.26181   0.23385   0.26477 
 C                    -1.07265  -0.1932    0.20754 
 C                    -1.36458  -1.55141   0.25789 
 N                     0.65701   1.57907   0.22114 
 C                    -0.14766   2.70391   0.30429 
 N                     0.53527   3.88081   0.23058 
 O                    -1.36522   2.66298   0.43267 
 C                     0.06936   5.06032   0.94401 
 C                     1.00955   6.23182   0.69242 
 C                     0.54198   7.49131   1.41569 
 H                     2.31352  -0.41732   0.41776 
 H                    -1.86984   0.53157   0.12465 
 H                     1.6523    1.73094   0.11602 
 H                     1.37878   3.95455  -0.32205 
 H                     0.01487   4.83905   2.01669 
 H                    -0.94605   5.30872   0.61266 
 H                     1.06778   6.42382  -0.38699 
 H                     2.01966   5.964     1.0291 
 H                    -0.45674   7.7901    1.07924 
 H                     1.2224    8.32764   1.22989 
 H                     0.49703   7.32937   2.49814 
 O                    -0.78165  -3.81812   0.40483 
 C                     0.09949  -4.82085   0.50648 
 F                    -0.57932  -5.96319   0.52335 
 F                     0.96224  -4.8665   -0.52251 
 F                     0.83576  -4.75957   1.6287 
 H                     1.79511  -2.80048   0.50574 
 H                    -2.39447  -1.89166   0.21425 
 

 GradGradGradGradGradGradGradGradGradGradGradGradGradGradGradGradGradGrad
 Berny optimization.
 Initialization pass.
                           ----------------------------
                           !    Initial Parameters    !
                           ! (Angstroms and Degrees)  !
 --------------------------                            --------------------------
 ! Name  Definition              Value          Derivative Info.                !
 --------------------------------------------------------------------------------
 ! R1    R(1,2)                  1.3896         estimate D2E/DX2                !
 ! R2    R(1,6)                  1.3877         estimate D2E/DX2                !
 ! R3    R(1,25)                 1.3992         estimate D2E/DX2                !
 ! R4    R(2,3)                  1.3911         estimate D2E/DX2                !
 ! R5    R(2,30)                 1.0835         estimate D2E/DX2                !
 ! R6    R(3,4)                  1.4002         estimate D2E/DX2                !
 ! R7    R(3,14)                 1.0874         estimate D2E/DX2                !
 ! R8    R(4,5)                  1.4023         estimate D2E/DX2                !
 ! R9    R(4,7)                  1.4027         estimate D2E/DX2                !
 ! R10   R(5,6)                  1.3901         estimate D2E/DX2                !
 ! R11   R(5,15)                 1.0806         estimate D2E/DX2                !
 ! R12   R(6,31)                 1.0855         estimate D2E/DX2                !
 ! R13   R(7,8)                  1.3855         estimate D2E/DX2                !
 ! R14   R(7,16)                 1.0123         estimate D2E/DX2                !
 ! R15   R(8,9)                  1.3627         estimate D2E/DX2                !
 ! R16   R(8,10)                 1.225          estimate D2E/DX2                !
 ! R17   R(9,11)                 1.4551         estimate D2E/DX2                !
 ! R18   R(9,17)                 1.0111         estimate D2E/DX2                !
 ! R19   R(11,12)                1.523          estimate D2E/DX2                !
 ! R20   R(11,18)                1.0966         estimate D2E/DX2                !
 ! R21   R(11,19)                1.0966         estimate D2E/DX2                !
 ! R22   R(12,13)                1.5258         estimate D2E/DX2                !
 ! R23   R(12,20)                1.0979         estimate D2E/DX2                !
 ! R24   R(12,21)                1.0979         estimate D2E/DX2                !
 ! R25   R(13,22)                1.0954         estimate D2E/DX2                !
 ! R26   R(13,23)                1.094          estimate D2E/DX2                !
 ! R27   R(13,24)                1.0954         estimate D2E/DX2                !
 ! R28   R(25,26)                1.3387         estimate D2E/DX2                !
 ! R29   R(26,27)                1.3289         estimate D2E/DX2                !
 ! R30   R(26,28)                1.3436         estimate D2E/DX2                !
 ! R31   R(26,29)                1.3436         estimate D2E/DX2                !
 ! A1    A(2,1,6)              120.6831         estimate D2E/DX2                !
 ! A2    A(2,1,25)             124.7294         estimate D2E/DX2                !
 ! A3    A(6,1,25)             114.5875         estimate D2E/DX2                !
 ! A4    A(1,2,3)              118.6542         estimate D2E/DX2                !
 ! A5    A(1,2,30)             122.1005         estimate D2E/DX2                !
 ! A6    A(3,2,30)             119.2453         estimate D2E/DX2                !
 ! A7    A(2,3,4)              121.6182         estimate D2E/DX2                !
 ! A8    A(2,3,14)             118.5696         estimate D2E/DX2                !
 ! A9    A(4,3,14)             119.8122         estimate D2E/DX2                !
 ! A10   A(3,4,5)              118.7358         estimate D2E/DX2                !
 ! A11   A(3,4,7)              117.2857         estimate D2E/DX2                !
 ! A12   A(5,4,7)              123.9785         estimate D2E/DX2                !
 ! A13   A(4,5,6)              119.7294         estimate D2E/DX2                !
 ! A14   A(4,5,15)             120.061          estimate D2E/DX2                !
 ! A15   A(6,5,15)             120.2096         estimate D2E/DX2                !
 ! A16   A(1,6,5)              120.5793         estimate D2E/DX2                !
 ! A17   A(1,6,31)             119.1538         estimate D2E/DX2                !
 ! A18   A(5,6,31)             120.2668         estimate D2E/DX2                !
 ! A19   A(4,7,8)              127.8117         estimate D2E/DX2                !
 ! A20   A(4,7,16)             115.0942         estimate D2E/DX2                !
 ! A21   A(8,7,16)             117.0941         estimate D2E/DX2                !
 ! A22   A(7,8,9)              114.0076         estimate D2E/DX2                !
 ! A23   A(7,8,10)             123.8078         estimate D2E/DX2                !
 ! A24   A(9,8,10)             122.1846         estimate D2E/DX2                !
 ! A25   A(8,9,11)             120.8705         estimate D2E/DX2                !
 ! A26   A(8,9,17)             120.7066         estimate D2E/DX2                !
 ! A27   A(11,9,17)            118.4229         estimate D2E/DX2                !
 ! A28   A(9,11,12)            110.173          estimate D2E/DX2                !
 ! A29   A(9,11,18)            109.3869         estimate D2E/DX2                !
 ! A30   A(9,11,19)            109.3873         estimate D2E/DX2                !
 ! A31   A(12,11,18)           110.3319         estimate D2E/DX2                !
 ! A32   A(12,11,19)           110.3317         estimate D2E/DX2                !
 ! A33   A(18,11,19)           107.173          estimate D2E/DX2                !
 ! A34   A(11,12,13)           111.5589         estimate D2E/DX2                !
 ! A35   A(11,12,20)           109.2483         estimate D2E/DX2                !
 ! A36   A(11,12,21)           109.2479         estimate D2E/DX2                !
 ! A37   A(13,12,20)           109.7515         estimate D2E/DX2                !
 ! A38   A(13,12,21)           109.7511         estimate D2E/DX2                !
 ! A39   A(20,12,21)           107.1788         estimate D2E/DX2                !
 ! A40   A(12,13,22)           111.0362         estimate D2E/DX2                !
 ! A41   A(12,13,23)           111.0956         estimate D2E/DX2                !
 ! A42   A(12,13,24)           111.0363         estimate D2E/DX2                !
 ! A43   A(22,13,23)           107.84           estimate D2E/DX2                !
 ! A44   A(22,13,24)           107.8437         estimate D2E/DX2                !
 ! A45   A(23,13,24)           107.8392         estimate D2E/DX2                !
 ! A46   A(1,25,26)            120.6163         estimate D2E/DX2                !
 ! A47   A(25,26,27)           107.9759         estimate D2E/DX2                !
 ! A48   A(25,26,28)           112.9505         estimate D2E/DX2                !
 ! A49   A(25,26,29)           112.9506         estimate D2E/DX2                !
 ! A50   A(27,26,28)           107.9696         estimate D2E/DX2                !
 ! A51   A(27,26,29)           107.9698         estimate D2E/DX2                !
 ! A52   A(28,26,29)           106.8187         estimate D2E/DX2                !
 ! D1    D(6,1,2,3)              0.0004         estimate D2E/DX2                !
 ! D2    D(6,1,2,30)          -179.9999         estimate D2E/DX2                !
 ! D3    D(25,1,2,3)           179.9997         estimate D2E/DX2                !
 ! D4    D(25,1,2,30)           -0.0006         estimate D2E/DX2                !
 ! D5    D(2,1,6,5)             -0.0004         estimate D2E/DX2                !
 ! D6    D(2,1,6,31)           179.9995         estimate D2E/DX2                !
 ! D7    D(25,1,6,5)          -179.9997         estimate D2E/DX2                !
 ! D8    D(25,1,6,31)            0.0002         estimate D2E/DX2                !
 ! D9    D(2,1,25,26)            0.0008         estimate D2E/DX2                !
 ! D10   D(6,1,25,26)         -180.0            estimate D2E/DX2                !
 ! D11   D(1,2,3,4)             -0.0001         estimate D2E/DX2                !
 ! D12   D(1,2,3,14)           179.9996         estimate D2E/DX2                !
 ! D13   D(30,2,3,4)          -179.9998         estimate D2E/DX2                !
 ! D14   D(30,2,3,14)           -0.0001         estimate D2E/DX2                !
 ! D15   D(2,3,4,5)             -0.0002         estimate D2E/DX2                !
 ! D16   D(2,3,4,7)            179.9999         estimate D2E/DX2                !
 ! D17   D(14,3,4,5)          -180.0            estimate D2E/DX2                !
 ! D18   D(14,3,4,7)             0.0001         estimate D2E/DX2                !
 ! D19   D(3,4,5,6)              0.0003         estimate D2E/DX2                !
 ! D20   D(3,4,5,15)           179.9999         estimate D2E/DX2                !
 ! D21   D(7,4,5,6)           -179.9999         estimate D2E/DX2                !
 ! D22   D(7,4,5,15)            -0.0003         estimate D2E/DX2                !
 ! D23   D(3,4,7,8)           -170.2263         estimate D2E/DX2                !
 ! D24   D(3,4,7,16)             9.7738         estimate D2E/DX2                !
 ! D25   D(5,4,7,8)              9.7739         estimate D2E/DX2                !
 ! D26   D(5,4,7,16)          -170.226          estimate D2E/DX2                !
 ! D27   D(4,5,6,1)              0.0001         estimate D2E/DX2                !
 ! D28   D(4,5,6,31)          -179.9999         estimate D2E/DX2                !
 ! D29   D(15,5,6,1)          -179.9996         estimate D2E/DX2                !
 ! D30   D(15,5,6,31)            0.0005         estimate D2E/DX2                !
 ! D31   D(4,7,8,9)           -179.9998         estimate D2E/DX2                !
 ! D32   D(4,7,8,10)             0.0            estimate D2E/DX2                !
 ! D33   D(16,7,8,9)             0.0            estimate D2E/DX2                !
 ! D34   D(16,7,8,10)          179.9999         estimate D2E/DX2                !
 ! D35   D(7,8,9,11)          -147.9701         estimate D2E/DX2                !
 ! D36   D(7,8,9,17)            32.0298         estimate D2E/DX2                !
 ! D37   D(10,8,9,11)           32.03           estimate D2E/DX2                !
 ! D38   D(10,8,9,17)         -147.9701         estimate D2E/DX2                !
 ! D39   D(8,9,11,12)         -179.9999         estimate D2E/DX2                !
 ! D40   D(8,9,11,18)           58.5537         estimate D2E/DX2                !
 ! D41   D(8,9,11,19)          -58.5535         estimate D2E/DX2                !
 ! D42   D(17,9,11,12)           0.0002         estimate D2E/DX2                !
 ! D43   D(17,9,11,18)        -121.4462         estimate D2E/DX2                !
 ! D44   D(17,9,11,19)         121.4466         estimate D2E/DX2                !
 ! D45   D(9,11,12,13)         179.4202         estimate D2E/DX2                !
 ! D46   D(9,11,12,20)          57.8974         estimate D2E/DX2                !
 ! D47   D(9,11,12,21)         -59.0577         estimate D2E/DX2                !
 ! D48   D(18,11,12,13)        -59.6977         estimate D2E/DX2                !
 ! D49   D(18,11,12,20)        178.7794         estimate D2E/DX2                !
 ! D50   D(18,11,12,21)         61.8243         estimate D2E/DX2                !
 ! D51   D(19,11,12,13)         58.5379         estimate D2E/DX2                !
 ! D52   D(19,11,12,20)        -62.9849         estimate D2E/DX2                !
 ! D53   D(19,11,12,21)       -179.94           estimate D2E/DX2                !
 ! D54   D(11,12,13,22)        -59.9884         estimate D2E/DX2                !
 ! D55   D(11,12,13,23)        179.9996         estimate D2E/DX2                !
 ! D56   D(11,12,13,24)         59.9886         estimate D2E/DX2                !
 ! D57   D(20,12,13,22)         61.2422         estimate D2E/DX2                !
 ! D58   D(20,12,13,23)        -58.7697         estimate D2E/DX2                !
 ! D59   D(20,12,13,24)       -178.7808         estimate D2E/DX2                !
 ! D60   D(21,12,13,22)        178.7817         estimate D2E/DX2                !
 ! D61   D(21,12,13,23)         58.7698         estimate D2E/DX2                !
 ! D62   D(21,12,13,24)        -61.2413         estimate D2E/DX2                !
 ! D63   D(1,25,26,27)         179.9998         estimate D2E/DX2                !
 ! D64   D(1,25,26,28)         -60.6847         estimate D2E/DX2                !
 ! D65   D(1,25,26,29)          60.684          estimate D2E/DX2                !
 --------------------------------------------------------------------------------
 Trust Radius=3.00D-01 FncErr=1.00D-07 GrdErr=1.00D-06
 Number of steps in this run=    158 maximum allowed number of steps=    186.
 GradGradGradGradGradGradGradGradGradGradGradGradGradGradGradGradGradGrad

                          Input orientation:                          
 ---------------------------------------------------------------------
 Center     Atomic      Atomic             Coordinates (Angstroms)
 Number     Number       Type             X           Y           Z
 ---------------------------------------------------------------------
      1          6           0       -0.346870   -2.488770    0.364320
      2          6           0        0.982570   -2.088530    0.422580
      3          6           0        1.272720   -0.728990    0.372060
      4          6           0        0.261810    0.233850    0.264770
      5          6           0       -1.072650   -0.193200    0.207540
      6          6           0       -1.364580   -1.551410    0.257890
      7          7           0        0.657010    1.579070    0.221140
      8          6           0       -0.147660    2.703910    0.304290
      9          7           0        0.535270    3.880810    0.230580
     10          8           0       -1.365220    2.662980    0.432670
     11          6           0        0.069360    5.060320    0.944010
     12          6           0        1.009550    6.231820    0.692420
     13          6           0        0.541980    7.491310    1.415690
     14          1           0        2.313520   -0.417320    0.417760
     15          1           0       -1.869840    0.531570    0.124650
     16          1           0        1.652300    1.730940    0.116020
     17          1           0        1.378780    3.954550   -0.322050
     18          1           0        0.014870    4.839050    2.016690
     19          1           0       -0.946050    5.308720    0.612660
     20          1           0        1.067780    6.423820   -0.386990
     21          1           0        2.019660    5.964000    1.029100
     22          1           0       -0.456740    7.790100    1.079240
     23          1           0        1.222400    8.327640    1.229890
     24          1           0        0.497030    7.329370    2.498140
     25          8           0       -0.781650   -3.818120    0.404830
     26          6           0        0.099490   -4.820850    0.506480
     27          9           0       -0.579320   -5.963190    0.523350
     28          9           0        0.962240   -4.866500   -0.522510
     29          9           0        0.835760   -4.759570    1.628700
     30          1           0        1.795110   -2.800480    0.505740
     31          1           0       -2.394470   -1.891660    0.214250
 ---------------------------------------------------------------------
                    Distance matrix (angstroms):
                    1          2          3          4          5
     1  C    0.000000
     2  C    1.389603   0.000000
     3  C    2.391643   1.391075   0.000000
     4  C    2.791605   2.436770   1.400183   0.000000
     5  C    2.412670   2.804006   2.411410   1.402295   0.000000
     6  C    1.387698   2.413449   2.764916   2.415025   1.390141
     7  N    4.192326   3.687527   2.393536   1.402749   2.476459
     8  C    5.196847   4.925332   3.715760   2.504081   3.042731
     9  N    6.431765   5.989154   4.670557   3.657358   4.379897
    10  O    5.251879   5.299912   4.297425   2.928496   2.879938
    11  C    7.582747   7.225780   5.940649   4.877829   5.426421
    12  C    8.831547   8.324768   6.973146   6.059509   6.771377
    13  C   10.074593   9.641251   8.318442   7.353492   7.944706
    14  H    3.372156   2.136444   1.087424   2.157995   3.400084
    15  H    3.391067   3.884576   3.394983   2.156897   1.080590
    16  H    4.675926   3.889842   2.502178   2.048626   3.337071
    17  H    6.705620   6.101661   4.735883   3.928815   4.847041
    18  H    7.520514   7.174189   5.940544   4.933363   5.457038
    19  H    7.824419   7.646896   6.436985   5.228218   5.518267
    20  H    9.055383   8.551185   7.195891   6.276154   6.979961
    21  H    8.802938   8.141662   6.766516   6.042256   6.938909
    22  H   10.304288  10.004506   8.721584   7.633911   8.054333
    23  H   10.963875  10.450161   9.097305   8.207535   8.883534
    24  H   10.082719   9.656114   8.370130   7.442424   8.018716
    25  O    1.399231   2.470682   3.710018   4.186512   3.641929
    26  C    2.378664   2.872706   4.258856   5.063078   4.783139
    27  F    3.485817   4.178833   5.554259   6.259207   5.799646
    28  F    2.855492   2.934404   4.244484   5.208069   5.149125
    29  F    2.855486   2.934405   4.244485   5.208067   5.149122
    30  H    2.169157   1.083517   2.140522   3.408260   3.887271
    31  H    2.138160   3.389183   3.850323   3.402377   2.152213
                    6          7          8          9         10
     6  C    0.000000
     7  N    3.726672   0.000000
     8  C    4.426149   1.385523   0.000000
     9  N    5.754927   2.304977   1.362689   0.000000
    10  O    4.218013   2.304131   1.224993   2.266233   0.000000
    11  C    6.800141   3.603745   2.451328   1.455094   2.840198
    12  C    8.148864   4.689826   3.733086   2.442434   4.294604
    13  C    9.313767   6.032807   4.962863   3.800032   5.283608
    14  H    3.852290   2.601588   3.976476   4.655226   4.798083
    15  H    2.147521   2.737067   2.777991   4.124704   2.211883
    16  H    4.460439   1.012283   2.054744   2.425453   3.174018
    17  H    6.178831   2.541439   2.070367   1.011112   3.125267
    18  H    6.770099   3.776746   2.741816   2.092661   3.024739
    19  H    6.882036   4.078404   2.741816   2.092659   2.684779
    20  H    8.362807   4.900016   3.974027   2.670554   4.553597
    21  H    8.278239   4.662320   3.981308   2.679688   4.765488
    22  H    9.421390   6.368176   5.154164   4.121511   5.246975
    23  H   10.258308   6.846929   5.861752   4.609237   6.278512
    24  H    9.346259   6.186782   5.159795   4.127452   5.432250
    25  O    2.345074   5.588662   6.553543   7.812693   6.507379
    26  C    3.590896   6.430492   7.531532   8.716932   7.626174
    27  F    4.488976   7.648891   8.680607   9.911224   8.662371
    28  F    4.124674   6.495503   7.695881   8.790044   7.938672
    29  F    4.124671   6.495501   7.643606   8.757922   7.833840
    30  H    3.406647   4.533953   5.840655   6.804597   6.312085
    31  H    1.085517   4.621422   5.116202   6.473411   4.674592
                   11         12         13         14         15
    11  C    0.000000
    12  C    1.523045   0.000000
    13  C    2.521024   1.525797   0.000000
    14  H    5.942872   6.781360   8.165822   0.000000
    15  H    4.994139   6.411404   7.478077   4.299629   0.000000
    16  H    3.778364   4.582934   6.008645   2.267880   3.720757
    17  H    2.130778   2.520206   4.028479   4.531479   4.740239
    18  H    1.096618   2.163998   2.770114   5.955652   5.068168
    19  H    1.096610   2.163989   2.760940   6.591685   4.890062
    20  H    2.151171   1.097898   2.160013   7.000049   6.603787
    21  H    2.151174   1.097909   2.160015   6.417269   6.742220
    22  H    2.783301   2.174367   1.095407   8.687557   7.456162
    23  H    3.476580   2.174084   1.094048   8.850109   8.459445
    24  H    2.783309   2.174377   1.095419   8.224283   7.579288
    25  O    8.935414  10.212365  11.431406   4.598444   4.492489
    26  C    9.890898  11.091632  12.353613   4.929592   5.715982
    27  F   11.050589  12.299242  13.530601   6.255905   6.633725
    28  F   10.074208  11.164721  12.515938   4.743972   6.130143
    29  F    9.873521  11.032564  12.256253   4.743974   6.130139
    30  H    8.059930   9.068318  10.407655   2.440480   4.967861
    31  H    7.411682   8.820823   9.904864   4.937638   2.480989
                   16         17         18         19         20
    16  H    0.000000
    17  H    2.282797   0.000000
    18  H    3.994255   2.848209   0.000000
    19  H    4.449560   2.848209   1.765009   0.000000
    20  H    4.755818   2.489625   3.065582   2.509633   0.000000
    21  H    4.345971   2.504840   2.502005   3.065657   1.767150
    22  H    6.487624   4.477074   3.132080   2.571841   2.518077
    23  H    6.703877   4.642940   3.774579   3.767894   2.502546
    24  H    6.192864   4.485573   2.581853   3.117778   3.077296
    25  O    6.066267   8.100013   8.841896   9.130686  10.437658
    26  C    6.744600   8.906778   9.777605  10.183939  11.321593
    27  F    8.021576  10.144477  10.921150  11.278228  12.529153
    28  F    6.664092   8.833154  10.076842  10.414667  11.291627
    29  F    6.714288   8.946294   9.641468  10.275098  11.365960
    30  H    4.550389   6.818284   7.988407   8.560638   9.295896
    31  H    5.432240   6.978768   7.372663   7.355415   9.027506
                   21         22         23         24         25
    21  H    0.000000
    22  H    3.077290   0.000000
    23  H    2.502546   1.769507   0.000000
    24  H    2.518078   1.770657   1.769509   0.000000
    25  O   10.194455  11.632333  12.337602  11.414180   0.000000
    26  C   10.966913  12.636198  13.216166  12.318790   1.338734
    27  F   12.217542  13.765065  14.421276  13.481486   2.157848
    28  F   10.992059  12.836223  13.312547  12.572987   2.236115
    29  F   10.805373  12.628012  13.098993  12.124897   2.236113
    30  H    8.782963  10.842514  11.166353  10.405217   2.772267
    31  H    9.047647   9.911583  10.887946   9.929971   2.519674
                   26         27         28         29         30
    26  C    0.000000
    27  F    1.328912   0.000000
    28  F    1.343593   2.161703   0.000000
    29  F    1.343587   2.161701   2.157576   0.000000
    30  H    2.637617   3.954866   2.453448   2.453452   0.000000
    31  H    3.858159   4.468520   4.545326   4.545323   4.296918
                   31
    31  H    0.000000
 Stoichiometry    C11H13F3N2O2
 Framework group  C1[X(C11H13F3N2O2)]
 Deg. of freedom    87
 Full point group                 C1      NOp   1
 Largest Abelian subgroup         C1      NOp   1
 Largest concise Abelian subgroup C1      NOp   1
                         Standard orientation:                         
 ---------------------------------------------------------------------
 Center     Atomic      Atomic             Coordinates (Angstroms)
 Number     Number       Type             X           Y           Z
 ---------------------------------------------------------------------
      1          6           0       -2.465944    0.402293   -0.031530
      2          6           0       -2.028074   -0.916120   -0.064002
      3          6           0       -0.663609   -1.163301   -0.174566
      4          6           0        0.267342   -0.120373   -0.252947
      5          6           0       -0.197415    1.202212   -0.218302
      6          6           0       -1.560606    1.451217   -0.107845
      7          7           0        1.620580   -0.473198   -0.362338
      8          6           0        2.725330    0.357637   -0.267929
      9          7           0        3.917203   -0.285467   -0.418849
     10          8           0        2.655701    1.564063   -0.067193
     11          6           0        5.106798    0.172546    0.282854
     12          6           0        6.294316   -0.717177   -0.060454
     13          6           0        7.564100   -0.255754    0.648626
     14          1           0       -0.322474   -2.195521   -0.199847
     15          1           0        0.502296    2.023550   -0.277303
     16          1           0        1.795794   -1.455941   -0.530364
     17          1           0        3.995307   -1.093202   -1.022017
     18          1           0        4.920057    0.158630    1.363366
     19          1           0        5.316369    1.212157    0.003853
     20          1           0        6.451690   -0.707454   -1.146971
     21          1           0        6.065377   -1.752370    0.224792
     22          1           0        7.824297    0.768958    0.361959
     23          1           0        8.411909   -0.899770    0.396822
     24          1           0        7.437219   -0.278032    1.736444
     25          8           0       -3.804504    0.795256    0.076563
     26          6           0       -4.779016   -0.119005    0.158187
     27          9           0       -5.938146    0.524268    0.251055
     28          9           0       -4.835569   -0.921928   -0.917619
     29          9           0       -4.660368   -0.916690    1.232826
     30          1           0       -2.714552   -1.752419   -0.006038
     31          1           0       -1.929930    2.471603   -0.080242
 ---------------------------------------------------------------------
 Rotational constants (GHZ):      1.8958655      0.1117263      0.1085730
 General basis read from cards:  (6D, 7F)
 There are   368 symmetry adapted cartesian basis functions of A   symmetry.
 There are   368 symmetry adapted basis functions of A   symmetry.
   368 basis functions,   628 primitive gaussians,   368 cartesian basis functions
    68 alpha electrons       68 beta electrons
       nuclear repulsion energy      1295.0217850840 Hartrees.
 NAtoms=   31 NActive=   31 NUniq=   31 SFac= 1.00D+00 NAtFMM=   60 NAOKFM=F Big=F
 Integral buffers will be    131072 words long.
 Raffenetti 2 integral format.
 Two-electron integral symmetry is turned on.
 ------------------------------------------------------------------------------
 Polarizable Continuum Model (PCM)
 =================================
 Model                : PCM (using non-symmetric T matrix).
 Atomic radii         : SMD-Coulomb.
 Polarization charges : Total charges.
 Charge compensation  : None.
 Solution method      : On-the-fly selection.
 Cavity type          : VdW (van der Waals Surface) (Alpha=1.000).
 Cavity algorithm     : GePol (No added spheres)
                        Default sphere list used, NSphG=   31.
                        Lebedev-Laikov grids with approx.  5.0 points / Ang**2.
                        Smoothing algorithm: York/Karplus (Gamma=1.0000).
                        Polarization charges: spherical gaussians, with
                                              point-specific exponents (IZeta= 3).
                        Self-potential: point-specific (ISelfS= 7).
                        Self-field    : sphere-specific E.n sum rule (ISelfD= 2).
 1st derivatives      : Analytical E(r).r(x)/FMM algorithm (CHGder, D1EAlg=3).
                        Cavity 1st derivative terms included.
 Solvent              : n-Pentadecane, Eps=   2.033300 Eps(inf)=   2.049192
 ------------------------------------------------------------------------------
 ------------------------------------------------------------------------------
 Atomic radii for non-electrostatic terms: SMD-CDS.
 ------------------------------------------------------------------------------
 Nuclear repulsion after PCM non-electrostatic terms =     1295.0154265885 Hartrees.
 One-electron integrals computed using PRISM.
 NBasis=   368 RedAO= T EigKep=  1.86D-06  NBF=   368
 NBsUse=   368 1.00D-06 EigRej= -1.00D+00 NBFU=   368
 ExpMin= 4.38D-02 ExpMax= 7.00D+03 ExpMxC= 1.05D+03 IAcc=3 IRadAn=         5 AccDes= 0.00D+00
 Harris functional with IExCor= 1009 and IRadAn=       5 diagonalized for initial guess.
 HarFok:  IExCor= 1009 AccDes= 0.00D+00 IRadAn=         5 IDoV= 1 UseB2=F ITyADJ=14
 ICtDFT=  3500011 ScaDFX=  1.000000  1.000000  1.000000  1.000000
 FoFCou: FMM=F IPFlag=           0 FMFlag=      100000 FMFlg1=           0
         NFxFlg=           0 DoJE=T BraDBF=F KetDBF=T FulRan=T
         wScrn=  0.000000 ICntrl=     500 IOpCl=  0 I1Cent=   200000004 NGrid=           0
         NMat0=    1 NMatS0=      1 NMatT0=    0 NMatD0=    1 NMtDS0=    0 NMtDT0=    0
 Petite list used in FoFCou.
 Requested convergence on RMS density matrix=1.00D-08 within 128 cycles.
 Requested convergence on MAX density matrix=1.00D-06.
 Requested convergence on             energy=1.00D-06.
 No special actions if energy rises.
 Inv3:  Mode=1 IEnd=    17251212.
 Iteration    1 A*A^-1 deviation from unit magnitude is 4.22D-15 for   2368.
 Iteration    1 A*A^-1 deviation from orthogonality  is 2.04D-15 for    990    393.
 Iteration    1 A^-1*A deviation from unit magnitude is 5.11D-15 for   2382.
 Iteration    1 A^-1*A deviation from orthogonality  is 1.90D-14 for   1399   1371.
 Error on total polarization charges =  0.02166
 SCF Done:  E(RM062X) =  -986.171050098     A.U. after   15 cycles
            NFock= 15  Conv=0.55D-08     -V/T= 2.0081
 SMD-CDS (non-electrostatic) energy       (kcal/mol) =      -3.99
 (included in total energy above)

 **********************************************************************

            Population analysis using the SCF density.

 **********************************************************************

 Orbital symmetries:
       Occupied  (A) (A) (A) (A) (A) (A) (A) (A) (A) (A) (A) (A)
                 (A) (A) (A) (A) (A) (A) (A) (A) (A) (A) (A) (A)
                 (A) (A) (A) (A) (A) (A) (A) (A) (A) (A) (A) (A)
                 (A) (A) (A) (A) (A) (A) (A) (A) (A) (A) (A) (A)
                 (A) (A) (A) (A) (A) (A) (A) (A) (A) (A) (A) (A)
                 (A) (A) (A) (A) (A) (A) (A) (A)
       Virtual   (A) (A) (A) (A) (A) (A) (A) (A) (A) (A) (A) (A)
                 (A) (A) (A) (A) (A) (A) (A) (A) (A) (A) (A) (A)
                 (A) (A) (A) (A) (A) (A) (A) (A) (A) (A) (A) (A)
                 (A) (A) (A) (A) (A) (A) (A) (A) (A) (A) (A) (A)
                 (A) (A) (A) (A) (A) (A) (A) (A) (A) (A) (A) (A)
                 (A) (A) (A) (A) (A) (A) (A) (A) (A) (A) (A) (A)
                 (A) (A) (A) (A) (A) (A) (A) (A) (A) (A) (A) (A)
                 (A) (A) (A) (A) (A) (A) (A) (A) (A) (A) (A) (A)
                 (A) (A) (A) (A) (A) (A) (A) (A) (A) (A) (A) (A)
                 (A) (A) (A) (A) (A) (A) (A) (A) (A) (A) (A) (A)
                 (A) (A) (A) (A) (A) (A) (A) (A) (A) (A) (A) (A)
                 (A) (A) (A) (A) (A) (A) (A) (A) (A) (A) (A) (A)
                 (A) (A) (A) (A) (A) (A) (A) (A) (A) (A) (A) (A)
                 (A) (A) (A) (A) (A) (A) (A) (A) (A) (A) (A) (A)
                 (A) (A) (A) (A) (A) (A) (A) (A) (A) (A) (A) (A)
                 (A) (A) (A) (A) (A) (A) (A) (A) (A) (A) (A) (A)
                 (A) (A) (A) (A) (A) (A) (A) (A) (A) (A) (A) (A)
                 (A) (A) (A) (A) (A) (A) (A) (A) (A) (A) (A) (A)
                 (A) (A) (A) (A) (A) (A) (A) (A) (A) (A) (A) (A)
                 (A) (A) (A) (A) (A) (A) (A) (A) (A) (A) (A) (A)
                 (A) (A) (A) (A) (A) (A) (A) (A) (A) (A) (A) (A)
                 (A) (A) (A) (A) (A) (A) (A) (A) (A) (A) (A) (A)
                 (A) (A) (A) (A) (A) (A) (A) (A) (A) (A) (A) (A)
                 (A) (A) (A) (A) (A) (A) (A) (A) (A) (A) (A) (A)
                 (A) (A) (A) (A) (A) (A) (A) (A) (A) (A) (A) (A)
 The electronic state is 1-A.
 Alpha  occ. eigenvalues --  -25.31596 -25.31418 -25.31404 -19.72204 -19.61523
 Alpha  occ. eigenvalues --  -14.80669 -14.78108 -10.87089 -10.68857 -10.63230
 Alpha  occ. eigenvalues --  -10.61079 -10.58189 -10.57199 -10.56927 -10.56524
 Alpha  occ. eigenvalues --  -10.55946 -10.55384 -10.54009  -1.49387  -1.39437
 Alpha  occ. eigenvalues --   -1.38973  -1.24619  -1.17985  -1.06273  -1.03010
 Alpha  occ. eigenvalues --   -0.97126  -0.89235  -0.87445  -0.86109  -0.81681
 Alpha  occ. eigenvalues --   -0.78206  -0.75095  -0.73416  -0.71908  -0.70436
 Alpha  occ. eigenvalues --   -0.69437  -0.69225  -0.65999  -0.63516  -0.61703
 Alpha  occ. eigenvalues --   -0.59751  -0.59109  -0.57498  -0.56208  -0.55588
 Alpha  occ. eigenvalues --   -0.55068  -0.54618  -0.54065  -0.52522  -0.52195
 Alpha  occ. eigenvalues --   -0.52110  -0.50710  -0.50202  -0.49605  -0.48041
 Alpha  occ. eigenvalues --   -0.47400  -0.47071  -0.46722  -0.44003  -0.42865
 Alpha  occ. eigenvalues --   -0.41965  -0.40793  -0.40348  -0.37271  -0.34800
 Alpha  occ. eigenvalues --   -0.32236  -0.31563  -0.27021
 Alpha virt. eigenvalues --    0.00329   0.00817   0.01599   0.02341   0.03051
 Alpha virt. eigenvalues --    0.03495   0.03741   0.04227   0.04645   0.05274
 Alpha virt. eigenvalues --    0.05434   0.06035   0.06500   0.07092   0.07536
 Alpha virt. eigenvalues --    0.07557   0.08172   0.08776   0.09149   0.09503
 Alpha virt. eigenvalues --    0.09850   0.10019   0.10753   0.11625   0.11926
 Alpha virt. eigenvalues --    0.12565   0.13477   0.14008   0.14534   0.14784
 Alpha virt. eigenvalues --    0.15127   0.15361   0.15946   0.16439   0.16741
 Alpha virt. eigenvalues --    0.17427   0.18433   0.19206   0.19427   0.19725
 Alpha virt. eigenvalues --    0.20600   0.21199   0.21647   0.21991   0.22353
 Alpha virt. eigenvalues --    0.22403   0.23106   0.23214   0.23402   0.24122
 Alpha virt. eigenvalues --    0.24218   0.24598   0.25086   0.25464   0.25594
 Alpha virt. eigenvalues --    0.25921   0.26713   0.27342   0.27760   0.28329
 Alpha virt. eigenvalues --    0.28560   0.29105   0.29396   0.29611   0.30095
 Alpha virt. eigenvalues --    0.30594   0.30800   0.31687   0.31882   0.32128
 Alpha virt. eigenvalues --    0.32655   0.32874   0.33060   0.33246   0.33955
 Alpha virt. eigenvalues --    0.34416   0.35036   0.35189   0.35985   0.36137
 Alpha virt. eigenvalues --    0.36470   0.37082   0.37502   0.38228   0.38603
 Alpha virt. eigenvalues --    0.38691   0.39582   0.39801   0.40775   0.40847
 Alpha virt. eigenvalues --    0.42209   0.42968   0.43466   0.44253   0.44770
 Alpha virt. eigenvalues --    0.45462   0.46007   0.47996   0.49381   0.50848
 Alpha virt. eigenvalues --    0.52361   0.53087   0.56931   0.58990   0.60175
 Alpha virt. eigenvalues --    0.64481   0.67652   0.68317   0.69130   0.69649
 Alpha virt. eigenvalues --    0.71461   0.72891   0.73684   0.74033   0.75852
 Alpha virt. eigenvalues --    0.77722   0.78703   0.78799   0.79718   0.80120
 Alpha virt. eigenvalues --    0.80826   0.81945   0.82988   0.84139   0.84731
 Alpha virt. eigenvalues --    0.85150   0.85740   0.87918   0.88616   0.90531
 Alpha virt. eigenvalues --    0.91790   0.94385   0.96694   0.98571   1.00009
 Alpha virt. eigenvalues --    1.00481   1.01237   1.01906   1.03222   1.03704
 Alpha virt. eigenvalues --    1.04536   1.05022   1.06164   1.07392   1.09583
 Alpha virt. eigenvalues --    1.10988   1.12159   1.12359   1.13746   1.14693
 Alpha virt. eigenvalues --    1.15948   1.16393   1.17361   1.17449   1.19098
 Alpha virt. eigenvalues --    1.19893   1.21493   1.23408   1.24929   1.26054
 Alpha virt. eigenvalues --    1.27199   1.28688   1.30126   1.30692   1.32243
 Alpha virt. eigenvalues --    1.33031   1.35981   1.36881   1.38361   1.39748
 Alpha virt. eigenvalues --    1.41177   1.43014   1.43890   1.46371   1.47430
 Alpha virt. eigenvalues --    1.48538   1.49727   1.50336   1.51487   1.52692
 Alpha virt. eigenvalues --    1.53216   1.54726   1.55271   1.57458   1.59904
 Alpha virt. eigenvalues --    1.60261   1.62568   1.64600   1.67359   1.69482
 Alpha virt. eigenvalues --    1.70580   1.70936   1.71451   1.71691   1.73444
 Alpha virt. eigenvalues --    1.75686   1.77964   1.79761   1.81621   1.84126
 Alpha virt. eigenvalues --    1.86887   1.87090   1.87697   1.87742   1.88402
 Alpha virt. eigenvalues --    1.89042   1.89153   1.90827   1.92501   1.92845
 Alpha virt. eigenvalues --    1.93012   1.93735   1.95795   1.96979   1.97309
 Alpha virt. eigenvalues --    1.98228   1.98629   1.99779   2.01129   2.03527
 Alpha virt. eigenvalues --    2.04333   2.04809   2.05852   2.07381   2.08949
 Alpha virt. eigenvalues --    2.09431   2.11429   2.11837   2.12608   2.13198
 Alpha virt. eigenvalues --    2.13982   2.14506   2.16758   2.18918   2.19158
 Alpha virt. eigenvalues --    2.20646   2.21538   2.23798   2.25949   2.29218
 Alpha virt. eigenvalues --    2.30350   2.31894   2.32212   2.33950   2.38174
 Alpha virt. eigenvalues --    2.38389   2.41304   2.42371   2.44558   2.45103
 Alpha virt. eigenvalues --    2.46322   2.48796   2.55636   2.58649   2.58951
 Alpha virt. eigenvalues --    2.64227   2.65518   2.66080   2.67352   2.70853
 Alpha virt. eigenvalues --    2.71140   2.74090   2.75806   2.77019   2.79624
 Alpha virt. eigenvalues --    2.82633   2.83247   2.83431   2.84230   2.87355
 Alpha virt. eigenvalues --    2.93923   2.96374   3.00149   3.11505   3.13085
 Alpha virt. eigenvalues --    3.18674   3.21160   3.26421   3.30433   3.33883
 Alpha virt. eigenvalues --    3.40451   3.47689   4.15468   4.25999   4.27802
 Alpha virt. eigenvalues --    4.28563   4.35673   4.40563   4.41703   4.42279
 Alpha virt. eigenvalues --    4.48567   4.52873   4.57403   4.58674   4.66332
 Alpha virt. eigenvalues --    4.71986   4.86521   5.57348   6.26440   7.04547
          Condensed to atoms (all electrons):
               1          2          3          4          5          6
     1  C   12.134388   1.250053  -0.444102  -3.312397  -1.386455  -2.248039
     2  C    1.250053  13.128295  -5.207373  -1.304609  -0.145613  -2.598392
     3  C   -0.444102  -5.207373  17.289857   0.644038  -3.572275  -1.112907
     4  C   -3.312397  -1.304609   0.644038  11.535730  -0.411388  -0.491554
     5  C   -1.386455  -0.145613  -3.572275  -0.411388  12.797959  -2.617096
     6  C   -2.248039  -2.598392  -1.112907  -0.491554  -2.617096  16.255534
     7  N    0.024875   0.041551   0.553266  -0.087289  -0.464757  -0.039368
     8  C   -0.373879  -0.104922  -0.500254  -0.148198   0.363687  -0.181432
     9  N    0.009450   0.021914  -0.129427  -0.048592   0.073514   0.008431
    10  O   -0.010631   0.011606  -0.140621  -0.359429   0.309209   0.147423
    11  C   -0.027088  -0.012922  -0.032428  -0.011011  -0.089132  -0.063599
    12  C    0.002507   0.001440   0.005030   0.011948   0.012545   0.003238
    13  C   -0.000096  -0.000119  -0.000811   0.001090  -0.001332  -0.000487
    14  H    0.011924   0.087563   0.090956   0.077129   0.076331  -0.040244
    15  H    0.065006  -0.010742   0.040991  -0.005694   0.268625  -0.035981
    16  H    0.001199   0.066489  -0.088467  -0.000134   0.020350   0.013346
    17  H   -0.000104  -0.001075  -0.004062   0.007288   0.002582   0.000161
    18  H   -0.000121  -0.000094  -0.000008  -0.002339  -0.000299   0.000268
    19  H    0.000046   0.000059  -0.000891  -0.002505   0.002608   0.000216
    20  H   -0.000003  -0.000010  -0.000058  -0.000661   0.000266   0.000034
    21  H    0.000005   0.000042   0.000484   0.000556  -0.000784  -0.000088
    22  H   -0.000000   0.000000   0.000010  -0.000026  -0.000091  -0.000006
    23  H   -0.000000  -0.000000  -0.000002  -0.000025  -0.000004  -0.000000
    24  H    0.000000  -0.000001   0.000003   0.000125   0.000004   0.000001
    25  O    0.204541  -0.007690   0.010117  -0.004207   0.094197  -0.392859
    26  C    0.353612  -0.056965  -0.185333  -0.223946  -0.044070  -0.258265
    27  F   -0.029733   0.034824   0.017366   0.001850  -0.002721  -0.005069
    28  F   -0.012938  -0.004047   0.031242   0.017193   0.007297  -0.004943
    29  F    0.010118  -0.006560   0.030608   0.007955  -0.013417  -0.000076
    30  H    0.036204   0.299439  -0.028629   0.006140  -0.005724  -0.006456
    31  H    0.017772   0.047721  -0.042916   0.001107  -0.036511   0.325149
               7          8          9         10         11         12
     1  C    0.024875  -0.373879   0.009450  -0.010631  -0.027088   0.002507
     2  C    0.041551  -0.104922   0.021914   0.011606  -0.012922   0.001440
     3  C    0.553266  -0.500254  -0.129427  -0.140621  -0.032428   0.005030
     4  C   -0.087289  -0.148198  -0.048592  -0.359429  -0.011011   0.011948
     5  C   -0.464757   0.363687   0.073514   0.309209  -0.089132   0.012545
     6  C   -0.039368  -0.181432   0.008431   0.147423  -0.063599   0.003238
     7  N    7.815680   0.055560  -0.381121  -0.088073  -0.034801   0.010968
     8  C    0.055560   5.479493   0.333845   0.606282  -0.426569   0.120673
     9  N   -0.381121   0.333845   7.679577  -0.184050   0.172672  -0.043354
    10  O   -0.088073   0.606282  -0.184050   8.319137  -0.031338   0.002160
    11  C   -0.034801  -0.426569   0.172672  -0.031338   6.586285  -0.345166
    12  C    0.010968   0.120673  -0.043354   0.002160  -0.345166   6.032361
    13  C    0.001233  -0.025548  -0.000070  -0.000234  -0.048833   0.000508
    14  H   -0.013696   0.002125   0.001165   0.000009   0.000035   0.000057
    15  H   -0.013345  -0.002034   0.000050  -0.006153   0.000142  -0.000036
    16  H    0.242296  -0.037522   0.018972   0.006750  -0.003654  -0.000246
    17  H    0.019494   0.010777   0.260713   0.007853  -0.046313  -0.000906
    18  H    0.009882   0.004986  -0.075789   0.002307   0.415199  -0.045740
    19  H   -0.005123  -0.015732  -0.049085   0.000316   0.425861  -0.042688
    20  H    0.002271   0.006811   0.009634  -0.000102  -0.103078   0.428664
    21  H   -0.002535  -0.008267   0.006125  -0.000201  -0.056920   0.416265
    22  H   -0.000083  -0.003964  -0.000559  -0.000075  -0.004567  -0.064622
    23  H    0.000007  -0.001577   0.000208   0.000004   0.029208  -0.080547
    24  H    0.000150   0.002111   0.001364   0.000010  -0.010457  -0.064303
    25  O   -0.000463   0.002434  -0.000020   0.000053   0.000042  -0.000001
    26  C    0.001510  -0.013467   0.000262  -0.000104  -0.000286   0.000016
    27  F    0.000002   0.000046   0.000000   0.000000   0.000000  -0.000000
    28  F   -0.000035   0.000148   0.000001   0.000000   0.000001   0.000000
    29  F    0.000029  -0.000095  -0.000001  -0.000001  -0.000003   0.000000
    30  H    0.000084   0.001416  -0.000000  -0.000001   0.000013  -0.000001
    31  H   -0.000514   0.000866   0.000000   0.000142   0.000006   0.000001
              13         14         15         16         17         18
     1  C   -0.000096   0.011924   0.065006   0.001199  -0.000104  -0.000121
     2  C   -0.000119   0.087563  -0.010742   0.066489  -0.001075  -0.000094
     3  C   -0.000811   0.090956   0.040991  -0.088467  -0.004062  -0.000008
     4  C    0.001090   0.077129  -0.005694  -0.000134   0.007288  -0.002339
     5  C   -0.001332   0.076331   0.268625   0.020350   0.002582  -0.000299
     6  C   -0.000487  -0.040244  -0.035981   0.013346   0.000161   0.000268
     7  N    0.001233  -0.013696  -0.013345   0.242296   0.019494   0.009882
     8  C   -0.025548   0.002125  -0.002034  -0.037522   0.010777   0.004986
     9  N   -0.000070   0.001165   0.000050   0.018972   0.260713  -0.075789
    10  O   -0.000234   0.000009  -0.006153   0.006750   0.007853   0.002307
    11  C   -0.048833   0.000035   0.000142  -0.003654  -0.046313   0.415199
    12  C    0.000508   0.000057  -0.000036  -0.000246  -0.000906  -0.045740
    13  C    5.623265  -0.000000   0.000002  -0.000270  -0.001772   0.002651
    14  H   -0.000000   0.482470  -0.000118   0.007039   0.000004  -0.000000
    15  H    0.000002  -0.000118   0.425794  -0.000168   0.000001  -0.000001
    16  H   -0.000270   0.007039  -0.000168   0.311333   0.001239  -0.000026
    17  H   -0.001772   0.000004   0.000001   0.001239   0.303286   0.002540
    18  H    0.002651  -0.000000  -0.000001  -0.000026   0.002540   0.505733
    19  H    0.000698   0.000000   0.000001   0.000012   0.002487  -0.041431
    20  H   -0.026802   0.000000  -0.000000  -0.000002   0.001534   0.003973
    21  H   -0.040068  -0.000000   0.000000   0.000012   0.000247  -0.005714
    22  H    0.421479  -0.000000   0.000000   0.000000  -0.000003  -0.000299
    23  H    0.406997   0.000000  -0.000000  -0.000000  -0.000006  -0.000054
    24  H    0.418571   0.000000   0.000000  -0.000000   0.000005   0.002345
    25  O    0.000000  -0.000592  -0.000375   0.000004  -0.000000   0.000000
    26  C   -0.000001   0.001994   0.000802   0.000129  -0.000000  -0.000000
    27  F    0.000000  -0.000000  -0.000000  -0.000000  -0.000000   0.000000
    28  F    0.000000   0.000053   0.000002   0.000000  -0.000000  -0.000000
    29  F   -0.000000   0.000048   0.000002   0.000000  -0.000000  -0.000000
    30  H    0.000000  -0.003985   0.000013  -0.000014   0.000000  -0.000000
    31  H   -0.000000   0.000013  -0.003316   0.000002  -0.000000   0.000000
              19         20         21         22         23         24
     1  C    0.000046  -0.000003   0.000005  -0.000000  -0.000000   0.000000
     2  C    0.000059  -0.000010   0.000042   0.000000  -0.000000  -0.000001
     3  C   -0.000891  -0.000058   0.000484   0.000010  -0.000002   0.000003
     4  C   -0.002505  -0.000661   0.000556  -0.000026  -0.000025   0.000125
     5  C    0.002608   0.000266  -0.000784  -0.000091  -0.000004   0.000004
     6  C    0.000216   0.000034  -0.000088  -0.000006  -0.000000   0.000001
     7  N   -0.005123   0.002271  -0.002535  -0.000083   0.000007   0.000150
     8  C   -0.015732   0.006811  -0.008267  -0.003964  -0.001577   0.002111
     9  N   -0.049085   0.009634   0.006125  -0.000559   0.000208   0.001364
    10  O    0.000316  -0.000102  -0.000201  -0.000075   0.000004   0.000010
    11  C    0.425861  -0.103078  -0.056920  -0.004567   0.029208  -0.010457
    12  C   -0.042688   0.428664   0.416265  -0.064622  -0.080547  -0.064303
    13  C    0.000698  -0.026802  -0.040068   0.421479   0.406997   0.418571
    14  H    0.000000   0.000000  -0.000000  -0.000000   0.000000   0.000000
    15  H    0.000001  -0.000000   0.000000   0.000000  -0.000000   0.000000
    16  H    0.000012  -0.000002   0.000012   0.000000  -0.000000  -0.000000
    17  H    0.002487   0.001534   0.000247  -0.000003  -0.000006   0.000005
    18  H   -0.041431   0.003973  -0.005714  -0.000299  -0.000054   0.002345
    19  H    0.489542  -0.005679   0.004046   0.002451  -0.000039  -0.000321
    20  H   -0.005679   0.497048  -0.036371  -0.004545  -0.002907   0.003796
    21  H    0.004046  -0.036371   0.507864   0.003885  -0.002740  -0.004703
    22  H    0.002451  -0.004545   0.003885   0.485830  -0.024916  -0.029776
    23  H   -0.000039  -0.002907  -0.002740  -0.024916   0.484264  -0.025273
    24  H   -0.000321   0.003796  -0.004703  -0.029776  -0.025273   0.488582
    25  O    0.000000   0.000000   0.000000   0.000000   0.000000  -0.000000
    26  C    0.000000  -0.000000   0.000000  -0.000000  -0.000000   0.000000
    27  F   -0.000000   0.000000  -0.000000   0.000000   0.000000   0.000000
    28  F    0.000000  -0.000000   0.000000  -0.000000  -0.000000   0.000000
    29  F   -0.000000  -0.000000   0.000000  -0.000000  -0.000000   0.000000
    30  H   -0.000000   0.000000   0.000000   0.000000  -0.000000   0.000000
    31  H   -0.000000   0.000000   0.000000   0.000000  -0.000000   0.000000
              25         26         27         28         29         30
     1  C    0.204541   0.353612  -0.029733  -0.012938   0.010118   0.036204
     2  C   -0.007690  -0.056965   0.034824  -0.004047  -0.006560   0.299439
     3  C    0.010117  -0.185333   0.017366   0.031242   0.030608  -0.028629
     4  C   -0.004207  -0.223946   0.001850   0.017193   0.007955   0.006140
     5  C    0.094197  -0.044070  -0.002721   0.007297  -0.013417  -0.005724
     6  C   -0.392859  -0.258265  -0.005069  -0.004943  -0.000076  -0.006456
     7  N   -0.000463   0.001510   0.000002  -0.000035   0.000029   0.000084
     8  C    0.002434  -0.013467   0.000046   0.000148  -0.000095   0.001416
     9  N   -0.000020   0.000262   0.000000   0.000001  -0.000001  -0.000000
    10  O    0.000053  -0.000104   0.000000   0.000000  -0.000001  -0.000001
    11  C    0.000042  -0.000286   0.000000   0.000001  -0.000003   0.000013
    12  C   -0.000001   0.000016  -0.000000   0.000000   0.000000  -0.000001
    13  C    0.000000  -0.000001   0.000000   0.000000  -0.000000   0.000000
    14  H   -0.000592   0.001994  -0.000000   0.000053   0.000048  -0.003985
    15  H   -0.000375   0.000802  -0.000000   0.000002   0.000002   0.000013
    16  H    0.000004   0.000129  -0.000000   0.000000   0.000000  -0.000014
    17  H   -0.000000  -0.000000  -0.000000  -0.000000  -0.000000   0.000000
    18  H    0.000000  -0.000000   0.000000  -0.000000  -0.000000  -0.000000
    19  H    0.000000   0.000000  -0.000000   0.000000  -0.000000  -0.000000
    20  H    0.000000  -0.000000   0.000000  -0.000000  -0.000000   0.000000
    21  H    0.000000   0.000000  -0.000000   0.000000   0.000000   0.000000
    22  H    0.000000  -0.000000   0.000000  -0.000000  -0.000000   0.000000
    23  H    0.000000  -0.000000   0.000000  -0.000000  -0.000000  -0.000000
    24  H   -0.000000   0.000000   0.000000   0.000000   0.000000   0.000000
    25  O    8.467317   0.227942  -0.023827  -0.066416  -0.067409  -0.009675
    26  C    0.227942   4.292810   0.205444   0.212825   0.218662   0.011027
    27  F   -0.023827   0.205444   9.220624  -0.047329  -0.048102   0.000695
    28  F   -0.066416   0.212825  -0.047329   9.257158  -0.060745  -0.000436
    29  F   -0.067409   0.218662  -0.048102  -0.060745   9.258476  -0.000520
    30  H   -0.009675   0.011027   0.000695  -0.000436  -0.000520   0.455226
    31  H   -0.003661  -0.003040   0.000023   0.000021   0.000028  -0.000115
              31
     1  C    0.017772
     2  C    0.047721
     3  C   -0.042916
     4  C    0.001107
     5  C   -0.036511
     6  C    0.325149
     7  N   -0.000514
     8  C    0.000866
     9  N    0.000000
    10  O    0.000142
    11  C    0.000006
    12  C    0.000001
    13  C   -0.000000
    14  H    0.000013
    15  H   -0.003316
    16  H    0.000002
    17  H   -0.000000
    18  H    0.000000
    19  H   -0.000000
    20  H    0.000000
    21  H    0.000000
    22  H    0.000000
    23  H   -0.000000
    24  H    0.000000
    25  O   -0.003661
    26  C   -0.003040
    27  F    0.000023
    28  F    0.000021
    29  F    0.000028
    30  H   -0.000115
    31  H    0.450627
 Mulliken charges:
               1
     1  C   -0.276117
     2  C    0.470139
     3  C   -1.223405
     4  C    0.101858
     5  C    0.762493
     6  C   -0.656940
     7  N   -0.647655
     8  C    0.852201
     9  N   -0.685829
    10  O   -0.592248
    11  C   -0.281299
    12  C   -0.360773
    13  C   -0.730052
    14  H    0.219719
    15  H    0.276530
    16  H    0.441331
    17  H    0.434031
    18  H    0.222032
    19  H    0.235150
    20  H    0.226189
    21  H    0.218858
    22  H    0.219877
    23  H    0.217401
    24  H    0.217766
    25  O   -0.429452
    26  C    1.258443
    27  F   -0.324094
    28  F   -0.329051
    29  F   -0.328996
    30  H    0.245300
    31  H    0.246592
 Sum of Mulliken charges =  -0.00000
 Mulliken charges with hydrogens summed into heavy atoms:
               1
     1  C   -0.276117
     2  C    0.715439
     3  C   -1.003685
     4  C    0.101858
     5  C    1.039024
     6  C   -0.410347
     7  N   -0.206325
     8  C    0.852201
     9  N   -0.251799
    10  O   -0.592248
    11  C    0.175883
    12  C    0.084274
    13  C   -0.075008
    25  O   -0.429452
    26  C    1.258443
    27  F   -0.324094
    28  F   -0.329051
    29  F   -0.328996
 Electronic spatial extent (au):  <R**2>=           9219.1657
 Charge=             -0.0000 electrons
 Dipole moment (field-independent basis, Debye):
    X=              4.8387    Y=             -4.5117    Z=             -0.9630  Tot=              6.6855
 Quadrupole moment (field-independent basis, Debye-Ang):
   XX=           -100.5485   YY=           -101.0952   ZZ=           -107.4130
   XY=            -12.1448   XZ=             -1.8670   YZ=              2.0454
 Traceless Quadrupole moment (field-independent basis, Debye-Ang):
   XX=              2.4704   YY=              1.9237   ZZ=             -4.3941
   XY=            -12.1448   XZ=             -1.8670   YZ=              2.0454
 Octapole moment (field-independent basis, Debye-Ang**2):
  XXX=            108.8131  YYY=            -17.5711  ZZZ=              4.4280  XYY=            -39.2765
  XXY=            -42.8995  XXZ=             -6.8741  XZZ=            -20.8270  YZZ=             -2.7216
  YYZ=             -3.8931  XYZ=              6.9130
 Hexadecapole moment (field-independent basis, Debye-Ang**3):
 XXXX=         -10288.7588 YYYY=           -564.0691 ZZZZ=           -247.8415 XXXY=            -75.1793
 XXXZ=            -40.0426 YYYX=             -7.0867 YYYZ=              4.2639 ZZZX=            -24.6007
 ZZZY=              3.0361 XXYY=          -1877.7431 XXZZ=          -1815.6550 YYZZ=           -147.3586
 XXYZ=             19.3405 YYXZ=            -20.7049 ZZXY=             -4.3609
 N-N= 1.295015426589D+03 E-N=-4.899769216841D+03  KE= 9.782553652144D+02
 D1PCM: PCM CHGder 1st derivatives, ID1Alg=3 FixD1E=F DoIter=F DoCFld=F I1PDM=0.
 Calling FoFJK, ICntrl=      2127 FMM=F ISym2X=0 I1Cent= 0 IOpClX= 0 NMat=1 NMatS=1 NMatT=0.
 ***** Axes restored to original set *****
 -------------------------------------------------------------------
 Center     Atomic                   Forces (Hartrees/Bohr)
 Number     Number              X              Y              Z
 -------------------------------------------------------------------
      1        6           0.000225491   -0.000170288    0.000178714
      2        6           0.000070318   -0.000281071   -0.000485956
      3        6          -0.000159190    0.000192333   -0.000409029
      4        6          -0.000598039   -0.001839045   -0.001405683
      5        6           0.000621060    0.000162610   -0.000330335
      6        6          -0.000602193    0.000235207    0.000152968
      7        7          -0.002222876    0.001307389   -0.004420468
      8        6          -0.006405765   -0.006264009   -0.007972009
      9        7           0.008035343    0.006394185    0.001920082
     10        8           0.002514215   -0.003000230    0.009755462
     11        6          -0.004766887    0.002193765   -0.006687035
     12        6          -0.000324789    0.000313403    0.000665457
     13        6           0.000053940    0.000067253    0.000005201
     14        1          -0.000265446    0.000391509    0.000252845
     15        1          -0.000289088    0.000176363    0.000367034
     16        1           0.000085709    0.001194533    0.003484871
     17        1           0.003078267   -0.002101816    0.003992924
     18        1           0.000565032   -0.000062041    0.000747639
     19        1           0.000293826    0.001040299    0.000074093
     20        1          -0.000230494   -0.000311203    0.000054411
     21        1           0.000132474   -0.000036413   -0.000087253
     22        1           0.000053352   -0.000026756    0.000007160
     23        1           0.000006944    0.000007555    0.000070128
     24        1          -0.000022414    0.000057054    0.000082925
     25        8           0.000028571    0.000462336    0.000008714
     26        6           0.000322198   -0.000135285    0.000221392
     27        9          -0.000036442    0.000074690   -0.000033190
     28        9          -0.000045313   -0.000005265   -0.000003524
     29        9          -0.000106801    0.000065092   -0.000147993
     30        1          -0.000059951   -0.000012291   -0.000000229
     31        1           0.000048952   -0.000089863   -0.000059317
 -------------------------------------------------------------------
 Cartesian Forces:  Max     0.009755462 RMS     0.002356758

 GradGradGradGradGradGradGradGradGradGradGradGradGradGradGradGradGradGrad
 Berny optimization.
 FormGI is forming the generalized inverse of G from B-inverse, IUseBI=4.
 Internal  Forces:  Max     0.009910268 RMS     0.001486747
 Search for a local minimum.
 Step number   1 out of a maximum of  158
 All quantities printed in internal units (Hartrees-Bohrs-Radians)
 Mixed Optimization -- RFO/linear search
 Second derivative matrix not updated -- first step.
 ITU=  0
     Eigenvalues ---    0.00425   0.00461   0.00963   0.01465   0.01655
     Eigenvalues ---    0.01702   0.01771   0.01883   0.01948   0.02032
     Eigenvalues ---    0.02088   0.02136   0.02138   0.02155   0.02185
     Eigenvalues ---    0.02189   0.02217   0.02232   0.02238   0.02502
     Eigenvalues ---    0.03714   0.04483   0.04928   0.05526   0.05549
     Eigenvalues ---    0.05556   0.08178   0.09170   0.12077   0.12636
     Eigenvalues ---    0.15406   0.16000   0.16000   0.16000   0.16000
     Eigenvalues ---    0.16000   0.16000   0.16000   0.16000   0.16000
     Eigenvalues ---    0.16211   0.21905   0.21906   0.22000   0.22000
     Eigenvalues ---    0.22000   0.22977   0.24000   0.25000   0.25000
     Eigenvalues ---    0.25000   0.25000   0.25000   0.25000   0.25000
     Eigenvalues ---    0.25000   0.29815   0.30075   0.33914   0.33916
     Eigenvalues ---    0.34059   0.34060   0.34194   0.34195   0.34349
     Eigenvalues ---    0.35112   0.35336   0.35573   0.35923   0.37585
     Eigenvalues ---    0.42285   0.42391   0.45168   0.45592   0.45748
     Eigenvalues ---    0.45787   0.45848   0.46689   0.47212   0.47520
     Eigenvalues ---    0.48106   0.52408   0.56407   0.56409   0.57490
     Eigenvalues ---    0.59763   0.93205
 RFO step:  Lambda=-6.70478269D-03 EMin= 4.24703568D-03
 Linear search not attempted -- first point.
 Iteration  1 RMS(Cart)=  0.13873236 RMS(Int)=  0.00638550
 Iteration  2 RMS(Cart)=  0.01697017 RMS(Int)=  0.00013366
 Iteration  3 RMS(Cart)=  0.00022533 RMS(Int)=  0.00010056
 Iteration  4 RMS(Cart)=  0.00000003 RMS(Int)=  0.00010056
 Variable       Old X    -DE/DX   Delta X   Delta X   Delta X     New X
                                 (Linear)    (Quad)   (Total)
    R1        2.62597  -0.00008   0.00000  -0.00012  -0.00012   2.62585
    R2        2.62237   0.00032   0.00000   0.00073   0.00073   2.62310
    R3        2.64416  -0.00049   0.00000  -0.00105  -0.00105   2.64312
    R4        2.62875  -0.00003   0.00000  -0.00010  -0.00010   2.62865
    R5        2.04755  -0.00004   0.00000  -0.00010  -0.00010   2.04745
    R6        2.64596  -0.00077   0.00000  -0.00174  -0.00174   2.64422
    R7        2.05493  -0.00013   0.00000  -0.00037  -0.00037   2.05457
    R8        2.64995  -0.00032   0.00000  -0.00074  -0.00074   2.64921
    R9        2.65081   0.00093   0.00000   0.00203   0.00203   2.65284
   R10        2.62699  -0.00008   0.00000  -0.00013  -0.00013   2.62686
   R11        2.04202   0.00030   0.00000   0.00083   0.00083   2.04285
   R12        2.05133  -0.00002   0.00000  -0.00004  -0.00004   2.05129
   R13        2.61826  -0.00298   0.00000  -0.00611  -0.00611   2.61215
   R14        1.91294  -0.00010   0.00000  -0.00021  -0.00021   1.91273
   R15        2.57511   0.00991   0.00000   0.01867   0.01867   2.59378
   R16        2.31490  -0.00138   0.00000  -0.00147  -0.00147   2.31344
   R17        2.74973   0.00150   0.00000   0.00391   0.00391   2.75364
   R18        1.91072   0.00023   0.00000   0.00050   0.00050   1.91123
   R19        2.87814  -0.00028   0.00000  -0.00091  -0.00091   2.87723
   R20        2.07231   0.00071   0.00000   0.00206   0.00206   2.07437
   R21        2.07229  -0.00006   0.00000  -0.00017  -0.00017   2.07212
   R22        2.88334   0.00014   0.00000   0.00044   0.00044   2.88378
   R23        2.07473  -0.00012   0.00000  -0.00035  -0.00035   2.07438
   R24        2.07475   0.00010   0.00000   0.00030   0.00030   2.07505
   R25        2.07002  -0.00006   0.00000  -0.00016  -0.00016   2.06985
   R26        2.06745  -0.00000   0.00000  -0.00000  -0.00000   2.06745
   R27        2.07004   0.00007   0.00000   0.00021   0.00021   2.07025
   R28        2.52984   0.00009   0.00000   0.00015   0.00015   2.52999
   R29        2.51128  -0.00005   0.00000  -0.00008  -0.00008   2.51121
   R30        2.53902  -0.00003   0.00000  -0.00005  -0.00005   2.53897
   R31        2.53901  -0.00018   0.00000  -0.00031  -0.00031   2.53870
    A1        2.10632   0.00025   0.00000   0.00128   0.00128   2.10760
    A2        2.17694  -0.00022   0.00000  -0.00102  -0.00102   2.17592
    A3        1.99993  -0.00003   0.00000  -0.00026  -0.00026   1.99967
    A4        2.07091  -0.00024   0.00000  -0.00095  -0.00096   2.06995
    A5        2.13106   0.00007   0.00000   0.00017   0.00017   2.13123
    A6        2.08122   0.00017   0.00000   0.00078   0.00078   2.08200
    A7        2.12264  -0.00004   0.00000  -0.00034  -0.00034   2.12230
    A8        2.06943   0.00046   0.00000   0.00284   0.00284   2.07227
    A9        2.09112  -0.00043   0.00000  -0.00250  -0.00250   2.08862
   A10        2.07233   0.00049   0.00000   0.00171   0.00171   2.07404
   A11        2.04702  -0.00027   0.00000  -0.00096  -0.00096   2.04606
   A12        2.16383  -0.00022   0.00000  -0.00075  -0.00075   2.16308
   A13        2.08967  -0.00014   0.00000  -0.00060  -0.00060   2.08907
   A14        2.09546   0.00013   0.00000   0.00068   0.00067   2.09613
   A15        2.09805   0.00001   0.00000  -0.00008  -0.00010   2.09796
   A16        2.10451  -0.00032   0.00000  -0.00110  -0.00110   2.10340
   A17        2.07963   0.00006   0.00000  -0.00004  -0.00004   2.07959
   A18        2.09905   0.00026   0.00000   0.00114   0.00114   2.10019
   A19        2.23074   0.00014   0.00000   0.00060   0.00059   2.23132
   A20        2.00877   0.00110   0.00000   0.00668   0.00667   2.01544
   A21        2.04368  -0.00123   0.00000  -0.00729  -0.00730   2.03637
   A22        1.98981  -0.00122   0.00000  -0.00475  -0.00514   1.98466
   A23        2.16085  -0.00293   0.00000  -0.01143  -0.01181   2.14904
   A24        2.13252   0.00415   0.00000   0.01618   0.01577   2.14830
   A25        2.10959   0.00096   0.00000   0.00424   0.00381   2.11340
   A26        2.10673  -0.00116   0.00000  -0.00617  -0.00660   2.10013
   A27        2.06687   0.00019   0.00000   0.00193   0.00148   2.06835
   A28        1.92288   0.00045   0.00000   0.00165   0.00165   1.92453
   A29        1.90916  -0.00033   0.00000  -0.00362  -0.00363   1.90553
   A30        1.90917   0.00074   0.00000   0.00972   0.00973   1.91890
   A31        1.92566  -0.00043   0.00000  -0.00621  -0.00622   1.91943
   A32        1.92565  -0.00079   0.00000  -0.00448  -0.00450   1.92115
   A33        1.87052   0.00037   0.00000   0.00308   0.00306   1.87358
   A34        1.94707   0.00027   0.00000   0.00127   0.00127   1.94835
   A35        1.90674  -0.00038   0.00000  -0.00339  -0.00339   1.90335
   A36        1.90674  -0.00000   0.00000   0.00033   0.00032   1.90706
   A37        1.91553   0.00016   0.00000   0.00151   0.00151   1.91703
   A38        1.91552  -0.00011   0.00000   0.00021   0.00021   1.91573
   A39        1.87062   0.00005   0.00000   0.00000   0.00000   1.87062
   A40        1.93795  -0.00005   0.00000  -0.00027  -0.00027   1.93768
   A41        1.93898   0.00005   0.00000   0.00027   0.00027   1.93926
   A42        1.93795   0.00009   0.00000   0.00055   0.00055   1.93850
   A43        1.88216   0.00000   0.00000   0.00006   0.00006   1.88222
   A44        1.88223  -0.00003   0.00000  -0.00017  -0.00017   1.88206
   A45        1.88215  -0.00008   0.00000  -0.00048  -0.00048   1.88167
   A46        2.10515  -0.00017   0.00000  -0.00065  -0.00065   2.10451
   A47        1.88453  -0.00011   0.00000  -0.00044  -0.00044   1.88409
   A48        1.97136   0.00001   0.00000   0.00002   0.00002   1.97137
   A49        1.97136  -0.00008   0.00000  -0.00030  -0.00030   1.97107
   A50        1.88443   0.00002   0.00000   0.00004   0.00004   1.88447
   A51        1.88443   0.00011   0.00000   0.00046   0.00046   1.88489
   A52        1.86434   0.00006   0.00000   0.00026   0.00026   1.86460
    D1        0.00001   0.00013   0.00000   0.00459   0.00459   0.00460
    D2       -3.14159  -0.00004   0.00000  -0.00140  -0.00139   3.14020
    D3        3.14159   0.00018   0.00000   0.00612   0.00612  -3.13548
    D4       -0.00001   0.00000   0.00000   0.00013   0.00013   0.00012
    D5       -0.00001   0.00000   0.00000   0.00007   0.00007   0.00007
    D6        3.14158  -0.00002   0.00000  -0.00052  -0.00052   3.14106
    D7       -3.14159  -0.00004   0.00000  -0.00131  -0.00131   3.14029
    D8        0.00000  -0.00005   0.00000  -0.00190  -0.00190  -0.00190
    D9        0.00001   0.00003   0.00000   0.00127   0.00127   0.00129
   D10       -3.14159   0.00007   0.00000   0.00272   0.00272  -3.13887
   D11       -0.00000  -0.00016   0.00000  -0.00544  -0.00544  -0.00544
   D12        3.14159  -0.00020   0.00000  -0.00710  -0.00710   3.13448
   D13       -3.14159   0.00001   0.00000   0.00037   0.00037  -3.14122
   D14       -0.00000  -0.00004   0.00000  -0.00129  -0.00129  -0.00129
   D15       -0.00000   0.00005   0.00000   0.00160   0.00160   0.00159
   D16        3.14159   0.00014   0.00000   0.00518   0.00518  -3.13641
   D17       -3.14159   0.00009   0.00000   0.00328   0.00328  -3.13832
   D18        0.00000   0.00019   0.00000   0.00686   0.00686   0.00686
   D19        0.00000   0.00009   0.00000   0.00315   0.00315   0.00315
   D20        3.14159  -0.00015   0.00000  -0.00546  -0.00546   3.13613
   D21       -3.14159  -0.00001   0.00000  -0.00069  -0.00069   3.14090
   D22       -0.00000  -0.00025   0.00000  -0.00930  -0.00930  -0.00930
   D23       -2.97101  -0.00035   0.00000  -0.01500  -0.01497  -2.98598
   D24        0.17059  -0.00062   0.00000  -0.02603  -0.02604   0.14454
   D25        0.17059  -0.00025   0.00000  -0.01121  -0.01119   0.15940
   D26       -2.97100  -0.00052   0.00000  -0.02224  -0.02226  -2.99327
   D27        0.00000  -0.00011   0.00000  -0.00400  -0.00400  -0.00400
   D28       -3.14159  -0.00010   0.00000  -0.00340  -0.00340   3.13820
   D29       -3.14158   0.00013   0.00000   0.00462   0.00462  -3.13697
   D30        0.00001   0.00015   0.00000   0.00522   0.00522   0.00523
   D31       -3.14159   0.00144   0.00000   0.05753   0.05778  -3.08381
   D32       -0.00000   0.00282   0.00000   0.10877   0.10856   0.10856
   D33        0.00000   0.00171   0.00000   0.06875   0.06896   0.06896
   D34        3.14159   0.00310   0.00000   0.12000   0.11975  -3.02185
   D35       -2.58257  -0.00598   0.00000  -0.21507  -0.21476  -2.79733
   D36        0.55902  -0.00478   0.00000  -0.15910  -0.15896   0.40006
   D37        0.55903  -0.00734   0.00000  -0.26538  -0.26552   0.29351
   D38       -2.58256  -0.00614   0.00000  -0.20942  -0.20972  -2.79229
   D39       -3.14159   0.00039   0.00000   0.01707   0.01711  -3.12448
   D40        1.02196   0.00086   0.00000   0.02606   0.02611   1.04807
   D41       -1.02195   0.00018   0.00000   0.01884   0.01890  -1.00305
   D42        0.00000  -0.00078   0.00000  -0.03764  -0.03770  -0.03769
   D43       -2.11964  -0.00031   0.00000  -0.02865  -0.02870  -2.14833
   D44        2.11964  -0.00099   0.00000  -0.03587  -0.03591   2.08374
   D45        3.13147   0.00044   0.00000   0.01000   0.00999   3.14146
   D46        1.01050   0.00033   0.00000   0.00957   0.00956   1.02006
   D47       -1.03075   0.00048   0.00000   0.01131   0.01130  -1.01945
   D48       -1.04192   0.00005   0.00000   0.00251   0.00251  -1.03941
   D49        3.12029  -0.00007   0.00000   0.00209   0.00208   3.12237
   D50        1.07904   0.00008   0.00000   0.00383   0.00383   1.08286
   D51        1.02168  -0.00026   0.00000  -0.00031  -0.00030   1.02138
   D52       -1.09929  -0.00038   0.00000  -0.00074  -0.00073  -1.10003
   D53       -3.14055  -0.00022   0.00000   0.00100   0.00101  -3.13954
   D54       -1.04700   0.00009   0.00000   0.00012   0.00012  -1.04687
   D55        3.14159   0.00008   0.00000   0.00005   0.00005  -3.14155
   D56        1.04700   0.00008   0.00000   0.00010   0.00010   1.04710
   D57        1.06888  -0.00010   0.00000  -0.00229  -0.00229   1.06659
   D58       -1.02572  -0.00011   0.00000  -0.00236  -0.00236  -1.02809
   D59       -3.12031  -0.00011   0.00000  -0.00231  -0.00231  -3.12262
   D60        3.12033  -0.00001   0.00000  -0.00127  -0.00127   3.11906
   D61        1.02573  -0.00002   0.00000  -0.00134  -0.00134   1.02438
   D62       -1.06886  -0.00002   0.00000  -0.00129  -0.00129  -1.07015
   D63        3.14159  -0.00001   0.00000  -0.00077  -0.00077   3.14082
   D64       -1.05915  -0.00005   0.00000  -0.00101  -0.00101  -1.06015
   D65        1.05914  -0.00003   0.00000  -0.00087  -0.00087   1.05826
         Item               Value     Threshold  Converged?
 Maximum Force            0.009910     0.000450     NO 
 RMS     Force            0.001487     0.000300     NO 
 Maximum Displacement     0.654954     0.001800     NO 
 RMS     Displacement     0.151096     0.001200     NO 
 Predicted change in Energy=-4.118514D-03
 GradGradGradGradGradGradGradGradGradGradGradGradGradGradGradGradGradGrad

                          Input orientation:                          
 ---------------------------------------------------------------------
 Center     Atomic      Atomic             Coordinates (Angstroms)
 Number     Number       Type             X           Y           Z
 ---------------------------------------------------------------------
      1          6           0       -0.353471   -2.506888    0.340521
      2          6           0        0.981858   -2.124097    0.374973
      3          6           0        1.285246   -0.766638    0.388937
      4          6           0        0.282582    0.209020    0.362681
      5          6           0       -1.057784   -0.199877    0.323299
      6          6           0       -1.364142   -1.555744    0.314954
      7          7           0        0.692349    1.551664    0.373286
      8          6           0       -0.095535    2.677669    0.521856
      9          7           0        0.600302    3.856078    0.416468
     10          8           0       -1.291370    2.628357    0.779257
     11          6           0        0.060134    5.099271    0.951275
     12          6           0        1.018376    6.250803    0.679338
     13          6           0        0.482113    7.570266    1.227256
     14          1           0        2.329173   -0.464729    0.422664
     15          1           0       -1.849008    0.536561    0.307603
     16          1           0        1.687390    1.704027    0.267602
     17          1           0        1.481298    3.886365   -0.079327
     18          1           0       -0.096405    4.988962    2.032148
     19          1           0       -0.916773    5.307773    0.499017
     20          1           0        1.179423    6.334961   -0.403232
     21          1           0        1.991865    6.027544    1.135660
     22          1           0       -0.479230    7.824637    0.768084
     23          1           0        1.176852    8.391413    1.027281
     24          1           0        0.332034    7.514692    2.311033
     25          8           0       -0.801334   -3.831882    0.330219
     26          6           0        0.072054   -4.846267    0.355562
     27          9           0       -0.618314   -5.981622    0.339336
     28          9           0        0.901307   -4.850178   -0.701555
     29          9           0        0.843647   -4.845360    1.455301
     30          1           0        1.788012   -2.847657    0.396659
     31          1           0       -2.398493   -1.883884    0.287753
 ---------------------------------------------------------------------
                    Distance matrix (angstroms):
                    1          2          3          4          5
     1  C    0.000000
     2  C    1.389539   0.000000
     3  C    2.390860   1.391020   0.000000
     4  C    2.789482   2.435688   1.399262   0.000000
     5  C    2.412188   2.804538   2.411497   1.401901   0.000000
     6  C    1.388086   2.414610   2.765397   2.414202   1.390072
     7  N    4.191260   3.687145   2.392967   1.403821   2.476562
     8  C    5.194135   4.923343   3.713148   2.502506   3.040661
     9  N    6.434500   5.992479   4.673265   3.661267   4.382774
    10  O    5.238596   5.283638   4.279870   2.916170   2.874260
    11  C    7.641842   7.304707   6.018804   4.930566   5.452070
    12  C    8.870959   8.380509   7.028515   6.094654   6.785903
    13  C   10.150543   9.744578   8.417349   7.414529   7.972675
    14  H    3.372498   2.137998   1.087230   2.155475   3.398749
    15  H    3.391208   3.885543   3.395363   2.157311   1.081028
    16  H    4.679983   3.894078   2.506118   2.053673   3.341247
    17  H    6.664558   6.048263   4.680613   3.892962   4.827672
    18  H    7.688658   7.382716   6.142966   5.077263   5.546933
    19  H    7.836540   7.671563   6.462157   5.239687   5.512256
    20  H    9.004512   8.497076   7.146428   6.238437   6.945290
    21  H    8.886472   8.249123   6.871522   6.113458   6.981480
    22  H   10.341133  10.063132   8.778788   7.664354   8.057629
[...]
 34,-0.00002515,-0.00000453,-0.00008108,-0.00003480,0.00000814,-0.00036
 720,-0.00099150,0.00005375,-0.00022691,-0.00050866,0.00009434,0.000344
 09,-0.00023061,0.00003678,0.00027022,0.00001720,0.00008182,0.00003199,
 -0.00002051,0.00001357,0.00007659,-0.00014520,-0.00000284,-0.00002290,
 -0.00000216,0.00001997,-0.00001518,0.00001038,-0.00001620,0.00001236,0
 .00000946,-0.00000550,-0.00000705,-0.00006295,-0.00000783,0.00001480,0
 .00001098,0.00000424,-0.18178624,0.07950236,0.01950482,0.58020696,0.01
 777382,-0.07402487,-0.00480321,0.00173602,0.00623164,-0.00004659,-0.00
 002626,0.00214816,0.00030226,-0.00121162,-0.00575334,0.00024690,0.0020
 6458,0.00076199,-0.00044850,-0.00262236,0.00201958,0.00031121,-0.00053
 902,0.01020591,0.00057093,0.00355127,-0.00753735,-0.00142832,0.0010816
 1,0.00365350,0.00057334,-0.00183230,0.00175345,0.00068067,0.00060702,-
 0.00097107,-0.00035978,-0.00028038,0.00007232,0.00000520,0.00015883,0.
 00005222,-0.00001483,0.00063330,0.00127347,-0.00009830,0.00007336,0.00
 010893,-0.00005977,-0.00039571,0.00007768,0.00000850,-0.00040569,-0.00
 011030,-0.00007531,-0.00005793,0.00003623,-0.00000271,-0.00016440,0.00
 027799,-0.00003306,0.00003667,-0.00000790,-0.00000890,0.00001431,-0.00
 002460,-0.00000173,-0.00003386,-0.00000857,-0.00001035,0.00001543,0.00
 012301,0.00001687,-0.00003286,-0.00001754,0.00001285,0.07478208,-0.195
 41826,-0.01582353,0.00490927,0.64939628,-0.00347625,-0.00670858,-0.009
 58925,-0.00049626,0.00122452,-0.00099779,0.00017150,0.00072201,-0.0006
 8555,0.00025926,-0.00091267,0.00050680,0.00009511,-0.00011678,0.001416
 84,0.00016916,0.00166457,0.00005472,-0.00001592,0.00123823,-0.00039012
 ,0.00025970,-0.00082037,0.00012922,0.00010290,0.00041538,-0.00004199,-
 0.00012086,0.00025228,-0.00014505,0.00008083,-0.00011307,0.00002717,-0
 .00003057,0.00000537,0.00003093,0.00001450,0.00000636,0.00000115,0.000
 09827,0.00018429,0.00016469,0.00005508,0.00007483,0.00011439,-0.000030
 06,0.00003104,0.00017681,-0.00001838,-0.00000842,0.00007095,0.00000911
 ,0.00000162,-0.00000944,-0.00003821,0.00004067,-0.00002054,0.00001873,
 0.00000270,-0.00001514,-0.00001511,-0.00000489,-0.00001210,-0.00001348
 ,0.00000395,-0.00000788,0.00000139,0.00001132,0.00000664,0.00000794,-0
 .00000578,-0.00000667,0.01962972,-0.01668406,-0.07053805,-0.00652940,0
 .00427405,0.53535674,0.00042889,0.00091210,0.00053334,-0.00063552,0.00
 061253,0.00012327,0.00049031,0.00011751,-0.00008045,0.00018521,0.00008
 869,-0.00003939,-0.00012502,-0.00021091,-0.00001467,0.00000867,0.00042
 622,0.00002331,0.00012611,-0.00029507,-0.00003292,-0.00019696,0.000284
 57,0.00007818,-0.00000578,-0.00014168,-0.00001752,0.00012574,-0.000075
 30,-0.00003355,-0.00003722,0.00005402,0.00000916,0.00000773,-0.0000055
 6,-0.00000043,-0.00000691,-0.00000046,0.00000147,0.00000612,0.00007111
 ,-0.00000002,0.00000418,0.00002792,-0.00000451,-0.00000329,0.00002802,
 -0.00000608,0.00000618,0.00001195,-0.00000476,0.00000190,-0.00000217,-
 0.00000260,0.00000896,-0.00001286,0.00000592,-0.00000049,0.00000176,-0
 .00000326,0.00000107,0.00000148,0.00000383,0.00000242,-0.00000083,0.00
 000299,-0.00000058,-0.00000508,-0.00000083,0.00000186,0.00000027,-0.00
 000320,0.01646924,0.01523153,-0.00026615,-0.13812994,-0.10024481,0.004
 06520,0.19021120,0.00896566,0.01225685,-0.00120118,-0.00052143,-0.0014
 7217,0.00003063,0.00004889,-0.00066296,-0.00006234,0.00030765,0.001866
 00,-0.00005599,0.00070834,-0.00049635,-0.00002559,-0.00197072,-0.00322
 838,0.00016660,0.00018937,-0.00287942,-0.00017286,-0.00097563,0.002233
 37,0.00040071,-0.00031583,-0.00109684,-0.00016109,0.00050742,-0.000605
 46,-0.00021230,-0.00019111,0.00030276,0.00010748,0.00008199,-0.0000234
 7,-0.00000118,-0.00004866,-0.00001451,0.00000471,-0.00016447,-0.000324
 47,0.00003143,-0.00018469,-0.00022193,0.00004737,0.00009980,-0.0000040
 7,-0.00000692,0.00011261,0.00003666,0.00002054,0.00001776,-0.00000971,
 -0.00000039,0.00005110,-0.00008405,0.00001225,-0.00001070,0.00000280,0
 .00000042,-0.00000356,0.00000797,0.00000282,0.00001103,0.00000188,0.00
 000464,-0.00000480,-0.00003761,-0.00000519,0.00001054,0.00000504,-0.00
 000558,-0.01151155,-0.10037542,-0.00285449,-0.09879938,-0.23372299,0.0
 0650280,0.16329014,0.34955414,0.00090477,0.00026911,0.00362393,0.00007
 105,-0.00014536,0.00023832,-0.00007770,-0.00003863,-0.00014733,-0.0000
 2688,0.00006941,-0.00006587,0.00002487,0.00000064,-0.00022406,-0.00009
 129,-0.00021351,0.00011306,0.00000404,-0.00007133,0.00008254,0.0000094
 5,0.00004605,-0.00002240,-0.00000901,-0.00002490,0.00000583,-0.0000063
 4,-0.00002409,0.00002725,-0.00000653,0.00000687,-0.00000580,0.00000239
 ,-0.00000025,-0.00000464,-0.00000101,-0.00000022,-0.00000079,-0.000012
 02,-0.00002248,-0.00003926,-0.00001351,-0.00001290,-0.00002347,-0.0000
 0130,-0.00000368,-0.00002854,-0.00000010,-0.00000017,-0.00000991,-0.00
 000174,0.00000003,0.00000115,0.00000395,-0.00000278,0.00000281,-0.0000
 0246,-0.00000036,0.00000242,0.00000223,0.00000043,0.00000151,0.0000017
 5,-0.00000088,0.00000109,-0.00000003,-0.00000053,-0.00000065,-0.000001
 32,0.00000074,0.00000112,-0.00148114,-0.00687691,0.00980930,0.00417289
 ,0.00683726,-0.07663546,-0.00763574,-0.01058897,0.08188655,-0.00382646
 ,-0.01172206,0.00113285,-0.00168007,0.00025481,-0.00083544,0.00057458,
 0.00106680,-0.00021629,0.00044874,-0.00123085,0.00003141,-0.00023613,-
 0.00050762,-0.00036173,0.00021501,0.00262620,-0.00002694,0.00011297,0.
 00158974,0.00003364,0.00041550,-0.00105157,-0.00012322,0.00018795,0.00
 048978,0.00006393,-0.00018840,0.00023117,0.00006764,0.00006593,-0.0001
 1389,-0.00004274,-0.00004038,0.00000523,0.00000469,0.00001957,0.000008
 49,-0.00000189,0.00009078,0.00023616,0.00000739,0.00005202,0.00010741,
 -0.00000430,-0.00008223,0.00006210,0.00002248,-0.00006411,-0.00000230,
 -0.00000820,-0.00000613,0.00000329,-0.00000403,-0.00002142,0.00003748,
 -0.00000092,0.00000785,0.00000101,-0.00000712,0.00000136,-0.00000277,0
 .00000247,-0.00000453,-0.00000174,0.00000039,0.00000191,0.00001550,0.0
 0000258,-0.00000217,-0.00000340,-0.00000212,-0.02874480,0.03311333,0.0
 4346801,-0.11338447,-0.00270359,0.07672359,-0.02549386,-0.02874931,0.0
 3945868,0.15589922,0.00128080,0.00681642,0.00011708,-0.00239126,-0.002
 47360,-0.00143118,0.00064710,0.00002910,-0.00053395,0.00046832,0.00058
 287,0.00002840,-0.00025226,-0.00040933,0.00015598,-0.00013318,-0.00031
 285,0.00010746,0.00013830,-0.00140338,-0.00007588,-0.00046070,0.001110
 28,0.00023696,-0.00016608,-0.00056496,-0.00008356,0.00023600,-0.000291
 60,-0.00009821,-0.00009724,0.00015069,0.00005319,0.00004364,-0.0000115
 5,-0.00000137,-0.00002508,-0.00000821,0.00000214,-0.00009635,-0.000111
 21,-0.00003578,-0.00003058,-0.00001428,0.00001256,0.00005027,0.0000050
 0,-0.00001639,0.00006189,0.00001872,0.00001075,0.00000932,-0.00000447,
 0.00000066,0.00002532,-0.00004171,0.00000481,-0.00000597,0.00000102,0.
 00000152,-0.00000217,0.00000372,0.00000028,0.00000532,0.00000139,0.000
 00157,-0.00000255,-0.00001949,-0.00000271,0.00000519,0.00000279,-0.000
 00199,0.03004917,-0.00530373,-0.03317156,0.00047258,-0.07940836,0.0013
 7410,-0.03688154,-0.01314517,0.03924614,0.00659137,0.08308817,0.002489
 88,0.01070165,0.00013736,-0.00071809,-0.00112344,0.00041848,0.00015707
 ,-0.00103222,0.00013497,-0.00041598,0.00095306,-0.00008188,0.00015557,
 0.00027868,0.00021918,-0.00019417,-0.00207052,0.00025120,0.00001541,-0
 .00152545,0.00005961,-0.00040622,0.00100732,0.00007530,-0.00015688,-0.
 00049371,-0.00002863,0.00018655,-0.00024671,-0.00001583,-0.00007971,0.
 00011910,0.00002585,0.00003891,-0.00000667,-0.00001391,-0.00001991,-0.
 00000765,0.00000088,-0.00010594,-0.00020004,-0.00009579,-0.00004419,-0
 .00008500,-0.00005067,0.00005472,-0.00002812,-0.00008762,0.00004845,0.
 00000313,-0.00001755,0.00000283,-0.00000187,0.00000534,0.00002800,-0.0
 0004146,0.00000717,-0.00001157,-0.00000171,0.00000966,0.00000410,0.000
 00419,0.00000289,0.00000770,-0.00000068,0.00000261,-0.00000143,-0.0000
 1464,-0.00000378,-0.00000069,0.00000386,0.00000315,0.03484669,-0.02678
 937,-0.02001486,0.07407655,0.00249084,-0.21396430,0.03144420,0.0253667
 9,-0.01612809,-0.13607359,-0.01022533,0.33630594,-0.00473009,-0.013912
 54,-0.00081882,-0.00126125,0.00050787,0.00118583,0.00061595,0.00124959
 ,0.00030006,0.00048560,-0.00145845,-0.00014068,-0.00017716,-0.00054271
 ,0.00032531,0.00038064,0.00305339,0.00019829,0.00010622,0.00195267,0.0
 0003259,0.00053425,-0.00130578,-0.00023152,0.00024493,0.00060088,0.000
 12214,-0.00025077,0.00029377,0.00014240,0.00007631,-0.00013722,-0.0000
 7373,-0.00005079,0.00000781,-0.00000432,0.00002516,0.00001089,-0.00000
 278,0.00010617,0.00028534,-0.00005024,0.00005775,0.00012556,-0.0000536
 7,-0.00011128,0.00007167,-0.00004772,-0.00008802,-0.00000807,-0.000036
 30,-0.00001163,0.00000720,-0.00000342,-0.00002022,0.00004117,0.0000032
 0,0.00000481,0.00000010,-0.00000400,0.00000740,-0.00000249,0.00000739,
 -0.00000214,-0.00000409,0.00000303,0.00000240,0.00002003,0.00000172,-0
 .00000630,-0.00000297,-0.00000035,-0.04744052,0.04261930,-0.03159678,-
 0.15861498,0.00513886,-0.09174735,-0.04408807,-0.03135284,-0.03521421,
 0.01425660,-0.00015041,-0.00471251,0.23860083,0.00131575,0.00770158,-0
 .00007274,-0.00220385,-0.00270517,0.00174936,0.00080816,-0.00015158,0.
 00029166,0.00034376,0.00063418,-0.00015333,-0.00023258,-0.00033941,-0.
 00008449,-0.00015330,-0.00054006,-0.00011654,0.00014779,-0.00146878,-0
 .00014278,-0.00049377,0.00115873,0.00019329,-0.00017321,-0.00058868,-0
 .00009774,0.00024286,-0.00030885,-0.00009995,-0.00010038,0.00015679,0.
 00006312,0.00004621,-0.00001262,0.00000076,-0.00002603,-0.00000856,0.0
 0000138,-0.00008821,-0.00013036,0.00007941,-0.00003261,-0.00002142,0.0
 0001396,0.00005763,-0.00000067,0.00000678,0.00006548,0.00001921,0.0000
 1170,0.00000962,-0.00000531,0.00000039,0.00002646,-0.00004335,0.000005
 10,-0.00000595,0.00000156,0.00000136,-0.00000298,0.00000346,-0.0000003
 3,0.00000543,0.00000166,0.00000139,-0.00000262,-0.00002045,-0.00000268
 ,0.00000567,0.00000296,-0.00000199,0.04069079,-0.00969577,0.02349794,0
 .00846666,-0.07961296,0.00727612,-0.04356741,-0.00831616,-0.02843471,0
 .00052471,0.01394396,0.00395255,-0.00635223,0.08304753,-0.00116423,-0.
 00645800,0.00030998,0.00092695,0.00088929,0.00008053,-0.00018351,0.000
 63667,0.00028055,0.00024498,-0.00054510,-0.00013784,-0.00007133,-0.000
 14060,0.00005958,0.00022430,0.00116546,0.00023961,-0.00002072,0.000953
 84,0.00011482,0.00031704,-0.00064012,-0.00017059,0.00011810,0.00029647
 ,0.00009417,-0.00015008,0.00014009,0.00012451,0.00003707,-0.00006445,-
 0.00005106,-0.00002588,0.00000612,-0.00001092,0.00001324,0.00000590,-0
 .00000225,0.00004766,0.00012802,-0.00009751,0.00001459,0.00005348,-0.0
 0006667,-0.00005468,0.00001815,-0.00006925,-0.00004899,-0.00000756,-0.
 00003714,-0.00000947,0.00000540,0.00000008,-0.00000562,0.00001716,0.00
 000523,-0.00000128,-0.00000124,0.00000220,0.00000813,-0.00000051,0.000
 00649,0.00000148,-0.00000334,0.00000331,0.00000093,0.00001023,-0.00000
 027,-0.00000582,-0.00000028,0.00000175,-0.02326459,0.01635847,0.003282
 15,-0.08872078,0.00685304,-0.16741188,-0.02807023,-0.01730468,-0.00236
 964,-0.02347509,0.00510655,-0.08557833,0.16333469,-0.00866381,0.252793
 14,-0.01455456,0.02250123,0.00299602,-0.21908531,0.14515606,0.02696785
 ,0.01039287,-0.00670523,-0.00103797,0.00081522,-0.00276021,0.00072259,
 -0.00023200,-0.00109983,-0.00013669,-0.00449335,-0.00299331,0.00115754
 ,0.00050903,-0.00014152,-0.00010291,-0.00009997,-0.00011975,0.00005926
 ,0.00003314,-0.00005743,-0.00002841,0.00000732,0.00002332,0.00001380,-
 0.00001929,-0.00000159,-0.00000110,0.00000725,-0.00000393,-0.00000009,
 -0.00000298,-0.00000214,-0.00000014,0.00066540,0.00013079,-0.00062912,
 0.00001958,0.00008938,-0.00009786,-0.00000200,0.00001691,-0.00000887,0
 .00000682,0.00000289,0.00000201,0.00000060,0.00000017,-0.00000031,0.00
 000060,0.00000021,0.00000018,0.00000006,-0.00000012,0.00000115,-0.0000
 0016,0.00000009,-0.00000132,-0.00000026,0.00000046,-0.00000031,0.00000
 043,-0.00000145,-0.00000017,-0.00000005,0.00000029,0.00000027,0.002603
 29,0.00017227,-0.00079919,-0.00409464,-0.00248476,0.00073753,0.0006155
 0,0.00043112,-0.00007812,0.00111342,0.00074348,-0.00033674,0.00103129,
 0.00080447,-0.00015300,0.22548789,-0.00746416,0.01052703,0.00115105,0.
 14704411,-0.19314500,-0.02297752,0.02257404,-0.01574256,-0.00329162,-0
 .00268903,-0.00349247,0.00000287,-0.00084296,-0.00048521,0.00009906,-0
 .00247974,0.00011054,0.00016289,0.00136504,-0.00120878,-0.00036979,-0.
 00060482,0.00025300,0.00031352,0.00004499,-0.00033033,-0.00008954,0.00
 020745,-0.00002725,-0.00006765,-0.00007942,0.00004531,0.00001950,0.000
 03386,-0.00001370,-0.00000225,-0.00001572,-0.00000682,0.00000028,-0.00
 000602,0.00117765,0.00018733,0.00008955,0.00002935,0.00001004,0.000074
 13,0.00001269,-0.00003834,0.00003386,0.00001192,0.00000164,0.00000536,
 -0.00000285,-0.00000007,0.00001128,-0.00001699,0.00000249,-0.00000302,
 -0.00000017,0.00000296,-0.00000155,0.00000144,-0.00000198,0.00000154,0
 .00000073,0.00000018,0.00000076,-0.00000883,-0.00000120,0.00000144,0.0
 0000124,-0.00000010,0.00149817,0.00050681,-0.00006649,-0.00291147,-0.0
 0109108,0.00019813,0.00037641,0.00029000,-0.00003132,-0.00058503,-0.00
 232364,-0.00125347,-0.00041383,-0.00280927,0.00134783,-0.15476997,0.20
 727186,0.00228392,-0.00270631,0.00367132,0.02691687,-0.02279855,-0.039
 22719,-0.00023851,0.00028632,0.00336963,0.00075883,0.00000407,0.007095
 67,-0.00008757,0.00013409,-0.00090572,0.00115381,0.00029979,0.00539273
 ,-0.00001593,-0.00008221,0.00024426,-0.00009136,0.00006981,-0.00002323
 ,-0.00002660,-0.00001079,-0.00004439,0.00004350,0.00001561,0.00001314,
 0.00000105,0.00000584,0.00000226,0.00000051,-0.00000174,0.00000609,-0.
 00000026,-0.00000020,0.00000007,-0.00061189,0.00016044,-0.00436453,-0.
 00010325,0.00003616,-0.00071331,0.00000897,-0.00000359,0.00000803,0.00
 000657,-0.00000074,0.00001594,0.00000259,-0.00000119,-0.00000109,-0.00
 000243,0.00000131,-0.00000199,0.00000180,0.00000085,-0.00000200,-0.000
 00207,-0.00000050,-0.00000202,-0.00000126,0.00000094,-0.00000090,-0.00
 000007,-0.00000043,0.00000065,0.00000142,-0.00000051,-0.00000080,-0.00
 077836,0.00015513,-0.00359570,0.00074615,0.00009269,0.00276287,-0.0000
 7555,-0.00003157,-0.00015313,0.00002844,-0.00070354,-0.00140055,-0.000
 63000,0.00058804,-0.00122209,-0.02940137,0.02462070,0.02887351,-0.0168
 7479,-0.00937848,0.00255880,-0.00168309,0.00384878,0.00093859,0.000700
 59,0.00059592,-0.00019142,0.00197484,-0.00015147,0.00070180,-0.0010187
 8,-0.00051691,0.00061209,-0.32524484,-0.07718471,0.03436181,-0.0001510
 7,-0.00027196,0.00002290,-0.00016952,0.00030751,0.00006870,-0.00003770
 ,-0.00014971,-0.00002565,0.00007067,-0.00008458,-0.00004115,-0.0000254
 8,0.00003544,0.00001704,0.00001182,-0.00000379,0.00000108,-0.00000661,
 -0.00000197,0.00000046,-0.00007823,-0.00004834,-0.00005135,0.00056194,
 0.00003302,-0.00066401,0.00003378,-0.00004249,-0.00003327,0.00001432,0
 .00000441,0.00000080,0.00000342,-0.00000264,0.00000042,0.00000717,-0.0
 0001116,0.00000048,-0.00000136,0.00000018,0.,-0.00000138,0.00000093,-0
 .00000011,0.00000119,0.00000024,0.00000012,-0.00000028,-0.00000443,-0.
 00000056,0.00000160,0.00000027,-0.00000066,0.00077358,-0.00123286,-0.0
 0067459,-0.00041676,0.00045912,0.00003230,0.00002237,-0.00002872,0.000
 00439,0.00031174,-0.00013269,-0.00027899,0.00031692,-0.00012631,0.0001
 3617,-0.00072513,-0.00049528,0.00011206,0.34162907,0.02094431,0.009453
 26,-0.00256307,0.00316003,-0.00301402,-0.00064538,0.00024846,-0.001267
 41,-0.00004096,-0.00050712,-0.00511129,-0.00014717,-0.02891214,-0.0036
 1722,0.00331617,-0.07908906,-0.08179278,0.00864400,-0.00151359,-0.0001
 7610,0.00013105,-0.00049565,0.00057412,0.00022622,0.00005848,-0.000223
 15,-0.00003974,0.00034013,-0.00005569,-0.00008993,-0.00005586,0.000056
 22,0.00001429,0.00001920,-0.00001100,0.00000062,-0.00001054,-0.0000023
 4,0.00000089,-0.00005725,0.00009097,0.00003084,0.00032814,0.00123042,0
 .00011530,-0.00008127,-0.00043281,-0.00001950,0.00001888,0.00003031,-0
 .00001759,0.00000398,-0.00000563,-0.00000362,0.00001159,-0.00001986,0.
 00000653,-0.00000066,0.00000161,-0.00000180,0.00000031,0.00000201,0.00
 000199,0.00000120,-0.00000130,0.00000207,0.00000173,-0.00000498,-0.000
 00070,0.00000116,-0.00000059,-0.00000258,-0.00021702,0.00216435,0.0002
 6355,0.00087724,-0.00048317,-0.00012971,-0.00009255,0.00016366,0.00001
 732,-0.00029045,0.00009342,0.00026690,-0.00034247,0.00010780,-0.000162
 50,0.00106810,0.00046539,-0.00012992,0.08458267,0.08178579,0.00356619,
 0.00133978,0.00495374,0.00085246,-0.00074368,0.00480124,-0.00016350,-0
 .00009752,-0.00091115,0.00074780,-0.00031117,0.00726702,-0.00020726,-0
 .00024935,0.00355974,0.03443142,0.00846283,-0.04101014,-0.00013480,-0.
 00003858,0.00019149,-0.00000956,0.00001344,0.00005637,-0.00001955,-0.0
 0000549,-0.00002323,0.00000386,-0.00006796,-0.00000459,0.00000259,0.00
 000146,0.00001958,0.00000096,0.00000020,0.00000224,-0.00000102,-0.0000
 0055,0.00000100,-0.00005381,0.00002487,-0.00047304,-0.00073115,0.00032
 200,-0.00460819,-0.00002002,-0.00003389,-0.00012823,0.00000607,-0.0000
 0172,0.00000388,0.00000121,-0.00000136,-0.00000142,-0.00000210,0.00000
 301,-0.00000374,0.00000226,0.00000059,-0.00000191,-0.00000340,-0.00000
 077,-0.00000169,-0.00000121,0.00000109,-0.00000141,-0.00000005,-0.0000
 0061,0.00000015,0.00000164,-0.00000070,-0.00000116,-0.00069498,0.00036
 928,-0.00318742,0.00003058,-0.00006172,-0.00034873,0.00000100,-0.00000
 885,0.00006215,0.00013541,-0.00007870,-0.00017778,-0.00028828,0.000136
 76,-0.00017264,0.00015548,0.00007086,0.00020246,-0.03760826,-0.0090435
 5,0.02993539\\-0.00000446,0.00000055,-0.00000693,0.00000283,0.00000184
 ,0.00000169,0.00000076,-0.00000189,-0.00000043,-0.00000304,-0.00000121
 ,-0.00000088,0.00000456,0.00000348,0.00000026,0.00000028,-0.00000307,-
 0.00000232,0.00000302,-0.00000160,-0.00000104,0.00000119,-0.00000058,0
 .00000318,-0.00000798,0.00000147,-0.00000337,-0.00000231,-0.00000536,0
 .00000037,0.00000237,0.00000665,0.00000276,-0.00000391,0.00000395,0.00
 000103,0.00000152,-0.00000147,-0.00000144,0.00000021,0.00000037,-0.000
 00031,-0.00000070,0.00000090,0.00000019,0.00000168,0.00000104,-0.00000
 107,0.00000042,-0.00000005,0.00000203,-0.00000076,-0.00000262,0.000000
 45,0.00000075,-0.00000246,0.00000098,0.00000076,-0.00000205,0.00000028
 ,0.00000071,0.00000018,0.00000018,-0.00000033,0.00000079,0.00000083,-0
 .00000094,0.00000062,0.00000253,-0.00000151,0.00000006,0.00000098,0.00
 000288,0.00000397,0.00000756,-0.00000288,-0.00000022,-0.00000556,0.000
 00139,-0.00000343,-0.00000328,0.00000056,0.00000140,0.00000467,0.00000
 252,-0.00000123,-0.00000244,0.00000025,-0.00000033,-0.00000038,0.00000
 016,0.00000033,-0.00000051\\\@


 Time has a wonderful way of weeding out the trivial.
                                -- Richard Ben Sapir
 Job cpu time:       0 days  2 hours 49 minutes 15.1 seconds.
 File lengths (MBytes):  RWF=    568 Int=      0 D2E=      0 Chk=     18 Scr=      1
 Normal termination of Gaussian 09 at Fri Feb 22 18:15:18 2019.
WARNING: pbs_rusage is deprecated and values produced may not be accurate


=============================================================================
                                     Resource usage:
                                       CPU time:              10:23:55
   JobId:    6010683.r-man2            Elapsed time:          02:37:13
   Project:             q95            Requested time:        36:00:00
   Service Units:     10.48 
                                       Max physical memory:      681MB
                                       Max virtual memory:      1548MB
                                       Requested memory:           0MB

                                       Number of cpus:               4

                                       Max jobfs disk use:       0.6GB
                                       Requested jobfs:         16.0GB
=============================================================================

