 Entering Gaussian System, Link 0=/apps/gaussian/g09e01/g09/g09
 AtFile(1): /home/507/hio507/Basis/6-31pGd.gbs
 Initial command:
 /apps/gaussian/g09e01/g09/l1.exe "/jobfs/local/8440020.r-man2/Gau-16502.inp" -scrdir="/jobfs/local/8440020.r-man2/"
 Entering Link 1 = /apps/gaussian/g09e01/g09/l1.exe PID=     16503.
  
 Copyright (c) 1988,1990,1992,1993,1995,1998,2003,2009,2015,
            Gaussian, Inc.  All Rights Reserved.
  
 This is part of the Gaussian(R) 09 program.  It is based on
 the Gaussian(R) 03 system (copyright 2003, Gaussian, Inc.),
 the Gaussian(R) 98 system (copyright 1998, Gaussian, Inc.),
 the Gaussian(R) 94 system (copyright 1995, Gaussian, Inc.),
 the Gaussian 92(TM) system (copyright 1992, Gaussian, Inc.),
 the Gaussian 90(TM) system (copyright 1990, Gaussian, Inc.),
 the Gaussian 88(TM) system (copyright 1988, Gaussian, Inc.),
 the Gaussian 86(TM) system (copyright 1986, Carnegie Mellon
 University), and the Gaussian 82(TM) system (copyright 1983,
 Carnegie Mellon University). Gaussian is a federally registered
 trademark of Gaussian, Inc.
  
 This software contains proprietary and confidential information,
 including trade secrets, belonging to Gaussian, Inc.
  
 This software is provided under written license and may be
 used, copied, transmitted, or stored only in accord with that
 written license.
  
 The following legend is applicable only to US Government
 contracts under FAR:
  
                    RESTRICTED RIGHTS LEGEND
  
 Use, reproduction and disclosure by the US Government is
 subject to restrictions as set forth in subparagraphs (a)
 and (c) of the Commercial Computer Software - Restricted
 Rights clause in FAR 52.227-19.
  
 Gaussian, Inc.
 340 Quinnipiac St., Bldg. 40, Wallingford CT 06492
  
  
 ---------------------------------------------------------------
 Warning -- This program may not be used in any manner that
 competes with the business of Gaussian, Inc. or will provide
 assistance to any competitor of Gaussian, Inc.  The licensee
 of this program is prohibited from giving any competitor of
 Gaussian, Inc. access to this program.  By using this program,
 the user acknowledges that Gaussian, Inc. is engaged in the
 business of creating and licensing software in the field of
 computational chemistry and represents and warrants to the
 licensee that it is not a competitor of Gaussian, Inc. and that
 it will not use this program in any manner prohibited above.
 ---------------------------------------------------------------
  

 Cite this work as:
 Gaussian 09, Revision E.01,
 M. J. Frisch, G. W. Trucks, H. B. Schlegel, G. E. Scuseria, 
 M. A. Robb, J. R. Cheeseman, G. Scalmani, V. Barone, B. Mennucci, 
 G. A. Petersson, H. Nakatsuji, M. Caricato, X. Li, H. P. Hratchian, 
 A. F. Izmaylov, J. Bloino, G. Zheng, J. L. Sonnenberg, M. Hada, 
 M. Ehara, K. Toyota, R. Fukuda, J. Hasegawa, M. Ishida, T. Nakajima, 
 Y. Honda, O. Kitao, H. Nakai, T. Vreven, J. A. Montgomery, Jr., 
 J. E. Peralta, F. Ogliaro, M. Bearpark, J. J. Heyd, E. Brothers, 
 K. N. Kudin, V. N. Staroverov, T. Keith, R. Kobayashi, J. Normand, 
 K. Raghavachari, A. Rendell, J. C. Burant, S. S. Iyengar, J. Tomasi, 
 M. Cossi, N. Rega, J. M. Millam, M. Klene, J. E. Knox, J. B. Cross, 
 V. Bakken, C. Adamo, J. Jaramillo, R. Gomperts, R. E. Stratmann, 
 O. Yazyev, A. J. Austin, R. Cammi, C. Pomelli, J. W. Ochterski, 
 R. L. Martin, K. Morokuma, V. G. Zakrzewski, G. A. Voth, 
 P. Salvador, J. J. Dannenberg, S. Dapprich, A. D. Daniels, 
 O. Farkas, J. B. Foresman, J. V. Ortiz, J. Cioslowski, 
 and D. J. Fox, Gaussian, Inc., Wallingford CT, 2013.
 
 ******************************************
 Gaussian 09:  ES64L-G09RevE.01 30-Nov-2015
                16-Jul-2018 
 ******************************************
 %chk=aryl_urea_OCF3.smd.h2o.chk
 %mem=196608000
 %nproc=4
 Will use up to    4 processors via shared memory.
 ----------------------------------------------------------------------
 # M062X/Gen 6D SCF=Tight INT(grid=ultrafine) OPT IOP(2/17=4) SCRF=(SMD
 ,Solvent=h2o) maxdisk=2147483648
 ----------------------------------------------------------------------
 1/14=-1,18=20,19=15,26=4,38=1/1,3;
 2/9=110,12=2,17=4,18=5,40=1/2;
 3/5=7,8=2,11=2,16=1,25=1,30=1,70=32201,71=1,72=1,74=-55,75=-5/1,2,3;
 4//1;
 5/5=2,32=2,38=5,53=1/2;
 6/7=2,8=2,9=2,10=2,28=1/1;
 7//1,2,3,16;
 1/14=-1,18=20,19=15,26=4/3(2);
 2/9=110,17=4/2;
 99//99;
 2/9=110,17=4/2;
 3/5=7,6=1,8=2,11=2,16=1,25=1,30=1,70=32205,71=1,72=1,74=-55,75=-5,82=7/1,2,3;
 4/5=5,16=3,69=1/1;
 5/5=2,32=2,38=5,53=1/2;
 7//1,2,3,16;
 1/14=-1,18=20,19=15,26=4/3(-5);
 2/9=110,17=4/2;
 6/7=2,8=2,9=2,10=2,19=2,28=1/1;
 99/9=1/99;
 ----------------------
 aryl_urea_OCF3.smd.h2o
 ----------------------
 Symbolic Z-matrix:
 Charge =  0 Multiplicity = 1
 C                    -4.8261    4.66091  -0.24292 
 C                    -5.49153   4.35103   0.9366 
 C                    -4.92937   4.75355   2.14393 
 C                    -3.72001   5.45403   2.19225 
 C                    -3.06384   5.75618   0.99122 
 C                    -3.6245    5.35617  -0.21586 
 N                    -3.21991   5.79358   3.46142 
 C                    -2.15494   6.63309   3.7473 
 N                    -1.92873   6.78564   5.09852 
 O                    -1.49163   7.2068    2.90019 
 C                    -0.74652   7.52145   5.52919 
 C                    -0.79975   7.78662   7.02822 
 C                     0.42738   8.56058   7.50468 
 H                    -5.45003   4.51106   3.06747 
 H                    -2.13252   6.3045    1.00605 
 H                    -3.81347   5.5347    4.23828 
 H                    -2.22425   6.03249   5.70804 
 H                    -0.72657   8.46228   4.97274 
 H                     0.17099   6.97452   5.2678 
 H                    -0.86312   6.83185   7.56898 
 H                    -1.71486   8.34479   7.25871 
 H                     1.34822   8.00466   7.29848 
 H                     0.38277   8.7488    8.58094 
 H                     0.50007   9.52809   6.99688 
 O                    -5.27282   4.32145  -1.52219 
 C                    -6.43021   3.6623   -1.68597 
 F                    -6.61551   3.47768  -2.98688 
 F                    -6.43221   2.45929  -1.08812 
 F                    -7.48611   4.33765  -1.20388 
 H                    -6.42973   3.80987   0.93909 
 H                    -3.12955   5.58433  -1.15426 
 

 GradGradGradGradGradGradGradGradGradGradGradGradGradGradGradGradGradGrad
 Berny optimization.
 Initialization pass.
                           ----------------------------
                           !    Initial Parameters    !
                           ! (Angstroms and Degrees)  !
 --------------------------                            --------------------------
 ! Name  Definition              Value          Derivative Info.                !
 --------------------------------------------------------------------------------
 ! R1    R(1,2)                  1.3893         estimate D2E/DX2                !
 ! R2    R(1,6)                  1.3885         estimate D2E/DX2                !
 ! R3    R(1,25)                 1.3969         estimate D2E/DX2                !
 ! R4    R(2,3)                  1.3913         estimate D2E/DX2                !
 ! R5    R(2,30)                 1.0831         estimate D2E/DX2                !
 ! R6    R(3,4)                  1.3984         estimate D2E/DX2                !
 ! R7    R(3,14)                 1.0876         estimate D2E/DX2                !
 ! R8    R(4,5)                  1.4016         estimate D2E/DX2                !
 ! R9    R(4,7)                  1.4058         estimate D2E/DX2                !
 ! R10   R(5,6)                  1.3897         estimate D2E/DX2                !
 ! R11   R(5,15)                 1.0808         estimate D2E/DX2                !
 ! R12   R(6,31)                 1.0852         estimate D2E/DX2                !
 ! R13   R(7,8)                  1.3859         estimate D2E/DX2                !
 ! R14   R(7,16)                 1.0114         estimate D2E/DX2                !
 ! R15   R(8,9)                  1.3785         estimate D2E/DX2                !
 ! R16   R(8,10)                 1.2193         estimate D2E/DX2                !
 ! R17   R(9,11)                 1.4576         estimate D2E/DX2                !
 ! R18   R(9,17)                 1.013          estimate D2E/DX2                !
 ! R19   R(11,12)                1.5232         estimate D2E/DX2                !
 ! R20   R(11,18)                1.0933         estimate D2E/DX2                !
 ! R21   R(11,19)                1.0997         estimate D2E/DX2                !
 ! R22   R(12,13)                1.5271         estimate D2E/DX2                !
 ! R23   R(12,20)                1.0991         estimate D2E/DX2                !
 ! R24   R(12,21)                1.0964         estimate D2E/DX2                !
 ! R25   R(13,22)                1.0952         estimate D2E/DX2                !
 ! R26   R(13,23)                1.0935         estimate D2E/DX2                !
 ! R27   R(13,24)                1.0951         estimate D2E/DX2                !
 ! R28   R(25,26)                1.342          estimate D2E/DX2                !
 ! R29   R(26,27)                1.3269         estimate D2E/DX2                !
 ! R30   R(26,28)                1.3434         estimate D2E/DX2                !
 ! R31   R(26,29)                1.3429         estimate D2E/DX2                !
 ! A1    A(2,1,6)              120.6401         estimate D2E/DX2                !
 ! A2    A(2,1,25)             124.7602         estimate D2E/DX2                !
 ! A3    A(6,1,25)             114.5997         estimate D2E/DX2                !
 ! A4    A(1,2,3)              118.5997         estimate D2E/DX2                !
 ! A5    A(1,2,30)             121.8906         estimate D2E/DX2                !
 ! A6    A(3,2,30)             119.5097         estimate D2E/DX2                !
 ! A7    A(2,3,4)              121.6241         estimate D2E/DX2                !
 ! A8    A(2,3,14)             118.6168         estimate D2E/DX2                !
 ! A9    A(4,3,14)             119.759          estimate D2E/DX2                !
 ! A10   A(3,4,5)              118.8981         estimate D2E/DX2                !
 ! A11   A(3,4,7)              117.3771         estimate D2E/DX2                !
 ! A12   A(5,4,7)              123.7137         estimate D2E/DX2                !
 ! A13   A(4,5,6)              119.5627         estimate D2E/DX2                !
 ! A14   A(4,5,15)             120.0668         estimate D2E/DX2                !
 ! A15   A(6,5,15)             120.3683         estimate D2E/DX2                !
 ! A16   A(1,6,5)              120.6752         estimate D2E/DX2                !
 ! A17   A(1,6,31)             118.89           estimate D2E/DX2                !
 ! A18   A(5,6,31)             120.4347         estimate D2E/DX2                !
 ! A19   A(4,7,8)              127.295          estimate D2E/DX2                !
 ! A20   A(4,7,16)             115.0168         estimate D2E/DX2                !
 ! A21   A(8,7,16)             116.59           estimate D2E/DX2                !
 ! A22   A(7,8,9)              113.2866         estimate D2E/DX2                !
 ! A23   A(7,8,10)             124.0385         estimate D2E/DX2                !
 ! A24   A(9,8,10)             122.6606         estimate D2E/DX2                !
 ! A25   A(8,9,11)             118.5933         estimate D2E/DX2                !
 ! A26   A(8,9,17)             117.3656         estimate D2E/DX2                !
 ! A27   A(11,9,17)            115.7327         estimate D2E/DX2                !
 ! A28   A(9,11,12)            110.5067         estimate D2E/DX2                !
 ! A29   A(9,11,18)            107.3884         estimate D2E/DX2                !
 ! A30   A(9,11,19)            110.8193         estimate D2E/DX2                !
 ! A31   A(12,11,18)           110.5924         estimate D2E/DX2                !
 ! A32   A(12,11,19)           110.4667         estimate D2E/DX2                !
 ! A33   A(18,11,19)           106.9657         estimate D2E/DX2                !
 ! A34   A(11,12,13)           111.5436         estimate D2E/DX2                !
 ! A35   A(11,12,20)           109.5705         estimate D2E/DX2                !
 ! A36   A(11,12,21)           108.9459         estimate D2E/DX2                !
 ! A37   A(13,12,20)           109.4568         estimate D2E/DX2                !
 ! A38   A(13,12,21)           110.3104         estimate D2E/DX2                !
 ! A39   A(20,12,21)           106.8992         estimate D2E/DX2                !
 ! A40   A(12,13,22)           111.0782         estimate D2E/DX2                !
 ! A41   A(12,13,23)           111.1956         estimate D2E/DX2                !
 ! A42   A(12,13,24)           110.8821         estimate D2E/DX2                !
 ! A43   A(22,13,23)           107.8769         estimate D2E/DX2                !
 ! A44   A(22,13,24)           107.7783         estimate D2E/DX2                !
 ! A45   A(23,13,24)           107.88           estimate D2E/DX2                !
 ! A46   A(1,25,26)            120.4604         estimate D2E/DX2                !
 ! A47   A(25,26,27)           107.9645         estimate D2E/DX2                !
 ! A48   A(25,26,28)           112.7573         estimate D2E/DX2                !
 ! A49   A(25,26,29)           112.7868         estimate D2E/DX2                !
 ! A50   A(27,26,28)           108.1497         estimate D2E/DX2                !
 ! A51   A(27,26,29)           108.1867         estimate D2E/DX2                !
 ! A52   A(28,26,29)           106.8232         estimate D2E/DX2                !
 ! D1    D(6,1,2,3)              0.0846         estimate D2E/DX2                !
 ! D2    D(6,1,2,30)           179.9882         estimate D2E/DX2                !
 ! D3    D(25,1,2,3)          -179.9639         estimate D2E/DX2                !
 ! D4    D(25,1,2,30)           -0.0603         estimate D2E/DX2                !
 ! D5    D(2,1,6,5)             -0.0188         estimate D2E/DX2                !
 ! D6    D(2,1,6,31)          -179.9207         estimate D2E/DX2                !
 ! D7    D(25,1,6,5)          -179.975          estimate D2E/DX2                !
 ! D8    D(25,1,6,31)            0.1232         estimate D2E/DX2                !
 ! D9    D(2,1,25,26)            0.8736         estimate D2E/DX2                !
 ! D10   D(6,1,25,26)         -179.1723         estimate D2E/DX2                !
 ! D11   D(1,2,3,4)             -0.1117         estimate D2E/DX2                !
 ! D12   D(1,2,3,14)          -179.9959         estimate D2E/DX2                !
 ! D13   D(30,2,3,4)           179.9823         estimate D2E/DX2                !
 ! D14   D(30,2,3,14)            0.0981         estimate D2E/DX2                !
 ! D15   D(2,3,4,5)              0.0714         estimate D2E/DX2                !
 ! D16   D(2,3,4,7)           -178.7613         estimate D2E/DX2                !
 ! D17   D(14,3,4,5)           179.9543         estimate D2E/DX2                !
 ! D18   D(14,3,4,7)             1.1216         estimate D2E/DX2                !
 ! D19   D(3,4,5,6)             -0.0031         estimate D2E/DX2                !
 ! D20   D(3,4,5,15)           179.4537         estimate D2E/DX2                !
 ! D21   D(7,4,5,6)            178.7508         estimate D2E/DX2                !
 ! D22   D(7,4,5,15)            -1.7924         estimate D2E/DX2                !
 ! D23   D(3,4,7,8)           -170.3772         estimate D2E/DX2                !
 ! D24   D(3,4,7,16)            -2.8656         estimate D2E/DX2                !
 ! D25   D(5,4,7,8)             10.8514         estimate D2E/DX2                !
 ! D26   D(5,4,7,16)           178.363          estimate D2E/DX2                !
 ! D27   D(4,5,6,1)             -0.0226         estimate D2E/DX2                !
 ! D28   D(4,5,6,31)           179.8777         estimate D2E/DX2                !
 ! D29   D(15,5,6,1)          -179.4778         estimate D2E/DX2                !
 ! D30   D(15,5,6,31)            0.4226         estimate D2E/DX2                !
 ! D31   D(4,7,8,9)            178.7157         estimate D2E/DX2                !
 ! D32   D(4,7,8,10)             0.0636         estimate D2E/DX2                !
 ! D33   D(16,7,8,9)            11.3737         estimate D2E/DX2                !
 ! D34   D(16,7,8,10)         -167.2784         estimate D2E/DX2                !
 ! D35   D(7,8,9,11)           173.1865         estimate D2E/DX2                !
 ! D36   D(7,8,9,17)            26.1611         estimate D2E/DX2                !
 ! D37   D(10,8,9,11)           -8.1402         estimate D2E/DX2                !
 ! D38   D(10,8,9,17)         -155.1657         estimate D2E/DX2                !
 ! D39   D(8,9,11,12)          170.2474         estimate D2E/DX2                !
 ! D40   D(8,9,11,18)           49.5421         estimate D2E/DX2                !
 ! D41   D(8,9,11,19)          -66.9587         estimate D2E/DX2                !
 ! D42   D(17,9,11,12)         -42.2031         estimate D2E/DX2                !
 ! D43   D(17,9,11,18)        -162.9083         estimate D2E/DX2                !
 ! D44   D(17,9,11,19)          80.5908         estimate D2E/DX2                !
 ! D45   D(9,11,12,13)        -179.8464         estimate D2E/DX2                !
 ! D46   D(9,11,12,20)          58.7931         estimate D2E/DX2                !
 ! D47   D(9,11,12,21)         -57.8362         estimate D2E/DX2                !
 ! D48   D(18,11,12,13)        -61.0714         estimate D2E/DX2                !
 ! D49   D(18,11,12,20)        177.5681         estimate D2E/DX2                !
 ! D50   D(18,11,12,21)         60.9388         estimate D2E/DX2                !
 ! D51   D(19,11,12,13)         57.1544         estimate D2E/DX2                !
 ! D52   D(19,11,12,20)        -64.2061         estimate D2E/DX2                !
 ! D53   D(19,11,12,21)        179.1646         estimate D2E/DX2                !
 ! D54   D(11,12,13,22)        -59.913          estimate D2E/DX2                !
 ! D55   D(11,12,13,23)        179.9334         estimate D2E/DX2                !
 ! D56   D(11,12,13,24)         59.9072         estimate D2E/DX2                !
 ! D57   D(20,12,13,22)         61.5136         estimate D2E/DX2                !
 ! D58   D(20,12,13,23)        -58.6401         estimate D2E/DX2                !
 ! D59   D(20,12,13,24)       -178.6663         estimate D2E/DX2                !
 ! D60   D(21,12,13,22)        178.8674         estimate D2E/DX2                !
 ! D61   D(21,12,13,23)         58.7137         estimate D2E/DX2                !
 ! D62   D(21,12,13,24)        -61.3125         estimate D2E/DX2                !
 ! D63   D(1,25,26,27)         179.6025         estimate D2E/DX2                !
 ! D64   D(1,25,26,28)         -60.9831         estimate D2E/DX2                !
 ! D65   D(1,25,26,29)          60.1243         estimate D2E/DX2                !
 --------------------------------------------------------------------------------
 Trust Radius=3.00D-01 FncErr=1.00D-07 GrdErr=1.00D-06
 Number of steps in this run=    158 maximum allowed number of steps=    186.
 GradGradGradGradGradGradGradGradGradGradGradGradGradGradGradGradGradGrad

                          Input orientation:                          
 ---------------------------------------------------------------------
 Center     Atomic      Atomic             Coordinates (Angstroms)
 Number     Number       Type             X           Y           Z
 ---------------------------------------------------------------------
      1          6           0       -4.826097    4.660906   -0.242920
      2          6           0       -5.491534    4.351027    0.936602
      3          6           0       -4.929374    4.753551    2.143925
      4          6           0       -3.720009    5.454025    2.192254
      5          6           0       -3.063841    5.756180    0.991215
      6          6           0       -3.624501    5.356169   -0.215862
      7          7           0       -3.219913    5.793577    3.461424
      8          6           0       -2.154941    6.633094    3.747298
      9          7           0       -1.928731    6.785639    5.098516
     10          8           0       -1.491634    7.206800    2.900193
     11          6           0       -0.746520    7.521447    5.529189
     12          6           0       -0.799751    7.786623    7.028219
     13          6           0        0.427381    8.560582    7.504683
     14          1           0       -5.450031    4.511056    3.067466
     15          1           0       -2.132520    6.304498    1.006051
     16          1           0       -3.813473    5.534701    4.238284
     17          1           0       -2.224254    6.032493    5.708036
     18          1           0       -0.726570    8.462282    4.972739
     19          1           0        0.170989    6.974525    5.267796
     20          1           0       -0.863117    6.831846    7.568977
     21          1           0       -1.714863    8.344789    7.258708
     22          1           0        1.348220    8.004663    7.298480
     23          1           0        0.382773    8.748803    8.580939
     24          1           0        0.500075    9.528095    6.996884
     25          8           0       -5.272821    4.321446   -1.522193
     26          6           0       -6.430209    3.662298   -1.685971
     27          9           0       -6.615510    3.477676   -2.986881
     28          9           0       -6.432206    2.459285   -1.088117
     29          9           0       -7.486115    4.337654   -1.203879
     30          1           0       -6.429733    3.809875    0.939087
     31          1           0       -3.129550    5.584334   -1.154261
 ---------------------------------------------------------------------
                    Distance matrix (angstroms):
                    1          2          3          4          5
     1  C    0.000000
     2  C    1.389282   0.000000
     3  C    2.390875   1.391287   0.000000
     4  C    2.789721   2.435481   1.398415   0.000000
     5  C    2.414179   2.805553   2.411269   1.401552   0.000000
     6  C    1.388508   2.413358   2.763049   2.411995   1.389742
     7  N    4.193439   3.689978   2.395770   1.405768   2.475416
     8  C    5.190996   4.923484   3.714965   2.501560   3.031677
     9  N    6.437403   5.995200   4.675772   3.664455   4.383854
    10  O    5.242078   5.292478   4.290504   2.922166   2.867112
    11  C    7.625148   7.325201   6.051241   4.924530   5.392527
    12  C    8.879811   8.421636   7.078817   6.111913   6.759750
    13  C   10.140605   9.792528   8.480922   7.421148   7.904339
    14  H    3.372004   2.137268   1.087573   2.155960   3.399272
    15  H    3.393623   3.886367   3.394494   2.156502   1.080848
    16  H    4.676550   3.888197   2.498353   2.049752   3.339829
    17  H    6.638126   6.022377   4.653627   3.864276   4.798922
    18  H    7.645893   7.476476   6.278569   5.073597   5.351482
    19  H    7.790488   7.596457   6.380047   5.187557   5.498876
    20  H    9.024629   8.459616   7.091188   6.242545   7.019059
    21  H    8.917690   8.377494   7.027878   6.168151   6.913907
    22  H   10.304156  10.030194   8.749135   7.633233   8.018950
    23  H   11.031941  10.596406   9.252897   8.276695   8.856571
    24  H   10.221174   9.971380   8.707835   7.582323   7.937059
    25  O    1.396902   2.468680   3.707438   4.182234   3.640780
    26  C    2.377560   2.869381   4.255754   5.059259   4.783733
    27  F    3.483010   4.173702   5.549422   6.254065   5.799240
    28  F    2.853258   2.926267   4.238898   5.204355   5.151604
    29  F    2.846688   2.925780   4.232929   5.192645   5.136843
    30  H    2.166343   1.083083   2.143184   3.408264   3.888450
    31  H    2.135775   3.386993   3.848065   3.400704   2.153350
                    6          7          8          9         10
     6  C    0.000000
     7  N    3.725244   0.000000
     8  C    4.415515   1.385885   0.000000
     9  N    5.758614   2.308985   1.378489   0.000000
    10  O    4.205206   2.301983   1.219304   2.280582   0.000000
    11  C    6.780620   3.657712   2.438843   1.457571   2.750603
    12  C    8.146351   4.748837   3.732508   2.449555   4.225577
    13  C    9.289393   6.107947   4.949903   3.806747   5.168818
    14  H    3.850587   2.602592   3.977792   4.658159   4.792068
    15  H    2.149048   2.733554   2.760962   4.125687   2.193777
    16  H    4.461726   1.011357   2.048967   2.420144   3.158693
    17  H    6.124595   2.468944   2.051833   1.012955   3.130449
    18  H    6.705783   3.952571   2.624477   2.066916   2.541064
    19  H    6.862603   4.019433   2.799722   2.114985   2.902381
    20  H    8.390863   4.848143   4.039003   2.690882   4.725798
    21  H    8.273316   4.815935   3.931103   2.672661   4.510156
    22  H    9.391902   6.362370   5.173417   4.130893   5.295875
    23  H   10.244604   6.922583   5.854939   4.617828   6.177544
    24  H    9.297354   6.347000   5.098034   4.126010   5.112552
    25  O    2.343953   5.587310   6.544649   7.815944   6.494624
    26  C    3.591994   6.429932   7.524889   8.720541   7.614849
    27  F    4.489256   7.646837   8.671938   9.913736   8.649747
    28  F    4.127466   6.491121   7.687452   8.790509   7.928100
    29  F    4.114075   6.487313   7.629195   8.751990   7.810839
    30  H    3.405034   4.538744   5.842128   6.812859   6.306335
    31  H    1.085186   4.621308   5.106372   6.479376   4.664092
                   11         12         13         14         15
    11  C    0.000000
    12  C    1.523235   0.000000
    13  C    2.521988   1.527050   0.000000
    14  H    6.102912   6.931234   8.404256   0.000000
    15  H    4.884745   6.343459   7.339975   4.297876   0.000000
    16  H    3.875538   4.683740   6.148997   2.257650   3.723643
    17  H    2.105390   2.617073   4.080484   4.437681   4.710739
    18  H    1.093255   2.164918   2.784243   6.446187   4.729412
    19  H    1.099670   2.168163   2.754084   6.519662   4.890558
    20  H    2.156358   1.099106   2.158251   6.832968   6.705332
    21  H    2.146350   1.096405   2.167090   6.798198   6.590367
    22  H    2.784211   2.175859   1.095222   8.736303   7.389234
    23  H    3.477771   2.176027   1.093501   9.076259   8.347470
    24  H    2.781145   2.173304   1.095092   8.718644   7.294670
    25  O    8.969358  10.253066  11.486822   4.596991   4.492884
    26  C    9.962724  11.164642  12.469477   4.927099   5.718246
    27  F   11.104979  12.356874  13.620249   6.251507   6.635633
    28  F   10.086686  11.224081  12.574417   4.737436   6.136652
    29  F   10.044544  11.152143  12.501824   4.734986   6.116637
    30  H    8.194126   9.197215  10.615851   2.445705   4.969272
    31  H    7.355252   8.788118   9.822786   4.935538   2.485891
                   16         17         18         19         20
    16  H    0.000000
    17  H    2.221167   0.000000
    18  H    4.317306   2.947473   0.000000
    19  H    4.359923   2.611212   1.762412   0.000000
    20  H    4.634728   2.440239   3.068782   2.526889   0.000000
    21  H    4.628577   2.830332   2.493227   3.065582   1.763727
    22  H    6.489114   4.379674   3.150118   2.563345   2.517674
    23  H    6.840877   4.735875   3.785743   3.764284   2.500207
    24  H    6.493363   4.615445   2.595723   3.101413   3.074954
    25  O    6.065046   8.031043   8.944220   9.098234  10.411387
    26  C    6.741661   8.830584   9.995487  10.144040  11.255782
    27  F    8.017841  10.070343  11.085191  11.243853  12.480650
    28  F    6.684795   8.755704  10.262759  10.217006  11.183887
    29  F    6.673706   8.850662  10.042640  10.366625  11.271562
    30  H    4.550224   6.735648   8.392932   8.504250   9.169241
    31  H    5.435969   6.936247   7.183107   7.353163   9.098785
                   21         22         23         24         25
    21  H    0.000000
    22  H    3.082166   0.000000
    23  H    2.512290   1.769331   0.000000
    24  H    2.524819   1.769507   1.769261   0.000000
    25  O   10.293230  11.627922  12.395988  11.533005   0.000000
    26  C   11.143047  12.652291  13.330368  12.562977   1.341956
    27  F   12.356263  13.773281  14.511210  13.671675   2.158720
    28  F   11.249976  12.713035  13.397486  12.782481   2.236121
    29  F   10.999085  12.797756  13.308655  12.568708   2.236125
    30  H    9.095772  10.887364  11.366669  10.835921   2.767317
    31  H    8.966577   9.866978  10.822402   9.755439   2.514732
                   26         27         28         29         30
    26  C    0.000000
    27  F    1.326947   0.000000
    28  F    1.343382   2.162412   0.000000
    29  F    1.342928   2.162548   2.156941   0.000000
    30  H    2.629203   3.944375   2.435909   2.446793   0.000000
    31  H    3.856332   4.466366   4.547290   4.531703   4.292088
                   31
    31  H    0.000000
 Stoichiometry    C11H13F3N2O2
 Framework group  C1[X(C11H13F3N2O2)]
 Deg. of freedom    87
 Full point group                 C1      NOp   1
 Largest Abelian subgroup         C1      NOp   1
 Largest concise Abelian subgroup C1      NOp   1
                         Standard orientation:                         
 ---------------------------------------------------------------------
 Center     Atomic      Atomic             Coordinates (Angstroms)
 Number     Number       Type             X           Y           Z
 ---------------------------------------------------------------------
      1          6           0       -2.470158    0.400534   -0.043836
      2          6           0       -2.076576   -0.931081    0.000872
      3          6           0       -0.716675   -1.224504   -0.014973
      4          6           0        0.250336   -0.216215   -0.076680
      5          6           0       -0.167285    1.120905   -0.121971
      6          6           0       -1.525213    1.416071   -0.104827
      7          7           0        1.597968   -0.614467   -0.114942
      8          6           0        2.716495    0.194578    0.007619
      9          7           0        3.903273   -0.504751   -0.044642
     10          8           0        2.670866    1.401927    0.171714
     11          6           0        5.153305    0.244095   -0.078764
     12          6           0        6.340971   -0.691325    0.107472
     13          6           0        7.664315    0.070155    0.079348
     14          1           0       -0.408258   -2.266844    0.019947
     15          1           0        0.564204    1.915656   -0.161022
     16          1           0        1.751234   -1.611915   -0.048228
     17          1           0        3.903673   -1.384345   -0.547028
     18          1           0        5.114519    0.981502    0.727420
     19          1           0        5.248321    0.803312   -1.020848
     20          1           0        6.339002   -1.451407   -0.686447
     21          1           0        6.228644   -1.224151    1.059093
     22          1           0        7.798688    0.591294   -0.874522
     23          1           0        8.512695   -0.606369    0.214667
     24          1           0        7.700798    0.819012    0.877539
     25          8           0       -3.796130    0.839885   -0.033722
     26          6           0       -4.804592   -0.042400    0.039937
     27          9           0       -5.944054    0.637611    0.040998
     28          9           0       -4.826639   -0.894301   -0.998548
     29          9           0       -4.761442   -0.789740    1.154870
     30          1           0       -2.796175   -1.739129    0.048893
     31          1           0       -1.864248    2.446423   -0.137358
 ---------------------------------------------------------------------
 Rotational constants (GHZ):      2.0769501      0.1107359      0.1074035
 General basis read from cards:  (6D, 7F)
 There are   368 symmetry adapted cartesian basis functions of A   symmetry.
 There are   368 symmetry adapted basis functions of A   symmetry.
   368 basis functions,   628 primitive gaussians,   368 cartesian basis functions
    68 alpha electrons       68 beta electrons
       nuclear repulsion energy      1295.0041281646 Hartrees.
 NAtoms=   31 NActive=   31 NUniq=   31 SFac= 1.00D+00 NAtFMM=   60 NAOKFM=F Big=F
 Integral buffers will be    131072 words long.
 Raffenetti 2 integral format.
 Two-electron integral symmetry is turned on.
 ------------------------------------------------------------------------------
 Polarizable Continuum Model (PCM)
 =================================
 Model                : PCM (using non-symmetric T matrix).
 Atomic radii         : SMD-Coulomb.
 Polarization charges : Total charges.
 Charge compensation  : None.
 Solution method      : On-the-fly selection.
 Cavity type          : VdW (van der Waals Surface) (Alpha=1.000).
 Cavity algorithm     : GePol (No added spheres)
                        Default sphere list used, NSphG=   31.
                        Lebedev-Laikov grids with approx.  5.0 points / Ang**2.
                        Smoothing algorithm: York/Karplus (Gamma=1.0000).
                        Polarization charges: spherical gaussians, with
                                              point-specific exponents (IZeta= 3).
                        Self-potential: point-specific (ISelfS= 7).
                        Self-field    : sphere-specific E.n sum rule (ISelfD= 2).
 1st derivatives      : Analytical E(r).r(x)/FMM algorithm (CHGder, D1EAlg=3).
                        Cavity 1st derivative terms included.
 Solvent              : Water, Eps=  78.355300 Eps(inf)=   1.777849
 ------------------------------------------------------------------------------
 ------------------------------------------------------------------------------
 Atomic radii for non-electrostatic terms: SMD-CDS.
 ------------------------------------------------------------------------------
 Nuclear repulsion after PCM non-electrostatic terms =     1295.0160036818 Hartrees.
 One-electron integrals computed using PRISM.
 NBasis=   368 RedAO= T EigKep=  1.78D-06  NBF=   368
 NBsUse=   368 1.00D-06 EigRej= -1.00D+00 NBFU=   368
 ExpMin= 4.38D-02 ExpMax= 7.00D+03 ExpMxC= 1.05D+03 IAcc=3 IRadAn=         5 AccDes= 0.00D+00
 Harris functional with IExCor= 1009 and IRadAn=       5 diagonalized for initial guess.
 HarFok:  IExCor= 1009 AccDes= 0.00D+00 IRadAn=         5 IDoV= 1 UseB2=F ITyADJ=14
 ICtDFT=  3500011 ScaDFX=  1.000000  1.000000  1.000000  1.000000
 FoFCou: FMM=F IPFlag=           0 FMFlag=      100000 FMFlg1=           0
         NFxFlg=           0 DoJE=T BraDBF=F KetDBF=T FulRan=T
         wScrn=  0.000000 ICntrl=     500 IOpCl=  0 I1Cent=   200000004 NGrid=           0
         NMat0=    1 NMatS0=      1 NMatT0=    0 NMatD0=    1 NMtDS0=    0 NMtDT0=    0
 Petite list used in FoFCou.
 Requested convergence on RMS density matrix=1.00D-08 within 128 cycles.
 Requested convergence on MAX density matrix=1.00D-06.
 Requested convergence on             energy=1.00D-06.
 No special actions if energy rises.
 Inv3:  Mode=1 IEnd=    16483008.
 Iteration    1 A*A^-1 deviation from unit magnitude is 4.00D-15 for   2333.
 Iteration    1 A*A^-1 deviation from orthogonality  is 2.94D-15 for   2237   1907.
 Iteration    1 A^-1*A deviation from unit magnitude is 4.33D-15 for   2332.
 Iteration    1 A^-1*A deviation from orthogonality  is 7.06D-07 for   2095   2051.
 Iteration    2 A*A^-1 deviation from unit magnitude is 2.44D-15 for    221.
 Iteration    2 A*A^-1 deviation from orthogonality  is 2.27D-15 for   1400   1326.
 Iteration    2 A^-1*A deviation from unit magnitude is 8.88D-16 for     63.
 Iteration    2 A^-1*A deviation from orthogonality  is 3.30D-16 for    794    710.
 Error on total polarization charges =  0.05242
 SCF Done:  E(RM062X) =  -986.180110667     A.U. after   14 cycles
            NFock= 14  Conv=0.76D-08     -V/T= 2.0081
 SMD-CDS (non-electrostatic) energy       (kcal/mol) =       7.45
 (included in total energy above)

 **********************************************************************

            Population analysis using the SCF density.

 **********************************************************************

 Orbital symmetries:
       Occupied  (A) (A) (A) (A) (A) (A) (A) (A) (A) (A) (A) (A)
                 (A) (A) (A) (A) (A) (A) (A) (A) (A) (A) (A) (A)
                 (A) (A) (A) (A) (A) (A) (A) (A) (A) (A) (A) (A)
                 (A) (A) (A) (A) (A) (A) (A) (A) (A) (A) (A) (A)
                 (A) (A) (A) (A) (A) (A) (A) (A) (A) (A) (A) (A)
                 (A) (A) (A) (A) (A) (A) (A) (A)
       Virtual   (A) (A) (A) (A) (A) (A) (A) (A) (A) (A) (A) (A)
                 (A) (A) (A) (A) (A) (A) (A) (A) (A) (A) (A) (A)
                 (A) (A) (A) (A) (A) (A) (A) (A) (A) (A) (A) (A)
                 (A) (A) (A) (A) (A) (A) (A) (A) (A) (A) (A) (A)
                 (A) (A) (A) (A) (A) (A) (A) (A) (A) (A) (A) (A)
                 (A) (A) (A) (A) (A) (A) (A) (A) (A) (A) (A) (A)
                 (A) (A) (A) (A) (A) (A) (A) (A) (A) (A) (A) (A)
                 (A) (A) (A) (A) (A) (A) (A) (A) (A) (A) (A) (A)
                 (A) (A) (A) (A) (A) (A) (A) (A) (A) (A) (A) (A)
                 (A) (A) (A) (A) (A) (A) (A) (A) (A) (A) (A) (A)
                 (A) (A) (A) (A) (A) (A) (A) (A) (A) (A) (A) (A)
                 (A) (A) (A) (A) (A) (A) (A) (A) (A) (A) (A) (A)
                 (A) (A) (A) (A) (A) (A) (A) (A) (A) (A) (A) (A)
                 (A) (A) (A) (A) (A) (A) (A) (A) (A) (A) (A) (A)
                 (A) (A) (A) (A) (A) (A) (A) (A) (A) (A) (A) (A)
                 (A) (A) (A) (A) (A) (A) (A) (A) (A) (A) (A) (A)
                 (A) (A) (A) (A) (A) (A) (A) (A) (A) (A) (A) (A)
                 (A) (A) (A) (A) (A) (A) (A) (A) (A) (A) (A) (A)
                 (A) (A) (A) (A) (A) (A) (A) (A) (A) (A) (A) (A)
                 (A) (A) (A) (A) (A) (A) (A) (A) (A) (A) (A) (A)
                 (A) (A) (A) (A) (A) (A) (A) (A) (A) (A) (A) (A)
                 (A) (A) (A) (A) (A) (A) (A) (A) (A) (A) (A) (A)
                 (A) (A) (A) (A) (A) (A) (A) (A) (A) (A) (A) (A)
                 (A) (A) (A) (A) (A) (A) (A) (A) (A) (A) (A) (A)
                 (A) (A) (A) (A) (A) (A) (A) (A) (A) (A) (A) (A)
 The electronic state is 1-A.
 Alpha  occ. eigenvalues --  -25.32266 -25.31821 -25.31803 -19.72540 -19.62915
 Alpha  occ. eigenvalues --  -14.80126 -14.78165 -10.87551 -10.69461 -10.63182
 Alpha  occ. eigenvalues --  -10.60961 -10.57326 -10.56928 -10.56437 -10.56412
 Alpha  occ. eigenvalues --  -10.55987 -10.54024 -10.52884  -1.49889  -1.40056
 Alpha  occ. eigenvalues --   -1.39382  -1.24906  -1.19321  -1.06317  -1.02657
 Alpha  occ. eigenvalues --   -0.97056  -0.88669  -0.86974  -0.86007  -0.81805
 Alpha  occ. eigenvalues --   -0.77702  -0.74917  -0.73647  -0.72353  -0.70559
 Alpha  occ. eigenvalues --   -0.69070  -0.67885  -0.65800  -0.63179  -0.61416
 Alpha  occ. eigenvalues --   -0.60107  -0.59585  -0.57843  -0.56074  -0.55605
 Alpha  occ. eigenvalues --   -0.55502  -0.54404  -0.53592  -0.53005  -0.52537
 Alpha  occ. eigenvalues --   -0.52051  -0.50958  -0.50603  -0.49750  -0.48127
 Alpha  occ. eigenvalues --   -0.47175  -0.46757  -0.45650  -0.44195  -0.41969
 Alpha  occ. eigenvalues --   -0.41620  -0.39914  -0.39055  -0.37707  -0.36286
 Alpha  occ. eigenvalues --   -0.32685  -0.32062  -0.26919
 Alpha virt. eigenvalues --    0.00889   0.01521   0.01787   0.02382   0.03545
 Alpha virt. eigenvalues --    0.03927   0.04266   0.04411   0.04843   0.05171
 Alpha virt. eigenvalues --    0.05671   0.06000   0.07046   0.07373   0.07682
 Alpha virt. eigenvalues --    0.08229   0.08758   0.09520   0.09728   0.09887
 Alpha virt. eigenvalues --    0.10134   0.10231   0.10446   0.12157   0.12517
 Alpha virt. eigenvalues --    0.12762   0.13679   0.14521   0.14651   0.14849
 Alpha virt. eigenvalues --    0.15740   0.15856   0.16163   0.16920   0.17383
 Alpha virt. eigenvalues --    0.18028   0.18599   0.19279   0.20329   0.20754
 Alpha virt. eigenvalues --    0.20795   0.21466   0.22159   0.22319   0.22499
 Alpha virt. eigenvalues --    0.22855   0.23265   0.23406   0.24049   0.24318
 Alpha virt. eigenvalues --    0.24610   0.24695   0.24942   0.25642   0.25819
 Alpha virt. eigenvalues --    0.26032   0.26636   0.26743   0.27936   0.28577
 Alpha virt. eigenvalues --    0.28920   0.29510   0.29800   0.29886   0.30263
 Alpha virt. eigenvalues --    0.30703   0.31483   0.31732   0.32053   0.32370
 Alpha virt. eigenvalues --    0.32727   0.32865   0.33080   0.33921   0.34112
 Alpha virt. eigenvalues --    0.34459   0.34917   0.35125   0.35739   0.36254
 Alpha virt. eigenvalues --    0.36355   0.37022   0.37635   0.38512   0.38672
 Alpha virt. eigenvalues --    0.38773   0.39245   0.39657   0.40306   0.41002
 Alpha virt. eigenvalues --    0.42026   0.43201   0.43726   0.44361   0.44773
 Alpha virt. eigenvalues --    0.44955   0.46532   0.47058   0.48980   0.51075
 Alpha virt. eigenvalues --    0.52501   0.52642   0.56370   0.58939   0.60513
 Alpha virt. eigenvalues --    0.64492   0.68155   0.68636   0.69792   0.70168
 Alpha virt. eigenvalues --    0.71811   0.73351   0.74606   0.74937   0.75986
 Alpha virt. eigenvalues --    0.77444   0.78436   0.79467   0.79800   0.80695
 Alpha virt. eigenvalues --    0.81698   0.81839   0.82473   0.83566   0.84100
 Alpha virt. eigenvalues --    0.84720   0.86630   0.87816   0.89713   0.91035
 Alpha virt. eigenvalues --    0.92003   0.94688   0.98117   0.98801   1.00372
 Alpha virt. eigenvalues --    1.01161   1.01646   1.02342   1.03772   1.04530
 Alpha virt. eigenvalues --    1.05249   1.05588   1.07018   1.07929   1.09268
 Alpha virt. eigenvalues --    1.10290   1.12830   1.13916   1.14578   1.15313
 Alpha virt. eigenvalues --    1.16825   1.17162   1.17674   1.18149   1.19254
 Alpha virt. eigenvalues --    1.20603   1.21325   1.23853   1.24654   1.25763
 Alpha virt. eigenvalues --    1.27110   1.29315   1.30555   1.31891   1.32914
 Alpha virt. eigenvalues --    1.33805   1.35339   1.37573   1.38813   1.39990
 Alpha virt. eigenvalues --    1.40448   1.41765   1.43039   1.45725   1.46745
 Alpha virt. eigenvalues --    1.47681   1.49130   1.50209   1.50584   1.52590
 Alpha virt. eigenvalues --    1.53106   1.54979   1.55443   1.57418   1.61995
 Alpha virt. eigenvalues --    1.62172   1.63727   1.66862   1.68111   1.69127
 Alpha virt. eigenvalues --    1.70166   1.70622   1.71120   1.71875   1.73229
 Alpha virt. eigenvalues --    1.75415   1.77740   1.79362   1.81445   1.81828
 Alpha virt. eigenvalues --    1.86520   1.86580   1.86951   1.87243   1.88143
 Alpha virt. eigenvalues --    1.88751   1.89117   1.91583   1.92724   1.92826
 Alpha virt. eigenvalues --    1.93054   1.93370   1.95303   1.96202   1.97364
 Alpha virt. eigenvalues --    1.98192   1.99390   2.00452   2.00979   2.03505
 Alpha virt. eigenvalues --    2.03737   2.06097   2.06524   2.07452   2.07692
 Alpha virt. eigenvalues --    2.09048   2.10774   2.11241   2.12092   2.12926
 Alpha virt. eigenvalues --    2.13398   2.13813   2.15515   2.18124   2.19033
 Alpha virt. eigenvalues --    2.20504   2.23966   2.25928   2.26332   2.28995
 Alpha virt. eigenvalues --    2.30487   2.32006   2.33632   2.35199   2.37975
 Alpha virt. eigenvalues --    2.38433   2.41663   2.44334   2.44791   2.46034
 Alpha virt. eigenvalues --    2.47363   2.49585   2.55455   2.58113   2.58964
 Alpha virt. eigenvalues --    2.64634   2.65309   2.65888   2.69943   2.70742
 Alpha virt. eigenvalues --    2.70966   2.74375   2.74918   2.75940   2.78446
 Alpha virt. eigenvalues --    2.82195   2.82778   2.82927   2.85947   2.87338
 Alpha virt. eigenvalues --    2.94185   2.95830   3.00354   3.11183   3.13254
 Alpha virt. eigenvalues --    3.18252   3.20808   3.24604   3.30162   3.34088
 Alpha virt. eigenvalues --    3.40134   3.47828   4.15558   4.27369   4.28362
 Alpha virt. eigenvalues --    4.30457   4.36358   4.41624   4.42556   4.42670
 Alpha virt. eigenvalues --    4.48143   4.53038   4.57197   4.58624   4.66263
 Alpha virt. eigenvalues --    4.72184   4.86703   5.57084   6.26262   7.04567
          Condensed to atoms (all electrons):
               1          2          3          4          5          6
     1  C   11.876531   1.123432   0.016969  -3.276146  -0.316176  -3.375256
     2  C    1.123432  12.318303  -4.656950  -1.403367   0.352222  -2.755617
     3  C    0.016969  -4.656950  17.726893   0.632761  -4.208656  -1.095838
     4  C   -3.276146  -1.403367   0.632761  12.597359  -1.474560   0.542220
     5  C   -0.316176   0.352222  -4.208656  -1.474560  12.036564  -2.116891
     6  C   -3.375256  -2.755617  -1.095838   0.542220  -2.116891  15.705565
     7  N    0.024496   0.103955   0.507116  -0.148468  -0.399621  -0.016346
     8  C   -0.444635   0.046343  -1.157480  -0.690708   0.559780   0.163581
     9  N    0.013610   0.037166  -0.045558  -0.049789  -0.033648  -0.045222
    10  O   -0.012628   0.010391  -0.133365  -0.264001   0.234701   0.133681
    11  C   -0.018601   0.021961  -0.100284  -0.391002   0.058755   0.006156
    12  C    0.000501  -0.000376   0.006402   0.017986  -0.011618  -0.002606
    13  C   -0.000101   0.000136  -0.000198  -0.002278  -0.001274  -0.000327
    14  H    0.018399  -0.001531   0.197285   0.065055   0.086763  -0.047643
    15  H    0.067193  -0.008882   0.040560  -0.025622   0.271161  -0.022755
    16  H    0.003383   0.053364  -0.059474  -0.018231   0.024166   0.007853
    17  H   -0.000440  -0.001426  -0.016312   0.002343   0.013485   0.002431
    18  H   -0.000109   0.000010  -0.002674  -0.021167   0.009031   0.001460
    19  H    0.000098  -0.000058   0.000515   0.009389  -0.000865  -0.000159
    20  H   -0.000006  -0.000005  -0.000076  -0.002396   0.000358   0.000028
    21  H    0.000006   0.000006   0.000479   0.001884  -0.000789  -0.000054
    22  H    0.000000   0.000000   0.000011   0.000221  -0.000045  -0.000003
    23  H   -0.000000  -0.000000  -0.000003  -0.000043   0.000007   0.000000
    24  H   -0.000000   0.000000   0.000002  -0.000150  -0.000040  -0.000002
    25  O    0.196893  -0.002877   0.012361  -0.006600   0.081430  -0.392310
    26  C    0.361151  -0.102838  -0.151581  -0.248604   0.034976  -0.314176
    27  F   -0.028981   0.036248   0.015608   0.002536  -0.003742  -0.003192
    28  F   -0.005129  -0.021318   0.037282   0.013958   0.000184   0.009755
    29  F    0.020233  -0.016876   0.022258   0.012030  -0.001905  -0.004318
    30  H    0.009098   0.336182  -0.047293   0.014257  -0.011882   0.002139
    31  H   -0.009662   0.041406  -0.040025   0.002197  -0.038906   0.356860
               7          8          9         10         11         12
     1  C    0.024496  -0.444635   0.013610  -0.012628  -0.018601   0.000501
     2  C    0.103955   0.046343   0.037166   0.010391   0.021961  -0.000376
     3  C    0.507116  -1.157480  -0.045558  -0.133365  -0.100284   0.006402
     4  C   -0.148468  -0.690708  -0.049789  -0.264001  -0.391002   0.017986
     5  C   -0.399621   0.559780  -0.033648   0.234701   0.058755  -0.011618
     6  C   -0.016346   0.163581  -0.045222   0.133681   0.006156  -0.002606
     7  N    7.684897   0.155573  -0.293166  -0.108405  -0.073437  -0.002921
     8  C    0.155573   6.102734   0.384501   0.599413  -0.533667   0.048724
     9  N   -0.293166   0.384501   7.443957  -0.186220   0.258088  -0.049788
    10  O   -0.108405   0.599413  -0.186220   8.497846  -0.068398   0.003859
    11  C   -0.073437  -0.533667   0.258088  -0.068398   6.630424  -0.256227
    12  C   -0.002921   0.048724  -0.049788   0.003859  -0.256227   6.071051
    13  C    0.000897  -0.025179  -0.002590  -0.001941  -0.007951  -0.032850
    14  H   -0.014480  -0.005290   0.000917   0.000032  -0.000315   0.000004
    15  H   -0.010028  -0.006314  -0.000235  -0.007981   0.000900  -0.000001
    16  H    0.253180  -0.042530   0.010628   0.005711   0.001018  -0.001219
    17  H    0.024468   0.024470   0.253823   0.008162  -0.061936   0.004296
    18  H    0.002139  -0.061364  -0.042166   0.003840   0.462580  -0.038217
    19  H   -0.000727   0.021059  -0.068881   0.005288   0.399654  -0.055785
    20  H    0.000834  -0.006186   0.002112  -0.000087  -0.076757   0.432399
    21  H   -0.000202   0.003974   0.007913  -0.000096  -0.081948   0.431347
    22  H    0.000046   0.006831   0.000753  -0.000018  -0.001800  -0.064584
    23  H    0.000016  -0.001374   0.000723   0.000005   0.023010  -0.080435
    24  H   -0.000000  -0.006331   0.000375  -0.000074  -0.012433  -0.063192
    25  O   -0.000319   0.002518  -0.000023   0.000053   0.000032  -0.000000
    26  C    0.001108  -0.015348   0.000374  -0.000039  -0.000164   0.000004
    27  F    0.000005   0.000061  -0.000000   0.000000   0.000000  -0.000000
    28  F   -0.000052  -0.000124  -0.000000   0.000000  -0.000001   0.000000
    29  F    0.000057   0.000358   0.000001  -0.000001   0.000002  -0.000000
    30  H    0.000395   0.002164   0.000005  -0.000003   0.000013  -0.000000
    31  H   -0.000434   0.000478   0.000002   0.000130  -0.000009   0.000001
              13         14         15         16         17         18
     1  C   -0.000101   0.018399   0.067193   0.003383  -0.000440  -0.000109
     2  C    0.000136  -0.001531  -0.008882   0.053364  -0.001426   0.000010
     3  C   -0.000198   0.197285   0.040560  -0.059474  -0.016312  -0.002674
     4  C   -0.002278   0.065055  -0.025622  -0.018231   0.002343  -0.021167
     5  C   -0.001274   0.086763   0.271161   0.024166   0.013485   0.009031
     6  C   -0.000327  -0.047643  -0.022755   0.007853   0.002431   0.001460
     7  N    0.000897  -0.014480  -0.010028   0.253180   0.024468   0.002139
     8  C   -0.025179  -0.005290  -0.006314  -0.042530   0.024470  -0.061364
     9  N   -0.002590   0.000917  -0.000235   0.010628   0.253823  -0.042166
    10  O   -0.001941   0.000032  -0.007981   0.005711   0.008162   0.003840
    11  C   -0.007951  -0.000315   0.000900   0.001018  -0.061936   0.462580
    12  C   -0.032850   0.000004  -0.000001  -0.001219   0.004296  -0.038217
    13  C    5.653078  -0.000001  -0.000002  -0.000100  -0.000653   0.007811
    14  H   -0.000001   0.434582  -0.000108   0.005820   0.000005   0.000000
    15  H   -0.000002  -0.000108   0.428004  -0.000141   0.000002   0.000003
    16  H   -0.000100   0.005820  -0.000141   0.264104   0.001203   0.000006
    17  H   -0.000653   0.000005   0.000002   0.001203   0.284890   0.002967
    18  H    0.007811   0.000000   0.000003   0.000006   0.002967   0.475938
    19  H   -0.005672   0.000000  -0.000001   0.000010  -0.000076  -0.039417
    20  H   -0.034598   0.000000  -0.000000   0.000005   0.002667   0.003744
    21  H   -0.042073  -0.000000  -0.000000  -0.000003  -0.000523  -0.005534
    22  H    0.405453  -0.000000   0.000000  -0.000000  -0.000002  -0.000238
    23  H    0.412844   0.000000  -0.000000  -0.000000  -0.000000  -0.000056
    24  H    0.428750  -0.000000  -0.000000   0.000000   0.000003   0.002336
    25  O    0.000000  -0.000545  -0.000380   0.000003   0.000000   0.000000
    26  C   -0.000000   0.001759   0.000834   0.000109  -0.000001  -0.000000
    27  F    0.000000  -0.000000  -0.000000  -0.000000  -0.000000   0.000000
    28  F   -0.000000   0.000044   0.000002   0.000000   0.000000  -0.000000
    29  F    0.000000   0.000040   0.000002   0.000000  -0.000000   0.000000
    30  H   -0.000000  -0.003411   0.000013  -0.000010  -0.000000  -0.000000
    31  H   -0.000000   0.000012  -0.003192   0.000002  -0.000000  -0.000000
              19         20         21         22         23         24
     1  C    0.000098  -0.000006   0.000006   0.000000  -0.000000  -0.000000
     2  C   -0.000058  -0.000005   0.000006   0.000000  -0.000000   0.000000
     3  C    0.000515  -0.000076   0.000479   0.000011  -0.000003   0.000002
     4  C    0.009389  -0.002396   0.001884   0.000221  -0.000043  -0.000150
     5  C   -0.000865   0.000358  -0.000789  -0.000045   0.000007  -0.000040
     6  C   -0.000159   0.000028  -0.000054  -0.000003   0.000000  -0.000002
     7  N   -0.000727   0.000834  -0.000202   0.000046   0.000016  -0.000000
     8  C    0.021059  -0.006186   0.003974   0.006831  -0.001374  -0.006331
     9  N   -0.068881   0.002112   0.007913   0.000753   0.000723   0.000375
    10  O    0.005288  -0.000087  -0.000096  -0.000018   0.000005  -0.000074
    11  C    0.399654  -0.076757  -0.081948  -0.001800   0.023010  -0.012433
    12  C   -0.055785   0.432399   0.431347  -0.064584  -0.080435  -0.063192
    13  C   -0.005672  -0.034598  -0.042073   0.405453   0.412844   0.428750
    14  H    0.000000   0.000000  -0.000000  -0.000000   0.000000  -0.000000
    15  H   -0.000001  -0.000000  -0.000000   0.000000  -0.000000  -0.000000
    16  H    0.000010   0.000005  -0.000003  -0.000000  -0.000000   0.000000
    17  H   -0.000076   0.002667  -0.000523  -0.000002  -0.000000   0.000003
    18  H   -0.039417   0.003744  -0.005534  -0.000238  -0.000056   0.002336
    19  H    0.509297  -0.005365   0.003932   0.002509  -0.000063  -0.000427
    20  H   -0.005365   0.493524  -0.034304  -0.004476  -0.002875   0.003837
    21  H    0.003932  -0.034304   0.489553   0.003701  -0.002726  -0.004509
    22  H    0.002509  -0.004476   0.003701   0.484561  -0.024928  -0.030345
    23  H   -0.000063  -0.002875  -0.002726  -0.024928   0.478281  -0.025051
    24  H   -0.000427   0.003837  -0.004509  -0.030345  -0.025051   0.486180
    25  O   -0.000000   0.000000  -0.000000  -0.000000   0.000000   0.000000
    26  C    0.000000  -0.000000   0.000000   0.000000  -0.000000  -0.000000
    27  F   -0.000000   0.000000  -0.000000  -0.000000   0.000000   0.000000
    28  F    0.000000  -0.000000   0.000000  -0.000000  -0.000000  -0.000000
    29  F   -0.000000  -0.000000   0.000000   0.000000  -0.000000  -0.000000
    30  H   -0.000000   0.000000   0.000000   0.000000  -0.000000   0.000000
    31  H    0.000000  -0.000000   0.000000   0.000000  -0.000000   0.000000
              25         26         27         28         29         30
     1  C    0.196893   0.361151  -0.028981  -0.005129   0.020233   0.009098
     2  C   -0.002877  -0.102838   0.036248  -0.021318  -0.016876   0.336182
     3  C    0.012361  -0.151581   0.015608   0.037282   0.022258  -0.047293
     4  C   -0.006600  -0.248604   0.002536   0.013958   0.012030   0.014257
     5  C    0.081430   0.034976  -0.003742   0.000184  -0.001905  -0.011882
     6  C   -0.392310  -0.314176  -0.003192   0.009755  -0.004318   0.002139
     7  N   -0.000319   0.001108   0.000005  -0.000052   0.000057   0.000395
     8  C    0.002518  -0.015348   0.000061  -0.000124   0.000358   0.002164
     9  N   -0.000023   0.000374  -0.000000  -0.000000   0.000001   0.000005
    10  O    0.000053  -0.000039   0.000000   0.000000  -0.000001  -0.000003
    11  C    0.000032  -0.000164   0.000000  -0.000001   0.000002   0.000013
    12  C   -0.000000   0.000004  -0.000000   0.000000  -0.000000  -0.000000
    13  C    0.000000  -0.000000   0.000000  -0.000000   0.000000  -0.000000
    14  H   -0.000545   0.001759  -0.000000   0.000044   0.000040  -0.003411
    15  H   -0.000380   0.000834  -0.000000   0.000002   0.000002   0.000013
    16  H    0.000003   0.000109  -0.000000   0.000000   0.000000  -0.000010
    17  H    0.000000  -0.000001  -0.000000   0.000000  -0.000000  -0.000000
    18  H    0.000000  -0.000000   0.000000  -0.000000   0.000000  -0.000000
    19  H   -0.000000   0.000000  -0.000000   0.000000  -0.000000  -0.000000
    20  H    0.000000  -0.000000   0.000000  -0.000000  -0.000000   0.000000
    21  H   -0.000000   0.000000  -0.000000   0.000000   0.000000   0.000000
    22  H   -0.000000   0.000000  -0.000000  -0.000000   0.000000   0.000000
    23  H    0.000000  -0.000000   0.000000  -0.000000  -0.000000  -0.000000
    24  H    0.000000  -0.000000   0.000000  -0.000000  -0.000000   0.000000
    25  O    8.495899   0.231167  -0.023863  -0.065862  -0.069375  -0.009389
    26  C    0.231167   4.293131   0.201513   0.213272   0.217336   0.008948
    27  F   -0.023863   0.201513   9.225924  -0.047058  -0.047088   0.000710
    28  F   -0.065862   0.213272  -0.047058   9.256119  -0.060942  -0.000367
    29  F   -0.069375   0.217336  -0.047088  -0.060942   9.259545  -0.000347
    30  H   -0.009389   0.008948   0.000710  -0.000367  -0.000347   0.430102
    31  H   -0.002310  -0.002556   0.000025   0.000024   0.000025  -0.000107
              31
     1  C   -0.009662
     2  C    0.041406
     3  C   -0.040025
     4  C    0.002197
     5  C   -0.038906
     6  C    0.356860
     7  N   -0.000434
     8  C    0.000478
     9  N    0.000002
    10  O    0.000130
    11  C   -0.000009
    12  C    0.000001
    13  C   -0.000000
    14  H    0.000012
    15  H   -0.003192
    16  H    0.000002
    17  H   -0.000000
    18  H   -0.000000
    19  H    0.000000
    20  H   -0.000000
    21  H    0.000000
    22  H    0.000000
    23  H   -0.000000
    24  H    0.000000
    25  O   -0.002310
    26  C   -0.002556
    27  F    0.000025
    28  F    0.000024
    29  F    0.000025
    30  H   -0.000107
    31  H    0.427169
 Mulliken charges:
               1
     1  C   -0.244124
     2  C    0.490995
     3  C   -1.500732
     4  C    0.108935
     5  C    0.857034
     6  C   -0.739014
     7  N   -0.690575
     8  C    0.873968
     9  N   -0.597661
    10  O   -0.719852
    11  C   -0.177663
    12  C   -0.356754
    13  C   -0.751181
    14  H    0.262605
    15  H    0.276968
    16  H    0.491144
    17  H    0.456154
    18  H    0.239077
    19  H    0.225745
    20  H    0.227623
    21  H    0.229966
    22  H    0.222353
    23  H    0.222669
    24  H    0.221072
    25  O   -0.446503
    26  C    1.269624
    27  F   -0.328706
    28  F   -0.329786
    29  F   -0.331034
    30  H    0.268783
    31  H    0.268870
 Sum of Mulliken charges =  -0.00000
 Mulliken charges with hydrogens summed into heavy atoms:
               1
     1  C   -0.244124
     2  C    0.759777
     3  C   -1.238127
     4  C    0.108935
     5  C    1.134002
     6  C   -0.470144
     7  N   -0.199431
     8  C    0.873968
     9  N   -0.141506
    10  O   -0.719852
    11  C    0.287159
    12  C    0.100835
    13  C   -0.085087
    25  O   -0.446503
    26  C    1.269624
    27  F   -0.328706
    28  F   -0.329786
    29  F   -0.331034
 Electronic spatial extent (au):  <R**2>=           9286.4296
 Charge=             -0.0000 electrons
 Dipole moment (field-independent basis, Debye):
    X=              4.8810    Y=             -6.0066    Z=             -1.3653  Tot=              7.8592
 Quadrupole moment (field-independent basis, Debye-Ang):
   XX=           -100.9334   YY=            -98.6684   ZZ=           -108.5593
   XY=            -13.6477   XZ=             -4.9339   YZ=              0.3958
 Traceless Quadrupole moment (field-independent basis, Debye-Ang):
   XX=              1.7870   YY=              4.0520   ZZ=             -5.8389
   XY=            -13.6477   XZ=             -4.9339   YZ=              0.3958
 Octapole moment (field-independent basis, Debye-Ang**2):
  XXX=            107.7056  YYY=            -25.1901  ZZZ=              0.9840  XYY=            -35.9803
  XXY=            -55.4347  XXZ=            -17.7522  XZZ=            -22.9622  YZZ=             -0.2896
  YYZ=             -3.3922  XYZ=              4.9695
 Hexadecapole moment (field-independent basis, Debye-Ang**3):
 XXXX=         -10489.6332 YYYY=           -537.2543 ZZZZ=           -204.6260 XXXY=           -118.5079
 XXXZ=            -72.6630 YYYX=            -34.0857 YYYZ=              1.6615 ZZZX=             -9.8456
 ZZZY=              2.0606 XXYY=          -1891.8855 XXZZ=          -1834.2841 YYZZ=           -137.4152
 XXYZ=             19.9428 YYXZ=            -14.6333 ZZXY=              1.3115
 N-N= 1.295016003682D+03 E-N=-4.899957729236D+03  KE= 9.782628887836D+02
 D1PCM: PCM CHGder 1st derivatives, ID1Alg=3 FixD1E=F DoIter=F DoCFld=F I1PDM=0.
 Calling FoFJK, ICntrl=      2127 FMM=F ISym2X=0 I1Cent= 0 IOpClX= 0 NMat=1 NMatS=1 NMatT=0.
 ***** Axes restored to original set *****
 -------------------------------------------------------------------
 Center     Atomic                   Forces (Hartrees/Bohr)
 Number     Number              X              Y              Z
 -------------------------------------------------------------------
      1        6           0.003444922    0.002337185    0.006320462
      2        6           0.000136325    0.000031084   -0.001223224
      3        6          -0.002445189   -0.001331090    0.001575669
      4        6           0.001924324    0.001331857    0.001460903
      5        6          -0.000841042   -0.000122009    0.000996736
      6        6           0.000171370    0.000082904   -0.002638067
      7        7           0.004959350    0.004985171   -0.004827815
      8        6          -0.016154128   -0.015516154    0.026218659
      9        7           0.000583036    0.001511703   -0.010846396
     10        8           0.011365277    0.010979447   -0.015640855
     11        6           0.000816374    0.000451805    0.000218667
     12        6           0.000893141   -0.000722683    0.000477009
     13        6          -0.000591905    0.000006513   -0.001157676
     14        1           0.000686850    0.000419046   -0.000072388
     15        1          -0.000224448   -0.001147455   -0.002044232
     16        1          -0.000348928   -0.001797931    0.003379757
     17        1          -0.002606205   -0.001631610    0.000936684
     18        1           0.000431452    0.001176632    0.001584560
     19        1          -0.000246122   -0.000305707    0.000836125
     20        1          -0.000191608    0.000328635   -0.001305799
     21        1           0.000341591    0.000442981    0.000102271
     22        1           0.000096748   -0.000396775   -0.000079127
     23        1          -0.000295442   -0.000128150    0.000358339
     24        1          -0.000013942    0.000435104   -0.000204072
     25        8          -0.000700627   -0.000774922   -0.005932330
     26        6          -0.000644996   -0.000252546    0.003693261
     27        9          -0.000369934   -0.000360710   -0.001526651
     28        9          -0.000264341   -0.000006208   -0.000965701
     29        9           0.000003780   -0.000081959   -0.001001163
     30        1          -0.000507384   -0.000221205    0.001472296
     31        1           0.000591700    0.000277048   -0.000165902
 -------------------------------------------------------------------
 Cartesian Forces:  Max     0.026218659 RMS     0.004709865

 GradGradGradGradGradGradGradGradGradGradGradGradGradGradGradGradGradGrad
 Berny optimization.
 FormGI is forming the generalized inverse of G from B-inverse, IUseBI=4.
 Internal  Forces:  Max     0.022214500 RMS     0.002319420
 Search for a local minimum.
 Step number   1 out of a maximum of  158
 All quantities printed in internal units (Hartrees-Bohrs-Radians)
 Mixed Optimization -- RFO/linear search
 Second derivative matrix not updated -- first step.
 ITU=  0
     Eigenvalues ---    0.00408   0.00459   0.00930   0.01615   0.01733
     Eigenvalues ---    0.01832   0.01878   0.01928   0.01947   0.01948
     Eigenvalues ---    0.01976   0.02101   0.02143   0.02147   0.02162
     Eigenvalues ---    0.02193   0.02217   0.02231   0.02234   0.02460
     Eigenvalues ---    0.03696   0.04414   0.04912   0.05497   0.05524
     Eigenvalues ---    0.05560   0.08182   0.09235   0.12081   0.12676
     Eigenvalues ---    0.14409   0.15451   0.15836   0.15999   0.16000
     Eigenvalues ---    0.16000   0.16000   0.16000   0.16000   0.16000
     Eigenvalues ---    0.16207   0.21893   0.21901   0.22000   0.22064
     Eigenvalues ---    0.22393   0.22977   0.23999   0.24994   0.24995
     Eigenvalues ---    0.25000   0.25000   0.25000   0.25000   0.25000
     Eigenvalues ---    0.25000   0.29698   0.30057   0.33719   0.33781
     Eigenvalues ---    0.34083   0.34216   0.34231   0.34411   0.34439
     Eigenvalues ---    0.35095   0.35375   0.35624   0.35892   0.37270
     Eigenvalues ---    0.42375   0.42467   0.44678   0.45481   0.45746
     Eigenvalues ---    0.45986   0.46138   0.46753   0.47223   0.47478
     Eigenvalues ---    0.48042   0.49380   0.56454   0.56554   0.56769
     Eigenvalues ---    0.60232   0.95693
 RFO step:  Lambda=-1.88354286D-03 EMin= 4.08126406D-03
 Linear search not attempted -- first point.
 Iteration  1 RMS(Cart)=  0.04993333 RMS(Int)=  0.00049532
 Iteration  2 RMS(Cart)=  0.00114578 RMS(Int)=  0.00003065
 Iteration  3 RMS(Cart)=  0.00000027 RMS(Int)=  0.00003065
 Variable       Old X    -DE/DX   Delta X   Delta X   Delta X     New X
                                 (Linear)    (Quad)   (Total)
    R1        2.62536   0.00143   0.00000   0.00296   0.00295   2.62831
    R2        2.62390  -0.00044   0.00000  -0.00098  -0.00098   2.62292
    R3        2.63976   0.00625   0.00000   0.01349   0.01349   2.65325
    R4        2.62915   0.00010   0.00000   0.00022   0.00022   2.62937
    R5        2.04673   0.00055   0.00000   0.00154   0.00154   2.04827
    R6        2.64262   0.00105   0.00000   0.00234   0.00233   2.64496
    R7        2.05522  -0.00049   0.00000  -0.00138  -0.00138   2.05384
    R8        2.64855   0.00194   0.00000   0.00431   0.00432   2.65287
    R9        2.65652  -0.00033   0.00000  -0.00073  -0.00073   2.65578
   R10        2.62623   0.00056   0.00000   0.00118   0.00118   2.62741
   R11        2.04251  -0.00080   0.00000  -0.00222  -0.00222   2.04028
   R12        2.05070   0.00047   0.00000   0.00133   0.00133   2.05204
   R13        2.61894  -0.00604   0.00000  -0.01252  -0.01252   2.60643
   R14        1.91119   0.00326   0.00000   0.00710   0.00710   1.91828
   R15        2.60497  -0.00888   0.00000  -0.01791  -0.01791   2.58705
   R16        2.30415   0.02221   0.00000   0.02317   0.02317   2.32732
   R17        2.75441   0.00188   0.00000   0.00502   0.00502   2.75943
   R18        1.91421   0.00254   0.00000   0.00556   0.00556   1.91977
   R19        2.87850  -0.00177   0.00000  -0.00586  -0.00586   2.87264
   R20        2.06595   0.00022   0.00000   0.00062   0.00062   2.06658
   R21        2.07808  -0.00026   0.00000  -0.00076  -0.00076   2.07732
   R22        2.88571  -0.00104   0.00000  -0.00347  -0.00347   2.88224
   R23        2.07701  -0.00091   0.00000  -0.00268  -0.00268   2.07432
   R24        2.07190  -0.00004   0.00000  -0.00011  -0.00011   2.07179
   R25        2.06967   0.00029   0.00000   0.00085   0.00085   2.07052
   R26        2.06642   0.00035   0.00000   0.00100   0.00100   2.06742
   R27        2.06942   0.00048   0.00000   0.00139   0.00139   2.07081
   R28        2.53593   0.00141   0.00000   0.00247   0.00247   2.53840
   R29        2.50757   0.00160   0.00000   0.00265   0.00265   2.51022
   R30        2.53862  -0.00042   0.00000  -0.00075  -0.00075   2.53787
   R31        2.53777  -0.00041   0.00000  -0.00072  -0.00072   2.53705
    A1        2.10557   0.00076   0.00000   0.00280   0.00280   2.10836
    A2        2.17748   0.00023   0.00000   0.00101   0.00101   2.17849
    A3        2.00014  -0.00098   0.00000  -0.00381  -0.00381   1.99633
    A4        2.06996   0.00021   0.00000   0.00085   0.00084   2.07080
    A5        2.12739   0.00140   0.00000   0.00887   0.00887   2.13626
    A6        2.08584  -0.00161   0.00000  -0.00971  -0.00971   2.07613
    A7        2.12274  -0.00026   0.00000  -0.00103  -0.00103   2.12171
    A8        2.07025   0.00079   0.00000   0.00462   0.00461   2.07487
    A9        2.09019  -0.00053   0.00000  -0.00358  -0.00359   2.08660
   A10        2.07516  -0.00065   0.00000  -0.00241  -0.00240   2.07276
   A11        2.04862  -0.00330   0.00000  -0.01324  -0.01325   2.03536
   A12        2.15921   0.00395   0.00000   0.01555   0.01554   2.17475
   A13        2.08676   0.00098   0.00000   0.00454   0.00452   2.09128
   A14        2.09556   0.00164   0.00000   0.01090   0.01087   2.10643
   A15        2.10082  -0.00261   0.00000  -0.01532  -0.01536   2.08546
   A16        2.10618  -0.00102   0.00000  -0.00475  -0.00474   2.10144
   A17        2.07502   0.00101   0.00000   0.00543   0.00542   2.08044
   A18        2.10198   0.00002   0.00000  -0.00068  -0.00068   2.10130
   A19        2.22172   0.00393   0.00000   0.01873   0.01860   2.24031
   A20        2.00742  -0.00084   0.00000  -0.00023  -0.00035   2.00708
   A21        2.03488  -0.00293   0.00000  -0.01323  -0.01338   2.02150
   A22        1.97722   0.00003   0.00000   0.00004   0.00001   1.97723
   A23        2.16488  -0.00037   0.00000  -0.00157  -0.00160   2.16328
   A24        2.14083   0.00033   0.00000   0.00122   0.00119   2.14202
   A25        2.06984   0.00248   0.00000   0.01121   0.01120   2.08105
   A26        2.04842  -0.00220   0.00000  -0.01198  -0.01200   2.03642
   A27        2.01992   0.00004   0.00000   0.00325   0.00326   2.02317
   A28        1.92871   0.00019   0.00000  -0.00009  -0.00010   1.92860
   A29        1.87428   0.00137   0.00000   0.01689   0.01690   1.89118
   A30        1.93416  -0.00020   0.00000  -0.00344  -0.00348   1.93068
   A31        1.93020  -0.00130   0.00000  -0.00905  -0.00908   1.92113
   A32        1.92801  -0.00059   0.00000  -0.01002  -0.01006   1.91794
   A33        1.86690   0.00058   0.00000   0.00653   0.00646   1.87336
   A34        1.94680  -0.00075   0.00000  -0.00443  -0.00443   1.94237
   A35        1.91237  -0.00057   0.00000  -0.00672  -0.00671   1.90566
   A36        1.90146   0.00061   0.00000   0.00326   0.00326   1.90473
   A37        1.91038   0.00091   0.00000   0.00668   0.00667   1.91705
   A38        1.92528  -0.00022   0.00000  -0.00219  -0.00219   1.92309
   A39        1.86574   0.00004   0.00000   0.00365   0.00365   1.86939
   A40        1.93868  -0.00030   0.00000  -0.00192  -0.00192   1.93676
   A41        1.94073  -0.00046   0.00000  -0.00328  -0.00328   1.93745
   A42        1.93526   0.00013   0.00000   0.00130   0.00130   1.93656
   A43        1.88281   0.00029   0.00000   0.00086   0.00085   1.88366
   A44        1.88109   0.00019   0.00000   0.00203   0.00203   1.88312
   A45        1.88286   0.00018   0.00000   0.00123   0.00123   1.88410
   A46        2.10243   0.00105   0.00000   0.00419   0.00419   2.10662
   A47        1.88434  -0.00046   0.00000  -0.00325  -0.00325   1.88109
   A48        1.96799   0.00112   0.00000   0.00525   0.00523   1.97322
   A49        1.96850   0.00065   0.00000   0.00324   0.00322   1.97172
   A50        1.88757  -0.00092   0.00000  -0.00484  -0.00484   1.88273
   A51        1.88821  -0.00086   0.00000  -0.00486  -0.00486   1.88336
   A52        1.86442   0.00033   0.00000   0.00373   0.00370   1.86812
    D1        0.00148   0.00001   0.00000   0.00023   0.00023   0.00171
    D2        3.14139   0.00006   0.00000   0.00283   0.00283  -3.13896
    D3       -3.14096  -0.00006   0.00000  -0.00286  -0.00286   3.13936
    D4       -0.00105  -0.00001   0.00000  -0.00027  -0.00026  -0.00131
    D5       -0.00033  -0.00005   0.00000  -0.00253  -0.00251  -0.00284
    D6       -3.14021  -0.00014   0.00000  -0.00601  -0.00599   3.13699
    D7       -3.14116   0.00001   0.00000   0.00027   0.00028  -3.14088
    D8        0.00215  -0.00008   0.00000  -0.00322  -0.00320  -0.00105
    D9        0.01525   0.00031   0.00000   0.01602   0.01601   0.03126
   D10       -3.12715   0.00025   0.00000   0.01309   0.01310  -3.11405
   D11       -0.00195   0.00009   0.00000   0.00435   0.00434   0.00239
   D12       -3.14152   0.00000   0.00000   0.00079   0.00078  -3.14074
   D13        3.14128   0.00004   0.00000   0.00180   0.00181  -3.14009
   D14        0.00171  -0.00005   0.00000  -0.00176  -0.00175  -0.00004
   D15        0.00125  -0.00014   0.00000  -0.00655  -0.00651  -0.00527
   D16       -3.11997  -0.00008   0.00000  -0.00133  -0.00134  -3.12131
   D17        3.14079  -0.00005   0.00000  -0.00294  -0.00292   3.13788
   D18        0.01958   0.00001   0.00000   0.00228   0.00225   0.02183
   D19       -0.00005   0.00009   0.00000   0.00414   0.00413   0.00408
   D20        3.13206   0.00043   0.00000   0.01868   0.01878  -3.13234
   D21        3.11979  -0.00007   0.00000  -0.00180  -0.00187   3.11792
   D22       -0.03128   0.00027   0.00000   0.01273   0.01279  -0.01850
   D23       -2.97364   0.00038   0.00000   0.02210   0.02203  -2.95161
   D24       -0.05001   0.00088   0.00000   0.04971   0.04976  -0.00025
   D25        0.18939   0.00052   0.00000   0.02784   0.02779   0.21719
   D26        3.11302   0.00101   0.00000   0.05545   0.05552  -3.11464
   D27       -0.00039   0.00000   0.00000   0.00029   0.00027  -0.00012
   D28        3.13946   0.00010   0.00000   0.00383   0.00380  -3.13993
   D29       -3.13248  -0.00036   0.00000  -0.01444  -0.01435   3.13636
   D30        0.00738  -0.00027   0.00000  -0.01089  -0.01082  -0.00345
   D31        3.11918  -0.00013   0.00000  -0.00955  -0.00959   3.10958
   D32        0.00111   0.00017   0.00000   0.00488   0.00483   0.00594
   D33        0.19851  -0.00088   0.00000  -0.03901  -0.03896   0.15955
   D34       -2.91956  -0.00058   0.00000  -0.02458  -0.02454  -2.94410
   D35        3.02268  -0.00046   0.00000  -0.03154  -0.03156   2.99112
   D36        0.45660  -0.00103   0.00000  -0.03695  -0.03692   0.41968
   D37       -0.14207  -0.00076   0.00000  -0.04579  -0.04582  -0.18789
   D38       -2.70815  -0.00133   0.00000  -0.05120  -0.05118  -2.75934
   D39        2.97138   0.00043   0.00000   0.03149   0.03148   3.00286
   D40        0.86467   0.00106   0.00000   0.03207   0.03206   0.89673
   D41       -1.16865  -0.00033   0.00000   0.01629   0.01627  -1.15238
   D42       -0.73658   0.00026   0.00000   0.03185   0.03188  -0.70471
   D43       -2.84329   0.00088   0.00000   0.03244   0.03245  -2.81083
   D44        1.40658  -0.00050   0.00000   0.01666   0.01666   1.42324
   D45       -3.13891  -0.00036   0.00000  -0.01715  -0.01713   3.12715
   D46        1.02613  -0.00063   0.00000  -0.01810  -0.01809   1.00804
   D47       -1.00943  -0.00071   0.00000  -0.02057  -0.02055  -1.02998
   D48       -1.06590   0.00063   0.00000  -0.00196  -0.00197  -1.06787
   D49        3.09915   0.00036   0.00000  -0.00291  -0.00294   3.09621
   D50        1.06358   0.00028   0.00000  -0.00538  -0.00540   1.05819
   D51        0.99753   0.00017   0.00000  -0.00582  -0.00581   0.99172
   D52       -1.12061  -0.00011   0.00000  -0.00677  -0.00678  -1.12738
   D53        3.12701  -0.00019   0.00000  -0.00924  -0.00923   3.11778
   D54       -1.04568   0.00015   0.00000   0.00048   0.00049  -1.04518
   D55        3.14043   0.00028   0.00000   0.00289   0.00289  -3.13986
   D56        1.04558   0.00027   0.00000   0.00264   0.00265   1.04822
   D57        1.07361  -0.00044   0.00000  -0.00634  -0.00635   1.06727
   D58       -1.02346  -0.00030   0.00000  -0.00394  -0.00395  -1.02741
   D59       -3.11831  -0.00032   0.00000  -0.00419  -0.00420  -3.12251
   D60        3.12182   0.00003   0.00000   0.00082   0.00082   3.12265
   D61        1.02475   0.00017   0.00000   0.00322   0.00322   1.02797
   D62       -1.07010   0.00015   0.00000   0.00297   0.00297  -1.06713
   D63        3.13466   0.00006   0.00000   0.00450   0.00450   3.13916
   D64       -1.06436  -0.00071   0.00000  -0.00049  -0.00051  -1.06486
   D65        1.04937   0.00104   0.00000   0.01073   0.01075   1.06011
         Item               Value     Threshold  Converged?
 Maximum Force            0.022215     0.000450     NO 
 RMS     Force            0.002319     0.000300     NO 
 Maximum Displacement     0.163527     0.001800     NO 
 RMS     Displacement     0.049990     0.001200     NO 
 Predicted change in Energy=-9.682426D-04
 GradGradGradGradGradGradGradGradGradGradGradGradGradGradGradGradGradGrad

                          Input orientation:                          
 ---------------------------------------------------------------------
 Center     Atomic      Atomic             Coordinates (Angstroms)
 Number     Number       Type             X           Y           Z
 ---------------------------------------------------------------------
      1          6           0       -4.826716    4.645252   -0.244470
      2          6           0       -5.474820    4.352829    0.950895
      3          6           0       -4.895023    4.772521    2.144082
      4          6           0       -3.686440    5.478206    2.162972
      5          6           0       -3.048938    5.758709    0.944093
      6          6           0       -3.624918    5.339639   -0.249953
      7          7           0       -3.181986    5.829292    3.426837
      8          6           0       -2.142806    6.685407    3.726068
      9          7           0       -1.935037    6.835099    5.070914
     10          8           0       -1.486998    7.293335    2.879257
     11          6           0       -0.753853    7.558055    5.533943
     12          6           0       -0.818310    7.776024    7.036987
     13          6           0        0.417626    8.512519    7.543261
     14          1           0       -5.397831    4.545346    3.080461
     15          1           0       -2.111293    6.293561    0.922924
     16          1           0       -3.751245    5.532981    4.213346
     17          1           0       -2.255652    6.079026    5.668917
     18          1           0       -0.714385    8.520640    5.016450
     19          1           0        0.162461    7.008950    5.274626
     20          1           0       -0.904335    6.803732    7.539144
     21          1           0       -1.723502    8.345244    7.279045
     22          1           0        1.329094    7.945045    7.324875
     23          1           0        0.367283    8.665353    8.625393
     24          1           0        0.510657    9.495214    7.067352
     25          8           0       -5.292617    4.283002   -1.518454
     26          6           0       -6.460004    3.634389   -1.662914
     27          9           0       -6.649394    3.424352   -2.960808
     28          9           0       -6.479138    2.441984   -1.045327
     29          9           0       -7.508644    4.333676   -1.200547
     30          1           0       -6.412544    3.810324    0.985498
     31          1           0       -3.139072    5.550231   -1.197985
 ---------------------------------------------------------------------
                    Distance matrix (angstroms):
                    1          2          3          4          5
     1  C    0.000000
     2  C    1.390844   0.000000
     3  C    2.392916   1.391403   0.000000
     4  C    2.791025   2.435962   1.399650   0.000000
     5  C    2.411009   2.803828   2.412585   1.403836   0.000000
     6  C    1.387992   2.416189   2.768789   2.417683   1.390367
     7  N    4.193517   3.683385   2.386780   1.405379   2.487308
     8  C    5.208721   4.923903   3.706279   2.506672   3.069076
     9  N    6.435102   5.972126   4.645652   3.655776   4.407952
    10  O    5.284291   5.316755   4.302280   2.940289   2.922258
    11  C    7.646090   7.318835   6.033212   4.928416   5.437995
    12  C    8.881929   8.392965   7.041387   6.104274   6.794749
    13  C   10.154193   9.771552   8.447659   7.416058   7.946669
    14  H    3.375103   2.139636   1.086844   2.154269   3.399061
    15  H    3.384265   3.883366   3.399108   2.164164   1.079672
    16  H    4.670848   3.873894   2.483622   2.052129   3.351448
    17  H    6.605621   5.966786   4.593222   3.834031   4.801652
    18  H    7.720569   7.520714   6.306871   5.121704   5.446328
    19  H    7.806367   7.584759   6.354530   5.180695   5.534410
[...]
 .00119028,0.00042424,0.00012269,0.00059299,0.00068547,-0.00000604,-0.0
 0008974,0.00013305,0.00008098,-0.00018257,0.00007033,0.00008927,0.0000
 4307,0.00013781,0.00009161,0.00006500,-0.00000365,-0.00001030,0.000006
 26,-0.00001388,-0.00000246,0.00000968,0.00000261,0.00000153,-0.0000013
 2,0.00002404,0.00002277,0.00001877,0.00000172,0.00000596,-0.00000217,-
 0.21306940,-0.05189805,-0.00906655,0.54330998,-0.01360902,-0.01673951,
 -0.01572625,0.00186288,0.00078103,0.00235975,0.00022715,0.00027037,0.0
 0083114,-0.00116705,-0.00013576,-0.00129639,-0.00052659,0.00117628,0.0
 0028799,0.00141925,0.00093965,0.00126406,0.00183017,0.00094380,0.00205
 402,-0.00169736,-0.00141480,-0.00029227,0.00028494,0.00035748,0.000665
 98,0.00049556,0.00057453,-0.00018581,-0.00010371,-0.00015951,-0.000012
 28,0.00003782,0.00003654,-0.00003453,-0.00000577,-0.00000772,0.0000257
 7,0.00017670,0.00008907,0.00043301,0.00013443,0.00005681,0.00014638,0.
 00025465,0.00000561,-0.00002320,0.00003901,0.00003631,-0.00006834,0.00
 002535,0.00002859,0.00001746,0.00005067,0.00003077,0.00001934,-0.00000
 051,-0.00000575,0.00000493,-0.00000421,-0.00000040,0.00000293,0.000001
 96,0.00000100,-0.00000080,0.00000872,0.00000845,0.00000734,0.00000016,
 0.00000017,-0.00000104,-0.05070522,-0.07817211,-0.00714643,0.01346875,
 0.51301600,-0.04136572,-0.01391669,-0.00966971,-0.00282585,-0.00073219
 ,0.00288865,0.00010903,-0.00011291,-0.00108437,0.00090219,0.00026414,-
 0.00073785,-0.00071181,-0.00029705,0.00182438,-0.00066081,-0.00079280,
 -0.00547300,0.00097639,0.00075609,0.00087566,-0.00084739,-0.00091544,-
 0.00009199,0.00018726,0.00023316,0.00038001,0.00029858,0.00033647,-0.0
 0010037,-0.00007243,-0.00009743,-0.00000348,0.00002296,0.00002343,-0.0
 0001754,-0.00000400,-0.00000437,0.00001633,0.00015612,0.00007450,0.000
 39208,-0.00001003,-0.00001129,-0.00022745,0.00006848,0.00003205,-0.000
 03561,0.00002271,0.00001972,-0.00003915,0.00001437,0.00001908,0.000008
 89,0.00002968,0.00001698,0.00001045,-0.00000145,-0.00000212,0.00000137
 ,-0.00000139,-0.00000120,0.00000107,0.00000162,0.00000019,-0.00000020,
 0.00000543,0.00000495,0.00000414,-0.00000005,0.00000141,-0.00000036,-0
 .00020867,-0.00412364,-0.10473010,0.02248452,0.01608732,0.58941155,0.0
 0075188,0.00001639,0.00938663,-0.00075706,-0.00040231,-0.00104118,0.00
 004136,-0.00005847,-0.00044785,0.00045735,0.00017415,0.00057985,-0.000
 62129,-0.00000215,0.00025693,-0.00053074,-0.00041482,-0.00259606,-0.00
 067223,-0.00045005,-0.00082927,0.00067646,0.00060269,0.00012056,-0.000
 12290,-0.00014869,-0.00027699,-0.00019103,-0.00025522,0.00006636,0.000
 03997,0.00006942,0.00000523,-0.00001594,-0.00001534,0.00001354,0.00000
 256,0.00000336,-0.00001133,-0.00009508,-0.00004664,-0.00020958,-0.0000
 8395,-0.00003052,-0.00023881,-0.00009159,-0.00000708,0.00001042,-0.000
 01862,-0.00001134,0.00002659,-0.00001026,-0.00001282,-0.00000590,-0.00
 002030,-0.00001334,-0.00000914,0.00000050,0.00000149,-0.00000120,0.000
 00205,0.00000050,-0.00000140,-0.00000050,-0.00000027,0.00000015,-0.000
 00360,-0.00000338,-0.00000289,-0.00000021,-0.00000093,0.00000038,-0.03
 316972,-0.01981036,-0.06685646,-0.07481057,-0.00389423,-0.03062217,0.0
 9384163,-0.00084557,0.00385298,0.00383408,-0.00029839,-0.00004097,-0.0
 0047318,0.00007077,-0.00025819,-0.00013945,0.00021860,0.00005189,0.000
 26356,-0.00017143,-0.00025858,0.00008558,-0.00023363,-0.00010324,-0.00
 106036,-0.00033447,-0.00015563,-0.00036406,0.00029898,0.00026614,0.000
 06759,-0.00005043,-0.00006651,-0.00012543,-0.00009205,-0.00011486,0.00
 001908,0.00001990,0.00003002,0.00000211,-0.00000689,-0.00000685,0.0000
 0632,0.00000130,0.00000139,-0.00000495,-0.00003632,-0.00003273,-0.0000
 8695,-0.00003159,-0.00002148,-0.00009421,-0.00003938,-0.00000578,0.000
 00218,-0.00000811,-0.00000623,0.00001222,-0.00000473,-0.00000553,-0.00
 000345,-0.00000938,-0.00000543,-0.00000334,0.00000022,0.00000100,-0.00
 000071,0.00000068,-0.00000004,-0.00000070,-0.00000043,-0.00000015,0.00
 000019,-0.00000165,-0.00000156,-0.00000131,-0.00000009,-0.00000017,0.0
 0000015,-0.01764022,0.00072675,-0.02686687,-0.00398620,-0.07360764,-0.
 02698978,0.00900764,0.08637005,0.00181761,0.00166532,0.01311620,-0.000
 01994,-0.00013096,-0.00132857,-0.00029953,-0.00021947,-0.00025139,0.00
 048979,0.00016294,0.00071259,-0.00065832,-0.00005421,0.00015234,-0.000
 57769,-0.00043092,-0.00273550,-0.00091786,-0.00059277,-0.00104965,0.00
 087757,0.00080550,0.00015270,-0.00016305,-0.00019824,-0.00036177,-0.00
 026102,-0.00033658,0.00008582,0.00006084,0.00008914,0.00000711,-0.0000
 2044,-0.00002047,0.00001704,0.00000288,0.00000487,-0.00001396,-0.00009
 318,-0.00004919,-0.00022781,-0.00008971,-0.00003596,-0.00024563,-0.000
 10761,-0.00001377,0.00001970,-0.00002363,-0.00001619,0.00003507,-0.000
 01356,-0.00001727,-0.00000833,-0.00002716,-0.00001705,-0.00001150,0.00
 000091,0.00000194,-0.00000152,0.00000203,0.00000078,-0.00000138,-0.000
 00105,-0.00000024,0.00000031,-0.00000480,-0.00000449,-0.00000369,-0.00
 000012,-0.00000118,0.00000042,-0.04243042,-0.01897919,-0.04621406,-0.0
 3156137,-0.02738955,-0.27203731,0.05314214,0.04640279,0.42744398,0.004
 35157,0.00154746,0.00949443,-0.00041754,-0.00069555,-0.00141011,-0.000
 24261,-0.00033196,-0.00025571,0.00046416,0.00017621,0.00046361,-0.0001
 8080,0.00035769,0.00007738,-0.00092756,-0.00034073,-0.00145041,-0.0007
 1570,-0.00047458,-0.00086992,0.00069905,0.00064167,0.00011312,-0.00012
 526,-0.00015103,-0.00028599,-0.00019210,-0.00024663,0.00009694,0.00004
 293,0.00006657,0.00000650,-0.00001605,-0.00001543,0.00001443,0.0000021
 8,0.00000351,-0.00001137,-0.00003954,-0.00005304,-0.00014379,-0.000062
 54,-0.00002244,-0.00010747,-0.00009441,-0.00000852,0.00001397,-0.00001
 964,-0.00001305,0.00002829,-0.00001036,-0.00001319,-0.00000611,-0.0000
 2052,-0.00001388,-0.00001002,0.00000052,0.00000171,-0.00000127,0.00000
 214,0.00000035,-0.00000140,-0.00000033,-0.00000024,0.00000018,-0.00000
 366,-0.00000340,-0.00000291,-0.00000023,-0.00000075,0.00000036,-0.0319
 7615,-0.05494643,0.01274263,-0.07472328,-0.02900476,0.01299246,0.01250
 164,0.00104600,-0.00091714,0.08850210,0.00528099,0.00295458,0.01021415
 ,0.00010674,-0.00060177,-0.00223939,-0.00061424,-0.00044171,-0.0002649
 0,0.00068410,0.00020241,0.00046264,-0.00017509,0.00027212,0.00011685,-
 0.00093882,-0.00028284,-0.00175373,-0.00092510,-0.00055928,-0.00105359
 ,0.00085510,0.00075861,0.00013658,-0.00015398,-0.00018401,-0.00034606,
 -0.00023921,-0.00029270,0.00010890,0.00005487,0.00008000,0.00000693,-0
 .00001831,-0.00002003,0.00001690,0.00000241,0.00000454,-0.00001372,-0.
 00004884,-0.00007179,-0.00017296,-0.00007108,-0.00005595,-0.00012361,-
 0.00010362,-0.00001489,0.00002184,-0.00002261,-0.00001775,0.00003343,-
 0.00001295,-0.00001498,-0.00000798,-0.00002552,-0.00001666,-0.00001140
 ,0.00000040,0.00000282,-0.00000174,0.00000216,0.00000047,-0.00000121,-
 0.00000072,-0.00000043,0.00000045,-0.00000440,-0.00000429,-0.00000355,
 -0.00000025,-0.00000033,0.00000034,-0.04495642,-0.03916857,0.01144251,
 -0.02611816,-0.20478310,0.06787947,-0.00111196,-0.00638818,0.03522764,
 0.04502255,0.32967303,-0.00056264,0.00033822,-0.00334797,0.00110544,-0
 .00160395,-0.00276009,-0.00012538,-0.00028356,0.00088555,-0.00063482,-
 0.00008855,-0.00012296,0.00000086,-0.00024292,-0.00045502,0.00068897,0
 .00037144,0.00112420,0.00013689,0.00011621,0.00028412,-0.00021436,-0.0
 0010251,-0.00003237,0.00002940,0.00002086,0.00006017,0.00003410,0.0000
 4201,-0.00004226,-0.00000463,-0.00001577,-0.00000298,0.00000331,0.0000
 0198,-0.00000368,-0.00000055,-0.00000071,0.00000172,0.00004232,-0.0000
 2345,0.00004171,0.00002695,0.00001855,0.00006267,0.00005052,-0.0000124
 3,0.00000193,0.00000460,0.00000360,-0.00000462,0.00000150,0.00000225,0
 .00000068,0.00000480,0.00000391,0.00000329,0.00000008,-0.00000057,0.00
 000037,-0.00000067,0.00000024,0.00000038,-0.00000005,0.00000009,-0.000
 00015,0.00000064,0.00000074,0.00000057,0.00000018,-0.00000006,0.,0.013
 36795,0.01214213,0.01244428,0.00898095,0.06857825,-0.10670650,0.004267
 30,0.05103731,-0.06594797,-0.02408156,-0.13073956,0.15236597,0.0066996
 9,0.00388929,0.01377466,-0.00069068,0.00007404,-0.00238535,-0.00062991
 ,-0.00022992,-0.00036928,0.00079758,0.00021023,0.00065858,-0.00005596,
 -0.00013515,0.00012952,-0.00116186,-0.00077125,-0.00210427,-0.00112535
 ,-0.00070573,-0.00131237,0.00109552,0.00095218,0.00017089,-0.00018887,
 -0.00023774,-0.00043338,-0.00030561,-0.00038828,0.00014084,0.00006274,
 0.00011135,0.00000808,-0.00002565,-0.00002350,0.00002133,0.00000375,0.
 00000526,-0.00001695,-0.00009123,-0.00000672,-0.00023403,-0.00010629,-
 0.00001529,-0.00015993,-0.00016081,0.00000165,0.00002004,-0.00003080,-
 0.00001837,0.00004286,-0.00001646,-0.00002099,-0.00001001,-0.00003134,
 -0.00002059,-0.00001435,0.00000094,0.00000210,-0.00000134,0.00000335,0
 .00000042,-0.00000280,-0.00000043,-0.00000033,0.00000019,-0.00000571,-
 0.00000524,-0.00000438,-0.00000042,-0.00000157,0.00000060,-0.08401028,
 0.02409046,0.00922574,-0.15308881,0.08024566,0.03761688,0.00279567,0.0
 1318286,0.02194317,0.00362429,0.02443682,-0.00090517,0.22756441,-0.002
 20876,-0.00023143,-0.00314466,-0.00024569,0.00009196,0.00048801,0.0003
 1144,0.00024366,0.00019241,-0.00036063,-0.00014190,-0.00006089,0.00004
 065,-0.00008318,-0.00016671,0.00028403,0.00026451,0.00070403,0.0003038
 7,0.00018632,0.00034585,-0.00028693,-0.00025448,-0.00002995,0.00004524
 ,0.00006168,0.00010509,0.00007375,0.00010138,-0.00005307,-0.00001486,-
 0.00002694,-0.00000202,0.00000632,0.00000575,-0.00000486,-0.00000031,-
 0.00000184,0.00000394,0.00002690,-0.00000089,0.00005695,0.00003989,-0.
 00001485,0.00004922,0.00003709,-0.00000426,-0.00000932,0.00000959,0.00
 000192,-0.00001096,0.00000410,0.00000606,0.00000240,0.00000724,0.00000
 503,0.00000395,-0.00000044,0.00000005,-0.00000014,-0.00000116,-0.00000
 023,0.00000106,-0.00000023,-0.00000001,0.00000006,0.00000136,0.0000012
 2,0.00000083,0.00000023,0.00000079,-0.00000006,0.01428351,0.01142166,-
 0.00046264,0.07729237,-0.14379220,-0.03798817,0.01681961,-0.01039103,-
 0.03586231,0.03802548,-0.07941004,0.00199696,-0.14507232,0.22228198,0.
 00026368,-0.00079137,-0.00211716,-0.00006781,0.00155920,-0.00303928,-0
 .00028663,0.00046123,0.00081335,-0.00058960,-0.00028752,-0.00002866,-0
 .00009987,0.00000357,-0.00050360,0.00065944,0.00029201,0.00093601,0.00
 011914,-0.00003239,0.00023061,-0.00013186,-0.00007205,-0.00003078,0.00
 000586,0.00000540,0.00003297,0.00001636,0.00002560,-0.00004342,-0.0000
 0169,-0.00000460,-0.00000456,0.00000051,0.00000062,-0.00000141,0.00000
 054,-0.00000095,0.00000006,0.00000273,0.00005580,0.00001286,0.00002378
 ,-0.00000202,0.00004406,0.00003387,-0.00000994,0.00000371,0.00000340,0
 .00000072,-0.00000255,0.00000152,0.00000115,0.00000105,0.00000182,0.00
 000203,0.00000216,0.00000008,-0.00000002,0.,-0.00000052,-0.00000005,0.
 00000016,-0.00000030,0.00000003,-0.00000003,0.00000019,0.00000021,0.00
 000014,0.00000008,0.00000012,-0.00000006,0.01155926,-0.00037632,0.0138
 7840,0.03581991,-0.04077572,-0.08991193,0.03525539,-0.04556819,-0.0522
 4738,-0.00537773,0.01256737,0.01309949,-0.07466540,0.07327274,0.119867
 22,-0.00886947,-0.00479572,-0.00249960,-0.32055577,-0.10240185,0.00580
 054,-0.00737481,-0.00392731,0.00093063,0.00220659,-0.00202508,-0.00121
 505,0.00040777,0.00050724,-0.00006440,0.00080236,-0.00150147,0.0026751
 5,-0.00072311,-0.00046683,-0.00018109,0.00026151,0.00042789,-0.0000383
 0,-0.00008007,-0.00010850,-0.00012044,-0.00008768,-0.00013428,0.000073
 74,0.00002981,0.00003228,-0.00000611,-0.00001009,-0.00001112,0.0000081
 1,0.00000186,0.00000212,-0.00000703,0.00025326,0.00177924,0.00010011,-
 0.00014683,0.00021499,-0.00003493,-0.00001896,-0.00003302,0.00003624,-
 0.00001067,-0.00000375,0.00001850,-0.00000635,-0.00000776,-0.00000376,
 -0.00000963,-0.00000567,-0.00000397,0.00000020,0.00000131,-0.00000075,
 0.00000132,0.00000008,-0.00000087,-0.00000055,-0.00000013,0.00000011,-
 0.00000227,-0.00000203,-0.00000170,0.,-0.00000048,0.00000025,0.0002681
 1,0.00122599,-0.00069144,0.00008506,-0.00007748,0.00126517,0.00005166,
 -0.00003903,-0.00019780,-0.00060117,-0.00110960,-0.00212066,-0.0010570
 0,0.00064196,-0.00248994,0.33553054,-0.00280959,0.00277358,-0.00068446
 ,-0.10244141,-0.07237755,0.00041892,-0.00646409,0.00157068,0.00014908,
 -0.00184655,0.00644559,-0.00153806,0.00043366,-0.00080390,0.00012563,-
 0.00132425,0.00518271,0.00024197,-0.00035067,-0.00017848,-0.00016901,0
 .00018694,0.00027245,-0.00008222,-0.00002780,-0.00007105,-0.00007899,-
 0.00004186,-0.00004328,0.00010094,0.00002105,0.00001556,-0.00000022,-0
 .00000609,-0.00000505,0.00000268,0.00000100,0.00000103,-0.00000331,0.0
 0176999,-0.00386126,0.00058351,0.00021696,-0.00063555,0.00008257,-0.00
 001563,-0.00003997,0.00002977,-0.00000482,-0.00000286,0.00000548,-0.00
 000378,-0.00000439,-0.00000206,-0.00000512,-0.00000227,0.00000036,0.00
 000032,0.00000025,0.00000007,0.00000055,0.00000010,-0.00000019,-0.0000
 0012,-0.00000004,0.00000001,-0.00000098,-0.00000081,-0.00000069,-0.000
 00005,-0.00000043,0.00000008,0.00132126,-0.00293857,0.00037056,-0.0003
 1276,0.00097433,0.00007068,0.00001447,0.00006792,0.00000890,-0.0004451
 0,-0.00154951,-0.00156969,0.00023581,-0.00029238,-0.00027441,0.1120308
 9,0.06536591,0.02500522,0.00921239,0.00514147,0.00470855,0.00009997,-0
 .05858874,-0.02692510,-0.00944345,0.00423558,-0.00137133,-0.00150840,-
 0.00385495,-0.00023615,-0.00015213,-0.00132722,0.00231548,-0.00004333,
 -0.00455530,-0.00154702,-0.00100925,-0.00001388,0.00026248,0.00074953,
 -0.00025190,-0.00014936,-0.00023832,-0.00020209,-0.00014878,-0.0001930
 6,0.00011641,0.00007024,0.00004644,-0.00002592,-0.00002003,-0.00002160
 ,0.00001278,0.00000280,0.00000406,-0.00001377,0.00029162,0.00067317,0.
 00119171,-0.00002787,0.00005491,0.00016440,0.00004472,-0.00008217,0.00
 007677,-0.00001736,-0.00000475,0.00003241,-0.00001170,-0.00001375,-0.0
 0000613,-0.00001485,-0.00000695,-0.00000232,0.00000042,0.00000207,-0.0
 0000110,0.00000184,0.00000017,-0.00000099,-0.00000081,-0.00000024,0.00
 000021,-0.00000426,-0.00000364,-0.00000285,-0.00000001,-0.00000061,0.0
 0000037,-0.00141881,-0.00001192,0.00284481,0.00132034,0.00009596,-0.00
 516725,-0.00008073,0.00002473,0.00088195,-0.00110781,-0.00150518,-0.00
 093716,-0.00109793,0.00057680,-0.00098088,-0.00104470,0.00228715,0.061
 01779,-0.00964782,-0.00290193,0.02481525,-0.00454683,-0.00339023,-0.00
 095025,-0.00060276,0.00008668,-0.00111581,-0.00005466,-0.00269541,-0.0
 0300073,0.01178436,0.00132842,-0.01311709,-0.13248861,-0.02143986,0.12
 827422,0.00065446,0.00016138,-0.00051797,0.00003728,0.00015844,0.00001
 844,-0.00003488,-0.00003333,-0.00000617,-0.00003530,-0.00002338,0.0000
 7638,0.00001071,0.00000320,-0.00000468,-0.00000171,-0.00000329,0.00000
 105,-0.00000026,0.00000080,-0.00000130,0.00003307,0.00018154,0.0000900
 4,0.00020486,0.00168597,0.00043128,-0.00007405,-0.00007003,-0.00018190
 ,0.00000203,0.00000067,0.00001083,-0.00000111,-0.00000187,0.00000026,-
 0.00000173,-0.00000123,-0.00000060,0.00000009,0.00000020,-0.00000016,-
 0.00000003,0.,-0.00000003,0.00000004,0.,-0.00000008,-0.00000051,-0.000
 00039,-0.00000014,0.00000002,0.00000022,-0.00000009,0.00140739,0.00174
 376,0.00132427,-0.00003212,0.00023210,0.00017793,0.00005286,-0.0000169
 6,0.00004848,0.00017886,0.00020475,-0.00009625,0.00013553,-0.00006334,
 -0.00005619,-0.00034560,-0.00013225,0.00120090,0.13336641,-0.00607306,
 0.00373311,0.00877564,-0.00321979,0.00374138,-0.00111175,0.00026781,-0
 .00096311,-0.00009034,-0.00312833,0.00628274,-0.00140988,0.00376172,0.
 00429598,-0.00690816,-0.02060562,-0.04168386,0.02295086,0.00034266,0.0
 0023246,-0.00061552,0.00009567,0.00014601,0.00007841,-0.00002030,-0.00
 002931,-0.00007294,-0.00003616,-0.00009248,-0.00009278,0.00001459,0.00
 001955,0.00000171,-0.00000434,-0.00000314,0.00000302,0.00000054,0.0000
 0094,-0.00000279,0.00020084,-0.00037768,0.00006799,0.00174703,-0.00406
 073,0.00078385,-0.00004323,-0.00017823,-0.00012372,-0.00000354,-0.0000
 0939,0.00000857,-0.00000171,-0.00000320,-0.00000095,-0.00000449,-0.000
 00302,-0.00000067,0.00000016,-0.00000004,-0.00000030,0.00000056,0.0000
 0018,-0.00000035,-0.00000010,0.00000004,-0.00000006,-0.00000094,-0.000
 00086,-0.00000052,-0.00000008,-0.00000047,-0.00000007,0.00153519,-0.00
 258975,0.00069670,0.00031589,-0.00050830,0.00016546,-0.00001981,0.0001
 0263,0.00000019,-0.00010849,-0.00006979,0.00000899,0.00021486,-0.00002
 830,-0.00005227,-0.00021290,0.00013725,0.00041139,0.02498538,0.0319093
 9,-0.00233862,-0.00100475,0.00299777,-0.00046666,-0.00059365,0.0011232
 7,-0.00076338,-0.00016097,-0.00004223,-0.00283524,-0.00156586,-0.00159
 493,0.01387074,0.00274164,-0.01674382,0.12964014,0.02302087,-0.2747351
 5,0.00059168,0.00003925,-0.00122433,0.00052318,0.00063685,0.00012266,-
 0.00012927,-0.00015524,-0.00020852,-0.00017724,-0.00022271,0.00009746,
 0.00004195,0.00005984,-0.00000169,-0.00001483,-0.00001553,0.00001120,0
 .00000286,0.00000355,-0.00001039,0.00008643,0.00008029,-0.00003299,0.0
 0004841,0.00050122,0.00129011,-0.00016211,-0.00019555,-0.00022153,-0.0
 0000804,-0.00001072,0.00003348,-0.00000859,-0.00001194,-0.00000396,-0.
 00001818,-0.00001145,-0.00000638,0.00000041,0.00000168,-0.00000105,0.0
 0000161,0.00000034,-0.00000116,-0.00000114,-0.00000008,0.00000024,-0.0
 0000336,-0.00000310,-0.00000252,-0.00000004,-0.00000106,0.00000031,-0.
 00029018,0.00031778,0.00090105,-0.00004409,0.00007098,0.00021959,0.000
 09946,0.00002507,0.00006219,-0.00000357,0.00000260,-0.00001339,-0.0000
 3644,-0.00000454,-0.00001054,-0.00018602,-0.00007509,0.00021581,-0.137
 41989,-0.02346972,0.28777944\\-0.00001090,-0.00000245,0.00001434,-0.00
 000049,-0.00000213,-0.00001576,0.00001107,0.00000420,0.00000791,-0.000
 01693,-0.00000261,0.00000137,0.00000083,-0.00000081,-0.00000600,0.0000
 1030,0.00000046,0.00000284,0.00001108,0.00000040,0.00000216,-0.0000104
 4,-0.00000242,-0.00000234,0.00000760,0.00000265,0.00000102,0.00000376,
 0.00000198,-0.00000424,-0.00000102,0.00000182,-0.00000379,0.00000022,0
 .00000190,0.00000318,0.00000020,0.00000135,-0.00000287,-0.00000141,-0.
 00000020,0.00000010,-0.00000007,-0.00000345,-0.00000058,-0.00000155,0.
 00000177,0.00000151,-0.00000292,0.00000182,0.00000257,0.00000080,0.000
 00030,-0.00000101,-0.00000061,-0.00000101,-0.00000021,-0.00000080,0.00
 000203,-0.00000048,0.00000030,0.00000327,-0.00000150,0.00000020,0.0000
 0122,-0.00000099,0.00000036,0.00000335,-0.00000150,0.00000079,0.000002
 36,-0.00000232,0.00000322,-0.00000225,-0.00000129,-0.00000433,0.000008
 93,-0.00001642,0.00000100,-0.00000016,0.00001069,-0.00000278,-0.000012
 32,0.00001100,0.00000353,-0.00000497,-0.00000058,-0.00000039,-0.000000
 92,0.00000264,-0.00000061,-0.00000411,0.00000056\\\@


 WE STILL HAVE JUDGEMENT HERE,
 THAT WE TEACH BUT BLOODY INSTRUCTIONS,
 WHICH, BEING TAUGHT,
 RETURN TO PLAGUE THE INVENTOR.
           MACBETH ACT I, SCENE VII
 Job cpu time:       0 days  3 hours 16 minutes 33.9 seconds.
 File lengths (MBytes):  RWF=    561 Int=      0 D2E=      0 Chk=     18 Scr=      1
 Normal termination of Gaussian 09 at Mon Jul 16 13:06:37 2018.
WARNING: pbs_rusage is deprecated and values produced may not be accurate


=============================================================================
                                     Resource usage:
                                       CPU time:              10:30:04
   JobId:    8440020.r-man2            Elapsed time:          02:38:29
   Project:             q95            Requested time:        36:00:00
   Service Units:     10.57 
                                       Max physical memory:      679MB
                                       Max virtual memory:      1481MB
                                       Requested memory:           0MB

                                       Number of cpus:               4

                                       Max jobfs disk use:       0.5GB
                                       Requested jobfs:         16.0GB
=============================================================================

