 Entering Gaussian System, Link 0=/apps/gaussian/g09e01/g09/g09
 AtFile(1): /home/507/hio507/Basis/6-31pGd.gbs
 Initial command:
 /apps/gaussian/g09e01/g09/l1.exe "/jobfs/local/930612.r-man2/Gau-25740.inp" -scrdir="/jobfs/local/930612.r-man2/"
 Entering Link 1 = /apps/gaussian/g09e01/g09/l1.exe PID=     25741.
  
 Copyright (c) 1988,1990,1992,1993,1995,1998,2003,2009,2015,
            Gaussian, Inc.  All Rights Reserved.
  
 This is part of the Gaussian(R) 09 program.  It is based on
 the Gaussian(R) 03 system (copyright 2003, Gaussian, Inc.),
 the Gaussian(R) 98 system (copyright 1998, Gaussian, Inc.),
 the Gaussian(R) 94 system (copyright 1995, Gaussian, Inc.),
 the Gaussian 92(TM) system (copyright 1992, Gaussian, Inc.),
 the Gaussian 90(TM) system (copyright 1990, Gaussian, Inc.),
 the Gaussian 88(TM) system (copyright 1988, Gaussian, Inc.),
 the Gaussian 86(TM) system (copyright 1986, Carnegie Mellon
 University), and the Gaussian 82(TM) system (copyright 1983,
 Carnegie Mellon University). Gaussian is a federally registered
 trademark of Gaussian, Inc.
  
 This software contains proprietary and confidential information,
 including trade secrets, belonging to Gaussian, Inc.
  
 This software is provided under written license and may be
 used, copied, transmitted, or stored only in accord with that
 written license.
  
 The following legend is applicable only to US Government
 contracts under FAR:
  
                    RESTRICTED RIGHTS LEGEND
  
 Use, reproduction and disclosure by the US Government is
 subject to restrictions as set forth in subparagraphs (a)
 and (c) of the Commercial Computer Software - Restricted
 Rights clause in FAR 52.227-19.
  
 Gaussian, Inc.
 340 Quinnipiac St., Bldg. 40, Wallingford CT 06492
  
  
 ---------------------------------------------------------------
 Warning -- This program may not be used in any manner that
 competes with the business of Gaussian, Inc. or will provide
 assistance to any competitor of Gaussian, Inc.  The licensee
 of this program is prohibited from giving any competitor of
 Gaussian, Inc. access to this program.  By using this program,
 the user acknowledges that Gaussian, Inc. is engaged in the
 business of creating and licensing software in the field of
 computational chemistry and represents and warrants to the
 licensee that it is not a competitor of Gaussian, Inc. and that
 it will not use this program in any manner prohibited above.
 ---------------------------------------------------------------
  

 Cite this work as:
 Gaussian 09, Revision E.01,
 M. J. Frisch, G. W. Trucks, H. B. Schlegel, G. E. Scuseria, 
 M. A. Robb, J. R. Cheeseman, G. Scalmani, V. Barone, B. Mennucci, 
 G. A. Petersson, H. Nakatsuji, M. Caricato, X. Li, H. P. Hratchian, 
 A. F. Izmaylov, J. Bloino, G. Zheng, J. L. Sonnenberg, M. Hada, 
 M. Ehara, K. Toyota, R. Fukuda, J. Hasegawa, M. Ishida, T. Nakajima, 
 Y. Honda, O. Kitao, H. Nakai, T. Vreven, J. A. Montgomery, Jr., 
 J. E. Peralta, F. Ogliaro, M. Bearpark, J. J. Heyd, E. Brothers, 
 K. N. Kudin, V. N. Staroverov, T. Keith, R. Kobayashi, J. Normand, 
 K. Raghavachari, A. Rendell, J. C. Burant, S. S. Iyengar, J. Tomasi, 
 M. Cossi, N. Rega, J. M. Millam, M. Klene, J. E. Knox, J. B. Cross, 
 V. Bakken, C. Adamo, J. Jaramillo, R. Gomperts, R. E. Stratmann, 
 O. Yazyev, A. J. Austin, R. Cammi, C. Pomelli, J. W. Ochterski, 
 R. L. Martin, K. Morokuma, V. G. Zakrzewski, G. A. Voth, 
 P. Salvador, J. J. Dannenberg, S. Dapprich, A. D. Daniels, 
 O. Farkas, J. B. Foresman, J. V. Ortiz, J. Cioslowski, 
 and D. J. Fox, Gaussian, Inc., Wallingford CT, 2013.
 
 ******************************************
 Gaussian 09:  ES64L-G09RevE.01 30-Nov-2015
                 8-Oct-2018 
 ******************************************
 %chk=triclofen_a2cl.M062X_6-31pGd_opt_water.chk
 ----------------------------------------------------------------------
 # M062X/Gen 6D SCF=Tight INT(grid=ultrafine) OPT IOP(2/17=4) SCRF=(SMD
 ,Solvent=h2o)
 ----------------------------------------------------------------------
 1/14=-1,18=20,19=15,26=4,38=1/1,3;
 2/9=110,12=2,17=4,18=5,40=1/2;
 3/5=7,8=2,11=2,16=1,25=1,30=1,70=32201,71=1,72=1,74=-55,75=-5/1,2,3;
 4//1;
 5/5=2,32=2,38=5,53=1/2;
 6/7=2,8=2,9=2,10=2,28=1/1;
 7//1,2,3,16;
 1/14=-1,18=20,19=15,26=4/3(2);
 2/9=110,17=4/2;
 99//99;
 2/9=110,17=4/2;
 3/5=7,6=1,8=2,11=2,16=1,25=1,30=1,70=32205,71=1,72=1,74=-55,75=-5,82=7/1,2,3;
 4/5=5,16=3,69=1/1;
 5/5=2,32=2,38=5,53=1/2;
 7//1,2,3,16;
 1/14=-1,18=20,19=15,26=4/3(-5);
 2/9=110,17=4/2;
 6/7=2,8=2,9=2,10=2,19=2,28=1/1;
 99/9=1/99;
 --------------------------------------
 triclofen_a2cl.M062X_6-31pGd_opt_water
 --------------------------------------
 Symbolic Z-matrix:
 Charge = -1 Multiplicity = 1
 C                    -1.01842   2.55777  -0.07 
 C                    -0.75437   1.18233  -0.09883 
 C                     0.56638   0.72599  -0.03425 
 C                     1.65077   1.62134   0.05976 
 C                     1.36191   3.00764   0.08747 
 C                     0.041     3.46143   0.02298 
 Cl                   -2.05711   0.00642  -0.21522 
 Cl                   -2.66293   3.17592  -0.14845 
 N                     2.97601   1.06044   0.12179 
 C                     4.17159   1.72525   0.21011 
 O                     4.20115   2.94014   0.24388 
 N                     5.33337   0.9994    0.26046 
 H                     0.74881  -0.34155  -0.05787 
 H                     2.11457   3.77073   0.15799 
 H                    -0.15825   4.52569   0.04584 
 H                     5.23396  -0.02738   0.22993 
 C                     6.68381   1.49135   0.35303 
 C                     7.04023   2.86284   0.39865 
 C                     8.3825    3.24761   0.48879 
 C                     9.3922    2.28595   0.53532 
 C                     9.0614    0.93216   0.49135 
 C                     7.72364   0.5403    0.4011 
 Cl                    11.07215   2.77814   0.64854 
 H                     6.32582   3.66438   0.36719 
 H                     8.6366    4.29974   0.52241 
 H                     9.83967   0.18037   0.52699 
 H                     7.49727  -0.51829   0.36881 
 

 GradGradGradGradGradGradGradGradGradGradGradGradGradGradGradGradGradGrad
 Berny optimization.
 Initialization pass.
                           ----------------------------
                           !    Initial Parameters    !
                           ! (Angstroms and Degrees)  !
 --------------------------                            --------------------------
 ! Name  Definition              Value          Derivative Info.                !
 --------------------------------------------------------------------------------
 ! R1    R(1,2)                  1.4009         estimate D2E/DX2                !
 ! R2    R(1,6)                  1.3956         estimate D2E/DX2                !
 ! R3    R(1,8)                  1.7586         estimate D2E/DX2                !
 ! R4    R(2,3)                  1.3989         estimate D2E/DX2                !
 ! R5    R(2,7)                  1.7588         estimate D2E/DX2                !
 ! R6    R(3,4)                  1.4094         estimate D2E/DX2                !
 ! R7    R(3,13)                 1.0833         estimate D2E/DX2                !
 ! R8    R(4,5)                  1.4163         estimate D2E/DX2                !
 ! R9    R(4,9)                  1.4404         estimate D2E/DX2                !
 ! R10   R(5,6)                  1.3982         estimate D2E/DX2                !
 ! R11   R(5,14)                 1.0741         estimate D2E/DX2                !
 ! R12   R(6,15)                 1.083          estimate D2E/DX2                !
 ! R13   R(9,10)                 1.3708         estimate D2E/DX2                !
 ! R14   R(10,11)                1.2157         estimate D2E/DX2                !
 ! R15   R(10,12)                1.3708         estimate D2E/DX2                !
 ! R16   R(12,16)                1.032          estimate D2E/DX2                !
 ! R17   R(12,17)                1.4402         estimate D2E/DX2                !
 ! R18   R(17,18)                1.4178         estimate D2E/DX2                !
 ! R19   R(17,22)                1.41           estimate D2E/DX2                !
 ! R20   R(18,19)                1.3992         estimate D2E/DX2                !
 ! R21   R(18,24)                1.0742         estimate D2E/DX2                !
 ! R22   R(19,20)                1.3952         estimate D2E/DX2                !
 ! R23   R(19,25)                1.0829         estimate D2E/DX2                !
 ! R24   R(20,21)                1.3943         estimate D2E/DX2                !
 ! R25   R(20,23)                1.7542         estimate D2E/DX2                !
 ! R26   R(21,22)                1.3969         estimate D2E/DX2                !
 ! R27   R(21,26)                1.0827         estimate D2E/DX2                !
 ! R28   R(22,27)                1.083          estimate D2E/DX2                !
 ! A1    A(2,1,6)              119.6074         estimate D2E/DX2                !
 ! A2    A(2,1,8)              121.3638         estimate D2E/DX2                !
 ! A3    A(6,1,8)              119.0288         estimate D2E/DX2                !
 ! A4    A(1,2,3)              119.8231         estimate D2E/DX2                !
 ! A5    A(1,2,7)              121.2115         estimate D2E/DX2                !
 ! A6    A(3,2,7)              118.9655         estimate D2E/DX2                !
 ! A7    A(2,3,4)              121.4853         estimate D2E/DX2                !
 ! A8    A(2,3,13)             118.6516         estimate D2E/DX2                !
 ! A9    A(4,3,13)             119.8631         estimate D2E/DX2                !
 ! A10   A(3,4,5)              117.7869         estimate D2E/DX2                !
 ! A11   A(3,4,9)              117.6058         estimate D2E/DX2                !
 ! A12   A(5,4,9)              124.6073         estimate D2E/DX2                !
 ! A13   A(4,5,6)              120.6271         estimate D2E/DX2                !
 ! A14   A(4,5,14)             123.623          estimate D2E/DX2                !
 ! A15   A(6,5,14)             115.7499         estimate D2E/DX2                !
 ! A16   A(1,6,5)              120.6702         estimate D2E/DX2                !
 ! A17   A(1,6,15)             119.8718         estimate D2E/DX2                !
 ! A18   A(5,6,15)             119.458          estimate D2E/DX2                !
 ! A19   A(4,9,10)             128.0506         estimate D2E/DX2                !
 ! A20   A(9,10,11)            120.5063         estimate D2E/DX2                !
 ! A21   A(9,10,12)            118.9952         estimate D2E/DX2                !
 ! A22   A(11,10,12)           120.4985         estimate D2E/DX2                !
 ! A23   A(10,12,16)           116.3649         estimate D2E/DX2                !
 ! A24   A(10,12,17)           128.0368         estimate D2E/DX2                !
 ! A25   A(16,12,17)           115.5983         estimate D2E/DX2                !
 ! A26   A(12,17,18)           124.6256         estimate D2E/DX2                !
 ! A27   A(12,17,22)           117.5997         estimate D2E/DX2                !
 ! A28   A(18,17,22)           117.7747         estimate D2E/DX2                !
 ! A29   A(17,18,19)           120.6131         estimate D2E/DX2                !
 ! A30   A(17,18,24)           123.6208         estimate D2E/DX2                !
 ! A31   A(19,18,24)           115.7661         estimate D2E/DX2                !
 ! A32   A(18,19,20)           120.4549         estimate D2E/DX2                !
 ! A33   A(18,19,25)           119.6214         estimate D2E/DX2                !
 ! A34   A(20,19,25)           119.9237         estimate D2E/DX2                !
 ! A35   A(19,20,21)           119.7687         estimate D2E/DX2                !
 ! A36   A(19,20,23)           120.1214         estimate D2E/DX2                !
 ! A37   A(21,20,23)           120.1098         estimate D2E/DX2                !
 ! A38   A(20,21,22)           120.1069         estimate D2E/DX2                !
 ! A39   A(20,21,26)           120.1737         estimate D2E/DX2                !
 ! A40   A(22,21,26)           119.7194         estimate D2E/DX2                !
 ! A41   A(17,22,21)           121.2817         estimate D2E/DX2                !
 ! A42   A(17,22,27)           120.2744         estimate D2E/DX2                !
 ! A43   A(21,22,27)           118.4439         estimate D2E/DX2                !
 ! D1    D(6,1,2,3)              0.0043         estimate D2E/DX2                !
 ! D2    D(6,1,2,7)            179.9982         estimate D2E/DX2                !
 ! D3    D(8,1,2,3)           -179.9872         estimate D2E/DX2                !
 ! D4    D(8,1,2,7)              0.0067         estimate D2E/DX2                !
 ! D5    D(2,1,6,5)              0.0043         estimate D2E/DX2                !
 ! D6    D(2,1,6,15)          -179.9849         estimate D2E/DX2                !
 ! D7    D(8,1,6,5)            179.996          estimate D2E/DX2                !
 ! D8    D(8,1,6,15)             0.0068         estimate D2E/DX2                !
 ! D9    D(1,2,3,4)             -0.0139         estimate D2E/DX2                !
 ! D10   D(1,2,3,13)           179.9934         estimate D2E/DX2                !
 ! D11   D(7,2,3,4)            179.992          estimate D2E/DX2                !
 ! D12   D(7,2,3,13)            -0.0006         estimate D2E/DX2                !
 ! D13   D(2,3,4,5)              0.0144         estimate D2E/DX2                !
 ! D14   D(2,3,4,9)            179.9752         estimate D2E/DX2                !
 ! D15   D(13,3,4,5)          -179.993          estimate D2E/DX2                !
 ! D16   D(13,3,4,9)            -0.0323         estimate D2E/DX2                !
 ! D17   D(3,4,5,6)             -0.0056         estimate D2E/DX2                !
 ! D18   D(3,4,5,14)           179.9572         estimate D2E/DX2                !
 ! D19   D(9,4,5,6)           -179.9634         estimate D2E/DX2                !
 ! D20   D(9,4,5,14)            -0.0006         estimate D2E/DX2                !
 ! D21   D(3,4,9,10)           179.7334         estimate D2E/DX2                !
 ! D22   D(5,4,9,10)            -0.3088         estimate D2E/DX2                !
 ! D23   D(4,5,6,1)             -0.0036         estimate D2E/DX2                !
 ! D24   D(4,5,6,15)           179.9856         estimate D2E/DX2                !
 ! D25   D(14,5,6,1)          -179.9692         estimate D2E/DX2                !
 ! D26   D(14,5,6,15)            0.0201         estimate D2E/DX2                !
 ! D27   D(4,9,10,11)           -0.0838         estimate D2E/DX2                !
 ! D28   D(4,9,10,12)          179.8836         estimate D2E/DX2                !
 ! D29   D(9,10,12,16)          -0.1196         estimate D2E/DX2                !
 ! D30   D(9,10,12,17)         179.9751         estimate D2E/DX2                !
 ! D31   D(11,10,12,16)        179.8478         estimate D2E/DX2                !
 ! D32   D(11,10,12,17)         -0.0575         estimate D2E/DX2                !
 ! D33   D(10,12,17,18)         -0.5126         estimate D2E/DX2                !
 ! D34   D(10,12,17,22)        179.511          estimate D2E/DX2                !
 ! D35   D(16,12,17,18)        179.5815         estimate D2E/DX2                !
 ! D36   D(16,12,17,22)         -0.3949         estimate D2E/DX2                !
 ! D37   D(12,17,18,19)       -179.9956         estimate D2E/DX2                !
 ! D38   D(12,17,18,24)         -0.0388         estimate D2E/DX2                !
 ! D39   D(22,17,18,19)         -0.0193         estimate D2E/DX2                !
 ! D40   D(22,17,18,24)        179.9376         estimate D2E/DX2                !
 ! D41   D(12,17,22,21)       -179.9897         estimate D2E/DX2                !
 ! D42   D(12,17,22,27)         -0.016          estimate D2E/DX2                !
 ! D43   D(18,17,22,21)          0.0322         estimate D2E/DX2                !
 ! D44   D(18,17,22,27)       -179.9941         estimate D2E/DX2                !
 ! D45   D(17,18,19,20)         -0.0046         estimate D2E/DX2                !
 ! D46   D(17,18,19,25)        179.9894         estimate D2E/DX2                !
 ! D47   D(24,18,19,20)       -179.9647         estimate D2E/DX2                !
 ! D48   D(24,18,19,25)          0.0294         estimate D2E/DX2                !
 ! D49   D(18,19,20,21)          0.0163         estimate D2E/DX2                !
 ! D50   D(18,19,20,23)       -179.9916         estimate D2E/DX2                !
 ! D51   D(25,19,20,21)       -179.9777         estimate D2E/DX2                !
 ! D52   D(25,19,20,23)          0.0144         estimate D2E/DX2                !
 ! D53   D(19,20,21,22)         -0.0035         estimate D2E/DX2                !
 ! D54   D(19,20,21,26)        179.9973         estimate D2E/DX2                !
 ! D55   D(23,20,21,22)       -179.9956         estimate D2E/DX2                !
 ! D56   D(23,20,21,26)          0.0053         estimate D2E/DX2                !
 ! D57   D(20,21,22,17)         -0.0213         estimate D2E/DX2                !
 ! D58   D(20,21,22,27)       -179.9954         estimate D2E/DX2                !
 ! D59   D(26,21,22,17)        179.9778         estimate D2E/DX2                !
 ! D60   D(26,21,22,27)          0.0037         estimate D2E/DX2                !
 --------------------------------------------------------------------------------
 Trust Radius=3.00D-01 FncErr=1.00D-07 GrdErr=1.00D-06
 Number of steps in this run=    141 maximum allowed number of steps=    162.
 GradGradGradGradGradGradGradGradGradGradGradGradGradGradGradGradGradGrad

                          Input orientation:                          
 ---------------------------------------------------------------------
 Center     Atomic      Atomic             Coordinates (Angstroms)
 Number     Number       Type             X           Y           Z
 ---------------------------------------------------------------------
      1          6           0       -1.018420    2.557770   -0.070000
      2          6           0       -0.754370    1.182330   -0.098830
      3          6           0        0.566380    0.725990   -0.034250
      4          6           0        1.650770    1.621340    0.059760
      5          6           0        1.361910    3.007640    0.087470
      6          6           0        0.041000    3.461430    0.022980
      7         17           0       -2.057110    0.006420   -0.215220
      8         17           0       -2.662930    3.175920   -0.148450
      9          7           0        2.976010    1.060440    0.121790
     10          6           0        4.171590    1.725250    0.210110
     11          8           0        4.201150    2.940140    0.243880
     12          7           0        5.333370    0.999400    0.260460
     13          1           0        0.748810   -0.341550   -0.057870
     14          1           0        2.114570    3.770730    0.157990
     15          1           0       -0.158250    4.525690    0.045840
     16          1           0        5.233960   -0.027380    0.229930
     17          6           0        6.683810    1.491350    0.353030
     18          6           0        7.040230    2.862840    0.398650
     19          6           0        8.382500    3.247610    0.488790
     20          6           0        9.392200    2.285950    0.535320
     21          6           0        9.061400    0.932160    0.491350
     22          6           0        7.723640    0.540300    0.401100
     23         17           0       11.072150    2.778140    0.648540
     24          1           0        6.325820    3.664380    0.367190
     25          1           0        8.636600    4.299740    0.522410
     26          1           0        9.839670    0.180370    0.526990
     27          1           0        7.497270   -0.518290    0.368810
 ---------------------------------------------------------------------
                    Distance matrix (angstroms):
                    1          2          3          4          5
     1  C    0.000000
     2  C    1.400853   0.000000
     3  C    2.422455   1.398856   0.000000
     4  C    2.831663   2.450016   1.409394   0.000000
     5  C    2.427581   2.800912   2.419424   1.416346   0.000000
     6  C    1.395571   2.416971   2.786024   2.445126   1.398173
     7  Cl   2.758505   1.758818   2.726395   4.053635   4.559456
     8  Cl   1.758601   2.760338   4.055076   4.589998   4.035259
     9  N    4.270158   3.738886   2.437729   1.440388   2.529444
    10  C    5.263816   4.965409   3.749103   2.527437   3.090933
    11  O    5.242961   5.269205   4.265134   2.877077   2.844346
    12  N    6.548508   6.101076   4.783911   3.740138   4.453700
    13  H    3.395483   2.140897   1.083273   2.163401   3.407945
    14  H    3.367325   3.872543   3.421153   2.201054   1.074140
    15  H    2.150819   3.399168   3.869008   3.421695   2.148743
    16  H    6.772386   6.118135   4.735363   3.947972   4.921830
    17  C    7.787204   7.458297   6.177274   5.043253   5.540061
    18  C    8.078028   7.989205   6.831125   5.540979   5.688683
    19  C    9.442744   9.385791   8.229451   6.938661   7.036144
    20  C   10.431745  10.226094   8.980701   7.784446   8.075083
    21  C   10.225483   9.836678   8.513761   7.455111   7.984540
    22  C    8.984194   8.516970   7.172892   6.177776   6.830647
    23  Cl  12.113907  11.957079  10.726077   9.510376   9.729143
    24  H    7.439999   7.517103   6.478151   5.111225   5.014973
    25  H    9.828775   9.914358   8.843642   7.495978   7.401338
    26  H   11.131332  10.659703   9.306267   8.327832   8.947572
    27  H    9.064859   8.438030   7.053221   6.233385   7.081947
                    6          7          8          9         10
     6  C    0.000000
     7  Cl   4.049185   0.000000
     8  Cl   2.724361   3.227570   0.000000
     9  N    3.793257   5.153332   6.028759   0.000000
    10  C    4.484541   6.475491   6.995975   1.370833   0.000000
    11  O    4.198498   6.926998   6.879325   2.247031   1.215719
    12  N    5.841846   7.472046   8.297304   2.362224   1.370812
    13  H    3.869133   2.831789   4.901099   2.637854   4.007356
    14  H    2.100854   5.631361   4.824128   2.844127   2.901385
    15  H    1.082992   4.908933   2.851850   4.673041   5.159163
    16  H    6.259509   7.304725   8.530251   2.508662   2.049569
    17  C    6.936647   8.884346   9.510563   3.739911   2.527130
    18  C    7.034818   9.554976   9.723613   4.454569   3.091723
    19  C    8.357232  10.953830  11.064029   5.843675   4.486313
    20  C    9.438707  11.698131  12.107260   6.545256   5.260695
    21  C    9.379989  11.179334  11.954234   6.097951   4.961686
    22  C    8.227936   9.814680  10.729834   4.784198   3.749352
    23  Cl  11.069981  13.446411  13.763933   8.293096   6.994178
    24  H    6.297510   9.164791   9.016768   4.249935   2.902689
    25  H    8.650811  11.546953  11.375078   6.534205   5.163511
    26  H   10.345691  11.921179  12.874181   6.931705   5.883383
    27  H    8.458944   9.586584  10.823327   4.795331   4.014823
                   11         12         13         14         15
    11  O    0.000000
    12  N    2.246924   0.000000
    13  H    4.772755   4.787240   0.000000
    14  H    2.247459   4.248699   4.338518   0.000000
    15  H    4.643012   6.529829   4.952125   2.397551   0.000000
    16  H    3.142144   1.032033   4.505342   4.915426   7.059764
    17  C    2.876544   1.440233   6.225158   5.109948   7.491019
    18  C    2.844346   2.530786   7.075203   5.014410   7.396463
    19  C    4.199786   3.795231   8.453054   6.298415   8.647202
    20  C    5.240220   4.266715   9.053387   7.437126   9.821768
    21  C    5.264528   3.735778   8.427522   7.511794   9.905245
    22  C    4.265195   2.438020   7.045322   6.477380   8.839329
    23  Cl   6.884812   6.020641  10.807536   9.025747  11.381523
    24  H    2.248100   2.845781   6.879767   4.217784   6.548915
    25  H    4.647506   4.676771   9.170361   6.553589   8.810650
    26  H    6.284058   4.587874   9.124593   8.526665  10.911999
    27  H    4.779200   2.645295   6.764245   6.885753   9.173496
                   16         17         18         19         20
    16  H    0.000000
    17  C    2.103274   0.000000
    18  C    3.412396   1.417780   0.000000
    19  C    4.550371   2.447126   1.399236   0.000000
    20  C    4.768199   2.828426   2.425540   1.395152   0.000000
    21  C    3.954536   2.446377   2.796649   2.412928   1.394313
    22  C    2.559310   1.409983   2.421001   2.787708   2.418554
    23  Cl   6.490812   4.582650   4.040544   2.734984   1.754224
    24  H    3.852284   2.202366   1.074168   2.102003   3.366159
    25  H    5.512483   3.424782   2.151371   1.082901   2.150918
    26  H    4.619953   3.421751   3.879302   3.395992   2.152618
    27  H    2.320098   2.168091   3.412011   3.870404   3.388546
                   21         22         23         24         25
    21  C    0.000000
    22  C    1.396890   0.000000
    23  Cl   2.734130   4.035056   0.000000
    24  H    3.868312   3.422707   4.836551   0.000000
    25  H    3.394409   3.870607   2.874557   2.401558   0.000000
    26  H    1.082665   2.150112   2.877879   4.950859   4.291458
    27  H    2.136662   1.083005   4.870777   4.343619   4.953290
                   26         27
    26  H    0.000000
    27  H    2.449487   0.000000
 Stoichiometry    C13H8Cl3N2O(1-)
 Framework group  C1[X(C13H8Cl3N2O)]
 Deg. of freedom    75
 Full point group                 C1      NOp   1
 Largest Abelian subgroup         C1      NOp   1
 Largest concise Abelian subgroup C1      NOp   1
                         Standard orientation:                         
 ---------------------------------------------------------------------
 Center     Atomic      Atomic             Coordinates (Angstroms)
 Number     Number       Type             X           Y           Z
 ---------------------------------------------------------------------
      1          6           0        4.558250   -0.783626    0.003391
      2          6           0        4.346760    0.601158   -0.002501
      3          6           0        3.042044    1.105650   -0.003383
      4          6           0        1.922026    0.250121    0.001253
      5          6           0        2.157935   -1.146427    0.007190
      6          6           0        3.462898   -1.648380    0.008242
      7         17           0        5.696168    1.729211   -0.008706
      8         17           0        6.180856   -1.461728    0.005048
      9          7           0        0.616798    0.859299    0.000487
     10          6           0       -0.605383    0.238448   -0.000679
     11          8           0       -0.681217   -0.974902   -0.002726
     12          7           0       -1.740836    1.006477    0.001181
     13          1           0        2.900428    2.179617   -0.007865
     14          1           0        1.375062   -1.881863    0.011701
     15          1           0        3.621458   -2.719691    0.013053
     16          1           0       -1.602382    2.029172    0.005327
     17          6           0       -3.111444    0.564091   -0.000063
     18          6           0       -3.519754   -0.793551   -0.013995
     19          6           0       -4.878156   -1.129119   -0.014181
     20          6           0       -5.853074   -0.131222   -0.000542
     21          6           0       -5.471066    1.209671    0.013026
     22          6           0       -4.116897    1.552496    0.013034
     23         17           0       -7.553626   -0.561831   -0.000670
     24          1           0       -2.834460   -1.620639   -0.025575
     25          1           0       -5.172028   -2.171325   -0.025100
     26          1           0       -6.222128    1.989387    0.023609
     27          1           0       -3.850531    2.602178    0.023821
 ---------------------------------------------------------------------
 Rotational constants (GHZ):      1.2098630      0.0722474      0.0681766
 General basis read from cards:  (6D, 7F)
 There are   389 symmetry adapted cartesian basis functions of A   symmetry.
 There are   389 symmetry adapted basis functions of A   symmetry.
   389 basis functions,   712 primitive gaussians,   389 cartesian basis functions
    80 alpha electrons       80 beta electrons
       nuclear repulsion energy      1532.1666040960 Hartrees.
 NAtoms=   27 NActive=   27 NUniq=   27 SFac= 1.00D+00 NAtFMM=   60 NAOKFM=F Big=F
 Integral buffers will be    131072 words long.
 Raffenetti 2 integral format.
 Two-electron integral symmetry is turned on.
 ------------------------------------------------------------------------------
 Polarizable Continuum Model (PCM)
 =================================
 Model                : PCM (using non-symmetric T matrix).
 Atomic radii         : SMD-Coulomb.
 Polarization charges : Total charges.
 Charge compensation  : None.
 Solution method      : On-the-fly selection.
 Cavity type          : VdW (van der Waals Surface) (Alpha=1.000).
 Cavity algorithm     : GePol (No added spheres)
                        Default sphere list used, NSphG=   27.
                        Lebedev-Laikov grids with approx.  5.0 points / Ang**2.
                        Smoothing algorithm: York/Karplus (Gamma=1.0000).
                        Polarization charges: spherical gaussians, with
                                              point-specific exponents (IZeta= 3).
                        Self-potential: point-specific (ISelfS= 7).
                        Self-field    : sphere-specific E.n sum rule (ISelfD= 2).
 1st derivatives      : Analytical E(r).r(x)/FMM algorithm (CHGder, D1EAlg=3).
                        Cavity 1st derivative terms included.
 Solvent              : Water, Eps=  78.355300 Eps(inf)=   1.777849
 ------------------------------------------------------------------------------
 ------------------------------------------------------------------------------
 Atomic radii for non-electrostatic terms: SMD-CDS.
 ------------------------------------------------------------------------------
 Nuclear repulsion after PCM non-electrostatic terms =     1532.1741709003 Hartrees.
 One-electron integrals computed using PRISM.
 NBasis=   389 RedAO= T EigKep=  1.06D-06  NBF=   389
 NBsUse=   389 1.00D-06 EigRej= -1.00D+00 NBFU=   389
 ExpMin= 4.38D-02 ExpMax= 2.52D+04 ExpMxC= 3.78D+03 IAcc=3 IRadAn=         5 AccDes= 0.00D+00
 Harris functional with IExCor= 1009 and IRadAn=       5 diagonalized for initial guess.
 HarFok:  IExCor= 1009 AccDes= 0.00D+00 IRadAn=         5 IDoV= 1 UseB2=F ITyADJ=14
 ICtDFT=  3500011 ScaDFX=  1.000000  1.000000  1.000000  1.000000
 FoFCou: FMM=F IPFlag=           0 FMFlag=      100000 FMFlg1=           0
         NFxFlg=           0 DoJE=T BraDBF=F KetDBF=T FulRan=T
         wScrn=  0.000000 ICntrl=     500 IOpCl=  0 I1Cent=   200000004 NGrid=           0
         NMat0=    1 NMatS0=      1 NMatT0=    0 NMatD0=    1 NMtDS0=    0 NMtDT0=    0
 Petite list used in FoFCou.
 Requested convergence on RMS density matrix=1.00D-08 within 128 cycles.
 Requested convergence on MAX density matrix=1.00D-06.
 Requested convergence on             energy=1.00D-06.
 No special actions if energy rises.
 Inv3:  Mode=1 IEnd=    22146267.
 Iteration    1 A*A^-1 deviation from unit magnitude is 6.99D-15 for   2716.
 Iteration    1 A*A^-1 deviation from orthogonality  is 3.92D-15 for   2683   2032.
 Iteration    1 A^-1*A deviation from unit magnitude is 6.88D-15 for   2693.
 Iteration    1 A^-1*A deviation from orthogonality  is 6.46D-12 for   1719    477.
 Error on total polarization charges =  0.04235
 SCF Done:  E(RM062X) =  -2065.32401775     A.U. after   15 cycles
            NFock= 15  Conv=0.97D-08     -V/T= 2.0048
 SMD-CDS (non-electrostatic) energy       (kcal/mol) =       4.75
 (included in total energy above)

 **********************************************************************

            Population analysis using the SCF density.

 **********************************************************************

 Orbital symmetries:
       Occupied  (A) (A) (A) (A) (A) (A) (A) (A) (A) (A) (A) (A)
                 (A) (A) (A) (A) (A) (A) (A) (A) (A) (A) (A) (A)
                 (A) (A) (A) (A) (A) (A) (A) (A) (A) (A) (A) (A)
                 (A) (A) (A) (A) (A) (A) (A) (A) (A) (A) (A) (A)
                 (A) (A) (A) (A) (A) (A) (A) (A) (A) (A) (A) (A)
                 (A) (A) (A) (A) (A) (A) (A) (A) (A) (A) (A) (A)
                 (A) (A) (A) (A) (A) (A) (A) (A)
       Virtual   (A) (A) (A) (A) (A) (A) (A) (A) (A) (A) (A) (A)
                 (A) (A) (A) (A) (A) (A) (A) (A) (A) (A) (A) (A)
                 (A) (A) (A) (A) (A) (A) (A) (A) (A) (A) (A) (A)
                 (A) (A) (A) (A) (A) (A) (A) (A) (A) (A) (A) (A)
                 (A) (A) (A) (A) (A) (A) (A) (A) (A) (A) (A) (A)
                 (A) (A) (A) (A) (A) (A) (A) (A) (A) (A) (A) (A)
                 (A) (A) (A) (A) (A) (A) (A) (A) (A) (A) (A) (A)
                 (A) (A) (A) (A) (A) (A) (A) (A) (A) (A) (A) (A)
                 (A) (A) (A) (A) (A) (A) (A) (A) (A) (A) (A) (A)
                 (A) (A) (A) (A) (A) (A) (A) (A) (A) (A) (A) (A)
                 (A) (A) (A) (A) (A) (A) (A) (A) (A) (A) (A) (A)
                 (A) (A) (A) (A) (A) (A) (A) (A) (A) (A) (A) (A)
                 (A) (A) (A) (A) (A) (A) (A) (A) (A) (A) (A) (A)
                 (A) (A) (A) (A) (A) (A) (A) (A) (A) (A) (A) (A)
                 (A) (A) (A) (A) (A) (A) (A) (A) (A) (A) (A) (A)
                 (A) (A) (A) (A) (A) (A) (A) (A) (A) (A) (A) (A)
                 (A) (A) (A) (A) (A) (A) (A) (A) (A) (A) (A) (A)
                 (A) (A) (A) (A) (A) (A) (A) (A) (A) (A) (A) (A)
                 (A) (A) (A) (A) (A) (A) (A) (A) (A) (A) (A) (A)
                 (A) (A) (A) (A) (A) (A) (A) (A) (A) (A) (A) (A)
                 (A) (A) (A) (A) (A) (A) (A) (A) (A) (A) (A) (A)
                 (A) (A) (A) (A) (A) (A) (A) (A) (A) (A) (A) (A)
                 (A) (A) (A) (A) (A) (A) (A) (A) (A) (A) (A) (A)
                 (A) (A) (A) (A) (A) (A) (A) (A) (A) (A) (A) (A)
                 (A) (A) (A) (A) (A) (A) (A) (A) (A) (A) (A) (A)
                 (A) (A) (A) (A) (A) (A) (A) (A) (A)
 The electronic state is 1-A.
 Alpha  occ. eigenvalues -- -102.67944-102.67509-102.67372 -19.58941 -14.78935
 Alpha  occ. eigenvalues --  -14.70901 -10.65518 -10.62652 -10.61546 -10.61427
 Alpha  occ. eigenvalues --  -10.61252 -10.59608 -10.56685 -10.56507 -10.56367
 Alpha  occ. eigenvalues --  -10.56203 -10.55789 -10.55778 -10.54579  -9.82556
 Alpha  occ. eigenvalues --   -9.82128  -9.82027  -7.54960  -7.54528  -7.54420
 Alpha  occ. eigenvalues --   -7.54304  -7.54280  -7.53876  -7.53862  -7.53777
 Alpha  occ. eigenvalues --   -7.53767  -1.16333  -1.03250  -1.01300  -0.99059
 Alpha  occ. eigenvalues --   -0.96277  -0.95301  -0.92999  -0.90276  -0.85296
 Alpha  occ. eigenvalues --   -0.83662  -0.82649  -0.79789  -0.71455  -0.70079
 Alpha  occ. eigenvalues --   -0.69403  -0.67209  -0.64254  -0.60561  -0.58557
 Alpha  occ. eigenvalues --   -0.55417  -0.55045  -0.53979  -0.53203  -0.51290
 Alpha  occ. eigenvalues --   -0.51194  -0.50899  -0.49571  -0.49239  -0.48532
 Alpha  occ. eigenvalues --   -0.48427  -0.46714  -0.44827  -0.43868  -0.42702
 Alpha  occ. eigenvalues --   -0.42003  -0.41927  -0.41290  -0.40125  -0.39123
 Alpha  occ. eigenvalues --   -0.37952  -0.37372  -0.35663  -0.35076  -0.33268
 Alpha  occ. eigenvalues --   -0.31631  -0.30333  -0.27925  -0.27525  -0.23189
 Alpha virt. eigenvalues --    0.00645   0.01118   0.01203   0.01286   0.01733
 Alpha virt. eigenvalues --    0.02332   0.03038   0.03103   0.03527   0.04119
 Alpha virt. eigenvalues --    0.04626   0.04942   0.05562   0.05967   0.06515
 Alpha virt. eigenvalues --    0.07012   0.07397   0.07400   0.07877   0.08545
 Alpha virt. eigenvalues --    0.08831   0.08929   0.09292   0.09839   0.10379
 Alpha virt. eigenvalues --    0.10510   0.10516   0.10895   0.11953   0.12027
 Alpha virt. eigenvalues --    0.12810   0.12914   0.13023   0.14193   0.14245
 Alpha virt. eigenvalues --    0.14453   0.14778   0.15100   0.15456   0.15629
 Alpha virt. eigenvalues --    0.15921   0.16038   0.16514   0.16839   0.17797
 Alpha virt. eigenvalues --    0.18239   0.18263   0.18860   0.19564   0.19674
 Alpha virt. eigenvalues --    0.19908   0.20391   0.20930   0.21679   0.21842
 Alpha virt. eigenvalues --    0.21975   0.22226   0.22734   0.23075   0.23290
 Alpha virt. eigenvalues --    0.23475   0.23565   0.24196   0.24687   0.25145
 Alpha virt. eigenvalues --    0.25204   0.25839   0.26025   0.26166   0.26332
 Alpha virt. eigenvalues --    0.26945   0.27288   0.28098   0.28712   0.29097
 Alpha virt. eigenvalues --    0.29593   0.29786   0.30136   0.30201   0.31178
 Alpha virt. eigenvalues --    0.31242   0.31330   0.33232   0.33436   0.33860
 Alpha virt. eigenvalues --    0.34290   0.35348   0.35590   0.36228   0.36567
 Alpha virt. eigenvalues --    0.36713   0.37665   0.38769   0.39457   0.40278
 Alpha virt. eigenvalues --    0.40812   0.41559   0.42024   0.42797   0.43578
 Alpha virt. eigenvalues --    0.46277   0.48057   0.48755   0.51659   0.55039
 Alpha virt. eigenvalues --    0.55585   0.56340   0.58912   0.59744   0.60305
 Alpha virt. eigenvalues --    0.63016   0.63259   0.64366   0.65100   0.66182
 Alpha virt. eigenvalues --    0.67225   0.67246   0.68603   0.69587   0.70675
 Alpha virt. eigenvalues --    0.70734   0.71517   0.72163   0.74138   0.74614
 Alpha virt. eigenvalues --    0.75007   0.75489   0.75630   0.75684   0.76293
 Alpha virt. eigenvalues --    0.77268   0.77789   0.78863   0.79868   0.80526
 Alpha virt. eigenvalues --    0.81128   0.81157   0.82035   0.83105   0.83158
 Alpha virt. eigenvalues --    0.84994   0.85145   0.85574   0.86517   0.86948
 Alpha virt. eigenvalues --    0.87669   0.88154   0.89138   0.92380   0.93418
 Alpha virt. eigenvalues --    0.93753   0.94475   0.96513   0.97129   0.97802
 Alpha virt. eigenvalues --    0.97906   0.98700   0.99054   1.00322   1.00999
 Alpha virt. eigenvalues --    1.01803   1.02248   1.02975   1.04076   1.05612
 Alpha virt. eigenvalues --    1.06882   1.07536   1.07635   1.09364   1.09671
 Alpha virt. eigenvalues --    1.11221   1.11698   1.12589   1.13647   1.13820
 Alpha virt. eigenvalues --    1.15085   1.16008   1.16584   1.17641   1.19040
 Alpha virt. eigenvalues --    1.20032   1.22089   1.22437   1.24576   1.26371
 Alpha virt. eigenvalues --    1.26547   1.28347   1.28621   1.29069   1.32277
 Alpha virt. eigenvalues --    1.33049   1.33704   1.34637   1.35075   1.36089
 Alpha virt. eigenvalues --    1.37692   1.39244   1.39986   1.43468   1.44569
 Alpha virt. eigenvalues --    1.45103   1.46377   1.47031   1.47967   1.49271
 Alpha virt. eigenvalues --    1.50335   1.50578   1.52060   1.52779   1.53848
 Alpha virt. eigenvalues --    1.54448   1.55484   1.56598   1.58792   1.59187
 Alpha virt. eigenvalues --    1.59265   1.59794   1.62748   1.63672   1.66941
 Alpha virt. eigenvalues --    1.76229   1.82172   1.84200   1.86959   1.87108
 Alpha virt. eigenvalues --    1.88128   1.88459   1.91065   1.93976   1.94625
 Alpha virt. eigenvalues --    1.95365   1.96685   1.98711   1.99203   1.99481
 Alpha virt. eigenvalues --    2.03267   2.04085   2.06338   2.06710   2.07445
 Alpha virt. eigenvalues --    2.08540   2.12139   2.14338   2.16123   2.16965
 Alpha virt. eigenvalues --    2.17316   2.18330   2.20813   2.22117   2.22907
 Alpha virt. eigenvalues --    2.24779   2.25679   2.28071   2.28607   2.31035
 Alpha virt. eigenvalues --    2.31354   2.32631   2.32922   2.39969   2.41276
 Alpha virt. eigenvalues --    2.43043   2.45709   2.53556   2.57118   2.57214
 Alpha virt. eigenvalues --    2.61421   2.64310   2.65413   2.67549   2.67615
 Alpha virt. eigenvalues --    2.68207   2.71686   2.76681   2.77597   2.78122
 Alpha virt. eigenvalues --    2.79548   2.79906   2.80647   2.81171   2.84924
 Alpha virt. eigenvalues --    2.89106   2.97152   3.01536   3.03576   3.11016
 Alpha virt. eigenvalues --    3.18799   3.29419   3.35491   3.39071   3.43008
 Alpha virt. eigenvalues --    4.20338   4.24739   4.28436   4.28447   4.31954
 Alpha virt. eigenvalues --    4.38180   4.38273   4.42319   4.43775   4.44579
 Alpha virt. eigenvalues --    4.44891   4.47129   4.51372   4.52134   4.53428
 Alpha virt. eigenvalues --    4.57364   4.67347   4.74160   4.78669
          Condensed to atoms (all electrons):
               1          2          3          4          5          6
     1  C    9.029066  -2.212457   1.107629  -0.626026  -0.155528  -0.714941
     2  C   -2.212457   9.569653  -2.599998   1.025997  -0.216046   0.882790
     3  C    1.107629  -2.599998  14.678525  -1.500392  -2.361142  -1.996729
     4  C   -0.626026   1.025997  -1.500392  10.667999  -0.212478  -0.471412
     5  C   -0.155528  -0.216046  -2.361142  -0.212478  10.340959  -3.297395
     6  C   -0.714941   0.882790  -1.996729  -0.471412  -3.297395  12.605563
     7  Cl  -0.256186   0.048503   0.007599  -0.032221   0.000322   0.050581
     8  Cl   0.066754  -0.235160   0.130587  -0.061317   0.010505  -0.140353
     9  N   -0.011007   0.093867  -0.012600   0.510666  -0.386899  -0.069523
    10  C   -0.037979  -0.122503  -0.833884  -1.490716   0.882169  -0.526400
    11  O    0.003648   0.012590  -0.136424  -0.127374   0.154865   0.150195
    12  N    0.001497  -0.000343  -0.094168  -0.344652   0.127886  -0.057315
    13  H    0.055846  -0.053340   0.347980  -0.018485   0.021205  -0.027220
    14  H    0.037426  -0.028714   0.059028  -0.059953   0.330984  -0.067974
    15  H   -0.030022   0.070377   0.012721   0.013208   0.003728   0.241973
    16  H   -0.000099  -0.000519   0.003469   0.004105  -0.001387   0.001033
    17  C   -0.008507  -0.007149  -0.251306  -1.044446   0.300658   0.081498
    18  C    0.003310   0.010593   0.077547   0.302242  -0.163959  -0.115084
    19  C    0.001067  -0.000532   0.032021   0.113687  -0.097800  -0.037305
    20  C   -0.000090  -0.000188  -0.001217  -0.026351   0.002614  -0.000039
    21  C   -0.000082  -0.000245  -0.001360   0.006903   0.001684   0.000891
    22  C   -0.000208  -0.013283  -0.028370  -0.271644   0.109037   0.035299
    23  Cl   0.000001  -0.000004   0.000024  -0.000372   0.000053   0.000008
    24  H    0.000038  -0.000054   0.000098   0.002075   0.002747   0.000830
    25  H    0.000000  -0.000000   0.000002  -0.000154   0.000073   0.000008
    26  H    0.000000  -0.000000  -0.000001   0.000005   0.000005   0.000000
    27  H    0.000001  -0.000002   0.000039  -0.000481   0.000016  -0.000005
               7          8          9         10         11         12
     1  C   -0.256186   0.066754  -0.011007  -0.037979   0.003648   0.001497
     2  C    0.048503  -0.235160   0.093867  -0.122503   0.012590  -0.000343
     3  C    0.007599   0.130587  -0.012600  -0.833884  -0.136424  -0.094168
     4  C   -0.032221  -0.061317   0.510666  -1.490716  -0.127374  -0.344652
     5  C    0.000322   0.010505  -0.386899   0.882169   0.154865   0.127886
     6  C    0.050581  -0.140353  -0.069523  -0.526400   0.150195  -0.057315
     7  Cl  17.017213   0.024050  -0.006797  -0.024604  -0.000362  -0.000241
     8  Cl   0.024050  17.044169  -0.000434  -0.008388   0.000277   0.000081
     9  N   -0.006797  -0.000434   7.770901   0.466810  -0.152450  -0.309222
    10  C   -0.024604  -0.008388   0.466810   7.634713   0.365203   0.315776
    11  O   -0.000362   0.000277  -0.152450   0.365203   8.768005  -0.193804
    12  N   -0.000241   0.000081  -0.309222   0.315776  -0.193804   7.846425
    13  H    0.003319   0.000493   0.000943  -0.022139   0.000176  -0.000275
    14  H   -0.000100   0.000512  -0.006769   0.027948  -0.002245   0.000914
    15  H   -0.000114   0.005065  -0.001128  -0.004857   0.000484   0.000012
    16  H   -0.000003   0.000000   0.023197   0.009068   0.010938   0.228993
    17  C   -0.001050  -0.000288  -0.158672  -1.186101  -0.261868  -0.027781
    18  C   -0.000123   0.000034   0.001897   0.678729   0.179926  -0.431888
    19  C   -0.000003   0.000004  -0.023173   0.061513   0.156732  -0.022286
    20  C   -0.000001  -0.000001  -0.003778  -0.251643  -0.001393   0.015670
    21  C    0.000005   0.000001  -0.008417   0.045025   0.005681   0.069078
    22  C    0.000127   0.000006  -0.061164  -0.997638  -0.103574   0.519837
    23  Cl   0.000000  -0.000000   0.000115  -0.008180   0.000247  -0.000169
    24  H    0.000000   0.000000   0.001237   0.009400  -0.002075  -0.015560
    25  H    0.000000   0.000000   0.000018  -0.003096   0.000375  -0.000597
    26  H    0.000000  -0.000000   0.000014   0.001760   0.000003   0.000666
    27  H    0.000000   0.000000   0.000751  -0.002211  -0.000034  -0.010468
              13         14         15         16         17         18
     1  C    0.055846   0.037426  -0.030022  -0.000099  -0.008507   0.003310
     2  C   -0.053340  -0.028714   0.070377  -0.000519  -0.007149   0.010593
     3  C    0.347980   0.059028   0.012721   0.003469  -0.251306   0.077547
     4  C   -0.018485  -0.059953   0.013208   0.004105  -1.044446   0.302242
     5  C    0.021205   0.330984   0.003728  -0.001387   0.300658  -0.163959
     6  C   -0.027220  -0.067974   0.241973   0.001033   0.081498  -0.115084
     7  Cl   0.003319  -0.000100  -0.000114  -0.000003  -0.001050  -0.000123
     8  Cl   0.000493   0.000512   0.005065   0.000000  -0.000288   0.000034
     9  N    0.000943  -0.006769  -0.001128   0.023197  -0.158672   0.001897
    10  C   -0.022139   0.027948  -0.004857   0.009068  -1.186101   0.678729
    11  O    0.000176  -0.002245   0.000484   0.010938  -0.261868   0.179926
    12  N   -0.000275   0.000914   0.000012   0.228993  -0.027781  -0.431888
    13  H    0.436317  -0.000102   0.000009   0.000005  -0.001117   0.000175
    14  H   -0.000102   0.436935  -0.004377   0.000001   0.006811   0.000962
    15  H    0.000009  -0.004377   0.429308   0.000000  -0.000234   0.000129
    16  H    0.000005   0.000001   0.000000   0.269430  -0.045488  -0.008986
    17  C   -0.001117   0.006811  -0.000234  -0.045488  12.694055  -1.638628
    18  C    0.000175   0.000962   0.000129  -0.008986  -1.638628  12.769576
    19  C   -0.000007   0.000764   0.000011   0.009236  -1.497232  -2.181845
    20  C   -0.000000   0.000024  -0.000000  -0.002575  -1.091187  -0.164370
    21  C    0.000004  -0.000056  -0.000000   0.015301   0.111013  -0.096530
    22  C   -0.000193   0.000500  -0.000006  -0.009993   0.157735  -4.398982
    23  Cl   0.000000   0.000000   0.000000   0.000037  -0.044365   0.073376
    24  H    0.000000   0.000000   0.000000  -0.000113   0.088522   0.226331
    25  H   -0.000000   0.000000  -0.000000   0.000001   0.009787   0.022414
    26  H   -0.000000  -0.000000  -0.000000  -0.000010   0.004632  -0.027006
    27  H   -0.000000  -0.000000   0.000000   0.004380   0.070826   0.095282
              19         20         21         22         23         24
     1  C    0.001067  -0.000090  -0.000082  -0.000208   0.000001   0.000038
     2  C   -0.000532  -0.000188  -0.000245  -0.013283  -0.000004  -0.000054
     3  C    0.032021  -0.001217  -0.001360  -0.028370   0.000024   0.000098
     4  C    0.113687  -0.026351   0.006903  -0.271644  -0.000372   0.002075
     5  C   -0.097800   0.002614   0.001684   0.109037   0.000053   0.002747
     6  C   -0.037305  -0.000039   0.000891   0.035299   0.000008   0.000830
     7  Cl  -0.000003  -0.000001   0.000005   0.000127   0.000000   0.000000
     8  Cl   0.000004  -0.000001   0.000001   0.000006  -0.000000   0.000000
     9  N   -0.023173  -0.003778  -0.008417  -0.061164   0.000115   0.001237
    10  C    0.061513  -0.251643   0.045025  -0.997638  -0.008180   0.009400
    11  O    0.156732  -0.001393   0.005681  -0.103574   0.000247  -0.002075
    12  N   -0.022286   0.015670   0.069078   0.519837  -0.000169  -0.015560
    13  H   -0.000007  -0.000000   0.000004  -0.000193   0.000000   0.000000
    14  H    0.000764   0.000024  -0.000056   0.000500   0.000000   0.000000
    15  H    0.000011  -0.000000  -0.000000  -0.000006   0.000000   0.000000
    16  H    0.009236  -0.002575   0.015301  -0.009993   0.000037  -0.000113
    17  C   -1.497232  -1.091187   0.111013   0.157735  -0.044365   0.088522
    18  C   -2.181845  -0.164370  -0.096530  -4.398982   0.073376   0.226331
    19  C   11.353811   0.165700   0.065059  -1.647364  -0.108651  -0.052555
    20  C    0.165700   6.137457  -0.015598   1.044143  -0.105979  -0.003870
    21  C    0.065059  -0.015598   7.278806  -1.046842  -0.138248  -0.024273
    22  C   -1.647364   1.044143  -1.046842  13.387262   0.115636   0.067369
    23  Cl  -0.108651  -0.105979  -0.138248   0.115636  17.056761   0.000733
    24  H   -0.052555  -0.003870  -0.024273   0.067369   0.000733   0.427126
    25  H    0.236919   0.009214   0.044045  -0.011576   0.003956  -0.004667
    26  H    0.053157   0.006383   0.284897  -0.015170   0.002048   0.000010
    27  H   -0.045972   0.005779  -0.063651   0.251173   0.001003  -0.000100
              25         26         27
     1  C    0.000000   0.000000   0.000001
     2  C   -0.000000  -0.000000  -0.000002
     3  C    0.000002  -0.000001   0.000039
     4  C   -0.000154   0.000005  -0.000481
     5  C    0.000073   0.000005   0.000016
     6  C    0.000008   0.000000  -0.000005
     7  Cl   0.000000   0.000000   0.000000
     8  Cl   0.000000  -0.000000   0.000000
     9  N    0.000018   0.000014   0.000751
    10  C   -0.003096   0.001760  -0.002211
    11  O    0.000375   0.000003  -0.000034
    12  N   -0.000597   0.000666  -0.010468
    13  H   -0.000000  -0.000000  -0.000000
    14  H    0.000000  -0.000000  -0.000000
    15  H   -0.000000  -0.000000   0.000000
    16  H    0.000001  -0.000010   0.004380
    17  C    0.009787   0.004632   0.070826
    18  C    0.022414  -0.027006   0.095282
    19  C    0.236919   0.053157  -0.045972
    20  C    0.009214   0.006383   0.005779
    21  C    0.044045   0.284897  -0.063651
    22  C   -0.011576  -0.015170   0.251173
    23  Cl   0.003956   0.002048   0.001003
    24  H   -0.004667   0.000010  -0.000100
    25  H    0.430819  -0.000124   0.000010
    26  H   -0.000124   0.427745  -0.003753
    27  H    0.000010  -0.003753   0.437536
 Mulliken charges:
               1
     1  C   -0.253151
     2  C   -0.223832
     3  C   -0.639675
     4  C   -0.358413
     5  C    0.603126
     6  C   -0.528973
     7  Cl   0.170085
     8  Cl   0.163402
     9  N   -0.658383
    10  C    1.022225
    11  O   -0.827742
    12  N   -0.618066
    13  H    0.256407
    14  H    0.267482
    15  H    0.263715
    16  H    0.489978
    17  C   -0.260118
    18  C    0.784879
    19  C   -0.534956
    20  C    0.281298
    21  C   -0.533090
    22  C   -1.082118
    23  Cl   0.151970
    24  H    0.276753
    25  H    0.262575
    26  H    0.264740
    27  H    0.259881
 Sum of Mulliken charges =  -1.00000
 Mulliken charges with hydrogens summed into heavy atoms:
               1
     1  C   -0.253151
     2  C   -0.223832
     3  C   -0.383268
     4  C   -0.358413
     5  C    0.870609
     6  C   -0.265259
     7  Cl   0.170085
     8  Cl   0.163402
     9  N   -0.658383
    10  C    1.022225
    11  O   -0.827742
    12  N   -0.128088
    17  C   -0.260118
    18  C    1.061632
    19  C   -0.272381
    20  C    0.281298
    21  C   -0.268350
    22  C   -0.822237
    23  Cl   0.151970
 Electronic spatial extent (au):  <R**2>=          13625.3626
 Charge=             -1.0000 electrons
 Dipole moment (field-independent basis, Debye):
    X=             -4.6793    Y=              1.5351    Z=              0.0176  Tot=              4.9247
 Quadrupole moment (field-independent basis, Debye-Ang):
   XX=           -202.4818   YY=           -126.3505   ZZ=           -140.3709
   XY=            -12.3279   XZ=             -0.0320   YZ=              0.1030
 Traceless Quadrupole moment (field-independent basis, Debye-Ang):
   XX=            -46.0807   YY=             30.0506   ZZ=             16.0301
   XY=            -12.3279   XZ=             -0.0320   YZ=              0.1030
 Octapole moment (field-independent basis, Debye-Ang**2):
  XXX=            -20.7707  YYY=              2.2896  ZZZ=             -0.0460  XYY=            -36.1196
  XXY=             41.9745  XXZ=              0.3319  XZZ=              9.7756  YZZ=             -1.6022
  YYZ=              0.1413  XYZ=             -0.6709
 Hexadecapole moment (field-independent basis, Debye-Ang**3):
 XXXX=         -20056.1913 YYYY=          -1116.6935 ZZZZ=           -166.4561 XXXY=           -202.2705
 XXXZ=             -2.3984 YYYX=            -49.3690 YYYZ=              0.5430 ZZZX=             -0.1518
 ZZZY=             -0.1023 XXYY=          -2895.8761 XXZZ=          -3004.5639 YYZZ=           -248.9192
 XXYZ=              2.7996 YYXZ=             -0.2327 ZZXY=             13.5092
 N-N= 1.532174170900D+03 E-N=-7.956768152677D+03  KE= 2.055422124085D+03
 D1PCM: PCM CHGder 1st derivatives, ID1Alg=3 FixD1E=F DoIter=F DoCFld=F I1PDM=0.
 Calling FoFJK, ICntrl=      2127 FMM=F ISym2X=0 I1Cent= 0 IOpClX= 0 NMat=1 NMatS=1 NMatT=0.
 ***** Axes restored to original set *****
 -------------------------------------------------------------------
 Center     Atomic                   Forces (Hartrees/Bohr)
 Number     Number              X              Y              Z
 -------------------------------------------------------------------
      1        6          -0.006334387    0.000858347   -0.000355417
      2        6           0.007557461    0.001545062    0.000517142
      3        6          -0.008227444    0.001329277   -0.000468706
      4        6           0.059733150    0.003986417    0.003655687
      5        6          -0.018755200    0.002571678   -0.001010537
      6        6           0.003744949   -0.011031512   -0.000125075
      7       17           0.006079393    0.005362221    0.000542331
      8       17           0.004585680   -0.002365850    0.000190330
      9        7          -0.008762384   -0.031906024   -0.001412675
     10        6          -0.070715461   -0.021033932   -0.004590025
     11        8           0.022081171    0.071189078    0.003153623
     12        7           0.029685720   -0.023398278    0.001081777
     13        1           0.001695493   -0.001369249    0.000057709
     14        1           0.007788963   -0.001874464    0.000384072
     15        1          -0.001641987    0.001784133   -0.000040403
     16        1           0.002130732    0.014787567    0.000502881
     17        6          -0.018618005    0.001066186   -0.001107208
     18        6           0.007165717   -0.006653200    0.000252087
     19        6           0.002230405   -0.009007584   -0.000011212
     20        6          -0.007691211   -0.000536500   -0.000469910
     21        6          -0.003442391    0.002079650   -0.000221770
     22        6           0.000820300    0.007127960    0.000217316
     23       17          -0.002088984   -0.000774418   -0.000141471
     24        1          -0.007485991   -0.001603084   -0.000479065
     25        1          -0.000485002    0.002082157   -0.000000598
     26        1           0.001211205   -0.002017180    0.000047311
     27        1          -0.002261892   -0.002198459   -0.000168191
 -------------------------------------------------------------------
 Cartesian Forces:  Max     0.071189078 RMS     0.015296376

 GradGradGradGradGradGradGradGradGradGradGradGradGradGradGradGradGradGrad
 Berny optimization.
 FormGI is forming the generalized inverse of G from B-inverse, IUseBI=4.
 GSVD:  received Info=                   1 from GESDD.
 Internal  Forces:  Max     0.071764999 RMS     0.011399806
 Search for a local minimum.
 Step number   1 out of a maximum of  141
 All quantities printed in internal units (Hartrees-Bohrs-Radians)
 Mixed Optimization -- RFO/linear search
 Second derivative matrix not updated -- first step.
 ITU=  0
     Eigenvalues ---    0.01158   0.01160   0.01622   0.01677   0.01783
     Eigenvalues ---    0.01927   0.01940   0.01972   0.01986   0.02031
     Eigenvalues ---    0.02040   0.02069   0.02078   0.02078   0.02078
     Eigenvalues ---    0.02085   0.02090   0.02111   0.02116   0.02124
     Eigenvalues ---    0.02131   0.02145   0.02148   0.02159   0.16000
     Eigenvalues ---    0.16000   0.16000   0.16000   0.16000   0.16000
     Eigenvalues ---    0.16000   0.16000   0.22000   0.22000   0.22372
     Eigenvalues ---    0.22966   0.23476   0.24000   0.24609   0.25000
     Eigenvalues ---    0.25000   0.25000   0.25000   0.25000   0.25000
     Eigenvalues ---    0.25000   0.25000   0.29649   0.29669   0.30082
     Eigenvalues ---    0.35602   0.35634   0.35635   0.35646   0.35674
     Eigenvalues ---    0.36708   0.36712   0.39532   0.39553   0.40615
     Eigenvalues ---    0.40753   0.41260   0.41313   0.42472   0.44113
     Eigenvalues ---    0.44168   0.45023   0.45462   0.45866   0.45942
     Eigenvalues ---    0.46041   0.46421   0.50817   0.50821   0.97306
 RFO step:  Lambda=-3.96402444D-02 EMin= 1.15752450D-02
 Linear search not attempted -- first point.
 Maximum step size (   0.300) exceeded in Quadratic search.
    -- Step size scaled by   0.900
 Iteration  1 RMS(Cart)=  0.11576810 RMS(Int)=  0.00206586
 Iteration  2 RMS(Cart)=  0.00560006 RMS(Int)=  0.00000891
 Iteration  3 RMS(Cart)=  0.00000375 RMS(Int)=  0.00000884
 Iteration  4 RMS(Cart)=  0.00000000 RMS(Int)=  0.00000884
 Variable       Old X    -DE/DX   Delta X   Delta X   Delta X     New X
                                 (Linear)    (Quad)   (Total)
    R1        2.64723  -0.00625   0.00000  -0.01175  -0.01174   2.63549
    R2        2.63725  -0.00434   0.00000  -0.00783  -0.00783   2.62941
    R3        3.32327  -0.00513   0.00000  -0.01372  -0.01372   3.30955
    R4        2.64345  -0.01021   0.00000  -0.01875  -0.01874   2.62471
    R5        3.32369  -0.00812   0.00000  -0.02172  -0.02172   3.30196
    R6        2.66337  -0.00323   0.00000  -0.00598  -0.00598   2.65739
    R7        2.04709   0.00164   0.00000   0.00373   0.00373   2.05082
    R8        2.67651  -0.00157   0.00000  -0.00260  -0.00262   2.67389
    R9        2.72194  -0.05160   0.00000  -0.10672  -0.10672   2.61522
   R10        2.64216  -0.00430   0.00000  -0.00746  -0.00746   2.63470
   R11        2.02983   0.00414   0.00000   0.00917   0.00917   2.03900
   R12        2.04656   0.00205   0.00000   0.00465   0.00465   2.05121
   R13        2.59050  -0.02637   0.00000  -0.04331  -0.04331   2.54719
   R14        2.29738   0.07176   0.00000   0.06375   0.06375   2.36112
   R15        2.59046   0.01100   0.00000   0.01807   0.01807   2.60853
   R16        1.95026  -0.01494   0.00000  -0.02893  -0.02893   1.92133
   R17        2.72165  -0.03240   0.00000  -0.06697  -0.06697   2.65468
   R18        2.67922  -0.01380   0.00000  -0.02696  -0.02695   2.65227
   R19        2.66448  -0.00742   0.00000  -0.01428  -0.01426   2.65022
   R20        2.64417  -0.00466   0.00000  -0.00845  -0.00846   2.63571
   R21        2.02988   0.00380   0.00000   0.00841   0.00841   2.03830
   R22        2.63646  -0.00500   0.00000  -0.00858  -0.00860   2.62786
   R23        2.04639   0.00192   0.00000   0.00436   0.00436   2.05074
   R24        2.63487  -0.00417   0.00000  -0.00704  -0.00705   2.62782
   R25        3.31500  -0.00222   0.00000  -0.00588  -0.00588   3.30913
   R26        2.63974  -0.00748   0.00000  -0.01340  -0.01340   2.62634
   R27        2.04594   0.00227   0.00000   0.00514   0.00514   2.05108
   R28        2.04658   0.00262   0.00000   0.00595   0.00595   2.05253
    A1        2.08754  -0.00334   0.00000  -0.01125  -0.01123   2.07631
    A2        2.11820   0.00064   0.00000   0.00243   0.00242   2.12062
    A3        2.07744   0.00270   0.00000   0.00882   0.00881   2.08625
    A4        2.09131   0.00476   0.00000   0.01350   0.01352   2.10483
    A5        2.11554  -0.00220   0.00000  -0.00620  -0.00621   2.10933
    A6        2.07634  -0.00256   0.00000  -0.00730  -0.00731   2.06902
    A7        2.12032  -0.00030   0.00000  -0.00156  -0.00156   2.11876
    A8        2.07086   0.00163   0.00000   0.00746   0.00745   2.07832
    A9        2.09201  -0.00133   0.00000  -0.00589  -0.00590   2.08611
   A10        2.05577  -0.00221   0.00000  -0.00611  -0.00612   2.04965
   A11        2.05261  -0.01061   0.00000  -0.03333  -0.03332   2.01929
   A12        2.17481   0.01282   0.00000   0.03943   0.03944   2.21425
   A13        2.10534   0.00009   0.00000   0.00160   0.00158   2.10692
   A14        2.15763  -0.00701   0.00000  -0.03218  -0.03217   2.12546
   A15        2.02022   0.00692   0.00000   0.03059   0.03060   2.05081
   A16        2.10609   0.00100   0.00000   0.00382   0.00381   2.10990
   A17        2.09216  -0.00183   0.00000  -0.00789  -0.00788   2.08427
   A18        2.08494   0.00083   0.00000   0.00407   0.00407   2.08901
   A19        2.23490  -0.03801   0.00000  -0.11805  -0.11805   2.11686
   A20        2.10323   0.04641   0.00000   0.14414   0.14414   2.24737
   A21        2.07686  -0.04602   0.00000  -0.14292  -0.14292   1.93394
   A22        2.10309  -0.00039   0.00000  -0.00122  -0.00122   2.10187
   A23        2.03095  -0.00140   0.00000  -0.00415  -0.00415   2.02680
   A24        2.23466   0.00418   0.00000   0.01448   0.01448   2.24914
   A25        2.01757  -0.00277   0.00000  -0.01033  -0.01033   2.00724
   A26        2.17513   0.00189   0.00000   0.00632   0.00630   2.18143
   A27        2.05250  -0.00721   0.00000  -0.02194  -0.02196   2.03055
   A28        2.05556   0.00532   0.00000   0.01562   0.01565   2.07121
   A29        2.10510  -0.00269   0.00000  -0.00963  -0.00962   2.09547
   A30        2.15759  -0.00542   0.00000  -0.02567  -0.02567   2.13192
   A31        2.02050   0.00811   0.00000   0.03529   0.03529   2.05579
   A32        2.10234  -0.00096   0.00000  -0.00220  -0.00223   2.10010
   A33        2.08779  -0.00051   0.00000  -0.00337  -0.00336   2.08443
   A34        2.09306   0.00147   0.00000   0.00557   0.00559   2.09865
   A35        2.09036   0.00238   0.00000   0.00911   0.00908   2.09944
   A36        2.09651  -0.00096   0.00000  -0.00384  -0.00382   2.09269
   A37        2.09631  -0.00142   0.00000  -0.00528  -0.00526   2.09105
   A38        2.09626  -0.00370   0.00000  -0.01155  -0.01156   2.08470
   A39        2.09743   0.00246   0.00000   0.00853   0.00853   2.10596
   A40        2.08950   0.00124   0.00000   0.00302   0.00303   2.09252
   A41        2.11676  -0.00034   0.00000  -0.00135  -0.00133   2.11544
   A42        2.09918  -0.00162   0.00000  -0.00739  -0.00741   2.09178
   A43        2.06724   0.00196   0.00000   0.00875   0.00873   2.07597
    D1        0.00008  -0.00000   0.00000  -0.00005  -0.00005   0.00003
    D2        3.14156  -0.00000   0.00000  -0.00001  -0.00000   3.14156
    D3       -3.14137  -0.00001   0.00000  -0.00009  -0.00009  -3.14146
    D4        0.00012  -0.00000   0.00000  -0.00005  -0.00005   0.00007
    D5        0.00008   0.00000   0.00000   0.00005   0.00005   0.00013
    D6       -3.14133   0.00000   0.00000  -0.00001  -0.00001  -3.14134
    D7        3.14152   0.00001   0.00000   0.00009   0.00009  -3.14157
    D8        0.00012   0.00000   0.00000   0.00003   0.00003   0.00015
    D9       -0.00024   0.00000   0.00000   0.00003   0.00003  -0.00021
   D10        3.14148   0.00000   0.00000   0.00002   0.00002   3.14149
   D11        3.14145  -0.00000   0.00000  -0.00001  -0.00001   3.14144
   D12       -0.00001  -0.00000   0.00000  -0.00003  -0.00003  -0.00004
   D13        0.00025  -0.00000   0.00000  -0.00001  -0.00001   0.00024
   D14        3.14116  -0.00000   0.00000  -0.00010  -0.00010   3.14106
   D15       -3.14147  -0.00000   0.00000  -0.00000  -0.00000  -3.14147
   D16       -0.00056  -0.00000   0.00000  -0.00009  -0.00009  -0.00065
   D17       -0.00010   0.00000   0.00000   0.00002   0.00002  -0.00008
   D18        3.14084   0.00001   0.00000   0.00014   0.00013   3.14098
   D19       -3.14095   0.00001   0.00000   0.00014   0.00015  -3.14081
   D20       -0.00001   0.00002   0.00000   0.00026   0.00026   0.00025
   D21        3.13694  -0.00003   0.00000  -0.00050  -0.00050   3.13644
   D22       -0.00539  -0.00004   0.00000  -0.00062  -0.00062  -0.00601
   D23       -0.00006  -0.00000   0.00000  -0.00004  -0.00004  -0.00010
   D24        3.14134   0.00000   0.00000   0.00002   0.00002   3.14136
   D25       -3.14105  -0.00001   0.00000  -0.00013  -0.00013  -3.14118
   D26        0.00035  -0.00000   0.00000  -0.00007  -0.00007   0.00028
   D27       -0.00146  -0.00005   0.00000  -0.00086  -0.00088  -0.00234
   D28        3.13956  -0.00001   0.00000  -0.00013  -0.00011   3.13945
   D29       -0.00209  -0.00007   0.00000  -0.00098  -0.00097  -0.00306
   D30        3.14116  -0.00004   0.00000  -0.00056  -0.00055   3.14061
   D31        3.13894  -0.00001   0.00000  -0.00021  -0.00022   3.13871
   D32       -0.00100   0.00002   0.00000   0.00021   0.00020  -0.00081
   D33       -0.00895  -0.00005   0.00000  -0.00092  -0.00092  -0.00986
   D34        3.13306  -0.00004   0.00000  -0.00077  -0.00077   3.13229
   D35        3.13429  -0.00003   0.00000  -0.00050  -0.00050   3.13379
   D36       -0.00689  -0.00002   0.00000  -0.00036  -0.00036  -0.00725
   D37       -3.14152   0.00000   0.00000   0.00002   0.00002  -3.14149
   D38       -0.00068   0.00002   0.00000   0.00025   0.00025  -0.00043
   D39       -0.00034  -0.00001   0.00000  -0.00013  -0.00014  -0.00047
   D40        3.14050   0.00001   0.00000   0.00009   0.00009   3.14059
   D41       -3.14141  -0.00001   0.00000  -0.00013  -0.00013  -3.14155
   D42       -0.00028  -0.00001   0.00000  -0.00012  -0.00012  -0.00040
   D43        0.00056   0.00000   0.00000   0.00001   0.00001   0.00057
   D44       -3.14149   0.00000   0.00000   0.00002   0.00002  -3.14147
   D45       -0.00008   0.00001   0.00000   0.00011   0.00011   0.00003
   D46        3.14141   0.00001   0.00000   0.00011   0.00011   3.14152
   D47       -3.14098  -0.00000   0.00000  -0.00008  -0.00008  -3.14106
   D48        0.00051  -0.00000   0.00000  -0.00008  -0.00008   0.00043
   D49        0.00028   0.00000   0.00000   0.00005   0.00005   0.00034
   D50       -3.14145   0.00000   0.00000   0.00002   0.00002  -3.14142
   D51       -3.14120   0.00000   0.00000   0.00005   0.00005  -3.14115
   D52        0.00025   0.00000   0.00000   0.00002   0.00002   0.00027
   D53       -0.00006  -0.00001   0.00000  -0.00018  -0.00018  -0.00025
   D54        3.14155   0.00000   0.00000   0.00001   0.00001   3.14155
   D55       -3.14152  -0.00001   0.00000  -0.00015  -0.00015   3.14152
   D56        0.00009   0.00000   0.00000   0.00004   0.00004   0.00013
   D57       -0.00037   0.00001   0.00000   0.00016   0.00016  -0.00021
   D58       -3.14151   0.00001   0.00000   0.00015   0.00015  -3.14137
   D59        3.14121  -0.00000   0.00000  -0.00003  -0.00003   3.14117
   D60        0.00007  -0.00000   0.00000  -0.00004  -0.00004   0.00002
         Item               Value     Threshold  Converged?
 Maximum Force            0.071765     0.000450     NO 
 RMS     Force            0.011400     0.000300     NO 
 Maximum Displacement     0.406208     0.001800     NO 
 RMS     Displacement     0.117767     0.001200     NO 
 Predicted change in Energy=-2.140405D-02
 GradGradGradGradGradGradGradGradGradGradGradGradGradGradGradGradGradGrad

                          Input orientation:                          
 ---------------------------------------------------------------------
 Center     Atomic      Atomic             Coordinates (Angstroms)
 Number     Number       Type             X           Y           Z
 ---------------------------------------------------------------------
      1          6           0       -0.945943    2.482139   -0.067309
      2          6           0       -0.620548    1.126232   -0.092859
      3          6           0        0.704743    0.715862   -0.026923
      4          6           0        1.755691    1.645486    0.066842
      5          6           0        1.411908    3.017821    0.091872
      6          6           0        0.078392    3.419273    0.025332
      7         17           0       -1.867298   -0.092562   -0.208160
      8         17           0       -2.608723    3.025919   -0.148872
      9          7           0        3.029325    1.107376    0.126123
     10          6           0        4.119139    1.895959    0.211678
     11          8           0        4.181299    3.143340    0.247802
     12          7           0        5.271025    1.136878    0.260467
     13          1           0        0.929936   -0.345544   -0.048603
     14          1           0        2.161868    3.790301    0.162972
     15          1           0       -0.166481    4.476540    0.046030
     16          1           0        5.144400    0.128550    0.229358
     17          6           0        6.605903    1.565264    0.350127
     18          6           0        7.019508    2.905634    0.397121
     19          6           0        8.376525    3.215368    0.486147
     20          6           0        9.326918    2.201117    0.528840
     21          6           0        8.932872    0.868331    0.482740
     22          6           0        7.581017    0.558257    0.393919
     23         17           0       11.027693    2.602627    0.640889
     24          1           0        6.317848    3.724253    0.366207
     25          1           0        8.684886    4.255233    0.521756
     26          1           0        9.669511    0.071873    0.515628
     27          1           0        7.282314   -0.485417    0.358647
 ---------------------------------------------------------------------
                    Distance matrix (angstroms):
                    1          2          3          4          5
     1  C    0.000000
     2  C    1.394640   0.000000
     3  C    2.417877   1.388937   0.000000
     4  C    2.831397   2.437547   1.406230   0.000000
     5  C    2.423171   2.782645   2.411060   1.414962   0.000000
     6  C    1.391425   2.400110   2.775514   2.441593   1.394223
     7  Cl   2.738215   1.747323   2.702183   4.027714   4.529646
     8  Cl   1.751339   2.750416   4.041076   4.582602   4.027841
     9  N    4.210718   3.656484   2.362284   1.383915   2.503400
    10  C    5.106515   4.811429   3.620449   2.381092   2.932921
    11  O    5.179294   5.219435   4.249066   2.856552   2.776615
    12  N    6.369290   5.902167   4.594646   3.557211   4.296412
    13  H    3.393386   2.138243   1.085249   2.158564   3.400626
    14  H    3.379764   3.860641   3.407557   2.185053   1.078990
    15  H    2.144304   3.383790   3.860965   3.421995   2.149715
    16  H    6.536029   5.859507   4.485663   3.716296   4.722106
    17  C    7.618746   7.253314   5.973888   4.859140   5.399462
    18  C    7.990210   7.859822   6.697102   5.422622   5.617022
    19  C    9.367623   9.254570   8.084987   6.817316   6.978565
    20  C   10.293981  10.024668   8.766799   7.605633   7.969023
    21  C   10.024865   9.574218   8.245308   7.231105   7.831857
    22  C    8.753462   8.235606   6.890943   5.934937   6.648202
    23  Cl  11.995167  11.764338  10.515187   9.338934   9.640390
    24  H    7.381967   7.423057   6.380588   5.022367   4.964126
    25  H    9.810388   9.836640   8.747049   7.418320   7.390006
    26  H   10.901241  10.361816   9.004229   8.081226   8.777595
    27  H    8.757399   8.078149   6.697475   5.930384   6.841455
                    6          7          8          9         10
     6  C    0.000000
     7  Cl   4.021594   0.000000
     8  Cl   2.721335   3.205955   0.000000
     9  N    3.750071   5.052575   5.961880   0.000000
    10  C    4.322365   6.322017   6.831613   1.347916   0.000000
    11  O    4.118188   6.874917   6.802613   2.342435   1.249451
    12  N    5.676976   7.258566   8.113351   2.245916   1.380372
    13  H    3.860628   2.813179   4.888653   2.559090   3.906801
    14  H    2.120726   5.607900   4.841494   2.819917   2.724301
    15  H    1.085451   4.882016   2.847251   4.644444   5.005335
    16  H    6.044413   7.028814   8.285453   2.332874   2.043333
    17  C    6.793470   8.651890   9.343010   3.612720   2.512474
    18  C    6.970018   9.398450   9.644450   4.385058   3.076683
    19  C    8.313419  10.787047  11.005218   5.758976   4.465592
    20  C    9.341984  11.450529  11.983286   6.404540   5.226345
    21  C    9.225960  10.864821  11.758509   5.919137   4.929658
    22  C    8.038075   9.489822  10.498323   4.592510   3.715812
    23  Cl  10.996955  13.200974  13.665824   8.153199   6.957854
    24  H    6.256198   9.049562   8.968648   4.209521   2.863714
    25  H    8.661235  11.436113  11.380095   6.484666   5.148628
    26  H   10.170302  11.560660  12.646066   6.731720   5.850325
    27  H    8.200865   9.175565  10.508076   4.547414   3.962099
                   11         12         13         14         15
    11  O    0.000000
    12  N    2.283321   0.000000
    13  H    4.778235   4.597625   0.000000
    14  H    2.122229   4.088645   4.320606   0.000000
    15  H    4.552068   6.384810   4.946067   2.430187   0.000000
    16  H    3.164943   1.016723   4.250146   4.723169   6.866155
    17  C    2.894737   1.404796   6.002231   4.973456   7.377885
    18  C    2.852058   2.490857   6.917494   4.943090   7.364065
    19  C    4.202609   3.743686   8.271502   6.249557   8.646804
    20  C    5.238718   4.201774   8.793647   7.348287   9.774216
    21  C    5.273359   3.678403   8.111893   7.381508   9.798373
    22  C    4.273417   2.385094   6.726780   6.314002   8.688941
    23  Cl   6.878954   5.952510  10.541908   8.957781  11.365516
    24  H    2.217277   2.793121   6.764976   4.161470   6.535669
    25  H    4.646897   4.631075   9.035026   6.549401   8.866904
    26  H    6.294928   4.532772   8.767711   8.385451  10.787416
    27  H    4.774564   2.585878   6.366955   6.673757   8.955629
                   16         17         18         19         20
    16  H    0.000000
    17  C    2.052978   0.000000
    18  C    3.355051   1.403521   0.000000
    19  C    4.476719   2.424139   1.394760   0.000000
    20  C    4.677465   2.800031   2.416161   1.390603   0.000000
    21  C    3.868333   2.432712   2.796229   2.412077   1.390581
    22  C    2.479683   1.402437   2.413603   2.775171   2.401117
    23  Cl   6.395588   4.551142   4.027007   2.725452   1.751114
    24  H    3.784809   2.178180   1.078619   2.124030   3.376522
    25  H    5.445185   3.404050   2.147192   1.085206   2.152127
    26  H    4.534511   3.412228   3.881592   3.399153   2.156669
    27  H    2.228081   2.159374   3.401437   3.861265   3.380361
                   21         22         23         24         25
    21  C    0.000000
    22  C    1.389801   0.000000
    23  Cl   2.724164   4.014974   0.000000
    24  H    3.874045   3.408796   4.849344   0.000000
    25  H    3.396192   3.860375   2.869503   2.430844   0.000000
    26  H    1.085386   2.147833   2.874903   4.959420   4.297676
    27  H    2.138312   1.086151   4.862463   4.318747   4.946471
                   26         27
    26  H    0.000000
    27  H    2.456405   0.000000
 Stoichiometry    C13H8Cl3N2O(1-)
 Framework group  C1[X(C13H8Cl3N2O)]
 Deg. of freedom    75
 Full point group                 C1      NOp   1
 Largest Abelian subgroup         C1      NOp   1
 Largest concise Abelian subgroup C1      NOp   1
                         Standard orientation:                         
 ---------------------------------------------------------------------
 Center     Atomic      Atomic             Coordinates (Angstroms)
 Number     Number       Type             X           Y           Z
 ---------------------------------------------------------------------
      1          6           0        4.506276   -0.742686    0.003790
      2          6           0        4.235404    0.625380   -0.002751
      3          6           0        2.925314    1.086694   -0.003720
      4          6           0        1.835651    0.197826    0.001556
      5          6           0        2.124263   -1.187373    0.008202
      6          6           0        3.442936   -1.640094    0.009305
      7         17           0        5.532789    1.795800   -0.009803
      8         17           0        6.148803   -1.350380    0.005352
      9          7           0        0.582400    0.784837    0.000596
     10          6           0       -0.540112    0.038617   -0.000644
     11          8           0       -0.652267   -1.205787   -0.003399
     12          7           0       -1.662795    0.841740    0.001345
     13          1           0        2.742828    2.156479   -0.008771
     14          1           0        1.342227   -1.930755    0.013074
     15          1           0        3.645271   -2.706507    0.014656
     16          1           0       -1.495837    1.844649    0.006182
     17          6           0       -3.016137    0.465024   -0.000139
     18          6           0       -3.483072   -0.858460   -0.015436
     19          6           0       -4.853894   -1.115755   -0.015519
     20          6           0       -5.765416   -0.065670   -0.000519
     21          6           0       -5.318337    1.250998    0.014300
     22          6           0       -3.952662    1.508834    0.014293
     23         17           0       -7.484035   -0.401456   -0.000528
     24          1           0       -2.812830   -1.703470   -0.027871
     25          1           0       -5.203608   -2.142999   -0.027493
     26          1           0       -6.024438    2.075223    0.026015
     27          1           0       -3.612454    2.540262    0.026140
 ---------------------------------------------------------------------
 Rotational constants (GHZ):      1.2347837      0.0745834      0.0703354
 Basis read from rwf:  (6D, 7F)
 There are   389 symmetry adapted cartesian basis functions of A   symmetry.
 There are   389 symmetry adapted basis functions of A   symmetry.
   389 basis functions,   712 primitive gaussians,   389 cartesian basis functions
    80 alpha electrons       80 beta electrons
       nuclear repulsion energy      1547.8893012053 Hartrees.
 NAtoms=   27 NActive=   27 NUniq=   27 SFac= 1.00D+00 NAtFMM=   60 NAOKFM=F Big=F
 Integral buffers will be    131072 words long.
 Raffenetti 2 integral format.
 Two-electron integral symmetry is turned on.
 ------------------------------------------------------------------------------
 Polarizable Continuum Model (PCM)
 =================================
 Model                : PCM (using non-symmetric T matrix).
 Atomic radii         : SMD-Coulomb.
 Polarization charges : Total charges.
 Charge compensation  : None.
 Solution method      : On-the-fly selection.
 Cavity type          : VdW (van der Waals Surface) (Alpha=1.000).
 Cavity algorithm     : GePol (No added spheres)
                        Default sphere list used, NSphG=   27.
                        Lebedev-Laikov grids with approx.  5.0 points / Ang**2.
                        Smoothing algorithm: York/Karplus (Gamma=1.0000).
                        Polarization charges: spherical gaussians, with
                                              point-specific exponents (IZeta= 3).
                        Self-potential: point-specific (ISelfS= 7).
                        Self-field    : sphere-specific E.n sum rule (ISelfD= 2).
 1st derivatives      : Analytical E(r).r(x)/FMM algorithm (CHGder, D1EAlg=3).
                        Cavity 1st derivative terms included.
 Solvent              : Water, Eps=  78.355300 Eps(inf)=   1.777849
[...]
 72,0.00020461,-0.00001895,0.00100228,-0.00125880,0.00023943,-0.0007288
 3,0.00110549,-0.00038862,-0.00522599,0.00533566,-0.00184485,-0.0000002
 9,-0.00000080,0.00000021,-0.00000490,-0.00001616,0.00000457,-0.0000019
 4,0.00000113,-0.00000002,0.00050160,0.00035244,-0.00003026,0.02232173,
 -0.07880389,0.02121202,0.06599563,0.05690633,-0.01038859,0.07199182,-0
 .23545529,0.05154327,-0.03138148,0.62591777,-0.00000325,-0.00000407,-0
 .00000256,-0.00000648,0.00000235,-0.00001115,-0.00000088,-0.00000996,0
 .00001939,0.00004275,0.00002418,-0.00003359,-0.00001819,-0.00001159,0.
 00001060,0.00000491,0.00001361,0.00000098,0.00000296,0.00000128,0.0000
 0271,0.00000378,-0.00000423,0.00000342,-0.00004384,-0.00006334,0.,-0.0
 0019349,0.00027004,-0.00012248,0.00020297,-0.00034753,-0.00008011,0.00
 128890,-0.00180178,-0.00025963,-0.00000027,-0.00000087,0.00000753,0.00
 000185,0.00000323,0.00000268,0.,-0.00000145,0.00000152,-0.00014910,-0.
 00005605,0.00005823,-0.00584808,0.02117803,-0.01102869,-0.02078621,-0.
 01363395,0.00940006,-0.02714781,0.05521617,-0.07718029,0.02975700,-0.1
 4226169,0.15033115,0.00001278,0.00001131,0.00001920,-0.00003017,-0.000
 02326,-0.00005026,0.00010984,-0.00000632,0.00004126,-0.00042214,0.0001
 0244,-0.00012111,0.00012365,-0.00007981,-0.00000558,-0.00003466,0.0000
 0719,0.00000561,0.00002192,0.00001837,0.00001314,0.00005715,-0.0000218
 6,-0.00000095,0.00078026,-0.00004087,0.00023202,-0.00286606,0.00165698
 ,-0.00062856,0.00025564,-0.00143726,0.00044774,0.00963044,-0.00052166,
 0.00008352,-0.00000421,-0.00000524,0.00000725,0.00000325,0.00001641,-0
 .00000874,0.00000954,-0.00000631,-0.00000166,-0.00016775,-0.00046470,0
 .00019572,-0.05058945,0.05721050,-0.01817783,-0.03868159,-0.03027396,0
 .00646979,0.06022687,-0.00104047,0.00288379,-0.12264278,-0.00990278,-0
 .00037418,0.73436923,-0.00000976,0.00001220,0.00000515,0.00000661,-0.0
 0001951,0.00000035,0.00003034,-0.00006023,0.00001298,0.00007448,0.0000
 6742,-0.00003322,0.00004376,0.00000589,-0.00000580,0.00000625,-0.00000
 251,-0.00000371,0.00001782,0.00001165,0.00000627,0.00002300,-0.0000084
 8,-0.00000143,0.00060079,-0.00043897,0.00003218,-0.00026802,0.00210405
 ,0.00013703,0.00059468,-0.00074886,0.00019197,0.00580885,-0.00834897,0
 .00379502,-0.00000107,0.00000479,-0.00000346,0.00000460,0.00001841,-0.
 00000578,0.00000722,-0.00000384,0.00000094,-0.00002130,-0.00039329,-0.
 00011154,0.00403261,0.06358648,-0.01664324,-0.03960610,-0.03506823,0.0
 0709250,0.05699967,-0.04772240,0.01755496,-0.08479048,-0.31187487,0.06
 444320,-0.03247692,0.68303388,0.00000307,-0.00000105,-0.00001041,-0.00
 000571,-0.00001090,0.00003345,-0.00004928,0.00002621,-0.00000510,-0.00
 001960,-0.00009286,-0.00029542,0.00001179,-0.00000214,-0.00000613,0.00
 000329,-0.00001998,0.00002837,-0.00000955,-0.00000337,-0.00000651,-0.0
 0000755,0.00000417,-0.00000215,-0.00004753,0.00012233,-0.00016575,-0.0
 0017933,0.00013186,0.00238566,-0.00014569,0.00006543,-0.00020919,-0.00
 135597,0.00338823,0.00359109,0.00000343,0.00000665,-0.00001094,0.00000
 745,0.00001028,-0.00001514,-0.00000064,0.00000146,-0.00000155,0.000043
 06,-0.00003258,-0.00075822,-0.00376267,-0.01393717,0.00544537,0.008947
 72,0.00752903,-0.00354344,-0.01285860,0.01473734,0.00187947,0.02005007
 ,0.06812927,-0.07743184,0.03861194,-0.15168177,0.17527895,-0.00011641,
 -0.00003616,-0.00005629,0.00026952,0.00001637,0.00017188,-0.00094548,0
 .00003671,-0.00016379,0.00233669,-0.00124569,0.00038174,-0.00069713,0.
 00055839,0.00010339,0.00021618,0.00002534,-0.00003851,-0.00016441,-0.0
 0011420,-0.00008527,-0.00029978,0.00011085,-0.00000396,-0.00724026,0.0
 0022404,-0.00108873,0.01229314,-0.01137282,0.00413128,-0.00150571,0.00
 518292,-0.00162732,-0.07057851,0.03054604,-0.01178874,0.00001694,0.000
 01503,-0.00003037,-0.00001814,-0.00006480,0.00001690,-0.00005617,0.000
 03302,0.00001261,0.00057313,0.00363749,-0.00117082,-0.19587445,0.05131
 407,-0.02022722,0.06001146,0.04425594,-0.00947804,-0.06675146,0.023534
 12,-0.00953117,0.00038139,-0.09543565,0.02564459,-0.35940348,-0.019411
 79,-0.00968112,0.72433766,-0.00000060,0.00001039,0.00001623,-0.0000163
 2,-0.00004149,-0.00005429,0.00000931,0.00002370,0.00003983,-0.00045683
 ,-0.00007983,-0.00025898,0.00011246,-0.00004009,-0.00001252,-0.0000130
 7,0.00000381,0.00002884,0.00000645,0.00000964,0.00000692,0.00004842,-0
 .00001571,0.00000062,-0.00013174,0.00021746,0.00018853,-0.00427955,-0.
 00080260,0.00068435,0.00073979,-0.00028059,0.00000984,0.00006046,0.014
 58650,-0.00202566,-0.00000426,-0.00000649,0.00000564,0.00000403,0.0000
 1089,-0.00000225,0.00000642,-0.00000446,-0.00000126,-0.00230933,0.0016
 0640,-0.00093660,0.11798553,-0.22151470,0.04756225,0.00452301,-0.03780
 693,0.01228211,0.01506810,-0.00857377,0.00246420,-0.03144247,0.0074441
 4,-0.00171817,-0.08992277,-0.13680779,0.01714942,0.04868507,0.68683410
 ,-0.00001513,-0.00000643,-0.00002327,0.00000612,0.00000629,0.00002479,
 -0.00006880,0.00001604,-0.00002670,0.00028711,-0.00011394,-0.00012403,
 -0.00005637,0.00003657,0.00001292,0.00002667,-0.00000213,0.00002129,-0
 .00000718,-0.00000867,-0.00000144,-0.00002660,0.00000831,0.00000196,-0
 .00030038,-0.00003122,0.00002261,0.00156774,0.00026626,0.00209525,-0.0
 0025754,0.00020748,-0.00055208,-0.00401405,-0.00017917,0.00887196,0.00
 000061,0.00000325,0.00000031,0.00000004,-0.00000447,0.00000138,-0.0000
 0305,0.00000039,0.00000280,0.00079060,-0.00058570,-0.00085276,-0.03849
 884,0.04406988,-0.08264208,0.00147164,0.01414748,0.00238022,-0.0073195
 1,0.00291409,-0.00342351,0.00819423,-0.00498087,0.00846507,0.00960388,
 0.02068845,-0.06237271,0.01630781,-0.14940785,0.16908283,-0.00006547,-
 0.00000621,-0.00002062,0.00013177,-0.00000752,0.00006143,-0.00037951,-
 0.00004862,-0.00006094,0.00108259,-0.00045311,0.00018705,-0.00026230,0
 .00027138,0.00004238,0.00010843,0.00000241,-0.00000823,-0.00005715,-0.
 00004196,-0.00003266,-0.00011001,0.00004198,-0.00000305,-0.00257475,-0
 .00041764,-0.00035733,0.00421024,-0.00196444,0.00102981,-0.00106205,0.
 00089435,-0.00036647,-0.00678525,-0.00021165,-0.00014557,0.00000516,0.
 00000804,-0.00001274,-0.00000550,-0.00002315,-0.00000095,-0.00001825,0
 .00001058,0.00000740,-0.00010533,0.00030351,-0.00012709,0.00424764,0.0
 0101646,-0.00003808,-0.00003971,0.00491108,-0.00158660,-0.04006250,-0.
 01332576,0.00154315,-0.15368526,-0.02864004,0.00083978,-0.02876649,-0.
 00526896,-0.00009398,0.00085595,-0.00280767,0.00059324,0.22347005,-0.0
 0001486,0.00000238,-0.00000220,0.00003485,-0.00000581,0.00001360,-0.00
 009327,-0.00001155,-0.00001373,0.00025186,-0.00010495,0.00004550,-0.00
 005902,0.00006093,0.00001135,0.00002059,0.00000290,-0.00000666,-0.0000
 1298,-0.00000894,-0.00000770,-0.00002565,0.00000962,-0.00000058,-0.000
 62179,-0.00006924,-0.00007495,0.00099753,-0.00060732,0.00024687,-0.000
 04891,0.00029887,-0.00010465,-0.00166883,0.00002097,-0.00023716,0.0000
 0145,0.00000180,-0.00000252,-0.00000131,-0.00000560,0.00000116,-0.0000
 0432,0.00000234,0.00000135,0.00004151,0.00006850,-0.00002096,0.0005330
 2,0.00206983,-0.00067818,-0.00081226,-0.00273979,0.00197793,0.01560233
 ,0.00677123,-0.00044390,-0.02865531,-0.04420868,0.00542246,-0.03411701
 ,-0.00415679,0.00012759,0.00265095,-0.00383801,0.00244256,0.04646716,0
 .04534701,0.00000462,0.00000848,0.00000559,0.00000609,-0.00000579,-0.0
 0000455,0.00000214,0.00000009,-0.00000478,-0.00000876,0.00000082,0.000
 03301,0.00001423,-0.00000140,-0.00000609,-0.00001315,-0.00000011,-0.00
 000638,0.00000083,0.00000037,-0.00000010,0.00000157,-0.00000075,0.0000
 0020,0.00001973,0.00001965,0.00007293,-0.00005589,0.00003839,-0.000185
 62,-0.00004358,-0.00003459,-0.00000572,0.00015717,-0.00018398,-0.00057
 073,-0.00000070,-0.00000114,0.00000054,-0.00000301,-0.00000521,0.00000
 289,0.00000005,0.00000008,-0.00000090,-0.00001889,-0.00001097,0.000019
 28,0.00008742,-0.00064557,-0.00032359,-0.00001955,0.00226165,0.0040849
 2,-0.00635851,-0.00184100,0.00256350,0.00082722,0.00542178,-0.01987432
 ,0.00777830,0.00150249,0.00221824,-0.00091234,0.00216620,0.00397125,-0
 .00197557,-0.00713388,0.01222140,0.00000861,-0.00000015,-0.00000526,-0
 .00002348,-0.00000041,-0.00000025,0.00005087,0.00001109,0.00001315,-0.
 00021055,0.00004836,-0.00005785,0.00002578,-0.00002566,0.00002075,-0.0
 0001031,0.00000041,-0.00000541,0.00000771,0.00000616,0.00000526,0.0000
 1447,-0.00000584,0.00000201,0.00028825,0.00046665,-0.00007863,-0.00036
 168,-0.00292256,0.00071448,-0.00697979,0.00162119,-0.00031094,-0.00096
 527,0.00159562,-0.00025109,-0.00000062,0.00000062,-0.00000112,-0.00001
 356,-0.00000041,0.00000486,0.00000327,-0.00000191,-0.00000090,0.000011
 68,0.00011796,-0.00003912,0.01286670,-0.00814714,0.00260259,-0.1908519
 9,0.14819802,-0.04821890,-0.01594574,0.01959394,-0.00633577,-0.0024768
 3,-0.00233187,0.00012978,-0.00000895,-0.00058935,0.00020830,-0.0005670
 4,-0.00239884,0.00031028,-0.00125412,0.00040704,-0.00018206,0.20437172
 ,0.00002047,0.00002441,0.00001717,-0.00001395,-0.00001657,-0.00002708,
 0.00007918,0.00000128,0.00001697,-0.00037090,0.00016284,-0.00004388,0.
 00008501,-0.00009275,-0.00003626,-0.00003965,0.00001163,-0.00001271,0.
 00001996,0.00001593,0.00001129,0.00003499,-0.00001436,0.00000436,0.000
 50907,0.00081372,0.00003510,-0.00056026,-0.00334171,0.00058704,0.00337
 694,0.00223194,-0.00039450,0.00028245,0.00145675,-0.00133757,-0.000001
 13,-0.00000391,0.00000421,0.00001608,0.00002424,0.00001945,0.00000676,
 -0.00000222,-0.00000515,0.00000709,-0.00005849,-0.00006552,0.02038455,
 -0.01388896,0.00611021,0.14443286,-0.21144859,0.05514671,-0.00779489,0
 .01003236,-0.00227780,-0.00201977,0.00151864,0.00151727,-0.00116537,-0
 .00048948,-0.00013707,-0.00273857,-0.00374975,0.00255632,-0.00085315,0
 .00017718,-0.00000049,-0.15527514,0.21709778,0.00001158,0.00004099,0.0
 0001637,0.00003864,-0.00002550,-0.00001538,-0.00003433,-0.00000716,-0.
 00002921,0.00008915,-0.00005193,0.00011399,0.00002341,0.00003022,0.000
 00029,-0.00004482,-0.00000600,-0.00002770,-0.00000369,-0.00000421,-0.0
 0000165,-0.00000679,-0.00000124,0.00000234,-0.00019450,-0.00003407,0.0
 0037984,0.00016374,0.00048113,-0.00069190,-0.00090428,-0.00044699,-0.0
 0007724,0.00005487,-0.00124088,-0.00294864,-0.00000283,-0.00000609,0.0
 0000473,-0.00001196,-0.00002794,0.00000915,-0.00000138,0.00000076,-0.0
 0000117,-0.00000771,-0.00005757,-0.00030020,-0.00511266,0.00469966,0.0
 0317282,-0.04717364,0.05536111,-0.05374438,0.00119435,-0.00096048,0.00
 338007,0.00007048,0.00150240,0.00700495,0.00035729,-0.00010102,-0.0007
 3475,0.00040362,0.00257223,0.00541913,0.00015609,0.00006107,0.00032610
 ,0.05098353,-0.06029044,0.04417194,-0.00000788,0.00000045,-0.00000371,
 0.00001619,-0.00000473,0.00000953,-0.00005112,-0.00000271,-0.00000642,
 0.00013506,-0.00004755,0.00000272,-0.00003868,0.00003113,0.00000968,0.
 00001205,0.00000254,0.00000023,-0.00000793,-0.00000480,-0.00000458,-0.
 00001346,0.00000505,-0.00000039,-0.00039971,-0.00001565,-0.00004504,0.
 00067581,-0.00030632,0.00015876,-0.00013838,0.00017344,-0.00006549,-0.
 00015927,-0.00157047,0.00038161,0.00000087,0.00000079,-0.00000172,-0.0
 0000101,-0.00000334,-0.00000084,-0.00000320,0.00000160,0.00000092,-0.0
 0040882,-0.00000346,0.00000392,-0.00493666,-0.00036103,-0.00049615,-0.
 00427060,-0.02798818,0.00723372,-0.07972447,-0.07704359,0.01903095,0.0
 0779264,0.02034866,-0.00534275,-0.00289216,0.00301055,-0.00124041,-0.0
 0115355,0.00019590,-0.00006063,0.00139984,0.00092652,0.00004342,0.0014
 8432,0.00043504,0.00018695,0.08195741,-0.00000693,-0.00000137,-0.00000
 086,0.00001242,0.00000053,0.00000393,-0.00003703,-0.00000478,-0.000004
 68,0.00010475,-0.00004212,0.00001927,-0.00002619,0.00002641,0.00000226
 ,0.00001108,0.00000015,-0.00000022,-0.00000581,-0.00000420,-0.00000296
 ,-0.00001075,0.00000413,-0.00000039,-0.00026164,-0.00003809,-0.0000426
 0,0.00042459,-0.00019098,0.00010560,-0.00009967,0.00008566,-0.00001282
 ,-0.00044080,-0.00018152,0.00005646,0.00000058,0.00000032,-0.00000086,
 -0.00000040,-0.00000189,0.00000078,-0.00000211,0.00000141,0.00000094,-
 0.00004380,0.00004296,-0.00006636,-0.00005599,0.00226580,0.00142121,-0
 .00030426,-0.00128324,0.00148343,-0.07534624,-0.31069741,0.07078941,-0
 .00855276,-0.01503027,0.00464401,0.00367681,-0.00075314,0.00192777,0.0
 0031200,0.00051299,-0.00039687,-0.00035766,0.00055129,-0.00093126,0.00
 014823,0.00032394,-0.00137720,0.08129540,0.32515609,0.00000035,-0.0000
 0196,0.00000035,-0.00000410,0.00000179,-0.00000204,0.00001040,0.000000
 13,0.00000107,-0.00002730,0.00001271,0.00000704,0.00000376,-0.00000461
 ,0.00000121,0.00000123,0.00000092,-0.00000029,0.00000057,0.00000068,0.
 00000071,0.00000265,-0.00000101,-0.00000007,0.00005758,0.00000231,-0.0
 0001802,-0.00008364,0.00004411,0.00000981,0.00001541,0.00000421,0.0000
 7483,0.00010852,0.00000900,0.00009233,-0.00000011,-0.00000062,0.000000
 78,0.00000035,0.00000045,0.00000012,0.00000046,-0.00000041,0.00000009,
 0.00000447,-0.00006476,-0.00017734,-0.00060580,0.00139370,0.00701621,-
 0.00034381,0.00011552,0.00414156,0.01858885,0.07071436,-0.05579049,0.0
 0255175,0.00605355,0.00196552,-0.00142479,0.00189007,0.00502816,-0.000
 08591,-0.00041012,-0.00087858,0.00037196,-0.00084071,-0.00242711,0.000
 27960,-0.00136807,-0.00435261,-0.01959441,-0.07770604,0.04568171,-0.00
 000983,-0.00000123,-0.00000214,0.00002099,-0.00000340,0.00000693,-0.00
 007172,0.00000148,-0.00000823,0.00015056,-0.00009513,0.00000893,-0.000
 04381,0.00004084,0.00000573,0.00001606,0.00000267,0.00000093,-0.000011
 52,-0.00000760,-0.00000569,-0.00001792,0.00000676,-0.00000063,-0.00054
 730,0.00001536,-0.00006223,0.00058417,-0.00070357,0.00029070,-0.000085
 56,0.00023826,-0.00008013,-0.00145714,0.00143722,-0.00049493,0.0000010
 9,0.00000044,-0.00000202,-0.00000052,-0.00000309,-0.00000016,-0.000003
 70,0.00000214,0.00000099,0.00005532,0.00007259,-0.00001678,-0.00313931
 ,-0.00270968,0.00020486,-0.00058806,-0.00068697,0.00021069,0.00033033,
 -0.00241438,0.00039151,0.00779897,-0.00830044,0.00248990,-0.19393699,0
 .14048019,-0.04599210,-0.01513834,0.02132149,-0.00676335,0.00119194,-0
 .00048978,0.00037694,0.00007620,0.00014781,-0.00000051,0.00058079,-0.0
 0036324,0.00011598,0.20286868,0.00000129,0.00000021,0.00000182,-0.0000
 0174,-0.00000017,-0.00000425,0.00000444,0.00000236,0.00000224,-0.00003
 582,0.00000281,-0.00000582,0.00000577,-0.00000580,-0.00000230,-0.00000
 315,0.00000083,0.00000107,0.00000052,0.00000045,0.00000064,0.00000257,
 -0.00000102,-0.00000011,0.00001445,0.00002983,0.00000184,-0.00020242,-
 0.00005904,-0.00005109,0.00003138,-0.00001389,0.00001866,0.00007969,0.
 00053900,-0.00012221,-0.00000019,-0.00000044,0.00000060,-0.00000008,0.
 00000037,0.00000009,0.00000023,-0.00000027,-0.00000019,0.00002907,-0.0
 0002459,0.00001737,-0.00281564,0.00090481,0.00174344,-0.00084020,-0.00
 004156,-0.00029404,-0.00311286,-0.00385669,0.00240963,0.02038889,-0.01
 461882,0.00587945,0.13906113,-0.19988044,0.05112020,-0.00677622,0.0097
 3903,-0.00186957,0.00067775,0.00052685,-0.00074040,0.00011887,0.000011
 62,-0.00020415,0.00100519,-0.00063887,0.00029076,-0.14804868,0.2070979
 3,-0.00000083,0.00000039,0.00000230,0.00000336,0.00000055,-0.00000134,
 -0.00000423,-0.00000426,0.00000117,0.00001672,-0.00000040,0.00001308,-
 0.00000283,0.00000526,-0.00000065,-0.00000027,0.00000027,-0.00000118,-
 0.00000084,-0.00000038,-0.00000037,-0.00000130,0.00000031,-0.00000017,
 -0.00003205,-0.00001106,-0.00002561,0.00010075,-0.00007497,-0.00017705
 ,-0.00001557,0.00002463,0.00003052,-0.00009281,-0.00004019,0.00014693,
 -0.00000041,-0.00000019,0.00000030,-0.00000108,-0.00000115,0.00000096,
 -0.00000017,0.00000010,0.00000002,-0.00000684,0.00001272,0.00001768,0.
 00022236,0.00175804,0.00734786,0.00024546,-0.00028427,-0.00089829,0.00
 059431,0.00244255,0.00490882,-0.00533389,0.00448183,0.00175201,-0.0456
 1078,0.05123637,-0.05354554,0.00091767,-0.00051789,0.00430193,0.000037
 58,-0.00084267,-0.00239336,0.00001037,-0.00020328,-0.00069641,-0.00025
 848,0.00022489,0.00017454,0.04902694,-0.05683338,0.04343451,0.00000278
 ,-0.00000149,0.00000054,-0.00000807,0.00000166,-0.00000114,0.00002678,
 0.00000417,0.00000277,-0.00005977,0.00003327,-0.00001158,0.00001727,-0
 .00001261,-0.00000673,-0.00000491,-0.00000583,0.00000543,0.00000355,0.
 00000246,0.00000202,0.00000626,-0.00000129,-0.00000030,0.00018888,-0.0
 0001472,0.00002314,-0.00014596,0.00024982,-0.00003797,-0.00008924,-0.0
 0017082,0.00003291,0.00214641,0.00202645,-0.00035624,-0.00000045,0.000
 00012,0.00000047,0.00000035,0.00000036,-0.00000141,0.00000118,-0.00000
 063,-0.00000046,-0.00121973,-0.00007877,-0.00004767,0.00784792,0.01971
 901,-0.00520235,-0.00272471,0.00275255,-0.00114465,-0.00120418,0.00023
 276,-0.00008284,-0.00352551,-0.00018067,-0.00049462,-0.00515369,-0.029
 29767,0.00755962,-0.08078175,-0.07498299,0.01823146,-0.00146998,-0.001
 30952,0.00027226,0.00046036,0.00099453,-0.00023460,0.00015193,-0.00007
 059,0.00005596,0.00137664,0.00041572,0.00018685,0.08415766,0.00000185,
 0.00000321,-0.00000390,0.00000053,0.00000004,0.00000196,0.00000706,-0.
 00000256,-0.00000541,-0.00000112,0.00000994,0.00004515,0.00000057,0.00
 000331,-0.00000499,-0.00000243,-0.00000060,-0.00000062,0.00000154,0.00
 000050,0.00000013,0.00000060,-0.00000045,0.00000098,0.00005824,-0.0000
 1896,0.00001280,0.00028045,0.00006835,-0.00024485,-0.00000711,0.000300
 73,-0.00003239,-0.00170571,0.00058715,-0.00111693,-0.00000008,0.000000
 28,0.00000157,-0.00000113,-0.00000206,0.00000196,-0.00000006,-0.000000
 31,0.00000003,0.00129566,-0.00005340,0.00020745,-0.00836715,-0.0148075
 3,0.00489773,0.00364246,-0.00129251,0.00194891,0.00077700,0.00030545,-
 0.00025490,-0.00064635,0.00245705,0.00129937,-0.00025457,-0.00206699,0
 .00144163,-0.07394246,-0.30743683,0.07022353,-0.00017716,-0.00015502,0
 .00011655,-0.00063487,-0.00079746,0.00009329,-0.00008044,-0.00010381,-
 0.00013596,0.00005995,0.00028549,-0.00137383,0.07969472,0.32271701,0.0
 0000614,0.00000566,-0.00000144,-0.00000290,-0.00000110,-0.00000364,0.0
 0002074,0.00000326,-0.00000543,-0.00002927,0.00003838,0.00011874,-0.00
 000012,-0.00000148,-0.00001283,-0.00000845,0.00000553,-0.00000386,0.00
 000157,0.00000079,0.00000024,0.00000337,-0.00000255,0.00000088,-0.0000
 1610,-0.00001452,0.00004557,-0.00006289,-0.00023304,-0.00087371,-0.000
 00242,-0.00003213,0.00019998,0.00063533,-0.00066914,-0.00256911,-0.000
 00068,-0.00000265,0.00000357,-0.00000205,-0.00000547,0.00000560,-0.000
 00076,-0.00000024,-0.00000002,-0.00028742,-0.00009653,0.00001836,0.002
 42345,0.00626400,0.00312271,-0.00136813,0.00192538,0.00466931,-0.00024
 597,-0.00028814,-0.00074692,-0.00036352,0.00131825,0.00699883,-0.00034
 600,0.00000105,0.00322603,0.01787811,0.07016838,-0.05377854,-0.0000399
 8,0.00005902,0.00028341,0.00020232,0.00017372,-0.00038048,0.00005861,-
 0.00013683,-0.00054947,0.00029787,-0.00136031,-0.00439265,-0.01875087,
 -0.07711928,0.04462487\\0.00001234,0.00000600,0.00001378,-0.00000055,-
 0.00000768,-0.00000444,-0.00000184,-0.00000006,-0.00000292,-0.00000934
 ,0.00001524,0.00000726,0.00001663,-0.00001839,0.00000402,-0.00001847,-
 0.00000412,0.00000384,0.00000111,0.00000323,-0.00000111,-0.00000401,-0
 .00000462,0.00000880,0.00000457,-0.00000679,-0.00000104,-0.00001102,0.
 00001167,-0.00000662,-0.00000164,-0.00000348,0.00000539,0.00000807,-0.
 00000982,0.00000313,0.00000133,0.00000215,-0.00000598,-0.00000348,-0.0
 0000321,0.00000840,0.00000141,-0.00000637,0.00001386,0.00000278,-0.000
 00007,-0.00001279,-0.00000016,0.00000365,-0.00000102,-0.00000481,-0.00
 000029,0.00000094,0.00000216,0.00000199,-0.00000072,0.00000363,0.00000
 625,-0.00000074,0.00000077,0.00000081,-0.00001042,0.00000111,0.0000011
 6,-0.00000956,-0.00000259,0.00000433,-0.00000221,0.00000078,0.00000420
 ,0.00000590,-0.00000300,0.00000548,0.00000624,0.00000084,-0.00000002,-
 0.00001089,0.00000336,-0.00000125,-0.00001110\\\@


 EDUCATION WITHOUT COMMON SENSE IS A LOAD OF BOOKS ON THE BACK OF AN ASS.
 Job cpu time:       0 days  4 hours 21 minutes 32.6 seconds.
 File lengths (MBytes):  RWF=    587 Int=      0 D2E=      0 Chk=     19 Scr=      1
 Normal termination of Gaussian 09 at Tue Oct  9 04:06:28 2018.
