 Entering Gaussian System, Link 0=/apps/gaussian/g09e01/g09/g09
 AtFile(1): /home/507/hio507/Basis/6-31pGd.gbs
 Initial command:
 /apps/gaussian/g09e01/g09/l1.exe "/jobfs/local/5875903.r-man2/Gau-44675.inp" -scrdir="/jobfs/local/5875903.r-man2/"
 Entering Link 1 = /apps/gaussian/g09e01/g09/l1.exe PID=     44676.
  
 Copyright (c) 1988,1990,1992,1993,1995,1998,2003,2009,2015,
            Gaussian, Inc.  All Rights Reserved.
  
 This is part of the Gaussian(R) 09 program.  It is based on
 the Gaussian(R) 03 system (copyright 2003, Gaussian, Inc.),
 the Gaussian(R) 98 system (copyright 1998, Gaussian, Inc.),
 the Gaussian(R) 94 system (copyright 1995, Gaussian, Inc.),
 the Gaussian 92(TM) system (copyright 1992, Gaussian, Inc.),
 the Gaussian 90(TM) system (copyright 1990, Gaussian, Inc.),
 the Gaussian 88(TM) system (copyright 1988, Gaussian, Inc.),
 the Gaussian 86(TM) system (copyright 1986, Carnegie Mellon
 University), and the Gaussian 82(TM) system (copyright 1983,
 Carnegie Mellon University). Gaussian is a federally registered
 trademark of Gaussian, Inc.
  
 This software contains proprietary and confidential information,
 including trade secrets, belonging to Gaussian, Inc.
  
 This software is provided under written license and may be
 used, copied, transmitted, or stored only in accord with that
 written license.
  
 The following legend is applicable only to US Government
 contracts under FAR:
  
                    RESTRICTED RIGHTS LEGEND
  
 Use, reproduction and disclosure by the US Government is
 subject to restrictions as set forth in subparagraphs (a)
 and (c) of the Commercial Computer Software - Restricted
 Rights clause in FAR 52.227-19.
  
 Gaussian, Inc.
 340 Quinnipiac St., Bldg. 40, Wallingford CT 06492
  
  
 ---------------------------------------------------------------
 Warning -- This program may not be used in any manner that
 competes with the business of Gaussian, Inc. or will provide
 assistance to any competitor of Gaussian, Inc.  The licensee
 of this program is prohibited from giving any competitor of
 Gaussian, Inc. access to this program.  By using this program,
 the user acknowledges that Gaussian, Inc. is engaged in the
 business of creating and licensing software in the field of
 computational chemistry and represents and warrants to the
 licensee that it is not a competitor of Gaussian, Inc. and that
 it will not use this program in any manner prohibited above.
 ---------------------------------------------------------------
  

 Cite this work as:
 Gaussian 09, Revision E.01,
 M. J. Frisch, G. W. Trucks, H. B. Schlegel, G. E. Scuseria, 
 M. A. Robb, J. R. Cheeseman, G. Scalmani, V. Barone, B. Mennucci, 
 G. A. Petersson, H. Nakatsuji, M. Caricato, X. Li, H. P. Hratchian, 
 A. F. Izmaylov, J. Bloino, G. Zheng, J. L. Sonnenberg, M. Hada, 
 M. Ehara, K. Toyota, R. Fukuda, J. Hasegawa, M. Ishida, T. Nakajima, 
 Y. Honda, O. Kitao, H. Nakai, T. Vreven, J. A. Montgomery, Jr., 
 J. E. Peralta, F. Ogliaro, M. Bearpark, J. J. Heyd, E. Brothers, 
 K. N. Kudin, V. N. Staroverov, T. Keith, R. Kobayashi, J. Normand, 
 K. Raghavachari, A. Rendell, J. C. Burant, S. S. Iyengar, J. Tomasi, 
 M. Cossi, N. Rega, J. M. Millam, M. Klene, J. E. Knox, J. B. Cross, 
 V. Bakken, C. Adamo, J. Jaramillo, R. Gomperts, R. E. Stratmann, 
 O. Yazyev, A. J. Austin, R. Cammi, C. Pomelli, J. W. Ochterski, 
 R. L. Martin, K. Morokuma, V. G. Zakrzewski, G. A. Voth, 
 P. Salvador, J. J. Dannenberg, S. Dapprich, A. D. Daniels, 
 O. Farkas, J. B. Foresman, J. V. Ortiz, J. Cioslowski, 
 and D. J. Fox, Gaussian, Inc., Wallingford CT, 2013.
 
 ******************************************
 Gaussian 09:  ES64L-G09RevE.01 30-Nov-2015
                19-Feb-2019 
 ******************************************
 %chk=4SulfOxyMethyl_C2_EtO.M062X_6-31pGd_opt.chk
 %mem=196608000
 %nproc=8
 Will use up to    8 processors via shared memory.
 ----------------------------------------------------------------------
 # M062X/Gen 6D SCF=Tight INT(grid=ultrafine) OPT IOP(2/17=4) maxdisk=2
 684354560
 ----------------------------------------------------------------------
 1/14=-1,18=20,19=15,26=4,38=1/1,3;
 2/9=110,12=2,17=4,18=5,40=1/2;
 3/5=7,8=2,11=2,16=1,25=1,30=1,71=1,74=-55,75=-5/1,2,3;
 4//1;
 5/5=2,32=2,38=5/2;
 6/7=2,8=2,9=2,10=2,28=1/1;
 7//1,2,3,16;
 1/14=-1,18=20,19=15,26=4/3(2);
 2/9=110,17=4/2;
 99//99;
 2/9=110,17=4/2;
 3/5=7,6=1,8=2,11=2,16=1,25=1,30=1,71=1,74=-55,75=-5,82=7/1,2,3;
 4/5=5,16=3,69=1/1;
 5/5=2,32=2,38=5/2;
 7//1,2,3,16;
 1/14=-1,18=20,19=15,26=4/3(-5);
 2/9=110,17=4/2;
 6/7=2,8=2,9=2,10=2,19=2,28=1/1;
 99/9=1/99;
 ---------------------------------------
 4SulfOxyMethyl_C2_EtO.M062X_6-31pGd_opt
 ---------------------------------------
 Symbolic Z-matrix:
 Charge = -1 Multiplicity = 1
 C                    -2.27186   2.79832  -0.11935 
 C                    -1.01145   1.94803   0.00906 
 C                     0.25124   2.80586  -0.12247 
 N                     1.45179   1.99473  -0.00353 
 C                     2.69622   2.54755  -0.08859 
 O                     2.79727   3.75048  -0.26652 
 N                     3.80646   1.74887   0.02339 
 C                     5.1896    2.15876  -0.0387 
 C                     5.62163   3.49952  -0.20548 
 C                     6.18341   1.16393   0.07561 
 C                     7.54271   1.48401   0.0244 
 C                     7.94659   2.8102   -0.14252 
 C                     6.98339   3.81239  -0.25538 
 H                    -3.16886   2.15156  -0.0197 
 H                    -2.30143   3.2971   -1.11158 
 H                    -2.2996    3.5708    0.67851 
 H                    -1.01816   1.17269  -0.78776 
 H                    -1.01605   1.44447   1.00028 
 H                     0.25137   3.57943   0.677 
 H                     0.24784   3.30979  -1.11428 
 H                     1.3448    0.87194   0.1643 
 H                     3.61241   0.62955   0.18047 
 H                     4.95438   4.33497  -0.29947 
 H                     5.91459   0.12512   0.20533 
 H                     8.27761   0.69472   0.11592 
 S                     9.68624   3.24597  -0.2108 
 O                     9.96475   4.2527    0.91622 
 O                     9.87845   4.175    -1.4187 
 H                     7.28864   4.84362  -0.38303 
 C                     11.0503   2.04912  -0.20937 
 H                     10.98378   1.41262   0.6968 
 H                     12.01797   2.59182  -0.19789 
 H                     10.99697   1.42259  -1.1234 
 O                     1.19798  -1.17591   0.45078 
 O                     3.41257  -1.42015   0.46308 
 C                     2.30581  -1.93971   0.54385 
 C                     2.15278  -3.42373   0.7458 
 C                     3.48862  -4.16162   0.82826 
 H                     1.56677  -3.83862  -0.10192 
 H                     1.58813  -3.59776   1.68659 
 H                     4.06373  -4.02442  -0.11235 
 H                     3.3047   -5.24669   0.97644 
 H                     4.08707  -3.78273   1.68412 
 
 Add virtual bond connecting atoms O34        and H21        Dist= 3.92D+00.
 Add virtual bond connecting atoms O35        and H22        Dist= 3.93D+00.

 GradGradGradGradGradGradGradGradGradGradGradGradGradGradGradGradGradGrad
 Berny optimization.
 Initialization pass.
                           ----------------------------
                           !    Initial Parameters    !
                           ! (Angstroms and Degrees)  !
 --------------------------                            --------------------------
 ! Name  Definition              Value          Derivative Info.                !
 --------------------------------------------------------------------------------
 ! R1    R(1,2)                  1.5258         estimate D2E/DX2                !
 ! R2    R(1,14)                 1.1103         estimate D2E/DX2                !
 ! R3    R(1,15)                 1.1109         estimate D2E/DX2                !
 ! R4    R(1,16)                 1.1109         estimate D2E/DX2                !
 ! R5    R(2,3)                  1.5322         estimate D2E/DX2                !
 ! R6    R(2,17)                 1.1118         estimate D2E/DX2                !
 ! R7    R(2,18)                 1.1118         estimate D2E/DX2                !
 ! R8    R(3,4)                  1.4538         estimate D2E/DX2                !
 ! R9    R(3,19)                 1.1125         estimate D2E/DX2                !
 ! R10   R(3,20)                 1.1125         estimate D2E/DX2                !
 ! R11   R(4,5)                  1.3644         estimate D2E/DX2                !
 ! R12   R(4,21)                 1.1403         estimate D2E/DX2                !
 ! R13   R(5,6)                  1.2202         estimate D2E/DX2                !
 ! R14   R(5,7)                  1.3722         estimate D2E/DX2                !
 ! R15   R(7,8)                  1.4439         estimate D2E/DX2                !
 ! R16   R(7,22)                 1.1468         estimate D2E/DX2                !
 ! R17   R(8,9)                  1.4185         estimate D2E/DX2                !
 ! R18   R(8,10)                 1.4108         estimate D2E/DX2                !
 ! R19   R(9,13)                 1.3981         estimate D2E/DX2                !
 ! R20   R(9,23)                 1.0733         estimate D2E/DX2                !
 ! R21   R(10,11)                1.3974         estimate D2E/DX2                !
 ! R22   R(10,24)                1.0808         estimate D2E/DX2                !
 ! R23   R(11,12)                1.3963         estimate D2E/DX2                !
 ! R24   R(11,25)                1.0823         estimate D2E/DX2                !
 ! R25   R(12,13)                1.3946         estimate D2E/DX2                !
 ! R26   R(12,26)                1.7947         estimate D2E/DX2                !
 ! R27   R(13,29)                1.083          estimate D2E/DX2                !
 ! R28   R(21,34)                2.073          estimate D2E/DX2                !
 ! R29   R(22,35)                2.0787         estimate D2E/DX2                !
 ! R30   R(26,27)                1.5366         estimate D2E/DX2                !
 ! R31   R(26,28)                1.5359         estimate D2E/DX2                !
 ! R32   R(26,30)                1.8147         estimate D2E/DX2                !
 ! R33   R(30,31)                1.1094         estimate D2E/DX2                !
 ! R34   R(30,32)                1.1095         estimate D2E/DX2                !
 ! R35   R(30,33)                1.1094         estimate D2E/DX2                !
 ! R36   R(34,36)                1.3488         estimate D2E/DX2                !
 ! R37   R(35,36)                1.2253         estimate D2E/DX2                !
 ! R38   R(36,37)                1.5055         estimate D2E/DX2                !
 ! R39   R(37,38)                1.5283         estimate D2E/DX2                !
 ! R40   R(37,39)                1.1109         estimate D2E/DX2                !
 ! R41   R(37,40)                1.1109         estimate D2E/DX2                !
 ! R42   R(38,41)                1.111          estimate D2E/DX2                !
 ! R43   R(38,42)                1.1105         estimate D2E/DX2                !
 ! R44   R(38,43)                1.1109         estimate D2E/DX2                !
 ! A1    A(2,1,14)             109.5838         estimate D2E/DX2                !
 ! A2    A(2,1,15)             110.3254         estimate D2E/DX2                !
 ! A3    A(2,1,16)             110.3462         estimate D2E/DX2                !
 ! A4    A(14,1,15)            108.6737         estimate D2E/DX2                !
 ! A5    A(14,1,16)            108.6881         estimate D2E/DX2                !
 ! A6    A(15,1,16)            109.1843         estimate D2E/DX2                !
 ! A7    A(1,2,3)              111.1948         estimate D2E/DX2                !
 ! A8    A(1,2,17)             108.8639         estimate D2E/DX2                !
 ! A9    A(1,2,18)             108.9057         estimate D2E/DX2                !
 ! A10   A(3,2,17)             109.5051         estimate D2E/DX2                !
 ! A11   A(3,2,18)             109.4828         estimate D2E/DX2                !
 ! A12   A(17,2,18)            108.8492         estimate D2E/DX2                !
 ! A13   A(2,3,4)              111.1719         estimate D2E/DX2                !
 ! A14   A(2,3,19)             109.1308         estimate D2E/DX2                !
 ! A15   A(2,3,20)             109.1246         estimate D2E/DX2                !
 ! A16   A(4,3,19)             109.2137         estimate D2E/DX2                !
 ! A17   A(4,3,20)             109.1597         estimate D2E/DX2                !
 ! A18   A(19,3,20)            109.0085         estimate D2E/DX2                !
 ! A19   A(3,4,5)              121.4707         estimate D2E/DX2                !
 ! A20   A(3,4,21)             118.9436         estimate D2E/DX2                !
 ! A21   A(5,4,21)             119.5857         estimate D2E/DX2                !
 ! A22   A(4,5,6)              118.952          estimate D2E/DX2                !
 ! A23   A(4,5,7)              119.8041         estimate D2E/DX2                !
 ! A24   A(6,5,7)              121.2437         estimate D2E/DX2                !
 ! A25   A(5,7,8)              127.3207         estimate D2E/DX2                !
 ! A26   A(5,7,22)             116.2534         estimate D2E/DX2                !
 ! A27   A(8,7,22)             116.4256         estimate D2E/DX2                !
 ! A28   A(7,8,9)              124.4106         estimate D2E/DX2                !
 ! A29   A(7,8,10)             118.1063         estimate D2E/DX2                !
 ! A30   A(9,8,10)             117.483          estimate D2E/DX2                !
 ! A31   A(8,9,13)             120.8212         estimate D2E/DX2                !
 ! A32   A(8,9,23)             123.8263         estimate D2E/DX2                !
 ! A33   A(13,9,23)            115.3524         estimate D2E/DX2                !
 ! A34   A(8,10,11)            121.3808         estimate D2E/DX2                !
 ! A35   A(8,10,24)            120.8136         estimate D2E/DX2                !
 ! A36   A(11,10,24)           117.8055         estimate D2E/DX2                !
 ! A37   A(10,11,12)           120.2171         estimate D2E/DX2                !
 ! A38   A(10,11,25)           119.3632         estimate D2E/DX2                !
 ! A39   A(12,11,25)           120.4197         estimate D2E/DX2                !
 ! A40   A(11,12,13)           119.5004         estimate D2E/DX2                !
 ! A41   A(11,12,26)           121.0329         estimate D2E/DX2                !
 ! A42   A(13,12,26)           119.4666         estimate D2E/DX2                !
 ! A43   A(9,13,12)            120.5974         estimate D2E/DX2                !
 ! A44   A(9,13,29)            119.4594         estimate D2E/DX2                !
 ! A45   A(12,13,29)           119.9432         estimate D2E/DX2                !
 ! A46   A(12,26,27)           107.8702         estimate D2E/DX2                !
 ! A47   A(12,26,28)           107.343          estimate D2E/DX2                !
 ! A48   A(12,26,30)           124.6421         estimate D2E/DX2                !
 ! A49   A(27,26,28)            99.0812         estimate D2E/DX2                !
 ! A50   A(27,26,30)           107.1742         estimate D2E/DX2                !
 ! A51   A(28,26,30)           107.7872         estimate D2E/DX2                !
 ! A52   A(26,30,31)           109.5104         estimate D2E/DX2                !
 ! A53   A(26,30,32)           109.45           estimate D2E/DX2                !
 ! A54   A(26,30,33)           109.6137         estimate D2E/DX2                !
 ! A55   A(31,30,32)           108.9342         estimate D2E/DX2                !
 ! A56   A(31,30,33)           110.2472         estimate D2E/DX2                !
 ! A57   A(32,30,33)           109.0671         estimate D2E/DX2                !
 ! A58   A(21,34,36)           120.7148         estimate D2E/DX2                !
 ! A59   A(22,35,36)           120.924          estimate D2E/DX2                !
 ! A60   A(34,36,35)           119.8152         estimate D2E/DX2                !
 ! A61   A(34,36,37)           118.9444         estimate D2E/DX2                !
 ! A62   A(35,36,37)           121.2404         estimate D2E/DX2                !
 ! A63   A(36,37,38)           113.2234         estimate D2E/DX2                !
 ! A64   A(36,37,39)           108.6262         estimate D2E/DX2                !
 ! A65   A(36,37,40)           108.6433         estimate D2E/DX2                !
 ! A66   A(38,37,39)           108.7791         estimate D2E/DX2                !
 ! A67   A(38,37,40)           108.84           estimate D2E/DX2                !
 ! A68   A(39,37,40)           108.6381         estimate D2E/DX2                !
 ! A69   A(37,38,41)           110.3133         estimate D2E/DX2                !
 ! A70   A(37,38,42)           109.524          estimate D2E/DX2                !
 ! A71   A(37,38,43)           110.3495         estimate D2E/DX2                !
 ! A72   A(41,38,42)           108.6251         estimate D2E/DX2                !
 ! A73   A(41,38,43)           109.3458         estimate D2E/DX2                !
 ! A74   A(42,38,43)           108.6429         estimate D2E/DX2                !
 ! A75   L(4,21,34,2,-1)       181.3225         estimate D2E/DX2                !
 ! A76   L(7,22,35,1,-1)       184.225          estimate D2E/DX2                !
 ! A77   L(4,21,34,2,-2)       179.4297         estimate D2E/DX2                !
 ! A78   L(7,22,35,1,-2)       179.861          estimate D2E/DX2                !
 ! D1    D(14,1,2,3)          -179.9715         estimate D2E/DX2                !
 ! D2    D(14,1,2,17)           59.3027         estimate D2E/DX2                !
 ! D3    D(14,1,2,18)          -59.2459         estimate D2E/DX2                !
 ! D4    D(15,1,2,3)            60.4126         estimate D2E/DX2                !
 ! D5    D(15,1,2,17)          -60.3133         estimate D2E/DX2                !
 ! D6    D(15,1,2,18)         -178.8619         estimate D2E/DX2                !
 ! D7    D(16,1,2,3)           -60.325          estimate D2E/DX2                !
 ! D8    D(16,1,2,17)          178.9492         estimate D2E/DX2                !
 ! D9    D(16,1,2,18)           60.4006         estimate D2E/DX2                !
 ! D10   D(1,2,3,4)           -179.8514         estimate D2E/DX2                !
 ! D11   D(1,2,3,19)            59.625          estimate D2E/DX2                !
 ! D12   D(1,2,3,20)           -59.3988         estimate D2E/DX2                !
 ! D13   D(17,2,3,4)           -59.5037         estimate D2E/DX2                !
 ! D14   D(17,2,3,19)          179.9726         estimate D2E/DX2                !
 ! D15   D(17,2,3,20)           60.9489         estimate D2E/DX2                !
 ! D16   D(18,2,3,4)            59.7634         estimate D2E/DX2                !
 ! D17   D(18,2,3,19)          -60.7603         estimate D2E/DX2                !
 ! D18   D(18,2,3,20)         -179.784          estimate D2E/DX2                !
 ! D19   D(2,3,4,5)           -179.9669         estimate D2E/DX2                !
 ! D20   D(2,3,4,21)             0.0466         estimate D2E/DX2                !
 ! D21   D(19,3,4,5)           -59.4921         estimate D2E/DX2                !
 ! D22   D(19,3,4,21)          120.5214         estimate D2E/DX2                !
 ! D23   D(20,3,4,5)            59.6013         estimate D2E/DX2                !
 ! D24   D(20,3,4,21)         -120.3852         estimate D2E/DX2                !
 ! D25   D(3,4,5,6)              0.1119         estimate D2E/DX2                !
 ! D26   D(3,4,5,7)           -179.749          estimate D2E/DX2                !
 ! D27   D(21,4,5,6)          -179.9017         estimate D2E/DX2                !
 ! D28   D(21,4,5,7)             0.2374         estimate D2E/DX2                !
 ! D29   D(3,4,34,36)          179.081          estimate D2E/DX2                !
 ! D30   D(5,4,34,36)           -0.5197         estimate D2E/DX2                !
 ! D31   D(4,5,7,8)           -179.8664         estimate D2E/DX2                !
 ! D32   D(4,5,7,22)             0.354          estimate D2E/DX2                !
 ! D33   D(6,5,7,8)              0.2759         estimate D2E/DX2                !
 ! D34   D(6,5,7,22)          -179.5037         estimate D2E/DX2                !
 ! D35   D(5,7,8,9)              1.2909         estimate D2E/DX2                !
 ! D36   D(5,7,8,10)          -178.8108         estimate D2E/DX2                !
 ! D37   D(22,7,8,9)          -178.9298         estimate D2E/DX2                !
 ! D38   D(22,7,8,10)            0.9685         estimate D2E/DX2                !
 ! D39   D(5,7,35,36)           -0.5316         estimate D2E/DX2                !
 ! D40   D(8,7,35,36)          179.7476         estimate D2E/DX2                !
 ! D41   D(7,8,9,13)           179.9901         estimate D2E/DX2                !
 ! D42   D(7,8,9,23)             0.1035         estimate D2E/DX2                !
 ! D43   D(10,8,9,13)            0.0912         estimate D2E/DX2                !
 ! D44   D(10,8,9,23)         -179.7954         estimate D2E/DX2                !
 ! D45   D(7,8,10,11)          179.9814         estimate D2E/DX2                !
 ! D46   D(7,8,10,24)            0.035          estimate D2E/DX2                !
 ! D47   D(9,8,10,11)           -0.1132         estimate D2E/DX2                !
 ! D48   D(9,8,10,24)          179.9404         estimate D2E/DX2                !
 ! D49   D(8,9,13,12)            0.0286         estimate D2E/DX2                !
 ! D50   D(8,9,13,29)         -179.9764         estimate D2E/DX2                !
 ! D51   D(23,9,13,12)         179.9244         estimate D2E/DX2                !
 ! D52   D(23,9,13,29)          -0.0806         estimate D2E/DX2                !
 ! D53   D(8,10,11,12)           0.0152         estimate D2E/DX2                !
 ! D54   D(8,10,11,25)         179.9779         estimate D2E/DX2                !
 ! D55   D(24,10,11,12)        179.9633         estimate D2E/DX2                !
 ! D56   D(24,10,11,25)         -0.0741         estimate D2E/DX2                !
 ! D57   D(10,11,12,13)          0.1077         estimate D2E/DX2                !
 ! D58   D(10,11,12,26)        179.9823         estimate D2E/DX2                !
 ! D59   D(25,11,12,13)       -179.8545         estimate D2E/DX2                !
 ! D60   D(25,11,12,26)          0.02           estimate D2E/DX2                !
 ! D61   D(11,12,13,9)          -0.1294         estimate D2E/DX2                !
 ! D62   D(11,12,13,29)        179.8756         estimate D2E/DX2                !
 ! D63   D(26,12,13,9)         179.994          estimate D2E/DX2                !
 ! D64   D(26,12,13,29)         -0.0009         estimate D2E/DX2                !
 ! D65   D(11,12,26,27)       -121.7209         estimate D2E/DX2                !
 ! D66   D(11,12,26,28)        132.3516         estimate D2E/DX2                !
 ! D67   D(11,12,26,30)          5.1396         estimate D2E/DX2                !
 ! D68   D(13,12,26,27)         58.1537         estimate D2E/DX2                !
 ! D69   D(13,12,26,28)        -47.7738         estimate D2E/DX2                !
 ! D70   D(13,12,26,30)       -174.9858         estimate D2E/DX2                !
 ! D71   D(12,26,30,31)        -57.3513         estimate D2E/DX2                !
 ! D72   D(12,26,30,32)       -176.7055         estimate D2E/DX2                !
 ! D73   D(12,26,30,33)         63.7152         estimate D2E/DX2                !
 ! D74   D(27,26,30,31)         69.8007         estimate D2E/DX2                !
 ! D75   D(27,26,30,32)        -49.5535         estimate D2E/DX2                !
 ! D76   D(27,26,30,33)       -169.1328         estimate D2E/DX2                !
 ! D77   D(28,26,30,31)        175.6225         estimate D2E/DX2                !
 ! D78   D(28,26,30,32)         56.2682         estimate D2E/DX2                !
 ! D79   D(28,26,30,33)        -63.3111         estimate D2E/DX2                !
 ! D80   D(21,34,36,35)          0.245          estimate D2E/DX2                !
 ! D81   D(21,34,36,37)       -179.7327         estimate D2E/DX2                !
 ! D82   D(22,35,36,34)         -0.0978         estimate D2E/DX2                !
 ! D83   D(22,35,36,37)        179.8793         estimate D2E/DX2                !
 ! D84   D(34,36,37,38)        179.7971         estimate D2E/DX2                !
 ! D85   D(34,36,37,39)         58.8472         estimate D2E/DX2                !
 ! D86   D(34,36,37,40)        -59.1639         estimate D2E/DX2                !
 ! D87   D(35,36,37,38)         -0.1802         estimate D2E/DX2                !
 ! D88   D(35,36,37,39)       -121.1301         estimate D2E/DX2                !
 ! D89   D(35,36,37,40)        120.8588         estimate D2E/DX2                !
 ! D90   D(36,37,38,41)        -60.4675         estimate D2E/DX2                !
 ! D91   D(36,37,38,42)       -179.9785         estimate D2E/DX2                !
 ! D92   D(36,37,38,43)         60.4662         estimate D2E/DX2                !
 ! D93   D(39,37,38,41)         60.3958         estimate D2E/DX2                !
 ! D94   D(39,37,38,42)        -59.1152         estimate D2E/DX2                !
 ! D95   D(39,37,38,43)       -178.6704         estimate D2E/DX2                !
 ! D96   D(40,37,38,41)        178.6045         estimate D2E/DX2                !
 ! D97   D(40,37,38,42)         59.0936         estimate D2E/DX2                !
 ! D98   D(40,37,38,43)        -60.4617         estimate D2E/DX2                !
 --------------------------------------------------------------------------------
 Trust Radius=3.00D-01 FncErr=1.00D-07 GrdErr=1.00D-06
 Number of steps in this run=    230 maximum allowed number of steps=    258.
 GradGradGradGradGradGradGradGradGradGradGradGradGradGradGradGradGradGrad

                          Input orientation:                          
 ---------------------------------------------------------------------
 Center     Atomic      Atomic             Coordinates (Angstroms)
 Number     Number       Type             X           Y           Z
 ---------------------------------------------------------------------
      1          6           0       -2.271860    2.798320   -0.119350
      2          6           0       -1.011450    1.948030    0.009060
      3          6           0        0.251240    2.805860   -0.122470
      4          7           0        1.451790    1.994730   -0.003530
      5          6           0        2.696220    2.547550   -0.088590
      6          8           0        2.797270    3.750480   -0.266520
      7          7           0        3.806460    1.748870    0.023390
      8          6           0        5.189600    2.158760   -0.038700
      9          6           0        5.621630    3.499520   -0.205480
     10          6           0        6.183410    1.163930    0.075610
     11          6           0        7.542710    1.484010    0.024400
     12          6           0        7.946590    2.810200   -0.142520
     13          6           0        6.983390    3.812390   -0.255380
     14          1           0       -3.168860    2.151560   -0.019700
     15          1           0       -2.301430    3.297100   -1.111580
     16          1           0       -2.299600    3.570800    0.678510
     17          1           0       -1.018160    1.172690   -0.787760
     18          1           0       -1.016050    1.444470    1.000280
     19          1           0        0.251370    3.579430    0.677000
     20          1           0        0.247840    3.309790   -1.114280
     21          1           0        1.344800    0.871940    0.164300
     22          1           0        3.612410    0.629550    0.180470
     23          1           0        4.954380    4.334970   -0.299470
     24          1           0        5.914590    0.125120    0.205330
     25          1           0        8.277610    0.694720    0.115920
     26         16           0        9.686240    3.245970   -0.210800
     27          8           0        9.964750    4.252700    0.916220
     28          8           0        9.878450    4.175000   -1.418700
     29          1           0        7.288640    4.843620   -0.383030
     30          6           0       11.050300    2.049120   -0.209370
     31          1           0       10.983780    1.412620    0.696800
     32          1           0       12.017970    2.591820   -0.197890
     33          1           0       10.996970    1.422590   -1.123400
     34          8           0        1.197980   -1.175910    0.450780
     35          8           0        3.412570   -1.420150    0.463080
     36          6           0        2.305810   -1.939710    0.543850
     37          6           0        2.152780   -3.423730    0.745800
     38          6           0        3.488620   -4.161620    0.828260
     39          1           0        1.566770   -3.838620   -0.101920
     40          1           0        1.588130   -3.597760    1.686590
     41          1           0        4.063730   -4.024420   -0.112350
     42          1           0        3.304700   -5.246690    0.976440
     43          1           0        4.087070   -3.782730    1.684120
 ---------------------------------------------------------------------
                    Distance matrix (angstroms):
                    1          2          3          4          5
     1  C    0.000000
     2  C    1.525816   0.000000
     3  C    2.523113   1.532174   0.000000
     4  N    3.811134   2.463715   1.453753   0.000000
     5  C    4.974500   3.757097   2.458821   1.364350   0.000000
     6  O    5.159879   4.222691   2.719435   2.227586   1.220209
     7  N    6.169902   4.822046   3.711885   2.367624   1.372247
     8  C    7.489254   6.204813   4.981280   3.741573   2.524003
     9  C    7.925042   6.815490   5.415639   4.437651   3.078625
    10  C    8.613990   7.237766   6.158394   4.804656   3.755244
    11  C    9.903225   8.566750   7.411774   6.112358   4.963099
    12  C   10.218483   9.000711   7.695377   6.547269   5.257212
    13  C    9.311632   8.213601   6.808275   5.828028   4.472971
    14  H    1.110332   2.167180   3.483641   4.623339   5.878836
    15  H    1.110935   2.177125   2.781327   4.124391   5.156049
    16  H    1.110889   2.177355   2.780915   4.125785   5.156908
    17  H    2.158983   1.111809   2.172839   2.718717   4.021902
    18  H    2.159523   1.111805   2.172550   2.720414   4.022856
    19  H    2.758803   2.168484   1.112458   2.101286   2.761919
    20  H    2.756878   2.168431   1.112495   2.100629   2.761814
    21  H    4.107509   2.594992   2.240124   1.140294   2.167477
    22  H    6.278383   4.811221   4.015665   2.562392   2.142550
    23  H    7.390012   6.433024   4.948639   4.222847   2.887668
    24  H    8.617968   7.164604   6.274341   4.843103   4.038869
    25  H   10.759731   9.373838   8.302792   6.949540   5.884447
    26  S   11.966825  10.778384   9.445672   8.331550   7.025888
    27  O   12.366174  11.252174   9.875449   8.855216   7.533174
    28  O   12.296894  11.206597   9.810093   8.818440   7.483463
    29  H    9.780385   8.799413   7.331122   6.506075   5.142855
    30  C   13.343513  12.064151  10.825890   9.600871   8.369807
    31  H   13.352837  12.026853  10.853559   9.575393   8.401699
    32  H   14.291538  13.046957  11.768918  10.584822   9.322496
    33  H   13.377690  12.073140  10.880534   9.627664   8.440309
    34  O    5.306538   3.851714   4.132726   3.213063   4.049666
    35  O    7.102637   5.578774   5.309994   3.965323   4.069415
    36  C    6.621467   5.138554   5.213988   4.063101   4.548396
    37  C    7.683738   6.277814   6.570962   5.514761   6.053736
    38  C    9.084154   7.632139   7.741466   6.537675   6.817732
    39  H    7.667096   6.335997   6.773489   5.835313   6.485291
    40  H    7.685752   6.350410   6.787218   5.843889   6.491838
    41  H    9.310721   7.838517   7.822270   6.562335   6.712782
    42  H    9.849922   8.445648   8.681865   7.538686   7.890166
    43  H    9.327310   7.851264   7.834978   6.570533   6.719331
                    6          7          8          9         10
     6  O    0.000000
     7  N    2.260300   0.000000
     8  C    2.882485   1.443933   0.000000
     9  C    2.836145   2.532193   1.418486   0.000000
    10  C    4.274721   2.448423   1.410820   2.418592   0.000000
    11  C    5.266946   3.745626   2.448754   2.793864   1.397416
    12  C    5.235933   4.277222   2.834810   2.425812   2.422104
    13  C    4.186593   3.798514   2.449311   1.398130   2.786371
    14  H    6.181600   6.987067   8.358485   8.895180   9.404757
    15  H    5.188104   6.402460   7.652609   7.977272   8.829062
    16  H    5.186854   6.405668   7.654826   7.970722   8.838437
    17  H    4.634026   4.926145   6.330064   7.059745   7.253144
    18  H    4.632912   4.929866   6.332439   7.052367   7.264017
    19  H    2.720495   4.051768   5.188125   5.442871   6.433149
    20  H    2.722590   4.049017   5.186785   5.453397   6.422737
    21  H    3.252886   2.616989   4.059508   5.033109   4.848223
    22  H    3.256449   1.146825   2.207724   3.524578   2.628041
    23  H    2.235137   2.847784   2.204364   1.073328   3.421505
    24  H    4.804536   2.667185   2.172752   3.411915   1.080841
    25  H    6.286339   4.594668   3.420983   3.876136   2.146499
    26  S    6.907644   6.071900   4.629408   4.072514   4.084941
    27  O    7.281749   6.707522   5.300803   4.548426   4.954357
    28  O    7.186852   6.695879   5.287243   4.477577   4.995280
    29  H    4.623952   4.676348   3.425347   2.148732   3.869367
    30  C    8.426767   7.253795   5.864210   5.619087   4.954936
    31  H    8.568111   7.216680   5.888141   5.824252   4.846780
    32  H    9.293466   8.257628   6.843940   6.460429   6.012966
    33  H    8.566703   7.288691   5.953492   5.835280   4.967383
    34  O    5.228916   3.942229   5.224236   6.469853   5.519974
    35  O    5.257977   3.223533   4.027185   5.434158   3.808564
    36  C    5.768578   4.016024   5.045103   6.414155   4.988749
    37  C    7.273888   5.478351   6.403273   7.801874   6.143432
    38  C    8.017346   5.973502   6.602436   8.019440   6.015801
    39  H    7.689972   6.020960   7.006958   8.384564   6.809581
    40  H    7.698915   6.022763   7.006050   8.379763   6.810694
    41  H    7.878881   5.780613   6.285278   7.684100   5.607794
    42  H    9.096785   7.077989   7.708699   9.124762   7.084809
    43  H    7.887828   5.782332   6.283708   7.678322   5.608154
                   11         12         13         14         15
    11  C    0.000000
    12  C    1.396339   0.000000
    13  C    2.410906   1.394588   0.000000
    14  H   10.732441  11.135624  10.289902   0.000000
    15  H   10.073968  10.305244   9.338441   1.804688   0.000000
    16  H   10.082342  10.307134   9.332975   1.804814   1.810894
    17  H    8.604942   9.135892   8.442526   2.484676   2.502950
    18  H    8.614307   9.137840   8.436514   2.484940   3.089400
    19  H    7.614480   7.776872   6.800272   3.771230   3.129779
    20  H    7.605603   7.775902   6.808667   3.770072   2.549303
    21  H    6.229630   6.887280   6.373074   4.695147   4.561169
    22  H    4.025136   4.862579   4.656602   6.952856   6.615037
    23  H    3.864236   3.361975   2.095690   8.416209   7.374515
    24  H    2.128401   3.385215   3.866594   9.309466   8.904981
    25  H    1.082327   2.156762   3.395988  11.539604  10.963358
    26  S    2.784698   1.794698   2.761923  12.903017  12.021574
    27  O    3.785137   2.697166   3.233423  13.333508  12.469335
    28  O    3.844431   2.687638   3.141046  13.277191  12.215339
    29  H    3.393749   2.150707   1.083008  10.804559   9.741250
    30  C    3.560504   3.196362   4.432944  14.220794  13.440243
    31  H    3.506876   3.447058   4.761162  14.190018  13.539509
    32  H    4.615691   4.077608   5.180742  15.194255  14.365844
    33  H    3.640485   3.491762   4.751150  14.227448  13.429869
    34  O    6.892936   7.860332   7.671556   5.510236   5.890217
    35  O    5.068002   6.230566   6.375454   7.503693   7.575077
    36  C    6.278281   7.406156   7.456888   6.857703   7.168772
    37  C    7.325140   8.556824   8.757773   7.745302   8.274020
    38  C    6.996783   8.331998   8.773399   9.213974   9.639510
    39  H    8.003637   9.214693   9.375568   7.636439   8.179296
    40  H    8.002767   9.210733   9.369653   7.654741   8.396281
    41  H    6.516502   7.860632   8.364237   9.511134   9.752865
    42  H    8.010582   9.365505   9.854799   9.880960  10.429998
    43  H    6.514190   7.854886   8.356804   9.527188   9.937448
                   16         17         18         19         20
    16  H    0.000000
    17  H    3.089169   0.000000
    18  H    2.504459   1.808578   0.000000
    19  H    2.550985   3.090247   2.503781   0.000000
    20  H    3.125967   2.505308   3.090016   1.811464   0.000000
    21  H    4.563979   2.565239   2.569098   2.964617   2.963309
    22  H    6.621998   4.761791   4.770621   4.499436   4.492259
    23  H    7.359390   6.775668   6.759466   4.862370   4.885328
    24  H    8.920175   7.081430   7.099747   6.650323   6.632914
    25  H   10.975687   9.351814   9.365700   8.547332   8.534002
    26  S   12.023175  10.918587  10.920216   9.482413   9.481758
    27  O   12.285592  11.533183  11.334513   9.739624   9.971477
    28  O   12.372075  11.320250  11.489012   9.870528   9.674188
    29  H    9.730431   9.090790   9.079408   7.228071   7.242943
    30  C   13.465648  12.114058  12.141897  10.942778  10.913354
    31  H   13.457573  12.095786  12.003709  10.948976  11.051682
    32  H   14.377736  13.126407  13.139167  11.840341  11.827562
    33  H   13.588983  12.022415  12.199309  11.106814  10.913542
    34  O    5.900524   3.458494   3.474229   4.853916   4.844965
    35  O    7.588470   5.283823   5.301632   5.919016   5.905583
    36  C    7.182872   4.744365   4.764006   5.890616   5.877235
    37  C    8.291662   5.790833   5.814260   7.257020   7.240786
    38  C    9.660033   7.167806   7.193739   8.392051   8.372460
    39  H    8.393890   5.680270   5.983046   7.573933   7.339224
    40  H    8.216990   5.972633   5.716368   7.370092   7.573341
    41  H    9.940060   7.300119   7.546580   8.542581   8.327996
    42  H   10.452037   7.937755   7.964990   9.344136   9.323564
    43  H    9.791589   7.531916   7.337104   8.362313   8.536660
                   21         22         23         24         25
    21  H    0.000000
    22  H    2.280585   0.000000
    23  H    5.023617   3.970058   0.000000
    24  H    4.630594   2.356926   4.347374   0.000000
    25  H    6.935243   4.666102   4.946496   2.432345   0.000000
    26  S    8.680803   6.624965   4.856365   4.913066   2.932552
    27  O    9.289696   7.349882   5.156402   5.826326   4.018226
    28  O    9.286510   7.375013   5.052201   5.895014   4.126754
    29  H    7.169592   5.620550   2.390497   4.949588   4.294227
    30  C    9.783768   7.582174   6.511027   5.499934   3.102906
    31  H    9.668807   7.430807   6.773946   5.253179   2.859398
    32  H   10.816919   8.639855   7.276207   6.595335   4.205682
    33  H    9.753244   7.540604   6.758233   5.411057   3.075813
    34  O    2.072997   3.026917   6.711424   4.898912   7.330249
    35  O    3.101390   2.078719   6.006669   2.952016   5.316184
    36  C    2.995492   2.905227   6.862778   4.171500   6.541081
    37  C    4.409507   4.345020   8.314985   5.199775   7.407558
    38  C    5.511219   4.836348   8.695532   4.964827   6.857543
    39  H    4.723295   4.922289   8.850000   5.891449   8.101481
    40  H    4.728086   4.923033   8.843318   5.896798   8.101946
    41  H    5.607447   4.684962   8.408785   4.554699   6.330811
    42  H    6.475987   5.937883   9.805998   6.021834   7.795555
    43  H    5.612116   4.685561   8.401423   4.560476   6.329884
                   26         27         28         29         30
    26  S    0.000000
    27  O    1.536635   0.000000
    28  O    1.535924   2.337806   0.000000
    29  H    2.886284   3.032953   2.868237   0.000000
    30  C    1.814693   2.702062   2.712025   4.689294   0.000000
    31  H    2.422503   3.025330   3.650731   5.156729   1.109370
    32  H    2.421785   2.866265   2.928205   5.241321   1.109523
    33  H    2.423957   3.638001   2.985641   5.099344   1.109430
    34  O    9.593814  10.321952  10.367148   8.603843  10.387725
    35  O    7.847657   8.678573   8.755250   7.414488   8.415637
    36  C    9.051603   9.856164   9.929056   8.467660   9.640758
    37  C   10.107077  10.953698  11.050418   9.797979  10.489533
    38  C    9.714038  10.618323  10.741415   9.848945   9.840171
    39  H   10.776320  11.706073  11.620501  10.401928  11.163081
    40  H   10.771078  11.506127  11.780833  10.394039  11.180992
    41  H    9.191348  10.217177  10.136469   9.440098   9.257940
    42  H   10.689194  11.601651  11.735379  10.933174  10.706508
    43  H    9.183902   9.985235  10.319547   9.430645   9.278057
                   31         32         33         34         35
    31  H    0.000000
    32  H    1.805694   0.000000
    33  H    1.820275   1.807238   0.000000
    34  O   10.125359  11.475572  10.259164   0.000000
    35  O    8.087177   9.517652   8.253558   2.228051   0.000000
    36  C    9.304229  10.742951   9.466839   1.348829   1.225310
    37  C   10.068726  11.593074  10.256726   2.459954   2.383555
    38  C    9.341673  10.927568   9.558645   3.782061   2.766731
    39  H   10.811732  12.271404  10.846770   2.744359   3.094382
    40  H   10.694009  12.273701  11.028428   2.746780   3.093145
    41  H    8.837603  10.346588   8.874793   4.079663   2.745424
    42  H   10.168229  11.778895  10.395174   4.613658   3.862329
    43  H    8.690861  10.347755   9.095287   4.082092   2.743661
                   36         37         38         39         40
    36  C    0.000000
    37  C    1.505496   0.000000
    38  C    2.533143   1.528316   0.000000
    39  H    2.137536   1.110932   2.159415   0.000000
    40  H    2.137767   1.110946   2.160215   1.804782   0.000000
    41  H    2.804799   2.179215   1.111001   2.503885   3.089793
    42  H    3.481527   2.168709   1.110478   2.483127   2.483927
    43  H    2.805321   2.179634   1.110944   3.089494   2.505778
                   41         42         43
    41  H    0.000000
    42  H    1.804310   0.000000
    43  H    1.812805   1.804465   0.000000
 Stoichiometry    C14H21N2O5S(1-)
 Framework group  C1[X(C14H21N2O5S)]
 Deg. of freedom   123
 Full point group                 C1      NOp   1
 Largest Abelian subgroup         C1      NOp   1
 Largest concise Abelian subgroup C1      NOp   1
                         Standard orientation:                         
 ---------------------------------------------------------------------
 Center     Atomic      Atomic             Coordinates (Angstroms)
 Number     Number       Type             X           Y           Z
 ---------------------------------------------------------------------
      1          6           0        6.264130   -3.381909   -0.020790
      2          6           0        5.338761   -2.168849   -0.003722
      3          6           0        3.866980   -2.594698   -0.012293
      4          7           0        2.985782   -1.438529    0.000458
      5          6           0        1.628518   -1.577343   -0.003556
      6          8           0        1.149570   -2.699556   -0.016112
      7          7           0        0.828830   -0.462216    0.003612
      8          6           0       -0.614485   -0.419987    0.003533
      9          6           0       -1.449980   -1.566157    0.022120
     10          6           0       -1.242458    0.843244   -0.014106
     11          6           0       -2.634662    0.963818   -0.015698
     12          6           0       -3.438907   -0.177534    0.000654
     13          6           0       -2.842210   -1.437860    0.020858
     14          1           0        7.321596   -3.043454   -0.013620
     15          1           0        6.090483   -3.986869   -0.936239
     16          1           0        6.087074   -4.015401    0.874427
     17          1           0        5.549452   -1.543385   -0.898442
     18          1           0        5.546280   -1.570284    0.909934
     19          1           0        3.663209   -3.220232    0.884784
     20          1           0        3.666910   -3.196205   -0.926517
     21          1           0        3.444931   -0.394846    0.013862
     22          1           0        1.369023    0.549411    0.006472
     23          1           0       -1.081344   -2.574043    0.039622
     24          1           0       -0.657659    1.752112   -0.027736
     25          1           0       -3.081999    1.949283   -0.029098
     26         16           0       -5.228934   -0.048144   -0.000551
     27          8           0       -5.754251   -0.763507    1.253859
     28          8           0       -5.757172   -1.015404   -1.070335
     29          1           0       -3.459127   -2.327861    0.035662
     30          6           0       -6.150646    1.507306   -0.155899
     31          1           0       -5.846917    2.200549    0.655188
     32          1           0       -7.237579    1.303151   -0.066800
     33          1           0       -5.947538    1.963182   -1.146737
     34          8           0        4.235595    1.521437    0.019071
     35          8           0        2.210404    2.450240    0.007373
     36          6           0        3.426445    2.600588    0.012228
     37          6           0        4.043413    3.973856    0.010206
     38          6           0        3.009293    5.099103   -0.002676
     39          1           0        4.689250    4.071365   -0.888436
     40          1           0        4.677462    4.079669    0.916289
     41          1           0        2.376797    5.031246   -0.913537
     42          1           0        3.528787    6.080574   -0.003941
     43          1           0        2.363243    5.040408    0.899195
 ---------------------------------------------------------------------
 Rotational constants (GHZ):      0.3219038      0.0963290      0.0753317
 General basis read from cards:  (6D, 7F)
 There are   464 symmetry adapted cartesian basis functions of A   symmetry.
 There are   464 symmetry adapted basis functions of A   symmetry.
   464 basis functions,   812 primitive gaussians,   464 cartesian basis functions
    88 alpha electrons       88 beta electrons
       nuclear repulsion energy      1874.4500937725 Hartrees.
 NAtoms=   43 NActive=   43 NUniq=   43 SFac= 1.00D+00 NAtFMM=   60 NAOKFM=F Big=F
 Integral buffers will be    131072 words long.
 Raffenetti 2 integral format.
 Two-electron integral symmetry is turned on.
 One-electron integrals computed using PRISM.
 NBasis=   464 RedAO= T EigKep=  2.05D-06  NBF=   464
 NBsUse=   462 1.00D-06 EigRej=  7.95D-07 NBFU=   462
 ExpMin= 4.05D-02 ExpMax= 2.19D+04 ExpMxC= 3.30D+03 IAcc=3 IRadAn=         5 AccDes= 0.00D+00
 Harris functional with IExCor= 1009 and IRadAn=       5 diagonalized for initial guess.
 HarFok:  IExCor= 1009 AccDes= 0.00D+00 IRadAn=         5 IDoV= 1 UseB2=F ITyADJ=14
 ICtDFT=  3500011 ScaDFX=  1.000000  1.000000  1.000000  1.000000
 FoFCou: FMM=F IPFlag=           0 FMFlag=      100000 FMFlg1=           0
         NFxFlg=           0 DoJE=T BraDBF=F KetDBF=T FulRan=T
         wScrn=  0.000000 ICntrl=     500 IOpCl=  0 I1Cent=   200000004 NGrid=           0
         NMat0=    1 NMatS0=      1 NMatT0=    0 NMatD0=    1 NMtDS0=    0 NMtDT0=    0
 Petite list used in FoFCou.
 Requested convergence on RMS density matrix=1.00D-08 within 128 cycles.
 Requested convergence on MAX density matrix=1.00D-06.
 Requested convergence on             energy=1.00D-06.
 No special actions if energy rises.
 SCF Done:  E(RM062X) =  -1429.50217232     A.U. after   17 cycles
            NFock= 17  Conv=0.17D-08     -V/T= 2.0080

 **********************************************************************

            Population analysis using the SCF density.

 **********************************************************************

 Orbital symmetries:
       Occupied  (A) (A) (A) (A) (A) (A) (A) (A) (A) (A) (A) (A)
                 (A) (A) (A) (A) (A) (A) (A) (A) (A) (A) (A) (A)
                 (A) (A) (A) (A) (A) (A) (A) (A) (A) (A) (A) (A)
                 (A) (A) (A) (A) (A) (A) (A) (A) (A) (A) (A) (A)
                 (A) (A) (A) (A) (A) (A) (A) (A) (A) (A) (A) (A)
                 (A) (A) (A) (A) (A) (A) (A) (A) (A) (A) (A) (A)
                 (A) (A) (A) (A) (A) (A) (A) (A) (A) (A) (A) (A)
                 (A) (A) (A) (A)
       Virtual   (A) (A) (A) (A) (A) (A) (A) (A) (A) (A) (A) (A)
                 (A) (A) (A) (A) (A) (A) (A) (A) (A) (A) (A) (A)
                 (A) (A) (A) (A) (A) (A) (A) (A) (A) (A) (A) (A)
                 (A) (A) (A) (A) (A) (A) (A) (A) (A) (A) (A) (A)
                 (A) (A) (A) (A) (A) (A) (A) (A) (A) (A) (A) (A)
                 (A) (A) (A) (A) (A) (A) (A) (A) (A) (A) (A) (A)
                 (A) (A) (A) (A) (A) (A) (A) (A) (A) (A) (A) (A)
                 (A) (A) (A) (A) (A) (A) (A) (A) (A) (A) (A) (A)
                 (A) (A) (A) (A) (A) (A) (A) (A) (A) (A) (A) (A)
                 (A) (A) (A) (A) (A) (A) (A) (A) (A) (A) (A) (A)
                 (A) (A) (A) (A) (A) (A) (A) (A) (A) (A) (A) (A)
                 (A) (A) (A) (A) (A) (A) (A) (A) (A) (A) (A) (A)
                 (A) (A) (A) (A) (A) (A) (A) (A) (A) (A) (A) (A)
                 (A) (A) (A) (A) (A) (A) (A) (A) (A) (A) (A) (A)
                 (A) (A) (A) (A) (A) (A) (A) (A) (A) (A) (A) (A)
                 (A) (A) (A) (A) (A) (A) (A) (A) (A) (A) (A) (A)
                 (A) (A) (A) (A) (A) (A) (A) (A) (A) (A) (A) (A)
                 (A) (A) (A) (A) (A) (A) (A) (A) (A) (A) (A) (A)
                 (A) (A) (A) (A) (A) (A) (A) (A) (A) (A) (A) (A)
                 (A) (A) (A) (A) (A) (A) (A) (A) (A) (A) (A) (A)
                 (A) (A) (A) (A) (A) (A) (A) (A) (A) (A) (A) (A)
                 (A) (A) (A) (A) (A) (A) (A) (A) (A) (A) (A) (A)
                 (A) (A) (A) (A) (A) (A) (A) (A) (A) (A) (A) (A)
                 (A) (A) (A) (A) (A) (A) (A) (A) (A) (A) (A) (A)
                 (A) (A) (A) (A) (A) (A) (A) (A) (A) (A) (A) (A)
                 (A) (A) (A) (A) (A) (A) (A) (A) (A) (A) (A) (A)
                 (A) (A) (A) (A) (A) (A) (A) (A) (A) (A) (A) (A)
                 (A) (A) (A) (A) (A) (A) (A) (A) (A) (A) (A) (A)
                 (A) (A) (A) (A) (A) (A) (A) (A) (A) (A) (A) (A)
                 (A) (A) (A) (A) (A) (A) (A) (A) (A) (A) (A) (A)
                 (A) (A) (A) (A) (A) (A) (A) (A) (A) (A) (A) (A)
                 (A) (A)
 The electronic state is 1-A.
 Alpha  occ. eigenvalues --  -90.06051 -19.52926 -19.52865 -19.48995 -19.47007
 Alpha  occ. eigenvalues --  -19.44073 -14.69765 -14.66503 -10.56603 -10.54746
 Alpha  occ. eigenvalues --  -10.53516 -10.51983 -10.50947 -10.50133 -10.49302
 Alpha  occ. eigenvalues --  -10.48180 -10.48046 -10.47485 -10.46223 -10.45570
 Alpha  occ. eigenvalues --  -10.43893 -10.43685  -8.37505  -6.29623  -6.29565
 Alpha  occ. eigenvalues --   -6.29560  -1.09746  -1.06344  -1.02077  -0.96653
 Alpha  occ. eigenvalues --   -0.93097  -0.90165  -0.88625  -0.88052  -0.81483
 Alpha  occ. eigenvalues --   -0.78906  -0.77532  -0.76998  -0.75458  -0.68902
 Alpha  occ. eigenvalues --   -0.66164  -0.62883  -0.61229  -0.59910  -0.57780
 Alpha  occ. eigenvalues --   -0.55212  -0.52338  -0.50597  -0.49084  -0.47114
 Alpha  occ. eigenvalues --   -0.46769  -0.46149  -0.45671  -0.44715  -0.43892
 Alpha  occ. eigenvalues --   -0.43252  -0.42013  -0.41876  -0.41583  -0.41549
 Alpha  occ. eigenvalues --   -0.40704  -0.39801  -0.39314  -0.37782  -0.37447
 Alpha  occ. eigenvalues --   -0.36097  -0.35679  -0.35628  -0.33675  -0.33176
 Alpha  occ. eigenvalues --   -0.33084  -0.32561  -0.30770  -0.30539  -0.29987
 Alpha  occ. eigenvalues --   -0.29239  -0.28991  -0.28815  -0.27042  -0.26350
 Alpha  occ. eigenvalues --   -0.23654  -0.23511  -0.22732  -0.20116  -0.19137
 Alpha  occ. eigenvalues --   -0.17720  -0.16995  -0.16177
 Alpha virt. eigenvalues --    0.05742   0.07483   0.09286   0.09356   0.10123
 Alpha virt. eigenvalues --    0.10377   0.11257   0.11720   0.12067   0.12371
 Alpha virt. eigenvalues --    0.12786   0.12985   0.13063   0.13169   0.13596
 Alpha virt. eigenvalues --    0.13834   0.14291   0.14829   0.15390   0.15654
 Alpha virt. eigenvalues --    0.15853   0.16897   0.17002   0.17530   0.17653
 Alpha virt. eigenvalues --    0.17874   0.18129   0.18388   0.19074   0.19507
 Alpha virt. eigenvalues --    0.19748   0.20010   0.20259   0.20547   0.21161
 Alpha virt. eigenvalues --    0.21294   0.21670   0.22019   0.22849   0.23182
 Alpha virt. eigenvalues --    0.23478   0.23614   0.24044   0.24307   0.24567
 Alpha virt. eigenvalues --    0.24739   0.25111   0.25447   0.25625   0.26614
 Alpha virt. eigenvalues --    0.26938   0.27418   0.27595   0.28260   0.28963
 Alpha virt. eigenvalues --    0.29513   0.29761   0.29904   0.30316   0.30860
 Alpha virt. eigenvalues --    0.31063   0.31276   0.32034   0.32439   0.32652
 Alpha virt. eigenvalues --    0.32972   0.33684   0.34074   0.34211   0.34360
 Alpha virt. eigenvalues --    0.34618   0.34922   0.35316   0.35599   0.35857
 Alpha virt. eigenvalues --    0.36225   0.37055   0.37080   0.37577   0.37642
 Alpha virt. eigenvalues --    0.38157   0.38402   0.39141   0.39199   0.39418
 Alpha virt. eigenvalues --    0.39578   0.39850   0.40559   0.40901   0.41296
 Alpha virt. eigenvalues --    0.41703   0.42073   0.42179   0.42488   0.43117
 Alpha virt. eigenvalues --    0.43356   0.43664   0.43839   0.44154   0.44546
 Alpha virt. eigenvalues --    0.44917   0.45428   0.45545   0.46226   0.46690
 Alpha virt. eigenvalues --    0.47149   0.47288   0.47627   0.47964   0.48248
 Alpha virt. eigenvalues --    0.49203   0.49824   0.50274   0.51546   0.52508
 Alpha virt. eigenvalues --    0.52950   0.53493   0.54926   0.55349   0.56766
 Alpha virt. eigenvalues --    0.57660   0.57918   0.60146   0.61428   0.61926
 Alpha virt. eigenvalues --    0.63847   0.65115   0.65681   0.66087   0.66480
 Alpha virt. eigenvalues --    0.67444   0.69328   0.69889   0.70384   0.71932
 Alpha virt. eigenvalues --    0.72352   0.75623   0.77293   0.78260   0.79858
 Alpha virt. eigenvalues --    0.80441   0.80499   0.81135   0.81305   0.83235
 Alpha virt. eigenvalues --    0.84295   0.84488   0.84917   0.85486   0.86266
 Alpha virt. eigenvalues --    0.86512   0.86757   0.87348   0.87731   0.89798
 Alpha virt. eigenvalues --    0.89877   0.90986   0.91638   0.91943   0.92466
 Alpha virt. eigenvalues --    0.92870   0.93680   0.96086   0.97653   0.97941
 Alpha virt. eigenvalues --    0.98523   0.99069   0.99650   1.00842   1.01838
 Alpha virt. eigenvalues --    1.02588   1.04096   1.05278   1.06138   1.06746
 Alpha virt. eigenvalues --    1.07420   1.07624   1.08236   1.09482   1.09681
 Alpha virt. eigenvalues --    1.10423   1.11721   1.12202   1.12443   1.14484
 Alpha virt. eigenvalues --    1.15041   1.16240   1.16548   1.16999   1.18027
 Alpha virt. eigenvalues --    1.18886   1.19997   1.21043   1.21985   1.22669
 Alpha virt. eigenvalues --    1.23075   1.23804   1.24951   1.25289   1.25531
 Alpha virt. eigenvalues --    1.26070   1.27022   1.29063   1.29364   1.30060
 Alpha virt. eigenvalues --    1.31537   1.32159   1.34627   1.35551   1.36755
 Alpha virt. eigenvalues --    1.38276   1.39051   1.41851   1.42499   1.42828
 Alpha virt. eigenvalues --    1.43288   1.44538   1.44611   1.45171   1.47280
 Alpha virt. eigenvalues --    1.47668   1.48259   1.49386   1.50657   1.51625
 Alpha virt. eigenvalues --    1.51738   1.52793   1.53736   1.54899   1.55448
 Alpha virt. eigenvalues --    1.55785   1.56002   1.57293   1.58143   1.58777
 Alpha virt. eigenvalues --    1.59663   1.60056   1.60285   1.61872   1.62987
 Alpha virt. eigenvalues --    1.63587   1.64987   1.67047   1.67433   1.67663
 Alpha virt. eigenvalues --    1.68856   1.69419   1.72007   1.72974   1.74143
 Alpha virt. eigenvalues --    1.75725   1.78358   1.81357   1.82790   1.84572
 Alpha virt. eigenvalues --    1.85546   1.88939   1.91416   1.91756   1.94341
 Alpha virt. eigenvalues --    1.96578   1.97514   1.97938   1.98903   1.99438
 Alpha virt. eigenvalues --    1.99685   2.00373   2.00439   2.01488   2.02454
 Alpha virt. eigenvalues --    2.03182   2.03520   2.05039   2.05557   2.06729
 Alpha virt. eigenvalues --    2.07866   2.08709   2.08958   2.09078   2.09630
 Alpha virt. eigenvalues --    2.11730   2.12524   2.13299   2.13970   2.15558
 Alpha virt. eigenvalues --    2.15797   2.16294   2.16519   2.17911   2.19065
 Alpha virt. eigenvalues --    2.20296   2.22327   2.23021   2.23873   2.25261
 Alpha virt. eigenvalues --    2.25328   2.25807   2.26407   2.27705   2.28809
 Alpha virt. eigenvalues --    2.30243   2.30778   2.31807   2.32267   2.34964
 Alpha virt. eigenvalues --    2.35411   2.35934   2.36457   2.39426   2.40109
 Alpha virt. eigenvalues --    2.41092   2.41814   2.42678   2.42919   2.45668
 Alpha virt. eigenvalues --    2.47102   2.48076   2.48427   2.49640   2.50472
 Alpha virt. eigenvalues --    2.52343   2.59219   2.66526   2.67326   2.68044
 Alpha virt. eigenvalues --    2.69002   2.73075   2.74125   2.75427   2.76083
 Alpha virt. eigenvalues --    2.77510   2.83666   2.85035   2.85438   2.86076
 Alpha virt. eigenvalues --    2.88355   2.89159   2.90884   2.91898   2.94435
 Alpha virt. eigenvalues --    2.94515   3.00286   3.01066   3.10176   3.16308
 Alpha virt. eigenvalues --    3.17848   3.23502   3.29754   3.32592   3.38670
 Alpha virt. eigenvalues --    3.41827   3.49462   4.11175   4.19793   4.30950
 Alpha virt. eigenvalues --    4.33003   4.33889   4.36278   4.38037   4.40054
 Alpha virt. eigenvalues --    4.46875   4.47342   4.49895   4.51985   4.54451
 Alpha virt. eigenvalues --    4.56830   4.57133   4.59278   4.63749   4.69344
 Alpha virt. eigenvalues --    4.75679   4.82824   4.84222   4.89039
          Condensed to atoms (all electrons):
               1          2          3          4          5          6
     1  C    5.870167  -0.240932   0.042556  -0.018071  -0.072808  -0.000779
     2  C   -0.240932   6.430302  -0.519062  -0.066885   0.181719   0.025953
     3  C    0.042556  -0.519062   7.240884   0.362681  -0.856759  -0.111117
     4  N   -0.018071  -0.066885   0.362681   7.756975   0.470523  -0.187788
     5  C   -0.072808   0.181719  -0.856759   0.470523   6.723300   0.604064
     6  O   -0.000779   0.025953  -0.111117  -0.187788   0.604064   8.337287
     7  N   -0.005655   0.016058  -0.245915  -0.399417   0.141555  -0.079293
     8  C   -0.003692   0.018370  -0.159454  -0.127576   0.092095  -0.438119
     9  C   -0.005681  -0.023983  -0.210459  -0.026866  -0.445011   0.440263
    10  C   -0.000718   0.014387  -0.043335  -0.085254  -0.091440  -0.128968
    11  C   -0.000114   0.003122  -0.013309  -0.030930  -0.158327  -0.035078
    12  C   -0.000367  -0.000413  -0.045900  -0.014611  -0.641369   0.005946
    13  C   -0.000835  -0.005141  -0.069916   0.006713  -0.454948   0.184040
    14  H    0.457691  -0.137876   0.031786   0.000255  -0.001604   0.000004
    15  H    0.419794  -0.067386  -0.007654  -0.000109  -0.000923  -0.000043
    16  H    0.420311  -0.067368  -0.008264  -0.000120  -0.000864  -0.000041
    17  H   -0.039110   0.422809  -0.064601   0.004082  -0.008074  -0.000187
    18  H   -0.039894   0.422282  -0.063605   0.004052  -0.008044  -0.000185
    19  H   -0.010217  -0.055022   0.447525  -0.058955  -0.019418   0.000822
    20  H   -0.008064  -0.058989   0.457252  -0.058881  -0.026356   0.000757
    21  H    0.001861  -0.001487  -0.054608   0.167912   0.022763   0.003997
    22  H    0.000210   0.000341   0.005737   0.032632  -0.028127   0.003719
    23  H    0.000023   0.000001   0.004280   0.000007   0.040775  -0.005157
    24  H   -0.000001   0.000018  -0.000290   0.000699  -0.006565   0.000098
    25  H    0.000000   0.000000   0.000043   0.000005   0.006292  -0.000001
    26  S   -0.000003  -0.000013  -0.000814   0.000054  -0.033975   0.000776
    27  O   -0.000000  -0.000000  -0.000014   0.000001  -0.001636  -0.000016
    28  O   -0.000000  -0.000000  -0.000011   0.000001  -0.001601  -0.000018
    29  H   -0.000000   0.000002  -0.000033   0.000024  -0.002507   0.000294
    30  C    0.000000   0.000001   0.000055   0.000011   0.003107   0.000041
    31  H   -0.000000  -0.000000  -0.000000  -0.000000  -0.000050  -0.000000
    32  H    0.000000   0.000000   0.000000   0.000000   0.000007   0.000000
    33  H   -0.000000  -0.000000  -0.000000  -0.000000  -0.000043  -0.000000
    34  O    0.007516   0.012140  -0.010691  -0.028171  -0.004695  -0.000185
    35  O   -0.000179  -0.000555   0.003935   0.008942   0.007504   0.000007
    36  C   -0.003050  -0.002657   0.003545  -0.005342  -0.000925  -0.000706
    37  C    0.003101   0.000199   0.019687  -0.010333  -0.017314  -0.000618
    38  C   -0.000384  -0.000206  -0.002366   0.001838   0.002141   0.000040
    39  H    0.000005  -0.000013   0.000054  -0.000041  -0.000109  -0.000000
    40  H    0.000005  -0.000019   0.000065  -0.000035  -0.000141  -0.000000
    41  H    0.000000   0.000006  -0.000004  -0.000001  -0.000018  -0.000000
    42  H    0.000000   0.000003  -0.000002  -0.000002   0.000013   0.000000
    43  H    0.000000   0.000006  -0.000004  -0.000002  -0.000007  -0.000000
               7          8          9         10         11         12
     1  C   -0.005655  -0.003692  -0.005681  -0.000718  -0.000114  -0.000367
     2  C    0.016058   0.018370  -0.023983   0.014387   0.003122  -0.000413
     3  C   -0.245915  -0.159454  -0.210459  -0.043335  -0.013309  -0.045900
     4  N   -0.399417  -0.127576  -0.026866  -0.085254  -0.030930  -0.014611
     5  C    0.141555   0.092095  -0.445011  -0.091440  -0.158327  -0.641369
     6  O   -0.079293  -0.438119   0.440263  -0.128968  -0.035078   0.005946
     7  N    7.884052   0.166998  -0.113662   0.042617  -0.000794  -0.006352
     8  C    0.166998  14.395667   0.214846   0.951761  -1.302043  -3.644726
     9  C   -0.113662   0.214846  12.750769  -3.099402  -1.721414  -2.826302
    10  C    0.042617   0.951761  -3.099402   9.888144   1.383643  -1.140495
    11  C   -0.000794  -1.302043  -1.721414   1.383643  10.889153  -0.558079
    12  C   -0.006352  -3.644726  -2.826302  -1.140495  -0.558079  15.222433
    13  C    0.094846  -4.019190   1.020076  -1.521590  -3.038410   1.024387
    14  H    0.000008  -0.000021  -0.000001  -0.000001  -0.000000  -0.000000
    15  H    0.000007   0.000021  -0.000049   0.000007   0.000000  -0.000000
    16  H    0.000006   0.000017  -0.000049   0.000008   0.000000  -0.000000
    17  H   -0.000338  -0.000588  -0.000241   0.000171   0.000008  -0.000002
    18  H   -0.000297  -0.000585  -0.000175   0.000128   0.000005  -0.000001
    19  H    0.000095   0.000344  -0.001937   0.000613   0.000050  -0.000006
    20  H   -0.000336   0.001309  -0.003100   0.000432   0.000042  -0.000029
    21  H    0.028639   0.012940  -0.003530   0.003219   0.000343  -0.000165
    22  H    0.154517   0.021312   0.046917  -0.065073  -0.012713   0.006628
    23  H   -0.012016   0.018610   0.319664   0.010432  -0.007546   0.007944
    24  H   -0.003719  -0.028361  -0.002397   0.250327   0.041585   0.062447
    25  H    0.000694   0.083086  -0.010854   0.012357   0.288640  -0.062937
    26  S    0.001560  -0.368628  -0.294464   0.236986   0.335298  -0.933861
    27  O    0.000136  -0.035989  -0.043412   0.016448   0.124985   0.076122
    28  O    0.000176  -0.042641  -0.073268  -0.002573   0.042169   0.135041
    29  H   -0.000765   0.003937  -0.063264  -0.005618   0.005521   0.021866
    30  C   -0.000150   0.072338   0.116669   0.008412  -0.029791  -0.466480
    31  H   -0.000004  -0.003444  -0.003501   0.002050   0.022357  -0.022480
    32  H    0.000000   0.001218   0.000088   0.002524  -0.001179   0.035435
    33  H   -0.000002  -0.002776  -0.004526   0.007911   0.017907  -0.028916
    34  O    0.010870   0.009749   0.000350  -0.009585  -0.005596  -0.000672
    35  O   -0.005885  -0.161747  -0.019845   0.130396   0.043099   0.003281
    36  C   -0.005521   0.048793  -0.007189  -0.033240  -0.017800  -0.007885
    37  C   -0.017958  -0.003054  -0.009397   0.003075  -0.004552  -0.001753
    38  C    0.003160  -0.023287  -0.002061   0.011096   0.015178   0.001222
    39  H    0.000052  -0.000353  -0.000034   0.000321   0.000010  -0.000002
    40  H    0.000051  -0.000340  -0.000039   0.000313   0.000007  -0.000002
    41  H   -0.000021  -0.000461  -0.000022   0.000135   0.000260  -0.000012
    42  H    0.000006   0.000131   0.000006  -0.000117  -0.000060  -0.000001
    43  H   -0.000022  -0.000490  -0.000016   0.000132   0.000291  -0.000010
              13         14         15         16         17         18
     1  C   -0.000835   0.457691   0.419794   0.420311  -0.039110  -0.039894
     2  C   -0.005141  -0.137876  -0.067386  -0.067368   0.422809   0.422282
     3  C   -0.069916   0.031786  -0.007654  -0.008264  -0.064601  -0.063605
     4  N    0.006713   0.000255  -0.000109  -0.000120   0.004082   0.004052
     5  C   -0.454948  -0.001604  -0.000923  -0.000864  -0.008074  -0.008044
     6  O    0.184040   0.000004  -0.000043  -0.000041  -0.000187  -0.000185
     7  N    0.094846   0.000008   0.000007   0.000006  -0.000338  -0.000297
     8  C   -4.019190  -0.000021   0.000021   0.000017  -0.000588  -0.000585
     9  C    1.020076  -0.000001  -0.000049  -0.000049  -0.000241  -0.000175
    10  C   -1.521590  -0.000001   0.000007   0.000008   0.000171   0.000128
    11  C   -3.038410  -0.000000   0.000000   0.000000   0.000008   0.000005
    12  C    1.024387  -0.000000  -0.000000  -0.000000  -0.000002  -0.000001
    13  C   13.074981   0.000000  -0.000002  -0.000003  -0.000010  -0.000006
    14  H    0.000000   0.511010  -0.026270  -0.026278  -0.003314  -0.003317
    15  H   -0.000002  -0.026270   0.513722  -0.030714  -0.004633   0.003952
    16  H   -0.000003  -0.026278  -0.030714   0.513804   0.003949  -0.004626
    17  H   -0.000010  -0.003314  -0.004633   0.003949   0.485187  -0.026520
    18  H   -0.000006  -0.003317   0.003952  -0.004626  -0.026520   0.486242
    19  H   -0.000173  -0.000071  -0.000379   0.003070   0.004002  -0.005461
    20  H   -0.000351  -0.000069   0.003060  -0.000382  -0.005398   0.004011
    21  H   -0.000479  -0.000000  -0.000000  -0.000000   0.000600   0.000585
    22  H    0.009918  -0.000000  -0.000000  -0.000000   0.000002   0.000002
    23  H   -0.069253   0.000000  -0.000000  -0.000000  -0.000000  -0.000000
    24  H   -0.012762  -0.000000  -0.000000  -0.000000  -0.000000  -0.000000
    25  H    0.004523  -0.000000   0.000000   0.000000  -0.000000  -0.000000
    26  S   -0.201486  -0.000000  -0.000000  -0.000000  -0.000000  -0.000000
    27  O   -0.292914  -0.000000  -0.000000  -0.000000  -0.000000   0.000000
    28  O   -0.228830  -0.000000  -0.000000  -0.000000   0.000000  -0.000000
    29  H    0.336791  -0.000000   0.000000   0.000000   0.000000   0.000000
    30  C    0.236935  -0.000000   0.000000   0.000000  -0.000000  -0.000000
    31  H   -0.015514   0.000000   0.000000   0.000000   0.000000   0.000000
    32  H    0.000914   0.000000   0.000000   0.000000  -0.000000  -0.000000
    33  H   -0.017553   0.000000   0.000000   0.000000   0.000000   0.000000
    34  O    0.000897  -0.000018  -0.000006  -0.000007  -0.001329  -0.001250
    35  O   -0.001513  -0.000000   0.000000   0.000000  -0.000013  -0.000013
    36  C   -0.001789  -0.000055   0.000003   0.000000   0.000091   0.000132
    37  C   -0.000967   0.000026  -0.000001  -0.000001   0.000071   0.000060
    38  C   -0.000834  -0.000000   0.000000   0.000000  -0.000008  -0.000008
    39  H   -0.000002  -0.000000  -0.000000  -0.000000   0.000000   0.000000
    40  H   -0.000002  -0.000000  -0.000000  -0.000000   0.000000   0.000000
    41  H   -0.000001  -0.000000  -0.000000  -0.000000  -0.000000  -0.000000
    42  H    0.000000   0.000000  -0.000000  -0.000000  -0.000000  -0.000000
    43  H   -0.000001  -0.000000  -0.000000  -0.000000  -0.000000  -0.000000
              19         20         21         22         23         24
     1  C   -0.010217  -0.008064   0.001861   0.000210   0.000023  -0.000001
     2  C   -0.055022  -0.058989  -0.001487   0.000341   0.000001   0.000018
     3  C    0.447525   0.457252  -0.054608   0.005737   0.004280  -0.000290
     4  N   -0.058955  -0.058881   0.167912   0.032632   0.000007   0.000699
     5  C   -0.019418  -0.026356   0.022763  -0.028127   0.040775  -0.006565
     6  O    0.000822   0.000757   0.003997   0.003719  -0.005157   0.000098
     7  N    0.000095  -0.000336   0.028639   0.154517  -0.012016  -0.003719
     8  C    0.000344   0.001309   0.012940   0.021312   0.018610  -0.028361
     9  C   -0.001937  -0.003100  -0.003530   0.046917   0.319664  -0.002397
    10  C    0.000613   0.000432   0.003219  -0.065073   0.010432   0.250327
    11  C    0.000050   0.000042   0.000343  -0.012713  -0.007546   0.041585
    12  C   -0.000006  -0.000029  -0.000165   0.006628   0.007944   0.062447
    13  C   -0.000173  -0.000351  -0.000479   0.009918  -0.069253  -0.012762
    14  H   -0.000071  -0.000069  -0.000000  -0.000000   0.000000  -0.000000
    15  H   -0.000379   0.003060  -0.000000  -0.000000  -0.000000  -0.000000
    16  H    0.003070  -0.000382  -0.000000  -0.000000  -0.000000  -0.000000
    17  H    0.004002  -0.005398   0.000600   0.000002  -0.000000  -0.000000
    18  H   -0.005461   0.004011   0.000585   0.000002  -0.000000  -0.000000
    19  H    0.530598  -0.042871   0.001612   0.000005  -0.000001  -0.000000
    20  H   -0.042871   0.530520   0.001611   0.000005  -0.000001   0.000000
    21  H    0.001612   0.001611   0.252926   0.004597   0.000000   0.000004
    22  H    0.000005   0.000005   0.004597   0.259098  -0.000081   0.004775
    23  H   -0.000001  -0.000001   0.000000  -0.000081   0.423492  -0.000096
    24  H   -0.000000   0.000000   0.000004   0.004775  -0.000096   0.440419
    25  H   -0.000000  -0.000000   0.000000  -0.000008   0.000012  -0.004271
    26  S   -0.000000  -0.000000  -0.000004   0.000190  -0.002210   0.000918
    27  O   -0.000000   0.000000  -0.000000   0.000000  -0.000029   0.000031
    28  O    0.000000  -0.000000  -0.000000   0.000000  -0.000017   0.000028
    29  H   -0.000000  -0.000000  -0.000000   0.000001  -0.004860   0.000011
    30  C   -0.000000  -0.000000   0.000000   0.000005   0.000135   0.000277
    31  H    0.000000   0.000000  -0.000000   0.000000   0.000000  -0.000000
    32  H   -0.000000  -0.000000   0.000000  -0.000000  -0.000000  -0.000000
    33  H    0.000000   0.000000  -0.000000   0.000000  -0.000000  -0.000000
    34  O   -0.000052  -0.000054   0.055418   0.001641   0.000001  -0.000039
    35  O   -0.000003  -0.000004  -0.000820   0.048831   0.000008  -0.002905
    36  C    0.000257   0.000314  -0.005047  -0.004430  -0.000011  -0.000493
    37  C    0.000013   0.000029   0.006961   0.008701  -0.000001   0.002062
    38  C    0.000001   0.000001  -0.001269  -0.001044  -0.000000  -0.000172
    39  H   -0.000000  -0.000000  -0.000001  -0.000007   0.000000   0.000000
    40  H   -0.000000  -0.000000  -0.000001  -0.000007   0.000000   0.000000
    41  H   -0.000000   0.000000   0.000000  -0.000003   0.000000   0.000001
    42  H   -0.000000  -0.000000   0.000000   0.000000  -0.000000   0.000000
    43  H    0.000000  -0.000000   0.000000  -0.000003   0.000000   0.000000
              25         26         27         28         29         30
     1  C    0.000000  -0.000003  -0.000000  -0.000000  -0.000000   0.000000
     2  C    0.000000  -0.000013  -0.000000  -0.000000   0.000002   0.000001
     3  C    0.000043  -0.000814  -0.000014  -0.000011  -0.000033   0.000055
     4  N    0.000005   0.000054   0.000001   0.000001   0.000024   0.000011
     5  C    0.006292  -0.033975  -0.001636  -0.001601  -0.002507   0.003107
     6  O   -0.000001   0.000776  -0.000016  -0.000018   0.000294   0.000041
     7  N    0.000694   0.001560   0.000136   0.000176  -0.000765  -0.000150
     8  C    0.083086  -0.368628  -0.035989  -0.042641   0.003937   0.072338
     9  C   -0.010854  -0.294464  -0.043412  -0.073268  -0.063264   0.116669
    10  C    0.012357   0.236986   0.016448  -0.002573  -0.005618   0.008412
    11  C    0.288640   0.335298   0.124985   0.042169   0.005521  -0.029791
    12  C   -0.062937  -0.933861   0.076122   0.135041   0.021866  -0.466480
    13  C    0.004523  -0.201486  -0.292914  -0.228830   0.336791   0.236935
    14  H   -0.000000  -0.000000  -0.000000  -0.000000  -0.000000  -0.000000
    15  H    0.000000  -0.000000  -0.000000  -0.000000   0.000000   0.000000
    16  H    0.000000  -0.000000  -0.000000  -0.000000   0.000000   0.000000
    17  H   -0.000000  -0.000000  -0.000000   0.000000   0.000000  -0.000000
    18  H   -0.000000  -0.000000   0.000000  -0.000000   0.000000  -0.000000
    19  H   -0.000000  -0.000000  -0.000000   0.000000  -0.000000  -0.000000
    20  H   -0.000000  -0.000000   0.000000  -0.000000  -0.000000  -0.000000
    21  H    0.000000  -0.000004  -0.000000  -0.000000  -0.000000   0.000000
    22  H   -0.000008   0.000190   0.000000   0.000000   0.000001   0.000005
    23  H    0.000012  -0.002210  -0.000029  -0.000017  -0.004860   0.000135
    24  H   -0.004271   0.000918   0.000031   0.000028   0.000011   0.000277
    25  H    0.512680  -0.023282  -0.000712  -0.000319  -0.000144   0.000919
    26  S   -0.023282  16.047162   0.387597   0.378176   0.004627  -0.590754
    27  O   -0.000712   0.387597   8.709412  -0.237543   0.001154  -0.141469
    28  O   -0.000319   0.378176  -0.237543   8.738723   0.002102  -0.140252
    29  H   -0.000144   0.004627   0.001154   0.002102   0.446153   0.000305
    30  C    0.000919  -0.590754  -0.141469  -0.140252   0.000305   6.779897
    31  H   -0.000299   0.020080  -0.003721   0.007343   0.000000   0.319044
    32  H    0.000014  -0.071766  -0.008422  -0.008880  -0.000001   0.396660
    33  H   -0.000305   0.019341   0.007753  -0.003628   0.000001   0.326625
    34  O    0.000000  -0.000005  -0.000000  -0.000000  -0.000000  -0.000000
    35  O    0.000021  -0.000020  -0.000000  -0.000000  -0.000000   0.000012
    36  C    0.000007  -0.000081  -0.000004  -0.000004   0.000001   0.000036
    37  C    0.000000  -0.000050  -0.000000  -0.000000   0.000000   0.000011
    38  C   -0.000014   0.000036   0.000000   0.000000   0.000000  -0.000003
    39  H   -0.000000   0.000000  -0.000000  -0.000000   0.000000  -0.000000
    40  H   -0.000000   0.000000  -0.000000  -0.000000   0.000000  -0.000000
    41  H    0.000000  -0.000000  -0.000000  -0.000000  -0.000000   0.000000
    42  H    0.000000  -0.000000  -0.000000  -0.000000   0.000000   0.000000
    43  H    0.000000  -0.000000  -0.000000  -0.000000  -0.000000   0.000000
              31         32         33         34         35         36
     1  C   -0.000000   0.000000  -0.000000   0.007516  -0.000179  -0.003050
     2  C   -0.000000   0.000000  -0.000000   0.012140  -0.000555  -0.002657
     3  C   -0.000000   0.000000  -0.000000  -0.010691   0.003935   0.003545
     4  N   -0.000000   0.000000  -0.000000  -0.028171   0.008942  -0.005342
     5  C   -0.000050   0.000007  -0.000043  -0.004695   0.007504  -0.000925
     6  O   -0.000000   0.000000  -0.000000  -0.000185   0.000007  -0.000706
     7  N   -0.000004   0.000000  -0.000002   0.010870  -0.005885  -0.005521
     8  C   -0.003444   0.001218  -0.002776   0.009749  -0.161747   0.048793
     9  C   -0.003501   0.000088  -0.004526   0.000350  -0.019845  -0.007189
    10  C    0.002050   0.002524   0.007911  -0.009585   0.130396  -0.033240
    11  C    0.022357  -0.001179   0.017907  -0.005596   0.043099  -0.017800
    12  C   -0.022480   0.035435  -0.028916  -0.000672   0.003281  -0.007885
    13  C   -0.015514   0.000914  -0.017553   0.000897  -0.001513  -0.001789
    14  H    0.000000   0.000000   0.000000  -0.000018  -0.000000  -0.000055
    15  H    0.000000   0.000000   0.000000  -0.000006   0.000000   0.000003
    16  H    0.000000   0.000000   0.000000  -0.000007   0.000000   0.000000
    17  H    0.000000  -0.000000   0.000000  -0.001329  -0.000013   0.000091
    18  H    0.000000  -0.000000   0.000000  -0.001250  -0.000013   0.000132
    19  H    0.000000  -0.000000   0.000000  -0.000052  -0.000003   0.000257
    20  H    0.000000  -0.000000   0.000000  -0.000054  -0.000004   0.000314
    21  H   -0.000000   0.000000  -0.000000   0.055418  -0.000820  -0.005047
    22  H    0.000000  -0.000000   0.000000   0.001641   0.048831  -0.004430
    23  H    0.000000  -0.000000  -0.000000   0.000001   0.000008  -0.000011
    24  H   -0.000000  -0.000000  -0.000000  -0.000039  -0.002905  -0.000493
    25  H   -0.000299   0.000014  -0.000305   0.000000   0.000021   0.000007
    26  S    0.020080  -0.071766   0.019341  -0.000005  -0.000020  -0.000081
    27  O   -0.003721  -0.008422   0.007753  -0.000000  -0.000000  -0.000004
    28  O    0.007343  -0.008880  -0.003628  -0.000000  -0.000000  -0.000004
    29  H    0.000000  -0.000001   0.000001  -0.000000  -0.000000   0.000001
    30  C    0.319044   0.396660   0.326625  -0.000000   0.000012   0.000036
    31  H    0.461322  -0.020024  -0.025437  -0.000000  -0.000000  -0.000000
    32  H   -0.020024   0.389202  -0.020275  -0.000000   0.000000   0.000000
    33  H   -0.025437  -0.020275   0.454372   0.000000  -0.000000  -0.000000
    34  O   -0.000000  -0.000000   0.000000   8.588759  -0.196031   0.530725
    35  O   -0.000000   0.000000  -0.000000  -0.196031   8.585361   0.281768
    36  C   -0.000000   0.000000  -0.000000   0.530725   0.281768   5.544810
    37  C   -0.000000   0.000000  -0.000000  -0.272474  -0.162070  -0.791127
    38  C    0.000000  -0.000000   0.000000   0.025348   0.065325  -0.006394
    39  H    0.000000  -0.000000   0.000000  -0.002937   0.001815  -0.066459
    40  H    0.000000  -0.000000   0.000000  -0.002872   0.001759  -0.068364
    41  H    0.000000   0.000000   0.000000  -0.000055  -0.005532  -0.006885
    42  H   -0.000000  -0.000000  -0.000000  -0.000107   0.001946   0.037251
    43  H   -0.000000   0.000000   0.000000  -0.000065  -0.005514  -0.006037
              37         38         39         40         41         42
     1  C    0.003101  -0.000384   0.000005   0.000005   0.000000   0.000000
     2  C    0.000199  -0.000206  -0.000013  -0.000019   0.000006   0.000003
     3  C    0.019687  -0.002366   0.000054   0.000065  -0.000004  -0.000002
     4  N   -0.010333   0.001838  -0.000041  -0.000035  -0.000001  -0.000002
     5  C   -0.017314   0.002141  -0.000109  -0.000141  -0.000018   0.000013
     6  O   -0.000618   0.000040  -0.000000  -0.000000  -0.000000   0.000000
     7  N   -0.017958   0.003160   0.000052   0.000051  -0.000021   0.000006
     8  C   -0.003054  -0.023287  -0.000353  -0.000340  -0.000461   0.000131
     9  C   -0.009397  -0.002061  -0.000034  -0.000039  -0.000022   0.000006
    10  C    0.003075   0.011096   0.000321   0.000313   0.000135  -0.000117
    11  C   -0.004552   0.015178   0.000010   0.000007   0.000260  -0.000060
    12  C   -0.001753   0.001222  -0.000002  -0.000002  -0.000012  -0.000001
    13  C   -0.000967  -0.000834  -0.000002  -0.000002  -0.000001   0.000000
    14  H    0.000026  -0.000000  -0.000000  -0.000000  -0.000000   0.000000
[...]
 0043,0.00002022,0.00002871,-0.00001709,0.00000149,-0.00000103,-0.00000
 489,-0.00000110,-0.00001898,0.00000059,-0.00001705,-0.00001230,0.00000
 030,0.00000223,0.00000054,0.00000159,-0.00000218,0.00000138,-0.0000042
 5,-0.00000246,0.00000028,0.00000100,0.00001054,0.00000015,0.00000337,0
 .00000525,-0.00000139,-0.00000741,0.00000058,-0.00000024,0.00000216,0.
 00000731,-0.00000262,-0.00000174,-0.00003930,-0.00014509,-0.00003486,0
 .00001763,0.00038906,-0.00012202,-0.00000725,-0.00000363,0.00000244,0.
 00001946,0.00004191,0.00002120,0.00001084,0.00000777,0.00000627,0.0000
 3941,0.00003783,0.00001292,-0.00001416,-0.00001258,-0.00000732,-0.0000
 1559,-0.00003087,-0.00000690,-0.00000154,-0.00000179,0.00000182,-0.000
 00546,0.00000076,-0.00000023,0.00000214,0.00000021,-0.00000187,-0.0000
 0140,0.00000040,0.00000088,0.00000126,0.00000026,-0.00000124,0.0008912
 3,0.00124836,-0.00129392,0.00055046,-0.00254632,-0.00053947,-0.0059358
 7,-0.00017143,0.00386190,-0.16473199,-0.02024014,0.13148550,-0.0186976
 6,-0.00322155,0.02073234,0.00911552,0.00208895,-0.00993261,0.18147335,
 0.00000490,0.00000156,-0.00000728,0.00000734,-0.00001024,0.00002989,-0
 .00006031,0.00003472,-0.00001153,0.00009339,0.00004042,0.00004787,-0.0
 0028605,0.00010844,-0.00003420,0.00007678,-0.00013058,0.00001419,-0.00
 010298,-0.00058155,0.00023641,0.00025773,0.00000155,0.00002790,-0.0000
 6354,-0.00003784,-0.00000711,-0.00007814,0.00007475,-0.00001850,0.0000
 3989,0.00000142,0.00000797,-0.00007543,-0.00002465,-0.00000777,0.00001
 970,-0.00001788,0.00000829,0.00001028,-0.00000008,0.00000333,-0.000002
 63,0.00000251,-0.00000501,0.00000011,-0.00000171,0.00000151,-0.0000119
 4,0.00000423,0.00000083,-0.00000022,-0.00001035,-0.00001370,0.00000533
 ,-0.00000720,0.00000148,0.00001735,-0.00000384,0.00000422,-0.00002387,
 0.00002905,-0.00014465,0.00012312,0.00092161,-0.00044736,0.00000217,0.
 00000075,0.00000065,0.00008378,0.00000443,0.00000621,-0.00000631,-0.00
 000065,-0.00000023,0.00011797,0.00000205,0.00000607,-0.00003607,0.0000
 1843,-0.00001065,-0.00003036,-0.00001604,0.00000064,-0.00000412,-0.000
 00194,0.00000169,-0.00002232,-0.00000302,0.00000068,0.00000232,-0.0000
 0135,-0.00000133,-0.00000330,0.00000093,0.00000649,0.00000185,0.000000
 86,-0.00000243,0.00198923,-0.00024723,-0.00373007,-0.00132101,-0.00650
 598,-0.00318500,-0.02289410,-0.00092224,0.02822719,-0.02123075,-0.0488
 9162,0.02743702,0.01177225,0.00136562,-0.01274693,0.00968487,0.0015725
 6,-0.01064329,0.02034345,0.05379816,0.00000133,0.00000193,0.00000125,-
 0.00001334,0.00000918,-0.00001282,0.00009308,-0.00004087,0.00000814,-0
 .00006569,0.00007962,0.00000215,0.00014330,-0.00010598,0.00002925,-0.0
 0003957,0.00010683,-0.00002347,0.00003376,0.00025626,-0.00003845,-0.00
 012734,0.00000016,-0.00000996,0.00003258,0.00002122,-0.00000241,0.0000
 3804,-0.00004644,0.00001430,-0.00003053,-0.00000681,-0.00000075,0.0000
 5043,0.00002404,0.00000352,-0.00000782,0.00001396,-0.00000554,-0.00002
 215,0.00000042,0.00000007,0.00000156,-0.00000120,0.00000426,-0.0000011
 0,-0.00000143,-0.00000129,0.00002448,0.00000344,-0.00001677,0.00000736
 ,0.00001217,0.00001486,-0.00001365,0.00000962,0.00000129,-0.00001673,0
 .00000171,-0.00000560,0.00000499,-0.00013779,0.00002593,-0.00004688,-0
 .00039259,0.00006113,0.00000068,-0.00000014,-0.00000132,-0.00004200,-0
 .00000836,-0.00000739,-0.00000254,-0.00000221,-0.00000089,-0.00011086,
 -0.00002661,-0.00000778,0.00003627,-0.00000522,0.00000890,0.00003242,0
 .00003044,0.00000191,0.00000206,0.00000201,-0.00000092,0.00001908,0.00
 000208,-0.00000075,-0.00000360,0.00000128,0.00000140,0.00000340,-0.000
 00076,-0.00000486,-0.00000237,-0.00000148,0.00000221,-0.00200308,0.001
 07923,0.00115681,-0.00043036,0.00113581,-0.00012600,0.00410135,-0.0028
 9978,-0.00325868,0.13018610,0.02426390,-0.18957668,-0.00724099,-0.0012
 5741,0.00749803,0.01870972,0.00409605,-0.02123725,-0.14213852,-0.02613
 327,0.20363245,0.00000511,0.00000234,0.00000144,-0.00000099,-0.0000098
 3,0.00000517,-0.00000726,0.00000257,0.00001369,0.00007331,0.00010496,-
 0.00004239,-0.00014204,-0.00001151,0.00000663,0.00003854,0.00002980,-0
 .00001383,0.00005459,-0.00001598,-0.00001491,-0.00002795,-0.00000678,0
 .00000672,0.00000892,0.00001242,-0.00000425,0.00000079,-0.00001247,-0.
 00001154,0.00000510,-0.00000447,-0.00000141,0.00000974,-0.00000041,-0.
 00000193,-0.00000692,0.00000253,-0.00000279,0.00000471,-0.00000150,0.0
 0000121,-0.00000266,0.00000336,-0.00000702,-0.00000255,0.00000475,0.00
 000066,0.00000118,-0.00000337,0.00001791,0.00000198,-0.00001033,-0.000
 01370,0.00000056,0.00000459,-0.00000115,0.00000257,0.00000530,-0.00000
 774,-0.00002438,-0.00014354,0.00003753,0.00000092,0.00001290,0.0000243
 7,-0.00000332,0.00000018,0.00000230,0.00001259,0.00001500,0.00002085,-
 0.00000414,-0.00000301,0.00000292,-0.00001734,-0.00000083,0.00002309,0
 .00000414,0.00000232,-0.00000948,0.00000434,-0.00000207,-0.00000749,-0
 .00000059,0.00000105,0.00000069,0.00000444,0.00000140,-0.00000421,0.00
 000088,-0.00000063,0.00000192,0.00000050,-0.00000034,-0.00000165,0.000
 00030,0.00000132,0.00000015,0.00079847,0.00043615,-0.00026943,0.001858
 18,0.00010407,-0.00045234,-0.00174962,-0.00209600,0.00036809,-0.020159
 13,-0.00254803,0.02230270,-0.16627272,-0.02079634,0.13423563,0.0007445
 3,-0.00084679,-0.00015888,-0.00442186,0.00316771,-0.00232178,0.1832607
 1,0.00000003,-0.00000216,0.00000421,-0.00000203,0.00000438,-0.00001006
 ,0.00005179,-0.00002790,0.00001399,-0.00007408,0.00002672,0.00000385,0
 .00016298,-0.00011277,0.00003473,-0.00004118,0.00009678,-0.00002352,0.
 00000805,0.00022254,-0.00004191,-0.00004228,0.00002484,-0.00000383,0.0
 0000788,0.00001653,-0.00000596,-0.00000335,-0.00007355,0.00004514,-0.0
 0004189,-0.00000047,-0.00000145,0.00005981,0.00003756,-0.00000218,0.00
 001022,0.00002150,-0.00000706,-0.00000900,-0.00000127,0.00000048,0.000
 00049,0.00000148,-0.00000167,-0.00000088,0.00000276,-0.00000048,0.0000
 0856,-0.00000123,0.00000238,0.00000229,0.00000032,0.00000173,-0.000006
 87,0.00000863,-0.00000038,-0.00000977,0.00000503,-0.00000840,0.0000244
 2,-0.00007185,0.00000651,-0.00006001,-0.00036181,0.00005121,0.00000449
 ,0.00000463,-0.00000169,-0.00004132,-0.00008649,-0.00005419,-0.0000133
 5,-0.00000631,-0.00000274,-0.00016604,-0.00001871,-0.00000271,0.000056
 80,-0.00001505,0.00001150,0.00004884,0.00003349,-0.00000059,0.00000120
 ,0.00000339,-0.00000054,0.00002936,0.00000170,-0.00000372,-0.00000630,
 0.00000177,0.00000290,0.00000512,0.00000002,-0.00000730,-0.00000294,-0
 .00000154,0.00000345,-0.00089542,0.00004715,-0.00001239,-0.00116529,-0
 .00013108,0.00046818,0.00210799,0.00071989,-0.00071632,0.01045568,0.00
 164632,-0.01246184,-0.02217672,-0.05080691,0.02405102,-0.00077258,0.00
 051128,0.00014419,0.00300763,-0.00137249,0.00086200,0.02134309,0.05136
 660,-0.00000376,-0.00000337,0.00000069,0.00000168,0.00001234,-0.000005
 36,0.00001380,-0.00000866,-0.00000211,-0.00011092,-0.00008505,0.000021
 09,0.00020231,-0.00002385,0.00001913,-0.00005476,-0.00000575,0.0000012
 6,-0.00017351,0.00001411,-0.00000940,0.00020058,0.00004945,0.00000231,
 -0.00004833,-0.00001644,-0.00000076,-0.00008757,-0.00000590,0.00001512
 ,0.00002918,-0.00000201,0.00001018,-0.00003741,0.00001851,-0.00000863,
 0.00003647,0.00000985,0.00000121,-0.00000389,0.00000021,-0.00000041,0.
 00000116,-0.00000023,0.00000273,0.00000154,-0.00000188,-0.00000117,-0.
 00000196,-0.00000118,-0.00000447,-0.00000110,0.00000160,0.00000512,-0.
 00000122,-0.00000067,-0.00000136,-0.00000513,0.00000163,0.00000040,0.0
 0002822,0.00010014,-0.00002125,0.00000890,0.00000978,-0.00002147,0.000
 01137,0.00000718,-0.00000214,0.00002851,-0.00010697,-0.00001473,-0.000
 02764,-0.00001771,-0.00000778,-0.00000962,-0.00006171,0.00000124,0.000
 00588,0.00003383,-0.00000179,0.00001191,0.00004044,0.00000568,-0.00000
 075,0.00000262,-0.00000147,-0.00000080,-0.00000207,-0.00000256,-0.0000
 0148,-0.00000161,0.00000393,0.00000074,-0.00000038,0.00000104,-0.00000
 071,0.00000107,0.00000064,-0.00037515,-0.00057331,-0.00013011,-0.00150
 685,0.00032031,0.00013171,0.00153203,0.00129320,0.00026410,-0.00656869
 ,-0.00155357,0.00711190,0.13484999,0.02234472,-0.19849376,0.00041952,-
 0.00054992,0.00080921,-0.00193068,0.00127686,0.00089045,-0.14588855,-0
 .02692647,0.21274390,0.00000932,0.00000839,0.00000435,-0.00001035,-0.0
 0001965,-0.00001234,0.00003964,-0.00000723,0.00001867,0.00017769,0.000
 33145,-0.00003961,-0.00033550,-0.00000666,-0.00002705,0.00009133,0.000
 06630,-0.00001013,0.00016255,-0.00004679,0.00002388,-0.00016301,-0.000
 04950,0.00000113,0.00004113,0.00002194,-0.00000233,0.00006162,0.000015
 02,-0.00000521,-0.00000165,-0.00000349,-0.00000001,0.00002074,-0.00001
 405,0.00000589,-0.00003225,-0.00000774,0.00000034,-0.00000498,-0.00000
 164,0.00000038,-0.00000228,0.00000209,-0.00000380,-0.00000538,0.000006
 71,-0.00000047,0.00001809,0.00000071,0.00001906,0.00000539,-0.00000705
 ,-0.00000523,-0.00000848,0.00001471,-0.00000099,-0.00000213,0.00000414
 ,-0.00000690,-0.00010157,-0.00047911,0.00005300,-0.00000663,0.00003771
 ,-0.00000726,-0.00001135,-0.00000673,0.00000042,-0.00001117,0.00006454
 ,-0.00000322,0.00001630,0.00000598,0.00000135,0.00002747,0.00001507,-0
 .00000225,-0.00001400,-0.00000561,-0.00000023,-0.00001277,-0.00001526,
 -0.00000073,0.00000072,-0.00000130,0.00000029,-0.00000341,0.00000127,0
 .00000199,0.00000271,-0.00000012,-0.00000111,-0.00000107,-0.00000066,0
 .00000026,0.00000066,0.00000044,-0.00000060,-0.00047313,0.00340975,-0.
 00069681,0.00227673,-0.00048437,0.00035211,-0.00709118,-0.00257623,-0.
 00089791,0.00592369,0.03143344,-0.00439965,-0.05474238,-0.04113492,0.0
 0659904,0.00106643,-0.00090378,-0.00004520,0.00105256,-0.00067636,0.00
 069317,-0.00322894,-0.02141639,0.00082365,0.05829246,-0.00001742,-0.00
 000724,-0.00001030,0.00001271,0.00002685,0.00002292,-0.00013636,0.0000
 6121,-0.00005368,-0.00010924,-0.00045603,0.00006927,0.00018806,0.00028
 480,-0.00005681,-0.00005326,-0.00031138,0.00007292,-0.00030952,-0.0003
 8569,0.00005275,0.00037921,0.00003873,0.00002551,-0.00009746,-0.000080
 59,0.00001205,-0.00011243,0.00011683,-0.00003730,0.00008409,0.00002774
 ,0.00001090,-0.00016348,-0.00005631,-0.00001158,0.00004156,-0.00003417
 ,0.00001854,0.00002037,0.00000829,-0.00000220,0.00000428,-0.00000708,0
 .00001408,0.00001017,-0.00002084,-0.00000114,-0.00003824,0.00000437,-0
 .00004095,-0.00001385,0.00001514,0.00001507,0.00001968,-0.00003849,0.0
 0000003,0.00001792,-0.00001631,0.00003111,0.00004403,0.00075813,-0.000
 10811,0.00016537,0.00071324,-0.00012278,0.00001041,0.00000182,-0.00000
 037,0.00009629,0.00005279,-0.00000677,0.00000801,0.00000667,-0.0000014
 8,0.00033529,0.00003689,0.00000367,-0.00011074,0.00003383,-0.00002261,
 -0.00009307,-0.00006026,0.00000344,-0.00000239,-0.00000605,0.00000106,
 -0.00005961,-0.00000637,0.00000551,0.00000946,-0.00000329,-0.00000469,
 -0.00000990,0.00000138,0.00001625,0.00000594,0.00000284,-0.00000657,0.
 00168212,-0.00273652,0.00080194,0.00065110,-0.00116522,0.00046346,0.00
 122532,0.00259366,-0.00017932,-0.00467381,-0.01360178,0.00142431,-0.04
 104081,-0.29781756,0.03730374,0.00013972,0.00051217,0.00052873,0.00023
 169,0.00022174,-0.00059956,-0.00070063,-0.00271331,0.00035071,0.044137
 49,0.32600365,0.00000426,0.00000207,0.00000286,-0.00000377,-0.00000689
 ,-0.00000414,0.00003051,-0.00001280,0.00001384,0.00004647,0.00013663,-
 0.00001442,-0.00008436,-0.00005316,0.00000148,0.00002353,0.00006633,-0
 .00001327,0.00007277,0.00006003,0.00001181,-0.00008437,-0.00001520,-0.
 00001007,0.00002184,0.00001728,-0.00000208,0.00002521,-0.00001317,0.00
 002905,-0.00001624,-0.00000459,0.00000468,0.00003184,0.00000830,0.0000
 0109,-0.00001094,0.00000557,-0.00000284,-0.00000400,-0.00000144,0.0000
 0121,-0.00000093,0.00000236,-0.00000407,-0.00000284,0.00000431,-0.0000
 0011,0.00000960,-0.00000081,0.00001130,0.00000251,-0.00000499,-0.00000
 502,-0.00000500,0.00000933,-0.00000047,-0.00000309,0.00000398,-0.00000
 715,-0.00002486,-0.00021452,0.00002444,-0.00002488,-0.00011629,-0.0000
 0192,-0.00000326,-0.00000122,-0.00000040,-0.00001252,-0.00001381,-0.00
 004933,0.00000024,-0.00000144,-0.00000416,-0.00005836,-0.00000515,-0.0
 0000470,0.00001857,-0.00000728,0.00000611,0.00001543,0.00000965,0.0000
 0016,0.00000046,0.00000096,-0.00000020,0.00001068,0.00000044,-0.000000
 80,-0.00000237,0.00000055,0.00000089,0.00000184,0.00000009,-0.00000253
 ,-0.00000121,-0.00000057,0.00000138,-0.00036812,0.00107606,-0.00023615
 ,0.00017200,0.00022398,0.00072927,-0.00157892,-0.00083717,0.00042989,0
 .00202026,0.00764745,-0.00209375,0.00661790,0.03732449,-0.05633809,0.0
 0034087,0.00009144,-0.00015972,-0.00003869,-0.00051143,0.00023597,0.00
 225521,0.02478341,-0.00292069,-0.00603051,-0.04241667,0.05420802,0.000
 00214,0.00000306,0.00000540,0.00000124,-0.00001434,-0.00002166,0.00000
 580,-0.00000233,0.00000269,0.00001491,0.00008011,0.00001291,-0.0000409
 2,-0.00002596,-0.00001181,0.00001153,0.00003013,-0.00000059,-0.0000185
 8,0.00000525,0.00001585,0.00004545,0.00000891,-0.00000393,-0.00000974,
 0.00000506,0.,-0.00002876,-0.00001600,0.00000175,0.00001033,-0.0000035
 9,0.00000335,-0.00000131,0.00000838,-0.00000310,0.00000731,0.00000628,
 -0.00000044,0.00000017,-0.00000235,-0.00000219,0.00000019,-0.00000177,
 0.00000070,-0.00000229,0.00000700,0.00000058,0.00000437,-0.00000107,0.
 00001070,-0.00000154,-0.00000067,0.00000313,-0.00000061,0.00000801,-0.
 00000044,-0.00000106,-0.00000085,0.00000026,-0.00000975,-0.00011710,0.
 00000185,0.00000857,0.00000114,-0.00001587,0.00000163,0.00000205,-0.00
 000198,0.00001795,-0.00002666,0.00001001,-0.00001340,-0.00000765,0.000
 00317,-0.00002623,-0.00002492,0.00000640,0.00000930,0.00001101,-0.0000
 0329,0.00001030,0.00001718,0.00000039,-0.00000055,0.00000158,-0.000000
 96,0.00000429,0.00000106,-0.00000209,-0.00000079,-0.00000009,0.0000020
 8,0.00000088,-0.00000030,-0.00000113,-0.00000047,0.00000019,0.00000032
 ,0.00049319,0.00036205,0.00038169,0.00104467,0.00031796,0.00072619,-0.
 00102639,-0.00160048,-0.00026591,-0.01221439,-0.01152657,-0.02566802,-
 0.08902421,-0.04299907,-0.08882522,-0.00476837,0.00347183,-0.00096152,
 0.00072710,-0.00089172,0.00046572,0.00917529,0.00955098,0.01863304,-0.
 00302364,-0.00177810,-0.00336278,0.09861640,0.00000228,-0.00000123,0.0
 0000182,-0.00000306,0.00000152,-0.00000386,0.00004363,-0.00002318,0.00
 001363,-0.00002601,0.00005474,-0.00001826,0.00007558,-0.00009836,0.000
 04101,-0.00001811,0.00009642,-0.00002784,0.00007252,0.00021059,-0.0000
 3817,-0.00011741,0.,-0.00002125,0.00002617,0.00002375,-0.00000046,0.00
 003196,-0.00007213,0.00001279,-0.00004540,-0.00000117,-0.00001195,0.00
 006789,0.00002845,0.00000743,-0.00000497,0.00001593,-0.00000870,-0.000
 00722,-0.00000169,0.00000048,-0.00000092,0.00000199,-0.00000278,-0.000
 00120,0.00000386,0.00000015,0.00000791,-0.00000079,0.00000592,0.000004
 73,-0.00000306,-0.00000267,-0.00000573,0.00000847,-0.00000009,-0.00000
 758,0.00000565,-0.00000913,0.00001238,-0.00010522,0.00002261,-0.000061
 89,-0.00035008,0.00007161,-0.00000021,0.00000176,0.00000047,-0.0000591
 6,-0.00002725,0.00004186,-0.00000278,-0.00000066,-0.00000096,-0.000147
 53,-0.00000099,-0.00001418,0.00005046,-0.00002416,0.00001805,0.0000407
 6,0.00002123,0.00000133,0.00000141,0.00000216,-0.00000076,0.00002598,0
 .00000219,-0.00000008,-0.00000400,0.00000174,0.00000116,0.00000408,-0.
 00000058,-0.00000722,-0.00000242,-0.00000141,0.00000339,-0.00065530,0.
 00019165,-0.00032642,-0.00034620,-0.00050805,-0.00041676,0.00111456,0.
 00044683,0.00108760,0.00621306,0.00683596,0.01420795,-0.04398228,-0.09
 068926,-0.09189073,0.00308852,-0.00141922,0.00122180,-0.00077145,0.000
 58269,-0.00034544,0.00195706,0.00099961,0.00406014,-0.01171251,-0.0119
 9829,-0.02723611,0.04514239,0.09578959,0.00000339,0.00000496,0.0000000
 9,0.00000049,-0.00001903,-0.00000574,-0.00002871,0.00001578,-0.0000094
 6,0.00012522,0.00009834,0.00001032,-0.00024688,0.00005159,-0.00005288,
 0.00006533,-0.00001952,0.00002048,0.00013247,-0.00009362,0.00005708,-0
 .00013589,-0.00005100,-0.00000470,0.00003427,0.00000802,0.00000304,0.0
 0006210,0.00004295,0.00002824,-0.00001034,0.00000403,0.00000941,0.0000
 0791,-0.00002699,0.00001126,-0.00003258,-0.00001421,0.00000421,0.00000
 632,-0.00000093,-0.00000127,-0.00000033,-0.00000225,0.00000070,-0.0000
 0202,0.00000453,0.00000159,0.00000113,0.00000274,0.00000639,-0.0000020
 2,-0.00000129,-0.00000019,0.00000281,0.00000216,0.00000176,0.00000879,
 -0.00000613,0.00000660,-0.00003664,-0.00010688,-0.00000443,0.00002785,
 0.00012867,-0.00005504,-0.00001061,-0.00000818,-0.00000238,0.00000929,
 0.00009154,-0.00007957,0.00002537,0.00001148,-0.00001171,0.00006186,0.
 00004759,-0.00005048,-0.00002084,-0.00002605,0.00002407,-0.00002545,-0
 .00003215,0.00001177,0.00000029,-0.00000354,-0.00000051,-0.00001097,-0
 .00000259,0.00001037,0.00000100,0.00000058,-0.00000467,-0.00000235,0.0
 0000104,0.00000297,0.00000076,-0.00000116,-0.00000026,0.00091664,0.000
 61995,0.00009537,0.00206007,0.00002431,0.00118430,-0.00258740,-0.00212
 755,-0.00034866,-0.00231151,-0.00198400,-0.00584114,-0.08907173,-0.089
 65082,-0.23647618,-0.00126240,0.00089921,0.00126105,-0.00012760,0.0003
 1437,0.00074531,-0.01009239,-0.01019348,-0.02039163,0.00360056,0.00243
 493,0.00616264,0.09886472,0.09956262,0.25368186\\0.00000084,-0.0000028
 2,0.00000008,0.00000086,-0.00000249,0.00000030,-0.00000430,-0.00000374
 ,-0.00000512,-0.00000185,0.00000605,0.00000152,0.00000647,0.00000509,0
 .00000092,-0.00000305,-0.00000653,-0.00000025,0.00000081,0.00000108,-0
 .00000061,-0.00000222,-0.00000025,-0.00000208,-0.00000203,-0.00000057,
 0.00000159,-0.00000071,0.00000112,-0.00000110,0.00000016,0.00000221,0.
 00000140,0.00000008,0.00000131,-0.00000229,-0.00000034,0.00000397,0.00
 000059,0.00000104,-0.00000169,0.00000048,-0.00000131,-0.00000196,0.000
 00014,-0.00000005,-0.00000025,-0.00000118,0.00000170,-0.00000031,-0.00
 000007,-0.00000296,-0.00000080,0.00000027,-0.00000091,-0.00000194,0.00
 000126,0.00000021,0.00000033,0.00000062,-0.00000035,-0.00000272,0.0000
 0064,0.00000393,-0.00000200,0.00000111,-0.00000052,0.00000025,-0.00000
 134,0.00000045,0.00000036,0.00000025,0.00000050,0.00000092,0.00000033,
 -0.00000060,0.00000188,0.00000156,-0.00000004,0.00000147,-0.00000086,-
 0.00000193,0.00000126,-0.00000110,-0.00000102,-0.00000013,-0.00000083,
 -0.00000155,0.00000123,0.00000013,0.00000030,0.00000162,-0.00000060,0.
 00000015,0.00000194,-0.00000009,-0.00000058,0.00000082,-0.00000004,-0.
 00000250,-0.00000516,-0.00000265,0.00000038,0.00000258,0.00000122,0.00
 000077,-0.00000267,0.00000032,0.00000173,0.00000043,-0.00000142,0.0000
 0147,0.00000061,0.00000163,0.00000047,-0.00000012,0.00000173,0.0000020
 5,-0.00000017,0.00000206,0.00000152,-0.00000031,0.00000049,0.00000195,
 -0.00000019,0.00000060,0.00000100,0.00000032,0.00000038\\\@


 IN THE WOODS WE RETURN TO REASON AND FAITH.

                                 -- EMERSON
 Job cpu time:       0 days  6 hours 58 minutes 54.1 seconds.
 File lengths (MBytes):  RWF=    990 Int=      0 D2E=      0 Chk=     17 Scr=      1
 Normal termination of Gaussian 09 at Tue Feb 19 14:17:53 2019.
WARNING: pbs_rusage is deprecated and values produced may not be accurate


=============================================================================
                                     Resource usage:
                                       CPU time:              32:37:01
   JobId:    5875903.r-man2            Elapsed time:          04:18:34
   Project:             q95            Requested time:        44:00:00
   Service Units:     34.48 
                                       Max physical memory:     1573MB
                                       Max virtual memory:      2910MB
                                       Requested memory:           0MB

                                       Number of cpus:               8

                                       Max jobfs disk use:       1.0GB
                                       Requested jobfs:         20.0GB
=============================================================================

