 Entering Gaussian System, Link 0=/apps/gaussian/g09e01/g09/g09
 AtFile(1): /home/507/hio507/Basis/6-31pGd.gbs
 Initial command:
 /apps/gaussian/g09e01/g09/l1.exe "/jobfs/local/5876034.r-man2/Gau-38177.inp" -scrdir="/jobfs/local/5876034.r-man2/"
 Entering Link 1 = /apps/gaussian/g09e01/g09/l1.exe PID=     38178.
  
 Copyright (c) 1988,1990,1992,1993,1995,1998,2003,2009,2015,
            Gaussian, Inc.  All Rights Reserved.
  
 This is part of the Gaussian(R) 09 program.  It is based on
 the Gaussian(R) 03 system (copyright 2003, Gaussian, Inc.),
 the Gaussian(R) 98 system (copyright 1998, Gaussian, Inc.),
 the Gaussian(R) 94 system (copyright 1995, Gaussian, Inc.),
 the Gaussian 92(TM) system (copyright 1992, Gaussian, Inc.),
 the Gaussian 90(TM) system (copyright 1990, Gaussian, Inc.),
 the Gaussian 88(TM) system (copyright 1988, Gaussian, Inc.),
 the Gaussian 86(TM) system (copyright 1986, Carnegie Mellon
 University), and the Gaussian 82(TM) system (copyright 1983,
 Carnegie Mellon University). Gaussian is a federally registered
 trademark of Gaussian, Inc.
  
 This software contains proprietary and confidential information,
 including trade secrets, belonging to Gaussian, Inc.
  
 This software is provided under written license and may be
 used, copied, transmitted, or stored only in accord with that
 written license.
  
 The following legend is applicable only to US Government
 contracts under FAR:
  
                    RESTRICTED RIGHTS LEGEND
  
 Use, reproduction and disclosure by the US Government is
 subject to restrictions as set forth in subparagraphs (a)
 and (c) of the Commercial Computer Software - Restricted
 Rights clause in FAR 52.227-19.
  
 Gaussian, Inc.
 340 Quinnipiac St., Bldg. 40, Wallingford CT 06492
  
  
 ---------------------------------------------------------------
 Warning -- This program may not be used in any manner that
 competes with the business of Gaussian, Inc. or will provide
 assistance to any competitor of Gaussian, Inc.  The licensee
 of this program is prohibited from giving any competitor of
 Gaussian, Inc. access to this program.  By using this program,
 the user acknowledges that Gaussian, Inc. is engaged in the
 business of creating and licensing software in the field of
 computational chemistry and represents and warrants to the
 licensee that it is not a competitor of Gaussian, Inc. and that
 it will not use this program in any manner prohibited above.
 ---------------------------------------------------------------
  

 Cite this work as:
 Gaussian 09, Revision E.01,
 M. J. Frisch, G. W. Trucks, H. B. Schlegel, G. E. Scuseria, 
 M. A. Robb, J. R. Cheeseman, G. Scalmani, V. Barone, B. Mennucci, 
 G. A. Petersson, H. Nakatsuji, M. Caricato, X. Li, H. P. Hratchian, 
 A. F. Izmaylov, J. Bloino, G. Zheng, J. L. Sonnenberg, M. Hada, 
 M. Ehara, K. Toyota, R. Fukuda, J. Hasegawa, M. Ishida, T. Nakajima, 
 Y. Honda, O. Kitao, H. Nakai, T. Vreven, J. A. Montgomery, Jr., 
 J. E. Peralta, F. Ogliaro, M. Bearpark, J. J. Heyd, E. Brothers, 
 K. N. Kudin, V. N. Staroverov, T. Keith, R. Kobayashi, J. Normand, 
 K. Raghavachari, A. Rendell, J. C. Burant, S. S. Iyengar, J. Tomasi, 
 M. Cossi, N. Rega, J. M. Millam, M. Klene, J. E. Knox, J. B. Cross, 
 V. Bakken, C. Adamo, J. Jaramillo, R. Gomperts, R. E. Stratmann, 
 O. Yazyev, A. J. Austin, R. Cammi, C. Pomelli, J. W. Ochterski, 
 R. L. Martin, K. Morokuma, V. G. Zakrzewski, G. A. Voth, 
 P. Salvador, J. J. Dannenberg, S. Dapprich, A. D. Daniels, 
 O. Farkas, J. B. Foresman, J. V. Ortiz, J. Cioslowski, 
 and D. J. Fox, Gaussian, Inc., Wallingford CT, 2013.
 
 ******************************************
 Gaussian 09:  ES64L-G09RevE.01 30-Nov-2015
                19-Feb-2019 
 ******************************************
 %chk=4SulfOxyMethyl_C2_EtO.M062X_6-31pGd_opt_Pentadecane.chk
 %mem=196608000
 %nproc=8
 Will use up to    8 processors via shared memory.
 ----------------------------------------------------------------------
 # M062X/Gen 6D SCF=Tight INT(grid=ultrafine) OPT IOP(2/17=4) SCRF=(SMD
 ,Solvent=n-Pentadecane) maxdisk=2684354560
 ----------------------------------------------------------------------
 1/14=-1,18=20,19=15,26=4,38=1/1,3;
 2/9=110,12=2,17=4,18=5,40=1/2;
 3/5=7,8=2,11=2,16=1,25=1,30=1,70=32201,71=1,72=151,74=-55,75=-5/1,2,3;
 4//1;
 5/5=2,32=2,38=5,53=151/2;
 6/7=2,8=2,9=2,10=2,28=1/1;
 7//1,2,3,16;
 1/14=-1,18=20,19=15,26=4/3(2);
 2/9=110,17=4/2;
 99//99;
 2/9=110,17=4/2;
 3/5=7,6=1,8=2,11=2,16=1,25=1,30=1,70=32205,71=1,72=151,74=-55,75=-5,82=7/1,2,3;
 4/5=5,16=3,69=1/1;
 5/5=2,32=2,38=5,53=151/2;
 7//1,2,3,16;
 1/14=-1,18=20,19=15,26=4/3(-5);
 2/9=110,17=4/2;
 6/7=2,8=2,9=2,10=2,19=2,28=1/1;
 99/9=1/99;
 ---------------------------------------------------
 4SulfOxyMethyl_C2_EtO.M062X_6-31pGd_opt_Pentadecane
 ---------------------------------------------------
 Symbolic Z-matrix:
 Charge = -1 Multiplicity = 1
 C                    -2.27186   2.79832  -0.11935 
 C                    -1.01145   1.94803   0.00906 
 C                     0.25124   2.80586  -0.12247 
 N                     1.45179   1.99473  -0.00353 
 C                     2.69622   2.54755  -0.08859 
 O                     2.79727   3.75048  -0.26652 
 N                     3.80646   1.74887   0.02339 
 C                     5.1896    2.15876  -0.0387 
 C                     5.62163   3.49952  -0.20548 
 C                     6.18341   1.16393   0.07561 
 C                     7.54271   1.48401   0.0244 
 C                     7.94659   2.8102   -0.14252 
 C                     6.98339   3.81239  -0.25538 
 H                    -3.16886   2.15156  -0.0197 
 H                    -2.30143   3.2971   -1.11158 
 H                    -2.2996    3.5708    0.67851 
 H                    -1.01816   1.17269  -0.78776 
 H                    -1.01605   1.44447   1.00028 
 H                     0.25137   3.57943   0.677 
 H                     0.24784   3.30979  -1.11428 
 H                     1.3448    0.87194   0.1643 
 H                     3.61241   0.62955   0.18047 
 H                     4.95438   4.33497  -0.29947 
 H                     5.91459   0.12512   0.20533 
 H                     8.27761   0.69472   0.11592 
 S                     9.68624   3.24597  -0.2108 
 O                     9.96475   4.2527    0.91622 
 O                     9.87845   4.175    -1.4187 
 H                     7.28864   4.84362  -0.38303 
 C                     11.0503   2.04912  -0.20937 
 H                     10.98378   1.41262   0.6968 
 H                     12.01797   2.59182  -0.19789 
 H                     10.99697   1.42259  -1.1234 
 O                     1.19798  -1.17591   0.45078 
 O                     3.41257  -1.42015   0.46308 
 C                     2.30581  -1.93971   0.54385 
 C                     2.15278  -3.42373   0.7458 
 C                     3.48862  -4.16162   0.82826 
 H                     1.56677  -3.83862  -0.10192 
 H                     1.58813  -3.59776   1.68659 
 H                     4.06373  -4.02442  -0.11235 
 H                     3.3047   -5.24669   0.97644 
 H                     4.08707  -3.78273   1.68412 
 
 Add virtual bond connecting atoms O34        and H21        Dist= 3.92D+00.
 Add virtual bond connecting atoms O35        and H22        Dist= 3.93D+00.

 GradGradGradGradGradGradGradGradGradGradGradGradGradGradGradGradGradGrad
 Berny optimization.
 Initialization pass.
                           ----------------------------
                           !    Initial Parameters    !
                           ! (Angstroms and Degrees)  !
 --------------------------                            --------------------------
 ! Name  Definition              Value          Derivative Info.                !
 --------------------------------------------------------------------------------
 ! R1    R(1,2)                  1.5258         estimate D2E/DX2                !
 ! R2    R(1,14)                 1.1103         estimate D2E/DX2                !
 ! R3    R(1,15)                 1.1109         estimate D2E/DX2                !
 ! R4    R(1,16)                 1.1109         estimate D2E/DX2                !
 ! R5    R(2,3)                  1.5322         estimate D2E/DX2                !
 ! R6    R(2,17)                 1.1118         estimate D2E/DX2                !
 ! R7    R(2,18)                 1.1118         estimate D2E/DX2                !
 ! R8    R(3,4)                  1.4538         estimate D2E/DX2                !
 ! R9    R(3,19)                 1.1125         estimate D2E/DX2                !
 ! R10   R(3,20)                 1.1125         estimate D2E/DX2                !
 ! R11   R(4,5)                  1.3644         estimate D2E/DX2                !
 ! R12   R(4,21)                 1.1403         estimate D2E/DX2                !
 ! R13   R(5,6)                  1.2202         estimate D2E/DX2                !
 ! R14   R(5,7)                  1.3722         estimate D2E/DX2                !
 ! R15   R(7,8)                  1.4439         estimate D2E/DX2                !
 ! R16   R(7,22)                 1.1468         estimate D2E/DX2                !
 ! R17   R(8,9)                  1.4185         estimate D2E/DX2                !
 ! R18   R(8,10)                 1.4108         estimate D2E/DX2                !
 ! R19   R(9,13)                 1.3981         estimate D2E/DX2                !
 ! R20   R(9,23)                 1.0733         estimate D2E/DX2                !
 ! R21   R(10,11)                1.3974         estimate D2E/DX2                !
 ! R22   R(10,24)                1.0808         estimate D2E/DX2                !
 ! R23   R(11,12)                1.3963         estimate D2E/DX2                !
 ! R24   R(11,25)                1.0823         estimate D2E/DX2                !
 ! R25   R(12,13)                1.3946         estimate D2E/DX2                !
 ! R26   R(12,26)                1.7947         estimate D2E/DX2                !
 ! R27   R(13,29)                1.083          estimate D2E/DX2                !
 ! R28   R(21,34)                2.073          estimate D2E/DX2                !
 ! R29   R(22,35)                2.0787         estimate D2E/DX2                !
 ! R30   R(26,27)                1.5366         estimate D2E/DX2                !
 ! R31   R(26,28)                1.5359         estimate D2E/DX2                !
 ! R32   R(26,30)                1.8147         estimate D2E/DX2                !
 ! R33   R(30,31)                1.1094         estimate D2E/DX2                !
 ! R34   R(30,32)                1.1095         estimate D2E/DX2                !
 ! R35   R(30,33)                1.1094         estimate D2E/DX2                !
 ! R36   R(34,36)                1.3488         estimate D2E/DX2                !
 ! R37   R(35,36)                1.2253         estimate D2E/DX2                !
 ! R38   R(36,37)                1.5055         estimate D2E/DX2                !
 ! R39   R(37,38)                1.5283         estimate D2E/DX2                !
 ! R40   R(37,39)                1.1109         estimate D2E/DX2                !
 ! R41   R(37,40)                1.1109         estimate D2E/DX2                !
 ! R42   R(38,41)                1.111          estimate D2E/DX2                !
 ! R43   R(38,42)                1.1105         estimate D2E/DX2                !
 ! R44   R(38,43)                1.1109         estimate D2E/DX2                !
 ! A1    A(2,1,14)             109.5838         estimate D2E/DX2                !
 ! A2    A(2,1,15)             110.3254         estimate D2E/DX2                !
 ! A3    A(2,1,16)             110.3462         estimate D2E/DX2                !
 ! A4    A(14,1,15)            108.6737         estimate D2E/DX2                !
 ! A5    A(14,1,16)            108.6881         estimate D2E/DX2                !
 ! A6    A(15,1,16)            109.1843         estimate D2E/DX2                !
 ! A7    A(1,2,3)              111.1948         estimate D2E/DX2                !
 ! A8    A(1,2,17)             108.8639         estimate D2E/DX2                !
 ! A9    A(1,2,18)             108.9057         estimate D2E/DX2                !
 ! A10   A(3,2,17)             109.5051         estimate D2E/DX2                !
 ! A11   A(3,2,18)             109.4828         estimate D2E/DX2                !
 ! A12   A(17,2,18)            108.8492         estimate D2E/DX2                !
 ! A13   A(2,3,4)              111.1719         estimate D2E/DX2                !
 ! A14   A(2,3,19)             109.1308         estimate D2E/DX2                !
 ! A15   A(2,3,20)             109.1246         estimate D2E/DX2                !
 ! A16   A(4,3,19)             109.2137         estimate D2E/DX2                !
 ! A17   A(4,3,20)             109.1597         estimate D2E/DX2                !
 ! A18   A(19,3,20)            109.0085         estimate D2E/DX2                !
 ! A19   A(3,4,5)              121.4707         estimate D2E/DX2                !
 ! A20   A(3,4,21)             118.9436         estimate D2E/DX2                !
 ! A21   A(5,4,21)             119.5857         estimate D2E/DX2                !
 ! A22   A(4,5,6)              118.952          estimate D2E/DX2                !
 ! A23   A(4,5,7)              119.8041         estimate D2E/DX2                !
 ! A24   A(6,5,7)              121.2437         estimate D2E/DX2                !
 ! A25   A(5,7,8)              127.3207         estimate D2E/DX2                !
 ! A26   A(5,7,22)             116.2534         estimate D2E/DX2                !
 ! A27   A(8,7,22)             116.4256         estimate D2E/DX2                !
 ! A28   A(7,8,9)              124.4106         estimate D2E/DX2                !
 ! A29   A(7,8,10)             118.1063         estimate D2E/DX2                !
 ! A30   A(9,8,10)             117.483          estimate D2E/DX2                !
 ! A31   A(8,9,13)             120.8212         estimate D2E/DX2                !
 ! A32   A(8,9,23)             123.8263         estimate D2E/DX2                !
 ! A33   A(13,9,23)            115.3524         estimate D2E/DX2                !
 ! A34   A(8,10,11)            121.3808         estimate D2E/DX2                !
 ! A35   A(8,10,24)            120.8136         estimate D2E/DX2                !
 ! A36   A(11,10,24)           117.8055         estimate D2E/DX2                !
 ! A37   A(10,11,12)           120.2171         estimate D2E/DX2                !
 ! A38   A(10,11,25)           119.3632         estimate D2E/DX2                !
 ! A39   A(12,11,25)           120.4197         estimate D2E/DX2                !
 ! A40   A(11,12,13)           119.5004         estimate D2E/DX2                !
 ! A41   A(11,12,26)           121.0329         estimate D2E/DX2                !
 ! A42   A(13,12,26)           119.4666         estimate D2E/DX2                !
 ! A43   A(9,13,12)            120.5974         estimate D2E/DX2                !
 ! A44   A(9,13,29)            119.4594         estimate D2E/DX2                !
 ! A45   A(12,13,29)           119.9432         estimate D2E/DX2                !
 ! A46   A(12,26,27)           107.8702         estimate D2E/DX2                !
 ! A47   A(12,26,28)           107.343          estimate D2E/DX2                !
 ! A48   A(12,26,30)           124.6421         estimate D2E/DX2                !
 ! A49   A(27,26,28)            99.0812         estimate D2E/DX2                !
 ! A50   A(27,26,30)           107.1742         estimate D2E/DX2                !
 ! A51   A(28,26,30)           107.7872         estimate D2E/DX2                !
 ! A52   A(26,30,31)           109.5104         estimate D2E/DX2                !
 ! A53   A(26,30,32)           109.45           estimate D2E/DX2                !
 ! A54   A(26,30,33)           109.6137         estimate D2E/DX2                !
 ! A55   A(31,30,32)           108.9342         estimate D2E/DX2                !
 ! A56   A(31,30,33)           110.2472         estimate D2E/DX2                !
 ! A57   A(32,30,33)           109.0671         estimate D2E/DX2                !
 ! A58   A(21,34,36)           120.7148         estimate D2E/DX2                !
 ! A59   A(22,35,36)           120.924          estimate D2E/DX2                !
 ! A60   A(34,36,35)           119.8152         estimate D2E/DX2                !
 ! A61   A(34,36,37)           118.9444         estimate D2E/DX2                !
 ! A62   A(35,36,37)           121.2404         estimate D2E/DX2                !
 ! A63   A(36,37,38)           113.2234         estimate D2E/DX2                !
 ! A64   A(36,37,39)           108.6262         estimate D2E/DX2                !
 ! A65   A(36,37,40)           108.6433         estimate D2E/DX2                !
 ! A66   A(38,37,39)           108.7791         estimate D2E/DX2                !
 ! A67   A(38,37,40)           108.84           estimate D2E/DX2                !
 ! A68   A(39,37,40)           108.6381         estimate D2E/DX2                !
 ! A69   A(37,38,41)           110.3133         estimate D2E/DX2                !
 ! A70   A(37,38,42)           109.524          estimate D2E/DX2                !
 ! A71   A(37,38,43)           110.3495         estimate D2E/DX2                !
 ! A72   A(41,38,42)           108.6251         estimate D2E/DX2                !
 ! A73   A(41,38,43)           109.3458         estimate D2E/DX2                !
 ! A74   A(42,38,43)           108.6429         estimate D2E/DX2                !
 ! A75   L(4,21,34,2,-1)       181.3225         estimate D2E/DX2                !
 ! A76   L(7,22,35,1,-1)       184.225          estimate D2E/DX2                !
 ! A77   L(4,21,34,2,-2)       179.4297         estimate D2E/DX2                !
 ! A78   L(7,22,35,1,-2)       179.861          estimate D2E/DX2                !
 ! D1    D(14,1,2,3)          -179.9715         estimate D2E/DX2                !
 ! D2    D(14,1,2,17)           59.3027         estimate D2E/DX2                !
 ! D3    D(14,1,2,18)          -59.2459         estimate D2E/DX2                !
 ! D4    D(15,1,2,3)            60.4126         estimate D2E/DX2                !
 ! D5    D(15,1,2,17)          -60.3133         estimate D2E/DX2                !
 ! D6    D(15,1,2,18)         -178.8619         estimate D2E/DX2                !
 ! D7    D(16,1,2,3)           -60.325          estimate D2E/DX2                !
 ! D8    D(16,1,2,17)          178.9492         estimate D2E/DX2                !
 ! D9    D(16,1,2,18)           60.4006         estimate D2E/DX2                !
 ! D10   D(1,2,3,4)           -179.8514         estimate D2E/DX2                !
 ! D11   D(1,2,3,19)            59.625          estimate D2E/DX2                !
 ! D12   D(1,2,3,20)           -59.3988         estimate D2E/DX2                !
 ! D13   D(17,2,3,4)           -59.5037         estimate D2E/DX2                !
 ! D14   D(17,2,3,19)          179.9726         estimate D2E/DX2                !
 ! D15   D(17,2,3,20)           60.9489         estimate D2E/DX2                !
 ! D16   D(18,2,3,4)            59.7634         estimate D2E/DX2                !
 ! D17   D(18,2,3,19)          -60.7603         estimate D2E/DX2                !
 ! D18   D(18,2,3,20)         -179.784          estimate D2E/DX2                !
 ! D19   D(2,3,4,5)           -179.9669         estimate D2E/DX2                !
 ! D20   D(2,3,4,21)             0.0466         estimate D2E/DX2                !
 ! D21   D(19,3,4,5)           -59.4921         estimate D2E/DX2                !
 ! D22   D(19,3,4,21)          120.5214         estimate D2E/DX2                !
 ! D23   D(20,3,4,5)            59.6013         estimate D2E/DX2                !
 ! D24   D(20,3,4,21)         -120.3852         estimate D2E/DX2                !
 ! D25   D(3,4,5,6)              0.1119         estimate D2E/DX2                !
 ! D26   D(3,4,5,7)           -179.749          estimate D2E/DX2                !
 ! D27   D(21,4,5,6)          -179.9017         estimate D2E/DX2                !
 ! D28   D(21,4,5,7)             0.2374         estimate D2E/DX2                !
 ! D29   D(3,4,34,36)          179.081          estimate D2E/DX2                !
 ! D30   D(5,4,34,36)           -0.5197         estimate D2E/DX2                !
 ! D31   D(4,5,7,8)           -179.8664         estimate D2E/DX2                !
 ! D32   D(4,5,7,22)             0.354          estimate D2E/DX2                !
 ! D33   D(6,5,7,8)              0.2759         estimate D2E/DX2                !
 ! D34   D(6,5,7,22)          -179.5037         estimate D2E/DX2                !
 ! D35   D(5,7,8,9)              1.2909         estimate D2E/DX2                !
 ! D36   D(5,7,8,10)          -178.8108         estimate D2E/DX2                !
 ! D37   D(22,7,8,9)          -178.9298         estimate D2E/DX2                !
 ! D38   D(22,7,8,10)            0.9685         estimate D2E/DX2                !
 ! D39   D(5,7,35,36)           -0.5316         estimate D2E/DX2                !
 ! D40   D(8,7,35,36)          179.7476         estimate D2E/DX2                !
 ! D41   D(7,8,9,13)           179.9901         estimate D2E/DX2                !
 ! D42   D(7,8,9,23)             0.1035         estimate D2E/DX2                !
 ! D43   D(10,8,9,13)            0.0912         estimate D2E/DX2                !
 ! D44   D(10,8,9,23)         -179.7954         estimate D2E/DX2                !
 ! D45   D(7,8,10,11)          179.9814         estimate D2E/DX2                !
 ! D46   D(7,8,10,24)            0.035          estimate D2E/DX2                !
 ! D47   D(9,8,10,11)           -0.1132         estimate D2E/DX2                !
 ! D48   D(9,8,10,24)          179.9404         estimate D2E/DX2                !
 ! D49   D(8,9,13,12)            0.0286         estimate D2E/DX2                !
 ! D50   D(8,9,13,29)         -179.9764         estimate D2E/DX2                !
 ! D51   D(23,9,13,12)         179.9244         estimate D2E/DX2                !
 ! D52   D(23,9,13,29)          -0.0806         estimate D2E/DX2                !
 ! D53   D(8,10,11,12)           0.0152         estimate D2E/DX2                !
 ! D54   D(8,10,11,25)         179.9779         estimate D2E/DX2                !
 ! D55   D(24,10,11,12)        179.9633         estimate D2E/DX2                !
 ! D56   D(24,10,11,25)         -0.0741         estimate D2E/DX2                !
 ! D57   D(10,11,12,13)          0.1077         estimate D2E/DX2                !
 ! D58   D(10,11,12,26)        179.9823         estimate D2E/DX2                !
 ! D59   D(25,11,12,13)       -179.8545         estimate D2E/DX2                !
 ! D60   D(25,11,12,26)          0.02           estimate D2E/DX2                !
 ! D61   D(11,12,13,9)          -0.1294         estimate D2E/DX2                !
 ! D62   D(11,12,13,29)        179.8756         estimate D2E/DX2                !
 ! D63   D(26,12,13,9)         179.994          estimate D2E/DX2                !
 ! D64   D(26,12,13,29)         -0.0009         estimate D2E/DX2                !
 ! D65   D(11,12,26,27)       -121.7209         estimate D2E/DX2                !
 ! D66   D(11,12,26,28)        132.3516         estimate D2E/DX2                !
 ! D67   D(11,12,26,30)          5.1396         estimate D2E/DX2                !
 ! D68   D(13,12,26,27)         58.1537         estimate D2E/DX2                !
 ! D69   D(13,12,26,28)        -47.7738         estimate D2E/DX2                !
 ! D70   D(13,12,26,30)       -174.9858         estimate D2E/DX2                !
 ! D71   D(12,26,30,31)        -57.3513         estimate D2E/DX2                !
 ! D72   D(12,26,30,32)       -176.7055         estimate D2E/DX2                !
 ! D73   D(12,26,30,33)         63.7152         estimate D2E/DX2                !
 ! D74   D(27,26,30,31)         69.8007         estimate D2E/DX2                !
 ! D75   D(27,26,30,32)        -49.5535         estimate D2E/DX2                !
 ! D76   D(27,26,30,33)       -169.1328         estimate D2E/DX2                !
 ! D77   D(28,26,30,31)        175.6225         estimate D2E/DX2                !
 ! D78   D(28,26,30,32)         56.2682         estimate D2E/DX2                !
 ! D79   D(28,26,30,33)        -63.3111         estimate D2E/DX2                !
 ! D80   D(21,34,36,35)          0.245          estimate D2E/DX2                !
 ! D81   D(21,34,36,37)       -179.7327         estimate D2E/DX2                !
 ! D82   D(22,35,36,34)         -0.0978         estimate D2E/DX2                !
 ! D83   D(22,35,36,37)        179.8793         estimate D2E/DX2                !
 ! D84   D(34,36,37,38)        179.7971         estimate D2E/DX2                !
 ! D85   D(34,36,37,39)         58.8472         estimate D2E/DX2                !
 ! D86   D(34,36,37,40)        -59.1639         estimate D2E/DX2                !
 ! D87   D(35,36,37,38)         -0.1802         estimate D2E/DX2                !
 ! D88   D(35,36,37,39)       -121.1301         estimate D2E/DX2                !
 ! D89   D(35,36,37,40)        120.8588         estimate D2E/DX2                !
 ! D90   D(36,37,38,41)        -60.4675         estimate D2E/DX2                !
 ! D91   D(36,37,38,42)       -179.9785         estimate D2E/DX2                !
 ! D92   D(36,37,38,43)         60.4662         estimate D2E/DX2                !
 ! D93   D(39,37,38,41)         60.3958         estimate D2E/DX2                !
 ! D94   D(39,37,38,42)        -59.1152         estimate D2E/DX2                !
 ! D95   D(39,37,38,43)       -178.6704         estimate D2E/DX2                !
 ! D96   D(40,37,38,41)        178.6045         estimate D2E/DX2                !
 ! D97   D(40,37,38,42)         59.0936         estimate D2E/DX2                !
 ! D98   D(40,37,38,43)        -60.4617         estimate D2E/DX2                !
 --------------------------------------------------------------------------------
 Trust Radius=3.00D-01 FncErr=1.00D-07 GrdErr=1.00D-06
 Number of steps in this run=    230 maximum allowed number of steps=    258.
 GradGradGradGradGradGradGradGradGradGradGradGradGradGradGradGradGradGrad

                          Input orientation:                          
 ---------------------------------------------------------------------
 Center     Atomic      Atomic             Coordinates (Angstroms)
 Number     Number       Type             X           Y           Z
 ---------------------------------------------------------------------
      1          6           0       -2.271860    2.798320   -0.119350
      2          6           0       -1.011450    1.948030    0.009060
      3          6           0        0.251240    2.805860   -0.122470
      4          7           0        1.451790    1.994730   -0.003530
      5          6           0        2.696220    2.547550   -0.088590
      6          8           0        2.797270    3.750480   -0.266520
      7          7           0        3.806460    1.748870    0.023390
      8          6           0        5.189600    2.158760   -0.038700
      9          6           0        5.621630    3.499520   -0.205480
     10          6           0        6.183410    1.163930    0.075610
     11          6           0        7.542710    1.484010    0.024400
     12          6           0        7.946590    2.810200   -0.142520
     13          6           0        6.983390    3.812390   -0.255380
     14          1           0       -3.168860    2.151560   -0.019700
     15          1           0       -2.301430    3.297100   -1.111580
     16          1           0       -2.299600    3.570800    0.678510
     17          1           0       -1.018160    1.172690   -0.787760
     18          1           0       -1.016050    1.444470    1.000280
     19          1           0        0.251370    3.579430    0.677000
     20          1           0        0.247840    3.309790   -1.114280
     21          1           0        1.344800    0.871940    0.164300
     22          1           0        3.612410    0.629550    0.180470
     23          1           0        4.954380    4.334970   -0.299470
     24          1           0        5.914590    0.125120    0.205330
     25          1           0        8.277610    0.694720    0.115920
     26         16           0        9.686240    3.245970   -0.210800
     27          8           0        9.964750    4.252700    0.916220
     28          8           0        9.878450    4.175000   -1.418700
     29          1           0        7.288640    4.843620   -0.383030
     30          6           0       11.050300    2.049120   -0.209370
     31          1           0       10.983780    1.412620    0.696800
     32          1           0       12.017970    2.591820   -0.197890
     33          1           0       10.996970    1.422590   -1.123400
     34          8           0        1.197980   -1.175910    0.450780
     35          8           0        3.412570   -1.420150    0.463080
     36          6           0        2.305810   -1.939710    0.543850
     37          6           0        2.152780   -3.423730    0.745800
     38          6           0        3.488620   -4.161620    0.828260
     39          1           0        1.566770   -3.838620   -0.101920
     40          1           0        1.588130   -3.597760    1.686590
     41          1           0        4.063730   -4.024420   -0.112350
     42          1           0        3.304700   -5.246690    0.976440
     43          1           0        4.087070   -3.782730    1.684120
 ---------------------------------------------------------------------
                    Distance matrix (angstroms):
                    1          2          3          4          5
     1  C    0.000000
     2  C    1.525816   0.000000
     3  C    2.523113   1.532174   0.000000
     4  N    3.811134   2.463715   1.453753   0.000000
     5  C    4.974500   3.757097   2.458821   1.364350   0.000000
     6  O    5.159879   4.222691   2.719435   2.227586   1.220209
     7  N    6.169902   4.822046   3.711885   2.367624   1.372247
     8  C    7.489254   6.204813   4.981280   3.741573   2.524003
     9  C    7.925042   6.815490   5.415639   4.437651   3.078625
    10  C    8.613990   7.237766   6.158394   4.804656   3.755244
    11  C    9.903225   8.566750   7.411774   6.112358   4.963099
    12  C   10.218483   9.000711   7.695377   6.547269   5.257212
    13  C    9.311632   8.213601   6.808275   5.828028   4.472971
    14  H    1.110332   2.167180   3.483641   4.623339   5.878836
    15  H    1.110935   2.177125   2.781327   4.124391   5.156049
    16  H    1.110889   2.177355   2.780915   4.125785   5.156908
    17  H    2.158983   1.111809   2.172839   2.718717   4.021902
    18  H    2.159523   1.111805   2.172550   2.720414   4.022856
    19  H    2.758803   2.168484   1.112458   2.101286   2.761919
    20  H    2.756878   2.168431   1.112495   2.100629   2.761814
    21  H    4.107509   2.594992   2.240124   1.140294   2.167477
    22  H    6.278383   4.811221   4.015665   2.562392   2.142550
    23  H    7.390012   6.433024   4.948639   4.222847   2.887668
    24  H    8.617968   7.164604   6.274341   4.843103   4.038869
    25  H   10.759731   9.373838   8.302792   6.949540   5.884447
    26  S   11.966825  10.778384   9.445672   8.331550   7.025888
    27  O   12.366174  11.252174   9.875449   8.855216   7.533174
    28  O   12.296894  11.206597   9.810093   8.818440   7.483463
    29  H    9.780385   8.799413   7.331122   6.506075   5.142855
    30  C   13.343513  12.064151  10.825890   9.600871   8.369807
    31  H   13.352837  12.026853  10.853559   9.575393   8.401699
    32  H   14.291538  13.046957  11.768918  10.584822   9.322496
    33  H   13.377690  12.073140  10.880534   9.627664   8.440309
    34  O    5.306538   3.851714   4.132726   3.213063   4.049666
    35  O    7.102637   5.578774   5.309994   3.965323   4.069415
    36  C    6.621467   5.138554   5.213988   4.063101   4.548396
    37  C    7.683738   6.277814   6.570962   5.514761   6.053736
    38  C    9.084154   7.632139   7.741466   6.537675   6.817732
    39  H    7.667096   6.335997   6.773489   5.835313   6.485291
    40  H    7.685752   6.350410   6.787218   5.843889   6.491838
    41  H    9.310721   7.838517   7.822270   6.562335   6.712782
    42  H    9.849922   8.445648   8.681865   7.538686   7.890166
    43  H    9.327310   7.851264   7.834978   6.570533   6.719331
                    6          7          8          9         10
     6  O    0.000000
     7  N    2.260300   0.000000
     8  C    2.882485   1.443933   0.000000
     9  C    2.836145   2.532193   1.418486   0.000000
    10  C    4.274721   2.448423   1.410820   2.418592   0.000000
    11  C    5.266946   3.745626   2.448754   2.793864   1.397416
    12  C    5.235933   4.277222   2.834810   2.425812   2.422104
    13  C    4.186593   3.798514   2.449311   1.398130   2.786371
    14  H    6.181600   6.987067   8.358485   8.895180   9.404757
    15  H    5.188104   6.402460   7.652609   7.977272   8.829062
    16  H    5.186854   6.405668   7.654826   7.970722   8.838437
    17  H    4.634026   4.926145   6.330064   7.059745   7.253144
    18  H    4.632912   4.929866   6.332439   7.052367   7.264017
    19  H    2.720495   4.051768   5.188125   5.442871   6.433149
    20  H    2.722590   4.049017   5.186785   5.453397   6.422737
    21  H    3.252886   2.616989   4.059508   5.033109   4.848223
    22  H    3.256449   1.146825   2.207724   3.524578   2.628041
    23  H    2.235137   2.847784   2.204364   1.073328   3.421505
    24  H    4.804536   2.667185   2.172752   3.411915   1.080841
    25  H    6.286339   4.594668   3.420983   3.876136   2.146499
    26  S    6.907644   6.071900   4.629408   4.072514   4.084941
    27  O    7.281749   6.707522   5.300803   4.548426   4.954357
    28  O    7.186852   6.695879   5.287243   4.477577   4.995280
    29  H    4.623952   4.676348   3.425347   2.148732   3.869367
    30  C    8.426767   7.253795   5.864210   5.619087   4.954936
    31  H    8.568111   7.216680   5.888141   5.824252   4.846780
    32  H    9.293466   8.257628   6.843940   6.460429   6.012966
    33  H    8.566703   7.288691   5.953492   5.835280   4.967383
    34  O    5.228916   3.942229   5.224236   6.469853   5.519974
    35  O    5.257977   3.223533   4.027185   5.434158   3.808564
    36  C    5.768578   4.016024   5.045103   6.414155   4.988749
    37  C    7.273888   5.478351   6.403273   7.801874   6.143432
    38  C    8.017346   5.973502   6.602436   8.019440   6.015801
    39  H    7.689972   6.020960   7.006958   8.384564   6.809581
    40  H    7.698915   6.022763   7.006050   8.379763   6.810694
    41  H    7.878881   5.780613   6.285278   7.684100   5.607794
    42  H    9.096785   7.077989   7.708699   9.124762   7.084809
    43  H    7.887828   5.782332   6.283708   7.678322   5.608154
                   11         12         13         14         15
    11  C    0.000000
    12  C    1.396339   0.000000
    13  C    2.410906   1.394588   0.000000
    14  H   10.732441  11.135624  10.289902   0.000000
    15  H   10.073968  10.305244   9.338441   1.804688   0.000000
    16  H   10.082342  10.307134   9.332975   1.804814   1.810894
    17  H    8.604942   9.135892   8.442526   2.484676   2.502950
    18  H    8.614307   9.137840   8.436514   2.484940   3.089400
    19  H    7.614480   7.776872   6.800272   3.771230   3.129779
    20  H    7.605603   7.775902   6.808667   3.770072   2.549303
    21  H    6.229630   6.887280   6.373074   4.695147   4.561169
    22  H    4.025136   4.862579   4.656602   6.952856   6.615037
    23  H    3.864236   3.361975   2.095690   8.416209   7.374515
    24  H    2.128401   3.385215   3.866594   9.309466   8.904981
    25  H    1.082327   2.156762   3.395988  11.539604  10.963358
    26  S    2.784698   1.794698   2.761923  12.903017  12.021574
    27  O    3.785137   2.697166   3.233423  13.333508  12.469335
    28  O    3.844431   2.687638   3.141046  13.277191  12.215339
    29  H    3.393749   2.150707   1.083008  10.804559   9.741250
    30  C    3.560504   3.196362   4.432944  14.220794  13.440243
    31  H    3.506876   3.447058   4.761162  14.190018  13.539509
    32  H    4.615691   4.077608   5.180742  15.194255  14.365844
    33  H    3.640485   3.491762   4.751150  14.227448  13.429869
    34  O    6.892936   7.860332   7.671556   5.510236   5.890217
    35  O    5.068002   6.230566   6.375454   7.503693   7.575077
    36  C    6.278281   7.406156   7.456888   6.857703   7.168772
    37  C    7.325140   8.556824   8.757773   7.745302   8.274020
    38  C    6.996783   8.331998   8.773399   9.213974   9.639510
    39  H    8.003637   9.214693   9.375568   7.636439   8.179296
    40  H    8.002767   9.210733   9.369653   7.654741   8.396281
    41  H    6.516502   7.860632   8.364237   9.511134   9.752865
    42  H    8.010582   9.365505   9.854799   9.880960  10.429998
    43  H    6.514190   7.854886   8.356804   9.527188   9.937448
                   16         17         18         19         20
    16  H    0.000000
    17  H    3.089169   0.000000
    18  H    2.504459   1.808578   0.000000
    19  H    2.550985   3.090247   2.503781   0.000000
    20  H    3.125967   2.505308   3.090016   1.811464   0.000000
    21  H    4.563979   2.565239   2.569098   2.964617   2.963309
    22  H    6.621998   4.761791   4.770621   4.499436   4.492259
    23  H    7.359390   6.775668   6.759466   4.862370   4.885328
    24  H    8.920175   7.081430   7.099747   6.650323   6.632914
    25  H   10.975687   9.351814   9.365700   8.547332   8.534002
    26  S   12.023175  10.918587  10.920216   9.482413   9.481758
    27  O   12.285592  11.533183  11.334513   9.739624   9.971477
    28  O   12.372075  11.320250  11.489012   9.870528   9.674188
    29  H    9.730431   9.090790   9.079408   7.228071   7.242943
    30  C   13.465648  12.114058  12.141897  10.942778  10.913354
    31  H   13.457573  12.095786  12.003709  10.948976  11.051682
    32  H   14.377736  13.126407  13.139167  11.840341  11.827562
    33  H   13.588983  12.022415  12.199309  11.106814  10.913542
    34  O    5.900524   3.458494   3.474229   4.853916   4.844965
    35  O    7.588470   5.283823   5.301632   5.919016   5.905583
    36  C    7.182872   4.744365   4.764006   5.890616   5.877235
    37  C    8.291662   5.790833   5.814260   7.257020   7.240786
    38  C    9.660033   7.167806   7.193739   8.392051   8.372460
    39  H    8.393890   5.680270   5.983046   7.573933   7.339224
    40  H    8.216990   5.972633   5.716368   7.370092   7.573341
    41  H    9.940060   7.300119   7.546580   8.542581   8.327996
    42  H   10.452037   7.937755   7.964990   9.344136   9.323564
    43  H    9.791589   7.531916   7.337104   8.362313   8.536660
                   21         22         23         24         25
    21  H    0.000000
    22  H    2.280585   0.000000
    23  H    5.023617   3.970058   0.000000
    24  H    4.630594   2.356926   4.347374   0.000000
    25  H    6.935243   4.666102   4.946496   2.432345   0.000000
    26  S    8.680803   6.624965   4.856365   4.913066   2.932552
    27  O    9.289696   7.349882   5.156402   5.826326   4.018226
    28  O    9.286510   7.375013   5.052201   5.895014   4.126754
    29  H    7.169592   5.620550   2.390497   4.949588   4.294227
    30  C    9.783768   7.582174   6.511027   5.499934   3.102906
    31  H    9.668807   7.430807   6.773946   5.253179   2.859398
    32  H   10.816919   8.639855   7.276207   6.595335   4.205682
    33  H    9.753244   7.540604   6.758233   5.411057   3.075813
    34  O    2.072997   3.026917   6.711424   4.898912   7.330249
    35  O    3.101390   2.078719   6.006669   2.952016   5.316184
    36  C    2.995492   2.905227   6.862778   4.171500   6.541081
    37  C    4.409507   4.345020   8.314985   5.199775   7.407558
    38  C    5.511219   4.836348   8.695532   4.964827   6.857543
    39  H    4.723295   4.922289   8.850000   5.891449   8.101481
    40  H    4.728086   4.923033   8.843318   5.896798   8.101946
    41  H    5.607447   4.684962   8.408785   4.554699   6.330811
    42  H    6.475987   5.937883   9.805998   6.021834   7.795555
    43  H    5.612116   4.685561   8.401423   4.560476   6.329884
                   26         27         28         29         30
    26  S    0.000000
    27  O    1.536635   0.000000
    28  O    1.535924   2.337806   0.000000
    29  H    2.886284   3.032953   2.868237   0.000000
    30  C    1.814693   2.702062   2.712025   4.689294   0.000000
    31  H    2.422503   3.025330   3.650731   5.156729   1.109370
    32  H    2.421785   2.866265   2.928205   5.241321   1.109523
    33  H    2.423957   3.638001   2.985641   5.099344   1.109430
    34  O    9.593814  10.321952  10.367148   8.603843  10.387725
    35  O    7.847657   8.678573   8.755250   7.414488   8.415637
    36  C    9.051603   9.856164   9.929056   8.467660   9.640758
    37  C   10.107077  10.953698  11.050418   9.797979  10.489533
    38  C    9.714038  10.618323  10.741415   9.848945   9.840171
    39  H   10.776320  11.706073  11.620501  10.401928  11.163081
    40  H   10.771078  11.506127  11.780833  10.394039  11.180992
    41  H    9.191348  10.217177  10.136469   9.440098   9.257940
    42  H   10.689194  11.601651  11.735379  10.933174  10.706508
    43  H    9.183902   9.985235  10.319547   9.430645   9.278057
                   31         32         33         34         35
    31  H    0.000000
    32  H    1.805694   0.000000
    33  H    1.820275   1.807238   0.000000
    34  O   10.125359  11.475572  10.259164   0.000000
    35  O    8.087177   9.517652   8.253558   2.228051   0.000000
    36  C    9.304229  10.742951   9.466839   1.348829   1.225310
    37  C   10.068726  11.593074  10.256726   2.459954   2.383555
    38  C    9.341673  10.927568   9.558645   3.782061   2.766731
    39  H   10.811732  12.271404  10.846770   2.744359   3.094382
    40  H   10.694009  12.273701  11.028428   2.746780   3.093145
    41  H    8.837603  10.346588   8.874793   4.079663   2.745424
    42  H   10.168229  11.778895  10.395174   4.613658   3.862329
    43  H    8.690861  10.347755   9.095287   4.082092   2.743661
                   36         37         38         39         40
    36  C    0.000000
    37  C    1.505496   0.000000
    38  C    2.533143   1.528316   0.000000
    39  H    2.137536   1.110932   2.159415   0.000000
    40  H    2.137767   1.110946   2.160215   1.804782   0.000000
    41  H    2.804799   2.179215   1.111001   2.503885   3.089793
    42  H    3.481527   2.168709   1.110478   2.483127   2.483927
    43  H    2.805321   2.179634   1.110944   3.089494   2.505778
                   41         42         43
    41  H    0.000000
    42  H    1.804310   0.000000
    43  H    1.812805   1.804465   0.000000
 Stoichiometry    C14H21N2O5S(1-)
 Framework group  C1[X(C14H21N2O5S)]
 Deg. of freedom   123
 Full point group                 C1      NOp   1
 Largest Abelian subgroup         C1      NOp   1
 Largest concise Abelian subgroup C1      NOp   1
                         Standard orientation:                         
 ---------------------------------------------------------------------
 Center     Atomic      Atomic             Coordinates (Angstroms)
 Number     Number       Type             X           Y           Z
 ---------------------------------------------------------------------
      1          6           0        6.264130   -3.381909   -0.020790
      2          6           0        5.338761   -2.168849   -0.003722
      3          6           0        3.866980   -2.594698   -0.012293
      4          7           0        2.985782   -1.438529    0.000458
      5          6           0        1.628518   -1.577343   -0.003556
      6          8           0        1.149570   -2.699556   -0.016112
      7          7           0        0.828830   -0.462216    0.003612
      8          6           0       -0.614485   -0.419987    0.003533
      9          6           0       -1.449980   -1.566157    0.022120
     10          6           0       -1.242458    0.843244   -0.014106
     11          6           0       -2.634662    0.963818   -0.015698
     12          6           0       -3.438907   -0.177534    0.000654
     13          6           0       -2.842210   -1.437860    0.020858
     14          1           0        7.321596   -3.043454   -0.013620
     15          1           0        6.090483   -3.986869   -0.936239
     16          1           0        6.087074   -4.015401    0.874427
     17          1           0        5.549452   -1.543385   -0.898442
     18          1           0        5.546280   -1.570284    0.909934
     19          1           0        3.663209   -3.220232    0.884784
     20          1           0        3.666910   -3.196205   -0.926517
     21          1           0        3.444931   -0.394846    0.013862
     22          1           0        1.369023    0.549411    0.006472
     23          1           0       -1.081344   -2.574043    0.039622
     24          1           0       -0.657659    1.752112   -0.027736
     25          1           0       -3.081999    1.949283   -0.029098
     26         16           0       -5.228934   -0.048144   -0.000551
     27          8           0       -5.754251   -0.763507    1.253859
     28          8           0       -5.757172   -1.015404   -1.070335
     29          1           0       -3.459127   -2.327861    0.035662
     30          6           0       -6.150646    1.507306   -0.155899
     31          1           0       -5.846917    2.200549    0.655188
     32          1           0       -7.237579    1.303151   -0.066800
     33          1           0       -5.947538    1.963182   -1.146737
     34          8           0        4.235595    1.521437    0.019071
     35          8           0        2.210404    2.450240    0.007373
     36          6           0        3.426445    2.600588    0.012228
     37          6           0        4.043413    3.973856    0.010206
     38          6           0        3.009293    5.099103   -0.002676
     39          1           0        4.689250    4.071365   -0.888436
     40          1           0        4.677462    4.079669    0.916289
     41          1           0        2.376797    5.031246   -0.913537
     42          1           0        3.528787    6.080574   -0.003941
     43          1           0        2.363243    5.040408    0.899195
 ---------------------------------------------------------------------
 Rotational constants (GHZ):      0.3219038      0.0963290      0.0753317
 General basis read from cards:  (6D, 7F)
 There are   464 symmetry adapted cartesian basis functions of A   symmetry.
 There are   464 symmetry adapted basis functions of A   symmetry.
   464 basis functions,   812 primitive gaussians,   464 cartesian basis functions
    88 alpha electrons       88 beta electrons
       nuclear repulsion energy      1874.4500937725 Hartrees.
 NAtoms=   43 NActive=   43 NUniq=   43 SFac= 1.00D+00 NAtFMM=   60 NAOKFM=F Big=F
 Integral buffers will be    131072 words long.
 Raffenetti 2 integral format.
 Two-electron integral symmetry is turned on.
 ------------------------------------------------------------------------------
 Polarizable Continuum Model (PCM)
 =================================
 Model                : PCM (using non-symmetric T matrix).
 Atomic radii         : SMD-Coulomb.
 Polarization charges : Total charges.
 Charge compensation  : None.
 Solution method      : On-the-fly selection.
 Cavity type          : VdW (van der Waals Surface) (Alpha=1.000).
 Cavity algorithm     : GePol (No added spheres)
                        Default sphere list used, NSphG=   43.
                        Lebedev-Laikov grids with approx.  5.0 points / Ang**2.
                        Smoothing algorithm: York/Karplus (Gamma=1.0000).
                        Polarization charges: spherical gaussians, with
                                              point-specific exponents (IZeta= 3).
                        Self-potential: point-specific (ISelfS= 7).
                        Self-field    : sphere-specific E.n sum rule (ISelfD= 2).
 1st derivatives      : Analytical E(r).r(x)/FMM algorithm (CHGder, D1EAlg=3).
                        Cavity 1st derivative terms included.
 Solvent              : n-Pentadecane, Eps=   2.033300 Eps(inf)=   2.049192
 ------------------------------------------------------------------------------
 ------------------------------------------------------------------------------
 Atomic radii for non-electrostatic terms: SMD-CDS.
 ------------------------------------------------------------------------------
 Nuclear repulsion after PCM non-electrostatic terms =     1874.4390568520 Hartrees.
 One-electron integrals computed using PRISM.
 NBasis=   464 RedAO= T EigKep=  2.05D-06  NBF=   464
 NBsUse=   462 1.00D-06 EigRej=  7.95D-07 NBFU=   462
 ExpMin= 4.05D-02 ExpMax= 2.19D+04 ExpMxC= 3.30D+03 IAcc=3 IRadAn=         5 AccDes= 0.00D+00
 Harris functional with IExCor= 1009 and IRadAn=       5 diagonalized for initial guess.
 HarFok:  IExCor= 1009 AccDes= 0.00D+00 IRadAn=         5 IDoV= 1 UseB2=F ITyADJ=14
 ICtDFT=  3500011 ScaDFX=  1.000000  1.000000  1.000000  1.000000
 FoFCou: FMM=F IPFlag=           0 FMFlag=      100000 FMFlg1=           0
         NFxFlg=           0 DoJE=T BraDBF=F KetDBF=T FulRan=T
         wScrn=  0.000000 ICntrl=     500 IOpCl=  0 I1Cent=   200000004 NGrid=           0
         NMat0=    1 NMatS0=      1 NMatT0=    0 NMatD0=    1 NMtDS0=    0 NMtDT0=    0
 Petite list used in FoFCou.
 Requested convergence on RMS density matrix=1.00D-08 within 128 cycles.
 Requested convergence on MAX density matrix=1.00D-06.
 Requested convergence on             energy=1.00D-06.
 No special actions if energy rises.
 Inv3:  Mode=1 IEnd=    37850112.
 Iteration    1 A*A^-1 deviation from unit magnitude is 5.88D-15 for   3551.
 Iteration    1 A*A^-1 deviation from orthogonality  is 2.55D-15 for   3518   2386.
 Iteration    1 A^-1*A deviation from unit magnitude is 5.00D-15 for   3551.
 Iteration    1 A^-1*A deviation from orthogonality  is 3.72D-15 for   1562   1533.
 Error on total polarization charges =  0.02753
 SCF Done:  E(RM062X) =  -1429.55317995     A.U. after   16 cycles
            NFock= 16  Conv=0.85D-08     -V/T= 2.0080
 SMD-CDS (non-electrostatic) energy       (kcal/mol) =      -6.93
 (included in total energy above)

 **********************************************************************

            Population analysis using the SCF density.

 **********************************************************************

 Orbital symmetries:
       Occupied  (A) (A) (A) (A) (A) (A) (A) (A) (A) (A) (A) (A)
                 (A) (A) (A) (A) (A) (A) (A) (A) (A) (A) (A) (A)
                 (A) (A) (A) (A) (A) (A) (A) (A) (A) (A) (A) (A)
                 (A) (A) (A) (A) (A) (A) (A) (A) (A) (A) (A) (A)
                 (A) (A) (A) (A) (A) (A) (A) (A) (A) (A) (A) (A)
                 (A) (A) (A) (A) (A) (A) (A) (A) (A) (A) (A) (A)
                 (A) (A) (A) (A) (A) (A) (A) (A) (A) (A) (A) (A)
                 (A) (A) (A) (A)
       Virtual   (A) (A) (A) (A) (A) (A) (A) (A) (A) (A) (A) (A)
                 (A) (A) (A) (A) (A) (A) (A) (A) (A) (A) (A) (A)
                 (A) (A) (A) (A) (A) (A) (A) (A) (A) (A) (A) (A)
                 (A) (A) (A) (A) (A) (A) (A) (A) (A) (A) (A) (A)
                 (A) (A) (A) (A) (A) (A) (A) (A) (A) (A) (A) (A)
                 (A) (A) (A) (A) (A) (A) (A) (A) (A) (A) (A) (A)
                 (A) (A) (A) (A) (A) (A) (A) (A) (A) (A) (A) (A)
                 (A) (A) (A) (A) (A) (A) (A) (A) (A) (A) (A) (A)
                 (A) (A) (A) (A) (A) (A) (A) (A) (A) (A) (A) (A)
                 (A) (A) (A) (A) (A) (A) (A) (A) (A) (A) (A) (A)
                 (A) (A) (A) (A) (A) (A) (A) (A) (A) (A) (A) (A)
                 (A) (A) (A) (A) (A) (A) (A) (A) (A) (A) (A) (A)
                 (A) (A) (A) (A) (A) (A) (A) (A) (A) (A) (A) (A)
                 (A) (A) (A) (A) (A) (A) (A) (A) (A) (A) (A) (A)
                 (A) (A) (A) (A) (A) (A) (A) (A) (A) (A) (A) (A)
                 (A) (A) (A) (A) (A) (A) (A) (A) (A) (A) (A) (A)
                 (A) (A) (A) (A) (A) (A) (A) (A) (A) (A) (A) (A)
                 (A) (A) (A) (A) (A) (A) (A) (A) (A) (A) (A) (A)
                 (A) (A) (A) (A) (A) (A) (A) (A) (A) (A) (A) (A)
                 (A) (A) (A) (A) (A) (A) (A) (A) (A) (A) (A) (A)
                 (A) (A) (A) (A) (A) (A) (A) (A) (A) (A) (A) (A)
                 (A) (A) (A) (A) (A) (A) (A) (A) (A) (A) (A) (A)
                 (A) (A) (A) (A) (A) (A) (A) (A) (A) (A) (A) (A)
                 (A) (A) (A) (A) (A) (A) (A) (A) (A) (A) (A) (A)
                 (A) (A) (A) (A) (A) (A) (A) (A) (A) (A) (A) (A)
                 (A) (A) (A) (A) (A) (A) (A) (A) (A) (A) (A) (A)
                 (A) (A) (A) (A) (A) (A) (A) (A) (A) (A) (A) (A)
                 (A) (A) (A) (A) (A) (A) (A) (A) (A) (A) (A) (A)
                 (A) (A) (A) (A) (A) (A) (A) (A) (A) (A) (A) (A)
                 (A) (A) (A) (A) (A) (A) (A) (A) (A) (A) (A) (A)
                 (A) (A) (A) (A) (A) (A) (A) (A) (A) (A) (A) (A)
                 (A) (A)
 The electronic state is 1-A.
 Alpha  occ. eigenvalues --  -90.10225 -19.57295 -19.57240 -19.54170 -19.52675
 Alpha  occ. eigenvalues --  -19.49904 -14.74765 -14.71623 -10.61724 -10.58121
 Alpha  occ. eigenvalues --  -10.57737 -10.56571 -10.56296 -10.54321 -10.53701
 Alpha  occ. eigenvalues --  -10.52707 -10.52509 -10.52017 -10.49871 -10.49803
 Alpha  occ. eigenvalues --  -10.48660 -10.48541  -8.41692  -6.33792  -6.33761
 Alpha  occ. eigenvalues --   -6.33750  -1.14100  -1.11498  -1.07772  -1.01078
 Alpha  occ. eigenvalues --   -0.98000  -0.95122  -0.94409  -0.92619  -0.85163
 Alpha  occ. eigenvalues --   -0.83062  -0.81918  -0.81176  -0.80383  -0.73203
 Alpha  occ. eigenvalues --   -0.70344  -0.67294  -0.66176  -0.64172  -0.62073
 Alpha  occ. eigenvalues --   -0.59868  -0.56511  -0.55473  -0.53765  -0.51469
 Alpha  occ. eigenvalues --   -0.50556  -0.50367  -0.50061  -0.48790  -0.48118
 Alpha  occ. eigenvalues --   -0.47724  -0.46864  -0.46267  -0.46141  -0.45962
 Alpha  occ. eigenvalues --   -0.45161  -0.44827  -0.43737  -0.42309  -0.42144
 Alpha  occ. eigenvalues --   -0.41156  -0.40338  -0.40117  -0.38447  -0.38102
 Alpha  occ. eigenvalues --   -0.37686  -0.37096  -0.35258  -0.34987  -0.34636
 Alpha  occ. eigenvalues --   -0.33960  -0.33692  -0.33622  -0.31347  -0.30893
 Alpha  occ. eigenvalues --   -0.28186  -0.27967  -0.27869  -0.25181  -0.24717
 Alpha  occ. eigenvalues --   -0.22998  -0.22429  -0.22001
 Alpha virt. eigenvalues --    0.02843   0.03122   0.04949   0.05843   0.06767
 Alpha virt. eigenvalues --    0.07028   0.07485   0.07732   0.08272   0.08370
 Alpha virt. eigenvalues --    0.08835   0.09161   0.09212   0.09527   0.09987
 Alpha virt. eigenvalues --    0.10151   0.10458   0.10669   0.11218   0.11644
 Alpha virt. eigenvalues --    0.11927   0.12530   0.13021   0.13464   0.13533
 Alpha virt. eigenvalues --    0.13646   0.13967   0.14091   0.15020   0.15383
 Alpha virt. eigenvalues --    0.15535   0.15714   0.15984   0.16179   0.16656
 Alpha virt. eigenvalues --    0.16920   0.17081   0.17637   0.18581   0.18833
 Alpha virt. eigenvalues --    0.19109   0.19538   0.19881   0.20215   0.20377
 Alpha virt. eigenvalues --    0.20418   0.20879   0.21117   0.21297   0.22076
 Alpha virt. eigenvalues --    0.22463   0.23334   0.23502   0.23920   0.24590
 Alpha virt. eigenvalues --    0.25061   0.25471   0.25610   0.26287   0.26309
 Alpha virt. eigenvalues --    0.26615   0.27074   0.27596   0.27949   0.28488
 Alpha virt. eigenvalues --    0.28797   0.29173   0.29643   0.29799   0.29940
 Alpha virt. eigenvalues --    0.30099   0.30679   0.31009   0.31300   0.31444
 Alpha virt. eigenvalues --    0.31596   0.32603   0.32768   0.33028   0.33187
 Alpha virt. eigenvalues --    0.33571   0.34087   0.34154   0.34675   0.34986
 Alpha virt. eigenvalues --    0.35108   0.35378   0.35875   0.36424   0.36835
 Alpha virt. eigenvalues --    0.37158   0.37376   0.37529   0.38107   0.38642
 Alpha virt. eigenvalues --    0.38770   0.38931   0.39045   0.39637   0.39990
 Alpha virt. eigenvalues --    0.40171   0.40799   0.40998   0.41517   0.41856
 Alpha virt. eigenvalues --    0.42167   0.42614   0.42806   0.43150   0.43519
 Alpha virt. eigenvalues --    0.44459   0.45148   0.45552   0.46998   0.47781
 Alpha virt. eigenvalues --    0.47971   0.48850   0.49865   0.50594   0.51795
 Alpha virt. eigenvalues --    0.52433   0.53226   0.54997   0.56665   0.57071
 Alpha virt. eigenvalues --    0.59206   0.60225   0.60639   0.61409   0.61978
 Alpha virt. eigenvalues --    0.62383   0.64961   0.65527   0.65982   0.67092
 Alpha virt. eigenvalues --    0.67655   0.71630   0.73373   0.74407   0.75613
 Alpha virt. eigenvalues --    0.75890   0.76505   0.76662   0.76998   0.78647
 Alpha virt. eigenvalues --    0.79875   0.80217   0.80508   0.81034   0.81549
 Alpha virt. eigenvalues --    0.81826   0.82264   0.83126   0.83635   0.85101
 Alpha virt. eigenvalues --    0.85601   0.86899   0.86997   0.87381   0.88088
 Alpha virt. eigenvalues --    0.88346   0.89050   0.91477   0.92543   0.93470
 Alpha virt. eigenvalues --    0.94110   0.94620   0.95383   0.96417   0.97363
 Alpha virt. eigenvalues --    0.98258   0.99649   1.01022   1.01884   1.02338
 Alpha virt. eigenvalues --    1.03401   1.03663   1.04443   1.04836   1.05381
 Alpha virt. eigenvalues --    1.05635   1.07541   1.08075   1.08356   1.10175
 Alpha virt. eigenvalues --    1.10677   1.11251   1.11789   1.12424   1.13665
 Alpha virt. eigenvalues --    1.14051   1.15638   1.16647   1.17338   1.18392
 Alpha virt. eigenvalues --    1.18764   1.19180   1.20358   1.20952   1.21814
 Alpha virt. eigenvalues --    1.22367   1.22794   1.24172   1.24531   1.25442
 Alpha virt. eigenvalues --    1.26890   1.27495   1.29809   1.31132   1.32262
 Alpha virt. eigenvalues --    1.33213   1.34660   1.37080   1.37608   1.38256
 Alpha virt. eigenvalues --    1.38772   1.38832   1.39863   1.40562   1.42186
 Alpha virt. eigenvalues --    1.43018   1.43864   1.44696   1.45560   1.46340
 Alpha virt. eigenvalues --    1.46622   1.48236   1.49096   1.50296   1.50565
 Alpha virt. eigenvalues --    1.51030   1.51293   1.52739   1.52826   1.53755
 Alpha virt. eigenvalues --    1.54527   1.55003   1.55752   1.56951   1.58537
 Alpha virt. eigenvalues --    1.59259   1.60599   1.61671   1.62085   1.62872
 Alpha virt. eigenvalues --    1.64017   1.64403   1.66779   1.68709   1.69256
 Alpha virt. eigenvalues --    1.70773   1.73231   1.77637   1.78150   1.79699
 Alpha virt. eigenvalues --    1.81140   1.83534   1.86642   1.87271   1.89684
 Alpha virt. eigenvalues --    1.91102   1.93056   1.93323   1.94245   1.94748
 Alpha virt. eigenvalues --    1.94944   1.95262   1.95824   1.97058   1.97621
 Alpha virt. eigenvalues --    1.98545   1.98782   1.99701   2.00891   2.01002
 Alpha virt. eigenvalues --    2.02865   2.03850   2.04014   2.04320   2.04566
 Alpha virt. eigenvalues --    2.07128   2.08143   2.08827   2.09639   2.10791
 Alpha virt. eigenvalues --    2.11133   2.11703   2.11928   2.12767   2.14303
 Alpha virt. eigenvalues --    2.15286   2.17097   2.18478   2.18771   2.20544
 Alpha virt. eigenvalues --    2.20852   2.21548   2.22005   2.22638   2.24446
 Alpha virt. eigenvalues --    2.25828   2.26270   2.27615   2.28645   2.30252
 Alpha virt. eigenvalues --    2.31655   2.31893   2.32320   2.35115   2.35848
 Alpha virt. eigenvalues --    2.36655   2.36989   2.37557   2.37863   2.40868
 Alpha virt. eigenvalues --    2.42646   2.43383   2.44085   2.44646   2.46014
 Alpha virt. eigenvalues --    2.47785   2.54564   2.61860   2.62486   2.62876
 Alpha virt. eigenvalues --    2.63413   2.68052   2.69502   2.70973   2.71763
 Alpha virt. eigenvalues --    2.73063   2.79029   2.79354   2.80324   2.81598
 Alpha virt. eigenvalues --    2.83907   2.84677   2.86178   2.87375   2.89877
 Alpha virt. eigenvalues --    2.89959   2.95083   2.96254   3.05221   3.11333
 Alpha virt. eigenvalues --    3.12499   3.18495   3.24120   3.26953   3.33554
 Alpha virt. eigenvalues --    3.36995   3.44785   4.07095   4.15330   4.26223
 Alpha virt. eigenvalues --    4.28825   4.29783   4.32028   4.33806   4.35693
 Alpha virt. eigenvalues --    4.41929   4.42461   4.45230   4.47583   4.49552
 Alpha virt. eigenvalues --    4.52018   4.52616   4.54657   4.58811   4.64138
 Alpha virt. eigenvalues --    4.70673   4.77722   4.79253   4.83961
          Condensed to atoms (all electrons):
               1          2          3          4          5          6
     1  C    5.836873  -0.201580   0.037646  -0.016706  -0.065040  -0.001159
     2  C   -0.201580   6.362356  -0.487941  -0.065915   0.179771   0.024254
     3  C    0.037646  -0.487941   7.181667   0.358702  -0.846109  -0.108360
     4  N   -0.016706  -0.065915   0.358702   7.769155   0.460701  -0.188472
     5  C   -0.065040   0.179771  -0.846109   0.460701   6.606801   0.608525
     6  O   -0.001159   0.024254  -0.108360  -0.188472   0.608525   8.356468
     7  N   -0.005500   0.015589  -0.242810  -0.398679   0.150465  -0.085117
     8  C   -0.003076   0.017897  -0.141579  -0.123637   0.078387  -0.421364
     9  C   -0.005689  -0.024703  -0.200007  -0.029415  -0.415375   0.420318
    10  C   -0.000488   0.014876  -0.041470  -0.080373  -0.107617  -0.123593
    11  C   -0.000060   0.003208  -0.010525  -0.028325  -0.136466  -0.033619
    12  C   -0.000344  -0.000497  -0.042285  -0.013576  -0.592475   0.005424
    13  C   -0.000861  -0.005251  -0.069159   0.003989  -0.438645   0.175619
    14  H    0.449222  -0.125890   0.029076   0.000287  -0.001858   0.000005
    15  H    0.420380  -0.068379  -0.008405   0.000145   0.000060  -0.000043
    16  H    0.420559  -0.068054  -0.008844   0.000135  -0.000019  -0.000042
    17  H   -0.032457   0.421068  -0.071984   0.005229  -0.006576  -0.000181
    18  H   -0.032873   0.421015  -0.072715   0.005095  -0.005463  -0.000172
    19  H   -0.007105  -0.051406   0.444997  -0.056387  -0.024847   0.001140
    20  H   -0.005439  -0.054101   0.451633  -0.056731  -0.029611   0.001218
    21  H    0.001104  -0.000731  -0.055287   0.173475   0.021282   0.004239
    22  H    0.000193   0.000303   0.006050   0.032644  -0.029109   0.003864
    23  H    0.000020   0.000039   0.003881  -0.000149   0.033105  -0.004661
    24  H   -0.000001   0.000017  -0.000220   0.000774  -0.004103   0.000091
    25  H    0.000000   0.000000   0.000037   0.000006   0.005440  -0.000001
    26  S   -0.000004  -0.000016  -0.000863   0.000123  -0.034572   0.000869
    27  O   -0.000000  -0.000000  -0.000012   0.000002  -0.001552  -0.000015
    28  O   -0.000000  -0.000000  -0.000010   0.000002  -0.001533  -0.000017
    29  H   -0.000000   0.000002  -0.000030   0.000019  -0.002340   0.000299
    30  C    0.000000   0.000001   0.000049   0.000010   0.002723   0.000042
    31  H   -0.000000  -0.000000  -0.000000  -0.000000  -0.000040  -0.000000
    32  H    0.000000   0.000000   0.000000  -0.000000   0.000006   0.000000
    33  H   -0.000000  -0.000000  -0.000000  -0.000000  -0.000034  -0.000000
    34  O    0.006617   0.010042  -0.009307  -0.027194  -0.005181  -0.000241
    35  O   -0.000165  -0.000761   0.004734   0.008709   0.005790  -0.000005
    36  C   -0.002564  -0.003083   0.003426  -0.006670  -0.001402  -0.000595
    37  C    0.002670   0.000263   0.017884  -0.009530  -0.015189  -0.000548
    38  C   -0.000324  -0.000249  -0.001898   0.001732   0.001703   0.000039
    39  H    0.000005   0.000007   0.000028  -0.000034  -0.000087  -0.000000
    40  H    0.000005   0.000003   0.000036  -0.000027  -0.000113  -0.000000
    41  H    0.000000   0.000006  -0.000005  -0.000000  -0.000020  -0.000000
    42  H    0.000000   0.000002  -0.000002  -0.000002   0.000011   0.000000
    43  H    0.000000   0.000006  -0.000006  -0.000001  -0.000008  -0.000000
               7          8          9         10         11         12
     1  C   -0.005500  -0.003076  -0.005689  -0.000488  -0.000060  -0.000344
     2  C    0.015589   0.017897  -0.024703   0.014876   0.003208  -0.000497
     3  C   -0.242810  -0.141579  -0.200007  -0.041470  -0.010525  -0.042285
     4  N   -0.398679  -0.123637  -0.029415  -0.080373  -0.028325  -0.013576
     5  C    0.150465   0.078387  -0.415375  -0.107617  -0.136466  -0.592475
     6  O   -0.085117  -0.421364   0.420318  -0.123593  -0.033619   0.005424
     7  N    7.897743   0.149104  -0.099586   0.028206  -0.007429  -0.005310
     8  C    0.149104  13.931364   0.246619   0.952134  -1.174114  -3.395913
     9  C   -0.099586   0.246619  12.593399  -3.056849  -1.699407  -2.854667
    10  C    0.028206   0.952134  -3.056849   9.750284   1.379307  -1.000296
    11  C   -0.007429  -1.174114  -1.699407   1.379307  10.663241  -0.617759
    12  C   -0.005310  -3.395913  -2.854667  -1.000296  -0.617759  15.045431
    13  C    0.104878  -4.009306   1.016324  -1.522886  -2.985417   1.045073
    14  H    0.000008  -0.000024  -0.000001  -0.000001  -0.000000  -0.000000
    15  H    0.000012   0.000029  -0.000046   0.000007   0.000000  -0.000000
    16  H    0.000010   0.000027  -0.000050   0.000008   0.000000  -0.000000
    17  H   -0.000223  -0.000537  -0.000270   0.000179   0.000009  -0.000002
    18  H   -0.000151  -0.000552  -0.000127   0.000109   0.000004  -0.000001
    19  H   -0.000120   0.000145  -0.002031   0.000589   0.000045  -0.000007
    20  H   -0.000319   0.000257  -0.002248   0.000309   0.000024  -0.000021
    21  H    0.028784   0.012036  -0.003057   0.003538   0.000438  -0.000139
    22  H    0.158970   0.022588   0.044016  -0.063043  -0.013083   0.006081
    23  H   -0.011511   0.004773   0.322639   0.008849  -0.007733   0.011671
    24  H   -0.002643  -0.049203  -0.006226   0.258432   0.056304   0.062793
    25  H    0.000673   0.071661  -0.009380   0.009872   0.300273  -0.058595
    26  S    0.001568  -0.319405  -0.214128   0.224456   0.370304  -1.104481
    27  O    0.000138  -0.033294  -0.038393   0.017678   0.131558   0.057194
    28  O    0.000178  -0.040102  -0.070639   0.001246   0.052918   0.121567
    29  H   -0.000856   0.016604  -0.035618  -0.005365   0.007899  -0.001576
    30  C   -0.000164   0.063485   0.116433  -0.006277  -0.033741  -0.435714
    31  H   -0.000003  -0.002821  -0.003468   0.003452   0.021809  -0.027379
    32  H    0.000000   0.001167  -0.000058   0.002675   0.000424   0.039525
    33  H   -0.000001  -0.002562  -0.003653   0.005006   0.010228  -0.023596
    34  O    0.010143   0.008465  -0.000084  -0.007783  -0.004840  -0.000626
    35  O   -0.005222  -0.156065  -0.019483   0.125283   0.042125   0.003167
    36  C   -0.006256   0.043348  -0.006840  -0.030611  -0.014062  -0.007149
    37  C   -0.016503  -0.004509  -0.008859   0.003327  -0.003531  -0.001365
    38  C    0.003119  -0.020463  -0.001857   0.010248   0.012528   0.000830
    39  H    0.000055  -0.000313  -0.000031   0.000288   0.000006  -0.000002
    40  H    0.000053  -0.000289  -0.000034   0.000271   0.000002  -0.000002
    41  H   -0.000008  -0.000278  -0.000013   0.000061   0.000114  -0.000019
    42  H    0.000004   0.000094   0.000004  -0.000094  -0.000033  -0.000000
    43  H   -0.000007  -0.000365  -0.000008   0.000091   0.000178  -0.000016
              13         14         15         16         17         18
     1  C   -0.000861   0.449222   0.420380   0.420559  -0.032457  -0.032873
     2  C   -0.005251  -0.125890  -0.068379  -0.068054   0.421068   0.421015
     3  C   -0.069159   0.029076  -0.008405  -0.008844  -0.071984  -0.072715
     4  N    0.003989   0.000287   0.000145   0.000135   0.005229   0.005095
     5  C   -0.438645  -0.001858   0.000060  -0.000019  -0.006576  -0.005463
     6  O    0.175619   0.000005  -0.000043  -0.000042  -0.000181  -0.000172
     7  N    0.104878   0.000008   0.000012   0.000010  -0.000223  -0.000151
     8  C   -4.009306  -0.000024   0.000029   0.000027  -0.000537  -0.000552
     9  C    1.016324  -0.000001  -0.000046  -0.000050  -0.000270  -0.000127
    10  C   -1.522886  -0.000001   0.000007   0.000008   0.000179   0.000109
    11  C   -2.985417  -0.000000   0.000000   0.000000   0.000009   0.000004
    12  C    1.045073  -0.000000  -0.000000  -0.000000  -0.000002  -0.000001
    13  C   12.933559   0.000000  -0.000002  -0.000003  -0.000012  -0.000003
    14  H    0.000000   0.498815  -0.025320  -0.025322  -0.003238  -0.003240
    15  H   -0.000002  -0.025320   0.504044  -0.029934  -0.004651   0.003888
    16  H   -0.000003  -0.025322  -0.029934   0.504094   0.003888  -0.004640
    17  H   -0.000012  -0.003238  -0.004651   0.003888   0.486267  -0.028284
    18  H   -0.000003  -0.003240   0.003888  -0.004640  -0.028284   0.486741
    19  H   -0.000161  -0.000066  -0.000352   0.002980   0.003951  -0.005395
    20  H   -0.000218  -0.000064   0.002976  -0.000356  -0.005350   0.003959
    21  H   -0.000484  -0.000001  -0.000000  -0.000000   0.000609   0.000605
    22  H    0.009485  -0.000000  -0.000000  -0.000000   0.000002   0.000002
    23  H   -0.053910   0.000000  -0.000000  -0.000000  -0.000000  -0.000000
    24  H   -0.015023  -0.000000   0.000000   0.000000   0.000000   0.000000
    25  H    0.003736  -0.000000   0.000000   0.000000  -0.000000  -0.000000
    26  S   -0.149392  -0.000000  -0.000000  -0.000000  -0.000000  -0.000000
    27  O   -0.290430  -0.000000   0.000000  -0.000000  -0.000000   0.000000
    28  O   -0.231195  -0.000000  -0.000000  -0.000000   0.000000  -0.000000
    29  H    0.323718  -0.000000   0.000000   0.000000   0.000000   0.000000
    30  C    0.222967  -0.000000   0.000000   0.000000  -0.000000  -0.000000
    31  H   -0.014620   0.000000   0.000000   0.000000   0.000000   0.000000
    32  H   -0.000260   0.000000   0.000000   0.000000  -0.000000  -0.000000
    33  H   -0.014057   0.000000   0.000000   0.000000   0.000000   0.000000
    34  O    0.000791  -0.000019  -0.000005  -0.000005  -0.001101  -0.001035
    35  O   -0.001382  -0.000000   0.000000   0.000000  -0.000008  -0.000008
    36  C   -0.001895  -0.000048  -0.000001  -0.000002  -0.000107  -0.000114
    37  C   -0.000973   0.000024  -0.000001  -0.000001   0.000065   0.000030
    38  C   -0.000718  -0.000000   0.000000   0.000000  -0.000011  -0.000010
    39  H   -0.000001  -0.000000  -0.000000   0.000000  -0.000000   0.000000
    40  H   -0.000001  -0.000000   0.000000  -0.000000   0.000000   0.000000
    41  H   -0.000000  -0.000000  -0.000000  -0.000000  -0.000000  -0.000000
    42  H    0.000000   0.000000  -0.000000  -0.000000  -0.000000  -0.000000
    43  H   -0.000001  -0.000000  -0.000000  -0.000000  -0.000000  -0.000000
              19         20         21         22         23         24
     1  C   -0.007105  -0.005439   0.001104   0.000193   0.000020  -0.000001
     2  C   -0.051406  -0.054101  -0.000731   0.000303   0.000039   0.000017
     3  C    0.444997   0.451633  -0.055287   0.006050   0.003881  -0.000220
     4  N   -0.056387  -0.056731   0.173475   0.032644  -0.000149   0.000774
     5  C   -0.024847  -0.029611   0.021282  -0.029109   0.033105  -0.004103
     6  O    0.001140   0.001218   0.004239   0.003864  -0.004661   0.000091
     7  N   -0.000120  -0.000319   0.028784   0.158970  -0.011511  -0.002643
     8  C    0.000145   0.000257   0.012036   0.022588   0.004773  -0.049203
     9  C   -0.002031  -0.002248  -0.003057   0.044016   0.322639  -0.006226
    10  C    0.000589   0.000309   0.003538  -0.063043   0.008849   0.258432
    11  C    0.000045   0.000024   0.000438  -0.013083  -0.007733   0.056304
    12  C   -0.000007  -0.000021  -0.000139   0.006081   0.011671   0.062793
    13  C   -0.000161  -0.000218  -0.000484   0.009485  -0.053910  -0.015023
    14  H   -0.000066  -0.000064  -0.000001  -0.000000   0.000000  -0.000000
    15  H   -0.000352   0.002976  -0.000000  -0.000000  -0.000000   0.000000
    16  H    0.002980  -0.000356  -0.000000  -0.000000  -0.000000   0.000000
    17  H    0.003951  -0.005350   0.000609   0.000002  -0.000000   0.000000
    18  H   -0.005395   0.003959   0.000605   0.000002  -0.000000   0.000000
    19  H    0.522371  -0.042180   0.001637   0.000005  -0.000001   0.000000
    20  H   -0.042180   0.522460   0.001642   0.000005  -0.000001   0.000000
    21  H    0.001637   0.001642   0.255418   0.004359   0.000001   0.000004
    22  H    0.000005   0.000005   0.004359   0.261062  -0.000080   0.004694
    23  H   -0.000001  -0.000001   0.000001  -0.000080   0.421035  -0.000094
    24  H    0.000000   0.000000   0.000004   0.004694  -0.000094   0.439136
    25  H   -0.000000  -0.000000   0.000000  -0.000008   0.000011  -0.004061
    26  S   -0.000000  -0.000000  -0.000004   0.000175  -0.002088   0.000921
    27  O   -0.000000   0.000000  -0.000000   0.000000  -0.000029   0.000032
    28  O    0.000000  -0.000000  -0.000000   0.000000  -0.000018   0.000029
    29  H   -0.000000  -0.000000  -0.000000   0.000001  -0.004806   0.000011
    30  C   -0.000000  -0.000000   0.000000   0.000005   0.000128   0.000254
    31  H    0.000000   0.000000  -0.000000   0.000000   0.000000  -0.000000
    32  H   -0.000000  -0.000000   0.000000  -0.000000  -0.000000  -0.000000
    33  H    0.000000   0.000000  -0.000000   0.000000  -0.000000  -0.000000
    34  O   -0.000044  -0.000045   0.052795   0.001618   0.000001  -0.000031
    35  O   -0.000003  -0.000004  -0.000471   0.047380   0.000007  -0.002594
    36  C    0.000248   0.000277  -0.004739  -0.003945  -0.000015  -0.000639
    37  C    0.000020   0.000030   0.005962   0.007698  -0.000001   0.001941
    38  C    0.000001   0.000000  -0.001058  -0.000850  -0.000000  -0.000240
    39  H   -0.000000  -0.000000  -0.000001  -0.000007   0.000000   0.000000
    40  H   -0.000000  -0.000000  -0.000001  -0.000007   0.000000   0.000000
    41  H   -0.000000   0.000000   0.000000  -0.000002   0.000000   0.000001
    42  H   -0.000000  -0.000000   0.000000   0.000000  -0.000000   0.000000
    43  H    0.000000  -0.000000   0.000000  -0.000002   0.000000   0.000000
              25         26         27         28         29         30
     1  C    0.000000  -0.000004  -0.000000  -0.000000  -0.000000   0.000000
     2  C    0.000000  -0.000016  -0.000000  -0.000000   0.000002   0.000001
     3  C    0.000037  -0.000863  -0.000012  -0.000010  -0.000030   0.000049
     4  N    0.000006   0.000123   0.000002   0.000002   0.000019   0.000010
     5  C    0.005440  -0.034572  -0.001552  -0.001533  -0.002340   0.002723
     6  O   -0.000001   0.000869  -0.000015  -0.000017   0.000299   0.000042
     7  N    0.000673   0.001568   0.000138   0.000178  -0.000856  -0.000164
     8  C    0.071661  -0.319405  -0.033294  -0.040102   0.016604   0.063485
     9  C   -0.009380  -0.214128  -0.038393  -0.070639  -0.035618   0.116433
    10  C    0.009872   0.224456   0.017678   0.001246  -0.005365  -0.006277
    11  C    0.300273   0.370304   0.131558   0.052918   0.007899  -0.033741
    12  C   -0.058595  -1.104481   0.057194   0.121567  -0.001576  -0.435714
    13  C    0.003736  -0.149392  -0.290430  -0.231195   0.323718   0.222967
    14  H   -0.000000  -0.000000  -0.000000  -0.000000  -0.000000  -0.000000
    15  H    0.000000  -0.000000   0.000000  -0.000000   0.000000   0.000000
    16  H    0.000000  -0.000000  -0.000000  -0.000000   0.000000   0.000000
    17  H   -0.000000  -0.000000  -0.000000   0.000000   0.000000  -0.000000
    18  H   -0.000000  -0.000000   0.000000  -0.000000   0.000000  -0.000000
    19  H   -0.000000  -0.000000  -0.000000   0.000000  -0.000000  -0.000000
    20  H   -0.000000  -0.000000   0.000000  -0.000000  -0.000000  -0.000000
    21  H    0.000000  -0.000004  -0.000000  -0.000000  -0.000000   0.000000
    22  H   -0.000008   0.000175   0.000000   0.000000   0.000001   0.000005
    23  H    0.000011  -0.002088  -0.000029  -0.000018  -0.004806   0.000128
    24  H   -0.004061   0.000921   0.000032   0.000029   0.000011   0.000254
    25  H    0.480532  -0.020243  -0.000644  -0.000288  -0.000134   0.000424
    26  S   -0.020243  15.910298   0.386146   0.373174  -0.000160  -0.520220
    27  O   -0.000644   0.386146   8.736995  -0.231524   0.000796  -0.146263
    28  O   -0.000288   0.373174  -0.231524   8.763408   0.001815  -0.144391
    29  H   -0.000134  -0.000160   0.000796   0.001815   0.434145  -0.000092
    30  C    0.000424  -0.520220  -0.146263  -0.144391  -0.000092   6.751311
    31  H   -0.000280   0.023125  -0.003312   0.007483   0.000000   0.317615
    32  H    0.000013  -0.076306  -0.008542  -0.009049  -0.000000   0.393684
    33  H   -0.000284   0.020674   0.007791  -0.003295   0.000001   0.325171
    34  O    0.000000  -0.000006  -0.000000  -0.000000  -0.000000  -0.000000
    35  O    0.000018  -0.000043  -0.000000  -0.000000  -0.000000   0.000013
    36  C    0.000014  -0.000089  -0.000003  -0.000004   0.000001   0.000037
    37  C    0.000001  -0.000028  -0.000000  -0.000000   0.000000   0.000011
    38  C   -0.000012   0.000028   0.000000   0.000000   0.000000  -0.000002
    39  H   -0.000000   0.000000   0.000000  -0.000000   0.000000  -0.000000
    40  H   -0.000000   0.000000  -0.000000   0.000000   0.000000  -0.000000
    41  H    0.000000  -0.000000  -0.000000  -0.000000  -0.000000  -0.000000
    42  H    0.000000  -0.000000  -0.000000  -0.000000   0.000000   0.000000
    43  H    0.000000  -0.000000  -0.000000  -0.000000  -0.000000   0.000000
              31         32         33         34         35         36
     1  C   -0.000000   0.000000  -0.000000   0.006617  -0.000165  -0.002564
     2  C   -0.000000   0.000000  -0.000000   0.010042  -0.000761  -0.003083
     3  C   -0.000000   0.000000  -0.000000  -0.009307   0.004734   0.003426
     4  N   -0.000000  -0.000000  -0.000000  -0.027194   0.008709  -0.006670
     5  C   -0.000040   0.000006  -0.000034  -0.005181   0.005790  -0.001402
     6  O   -0.000000   0.000000  -0.000000  -0.000241  -0.000005  -0.000595
     7  N   -0.000003   0.000000  -0.000001   0.010143  -0.005222  -0.006256
     8  C   -0.002821   0.001167  -0.002562   0.008465  -0.156065   0.043348
     9  C   -0.003468  -0.000058  -0.003653  -0.000084  -0.019483  -0.006840
    10  C    0.003452   0.002675   0.005006  -0.007783   0.125283  -0.030611
    11  C    0.021809   0.000424   0.010228  -0.004840   0.042125  -0.014062
    12  C   -0.027379   0.039525  -0.023596  -0.000626   0.003167  -0.007149
    13  C   -0.014620  -0.000260  -0.014057   0.000791  -0.001382  -0.001895
    14  H    0.000000   0.000000   0.000000  -0.000019  -0.000000  -0.000048
    15  H    0.000000   0.000000   0.000000  -0.000005   0.000000  -0.000001
    16  H    0.000000   0.000000   0.000000  -0.000005   0.000000  -0.000002
    17  H    0.000000  -0.000000   0.000000  -0.001101  -0.000008  -0.000107
    18  H    0.000000  -0.000000   0.000000  -0.001035  -0.000008  -0.000114
    19  H    0.000000  -0.000000   0.000000  -0.000044  -0.000003   0.000248
    20  H    0.000000  -0.000000   0.000000  -0.000045  -0.000004   0.000277
    21  H   -0.000000   0.000000  -0.000000   0.052795  -0.000471  -0.004739
    22  H    0.000000  -0.000000   0.000000   0.001618   0.047380  -0.003945
    23  H    0.000000  -0.000000  -0.000000   0.000001   0.000007  -0.000015
    24  H   -0.000000  -0.000000  -0.000000  -0.000031  -0.002594  -0.000639
    25  H   -0.000280   0.000013  -0.000284   0.000000   0.000018   0.000014
    26  S    0.023125  -0.076306   0.020674  -0.000006  -0.000043  -0.000089
    27  O   -0.003312  -0.008542   0.007791  -0.000000  -0.000000  -0.000003
    28  O    0.007483  -0.009049  -0.003295  -0.000000  -0.000000  -0.000004
    29  H    0.000000  -0.000000   0.000001  -0.000000  -0.000000   0.000001
[...]
 6,0.00000973,0.00002500,-0.00001656,-0.00000087,-0.00000356,-0.0000068
 2,-0.00000150,-0.00001215,-0.00000086,-0.00001024,-0.00000988,-0.00000
 163,-0.00000230,0.00000001,0.00000046,-0.00000234,0.00000195,-0.000003
 15,-0.00000121,-0.00000077,0.00000036,0.00000584,0.00000196,0.00000183
 ,0.00001034,0.00000272,-0.00000357,0.00000076,-0.00000122,0.00000149,0
 .00000171,0.00000167,-0.00000520,-0.00004223,-0.00018057,-0.00002153,0
 .00000655,0.00038792,-0.00009868,-0.00000402,-0.00000264,0.00000361,0.
 00001810,0.00002805,0.00002292,0.00000630,0.00000630,0.00000722,0.0000
 1787,0.00002610,0.00002007,-0.00000594,-0.00000802,-0.00000962,-0.0000
 0720,-0.00002100,-0.00000877,-0.00000188,-0.00000102,0.00000206,-0.000
 00266,0.00000061,-0.00000148,0.00000160,0.00000026,-0.00000128,-0.0000
 0068,0.00000023,-0.00000001,0.00000091,0.00000039,-0.00000090,0.000595
 50,0.00146148,-0.00137254,0.00029621,-0.00268851,-0.00041608,-0.005671
 88,-0.00026273,0.00483952,-0.13694108,-0.01313338,0.12678713,-0.016534
 27,-0.00234646,0.02295722,0.01001051,0.00213424,-0.01374204,0.15097502
 ,0.00000209,0.00000400,-0.00000217,0.00000592,-0.00000982,0.00001387,-
 0.00004011,0.00003536,-0.00000700,0.00007614,0.00005417,0.00002933,-0.
 00026548,0.00013917,-0.00002776,0.00007226,-0.00015696,0.00001801,-0.0
 0010696,-0.00063536,0.00022099,0.00028577,0.00000295,0.00002735,-0.000
 07011,-0.00004152,-0.00000705,-0.00009103,0.00008951,-0.00002259,0.000
 04001,-0.00000425,0.00000911,-0.00007914,-0.00002481,-0.00000802,0.000
 02045,-0.00001865,0.00000720,0.00000486,0.00000035,0.00000261,0.000000
 07,-0.00000009,-0.00000091,0.00000162,-0.00000503,-0.00000019,-0.00000
 345,0.00000043,-0.00000915,-0.00000823,0.00000303,0.00000331,0.0000058
 5,-0.00001210,-0.00000185,0.00001002,-0.00000598,0.00000334,-0.0000487
 4,0.00000689,-0.00011400,0.00008018,0.00102462,-0.00042003,0.00000450,
 0.00000128,0.00000126,0.00009175,-0.00000411,0.00000981,-0.00000749,-0
 .00000101,0.00000028,0.00011274,0.00000287,0.00000943,-0.00003323,0.00
 001706,-0.00001064,-0.00002879,-0.00001656,-0.00000069,-0.00000544,-0.
 00000183,0.00000146,-0.00002176,-0.00000303,-0.00000096,0.00000195,-0.
 00000146,-0.00000075,-0.00000263,0.00000082,0.00000617,0.00000156,0.00
 000114,-0.00000198,0.00096203,-0.00031720,-0.00377421,-0.00230999,-0.0
 0684740,-0.00247799,-0.01877301,-0.00011068,0.03008873,-0.01335244,-0.
 04762831,0.02354776,0.01072522,0.00081877,-0.01460513,0.00839093,0.001
 23055,-0.01151844,0.01246357,0.05303154,0.00000139,0.00000193,0.000005
 65,-0.00000990,0.00000600,-0.00002866,0.00006921,-0.00003399,0.0000079
 6,-0.00006275,0.00004770,-0.00000208,0.00016289,-0.00010577,0.00001573
 ,-0.00004258,0.00010475,-0.00001711,0.00003093,0.00028879,-0.00004389,
 -0.00012548,0.00000496,-0.00000979,0.00003239,0.00002060,-0.00000017,0
 .00003651,-0.00005035,0.00001047,-0.00002619,-0.00000239,0.00000050,0.
 00004456,0.00002226,0.00000324,-0.00000544,0.00001360,-0.00000410,-0.0
 0001532,-0.00000003,-0.00000548,0.00000048,-0.00000454,0.00000464,-0.0
 0000178,0.00000376,-0.00000067,0.00001093,0.00000357,-0.00000040,0.000
 00972,0.00000644,0.00001389,-0.00001155,0.00001135,0.00000283,-0.00001
 405,0.00000151,-0.00000249,0.00001306,-0.00008268,0.00003428,-0.000045
 26,-0.00045706,0.00007818,-0.00000029,-0.00000002,-0.00000216,-0.00004
 536,-0.00000606,-0.00000991,-0.00000201,-0.00000243,-0.00000176,-0.000
 09074,-0.00002749,-0.00001038,0.00002806,-0.00000184,0.00000809,0.0000
 2660,0.00002811,0.00000354,0.00000310,0.00000160,-0.00000104,0.0000163
 1,0.00000212,0.00000041,-0.00000304,0.00000117,0.00000111,0.00000253,-
 0.00000066,-0.00000377,-0.00000200,-0.00000170,0.00000165,-0.00169528,
 0.00061820,0.00140783,-0.00030370,0.00166808,0.00004346,0.00442859,-0.
 00324267,-0.00457784,0.12551399,0.02097522,-0.22042208,-0.00465275,-0.
 00069445,0.00579749,0.01491065,0.00305504,-0.02134045,-0.13751208,-0.0
 2197807,0.23688906,0.00000248,-0.00000054,-0.00000383,-0.00000124,-0.0
 0000037,0.00001929,0.00000242,-0.00000073,0.00000511,0.00003064,0.0000
 7423,-0.00004440,-0.00006510,-0.00000541,0.00001596,0.00001838,0.00001
 902,-0.00001136,-0.00000390,-0.00001921,-0.00002038,0.00002545,0.00000
 239,0.00000931,-0.00000467,0.00000362,-0.00000411,-0.00001739,-0.00000
 673,-0.00000864,0.00001130,-0.00000298,0.00000097,-0.00000502,0.000002
 18,-0.00000294,0.00000324,0.00000259,-0.00000206,0.00000185,-0.0000006
 0,0.00000294,-0.00000207,0.00000531,-0.00000452,-0.00000013,-0.0000009
 4,0.00000033,-0.00000188,-0.00000407,0.00000378,0.00000324,-0.00000526
 ,-0.00001302,-0.00000029,0.00000003,-0.00000075,0.00000024,0.00000788,
 -0.00000437,-0.00001655,-0.00011648,0.00004242,0.00001233,0.00002878,0
 .00001587,-0.00000020,0.00000158,0.00000243,0.00001906,-0.00000026,0.0
 0000914,-0.00000784,-0.00000635,0.00000085,-0.00000406,-0.00001479,0.0
 0001987,0.00000016,0.00001124,-0.00000918,0.00000280,0.00000545,-0.000
 00514,-0.00000054,0.00000125,0.00000078,0.00000116,0.00000063,-0.00000
 330,0.00000063,-0.00000138,0.00000200,0.00000031,-0.00000033,-0.000000
 59,0.00000048,0.00000134,-0.00000002,0.00067921,0.00038203,-0.00038526
 ,0.00149904,0.00023163,-0.00070359,-0.00140691,-0.00180390,0.00066362,
 -0.01746971,-0.00187342,0.02451730,-0.13877115,-0.01235875,0.12822174,
 0.00085057,-0.00088800,-0.00009105,-0.00462116,0.00343342,-0.00163228,
 0.15249244,0.,-0.00000188,0.00000078,-0.00000277,0.00000591,-0.0000022
 8,0.00003440,-0.00001960,0.00000550,-0.00004830,0.00001703,0.00000050,
 0.00012018,-0.00008203,0.00001669,-0.00002967,0.00007293,-0.00001374,0
 .00001230,0.00019030,-0.00003247,-0.00004151,0.00001754,-0.00000066,0.
 00000903,0.00001285,-0.00000312,0.00000028,-0.00005032,0.00002450,-0.0
 0002286,0.00000120,0.00000196,0.00003563,0.00002282,-0.00000117,0.0000
 0654,0.00001510,-0.00000339,-0.00000548,-0.00000027,-0.00000059,-0.000
 00006,0.00000070,0.00000002,-0.00000074,0.00000155,-0.00000030,0.00000
 438,-0.00000013,0.00000224,0.00000383,-0.00000135,-0.00000027,-0.00000
 690,0.00000704,0.00000094,-0.00000572,0.00000412,-0.00000284,0.0000150
 1,-0.00005713,0.00001211,-0.00005522,-0.00031508,0.00004722,0.00000179
 ,0.00000265,-0.00000178,-0.00003454,-0.00004934,-0.00003673,-0.0000095
 5,-0.00000503,-0.00000348,-0.00009566,-0.00001490,-0.00000638,0.000031
 46,-0.00000695,0.00000790,0.00002801,0.00002172,0.00000178,0.00000186,
 0.00000193,-0.00000048,0.00001764,0.00000095,-0.00000083,-0.00000404,0
 .00000126,0.00000163,0.00000248,0.00000030,-0.00000392,-0.00000163,-0.
 00000136,0.00000189,-0.00078715,0.00011636,0.00015636,-0.00068069,0.00
 013494,0.00035384,0.00157178,0.00049882,-0.00097210,0.00949164,0.00117
 847,-0.01438390,-0.01331180,-0.04905891,0.01774453,-0.00078212,0.00058
 173,0.00023407,0.00314370,-0.00152147,0.00064397,0.01154989,0.04910364
 ,-0.00000272,-0.00000227,0.00000073,0.00000046,0.00000935,-0.00000648,
 0.00001091,-0.00000660,-0.00000073,-0.00008193,-0.00006320,0.00002029,
 0.00015416,-0.00002950,0.00000905,-0.00004047,0.00000473,0.00000135,-0
 .00011347,0.00003759,-0.00000065,0.00013133,0.00003259,-0.00000433,-0.
 00003034,-0.00000544,0.00000113,-0.00006100,-0.00000638,0.00002006,0.0
 0001945,-0.00000457,0.00001001,-0.00002177,0.00001679,-0.00000421,0.00
 002408,0.00000918,0.00000006,-0.00000296,0.00000048,-0.00000105,0.0000
 0097,-0.00000154,0.00000300,0.00000066,0.,-0.00000115,0.00000051,0.000
 00031,-0.00000260,-0.00000099,-0.00000028,0.00000526,-0.00000407,0.000
 00230,-0.00000085,-0.00000255,-0.00000085,0.00000217,0.00002522,0.0000
 7099,-0.00002754,-0.00000775,-0.00003909,-0.00001479,0.00000696,0.0000
 0537,-0.00000276,0.00001587,-0.00007650,-0.00002086,-0.00002187,-0.000
 01479,-0.00000874,-0.00001713,-0.00005505,-0.00000837,0.00000627,0.000
 02549,0.00000344,0.00001114,0.00003629,0.00000789,0.,0.00000195,-0.000
 00158,0.00000149,-0.00000151,-0.00000150,-0.00000188,-0.00000077,0.000
 00351,0.00000067,-0.00000043,0.00000069,-0.00000084,0.00000013,0.00000
 115,-0.00046220,-0.00051679,-0.00000050,-0.00174818,0.00045189,0.00017
 033,0.00173637,0.00128875,-0.00006010,-0.00393938,-0.00103836,0.005320
 34,0.12921630,0.01587047,-0.23015998,0.00040276,-0.00045754,0.00079640
 ,-0.00123108,0.00097578,0.00125715,-0.14016941,-0.01975222,0.24683295,
 0.00000811,0.00000453,-0.00000205,-0.00001198,-0.00000722,0.00000723,0
 .00005391,-0.00001784,0.00000394,0.00014559,0.00032438,-0.00007045,-0.
 00027558,-0.00002532,-0.00001619,0.00007525,0.00008189,-0.00001111,0.0
 0013637,-0.00001154,0.00000815,-0.00014376,-0.00003758,-0.00000355,0.0
 0003525,0.00001861,-0.00000042,0.00005431,0.00000417,0.00000277,-0.000
 00660,-0.00000111,-0.00000188,0.00002295,-0.00000766,0.00000477,-0.000
 02414,-0.00000498,-0.00000106,-0.00000536,-0.00000098,-0.00000028,-0.0
 0000398,0.00000453,-0.00000328,-0.00000342,0.00000446,0.00000092,0.000
 00742,-0.00000247,0.00001497,0.00001432,-0.00000812,-0.00001605,-0.000
 00711,0.00001212,0.00000204,-0.00000792,0.00001268,-0.00000785,-0.0000
 9193,-0.00048400,0.00012308,-0.00001406,-0.00002231,0.00000990,-0.0000
 0814,-0.00000540,0.00000031,-0.00001616,0.00004077,-0.00000722,0.00001
 409,0.00000510,0.00000027,0.00001050,0.00001390,-0.00000290,-0.0000069
 1,-0.00000699,0.00000129,-0.00000689,-0.00001088,-0.00000072,0.0000008
 5,-0.00000074,0.00000018,-0.00000094,0.00000091,0.00000145,0.00000197,
 -0.00000003,-0.00000078,-0.00000042,-0.00000059,-0.00000038,0.00000036
 ,0.00000045,-0.00000013,-0.00061140,0.00350957,-0.00064226,0.00216330,
 -0.00045805,0.00015096,-0.00692617,-0.00224914,0.00012456,0.00635123,0
 .03137243,-0.00583995,-0.05681825,-0.04644290,0.00876615,0.00116866,-0
 .00089055,-0.00008909,0.00112108,-0.00072685,0.00051982,-0.00357772,-0
 .01831860,0.00121709,0.06061434,-0.00001194,-0.00000271,0.00000095,0.0
 0001544,0.00000719,-0.00000588,-0.00012189,0.00006032,-0.00001754,-0.0
 0008641,-0.00040229,0.00008934,0.00013943,0.00023470,-0.00003994,-0.00
 004192,-0.00026338,0.00005513,-0.00022737,-0.00033464,0.00004922,0.000
 28808,0.00002466,0.00001663,-0.00007444,-0.00005762,0.00000689,-0.0000
 8489,0.00008925,-0.00002145,0.00005693,0.00001434,0.00000699,-0.000111
 06,-0.00004047,-0.00000692,0.00002619,-0.00002440,0.00001092,0.0000136
 5,0.00000465,0.00000024,0.00000598,-0.00000954,0.00000919,0.00000608,-
 0.00001109,-0.00000404,-0.00001432,0.00000228,-0.00002839,-0.00002513,
 0.00001491,0.00002711,0.00001836,-0.00002839,-0.00000772,0.00001692,-0
 .00002513,0.00001886,0.00004361,0.00068450,-0.00016860,0.00014088,0.00
 063443,-0.00011156,0.00000864,0.00000190,-0.00000025,0.00008403,0.0000
 3396,-0.00000547,0.00000530,0.00000438,-0.00000116,0.00021613,0.000030
 20,0.00000551,-0.00006832,0.00001815,-0.00001374,-0.00006008,-0.000042
 17,0.00000052,-0.00000388,-0.00000393,0.00000040,-0.00003969,-0.000004
 76,0.00000097,0.00000595,-0.00000241,-0.00000231,-0.00000556,0.0000007
 6,0.00001032,0.00000357,0.00000270,-0.00000357,0.00161945,-0.00292347,
 0.00054789,0.00043521,-0.00119645,0.00035356,0.00169382,0.00285842,-0.
 00024383,-0.00505364,-0.01450487,0.00241773,-0.04586497,-0.29596251,0.
 04547233,0.00006058,0.00061804,0.00042085,0.00006506,0.00028107,-0.000
 57617,-0.00053342,-0.00125223,0.00038533,0.04937521,0.32288140,0.00000
 292,0.00000070,-0.00000088,-0.00000400,-0.00000087,0.00000573,0.000027
 26,-0.00001237,0.00000443,0.00002430,0.00009667,-0.00001879,-0.0000416
 6,-0.00004970,0.00000369,0.00001200,0.00005776,-0.00001099,0.00005576,
 0.00007562,0.00000402,-0.00006846,-0.00000821,-0.00000958,0.00001780,0
 .00001288,0.00000021,0.00002077,-0.00001340,0.00002052,-0.00001272,-0.
 00000190,0.00000381,0.00002387,0.00000707,0.00000070,-0.00000706,0.000
 00468,-0.00000221,-0.00000326,-0.00000079,0.00000096,-0.00000126,0.000
 00290,-0.00000260,-0.00000143,0.00000139,0.00000053,0.00000396,-0.0000
 0049,0.00000494,0.00000552,-0.00000340,-0.00000688,-0.00000448,0.00000
 571,0.00000141,-0.00000349,0.00000591,-0.00000454,-0.00001222,-0.00016
 194,0.00003889,-0.00003296,-0.00013990,0.00001049,-0.00000229,-0.00000
 088,-0.00000032,-0.00001454,-0.00000995,-0.00003580,0.00000039,-0.0000
 0116,-0.00000382,-0.00004175,-0.00000469,-0.00000431,0.00001271,-0.000
 00467,0.00000436,0.00001109,0.00000764,0.00000046,0.00000090,0.0000007
 1,-0.00000012,0.00000798,0.00000032,-0.00000020,-0.00000189,0.00000051
 ,0.00000055,0.00000117,0.00000016,-0.00000164,-0.00000092,-0.00000065,
 0.00000092,-0.00038849,0.00073806,-0.00011388,-0.00009615,0.00041166,0
 .00053675,-0.00054884,-0.00045897,0.00065782,0.00139788,0.00402898,-0.
 00180072,0.00860657,0.04545208,-0.05918836,0.00026284,0.00018261,-0.00
 012743,-0.00016627,-0.00040971,0.00021333,0.00346192,0.02680265,-0.003
 68398,-0.00898135,-0.05116977,0.05725927,0.00000210,0.00000074,0.00000
 269,0.00000117,-0.00000599,-0.00001200,0.00000317,-0.00000499,-0.00000
 658,0.00002159,0.00007594,0.00001266,-0.00005170,-0.00001855,-0.000017
 92,0.00001358,0.00002550,0.00000378,-0.00000716,0.00000907,0.00002300,
 0.00002759,0.00000371,-0.00000576,-0.00000491,0.00000588,0.00000135,-0
 .00002133,-0.00000577,0.00000576,0.00001228,-0.00000283,0.00000626,-0.
 00000485,0.00000404,-0.00000064,0.00000370,0.00000430,0.00000046,0.000
 00268,-0.00000147,-0.00000148,-0.00000060,0.00000009,-0.00000077,-0.00
 000271,0.00000621,0.00000206,0.00000072,-0.00000061,0.00001517,0.00000
 008,-0.00000656,-0.00000591,-0.00000017,0.00000896,0.00000195,-0.00000
 053,0.00000179,-0.00000002,-0.00001092,-0.00010764,0.00000940,0.000004
 88,-0.00001207,-0.00001939,0.00000040,0.00000103,-0.00000300,0.0000193
 6,-0.00001003,-0.00000893,-0.00000941,-0.00000797,-0.00000014,-0.00000
 500,-0.00002206,-0.00000506,0.00000164,0.00001058,0.00000161,0.0000030
 7,0.00001354,0.00000412,-0.00000019,0.00000102,-0.00000133,0.00000053,
 0.00000036,-0.00000012,-0.00000062,-0.00000049,0.00000147,0.00000035,-
 0.00000015,0.00000004,-0.00000029,0.00000012,0.00000016,0.00047930,0.0
 0043333,0.00025053,0.00114856,0.00048534,0.00042573,-0.00097772,-0.001
 81207,0.00009985,-0.01518840,-0.01117125,-0.02361972,-0.11592164,-0.05
 295430,-0.10547663,-0.00471929,0.00368581,-0.00038978,0.00081035,-0.00
 081802,0.00043809,0.01032008,0.00816314,0.01497930,-0.00343103,-0.0019
 1558,-0.00352212,0.12748128,0.00000085,-0.00000125,-0.00000069,-0.0000
 0268,0.00000212,0.00000125,0.00002815,-0.00001578,0.00000561,-0.000013
 70,0.00004275,-0.00001586,0.00005147,-0.00006068,0.00002451,-0.0000114
 3,0.00006369,-0.00001687,0.00004851,0.00015298,-0.00002290,-0.00007652
 ,0.00000176,-0.00001300,0.00001861,0.00001391,-0.00000138,0.00001924,-
 0.00004832,0.00000317,-0.00002833,0.00000242,-0.00000579,0.00004014,0.
 00001582,0.00000392,-0.00000301,0.00001029,-0.00000349,-0.00000378,-0.
 00000043,-0.00000034,-0.00000082,0.00000124,-0.00000090,-0.00000032,0.
 00000134,0.00000048,0.00000206,0.00000018,0.00000166,0.00000473,-0.000
 00143,-0.00000236,-0.00000471,0.00000499,0.00000130,-0.00000463,0.0000
 0466,-0.00000358,0.00000443,-0.00008269,0.00002047,-0.00004669,-0.0002
 6558,0.00003760,-0.00000079,0.00000092,0.00000043,-0.00003941,-0.00000
 514,0.00002631,-0.00000191,0.00000044,-0.00000010,-0.00008301,0.000004
 34,-0.00001129,0.00002818,-0.00001634,0.00001102,0.00002247,0.00000954
 ,0.00000145,0.00000155,0.00000113,-0.00000029,0.00001512,0.00000112,0.
 00000143,-0.00000224,0.00000126,0.00000002,0.00000188,-0.00000003,-0.0
 0000409,-0.00000113,-0.00000117,0.00000167,-0.00043039,0.00021788,-0.0
 0027085,0.00001158,-0.00021355,-0.00010203,0.00067478,0.00034244,0.000
 84866,0.00863563,0.00695685,0.01421440,-0.05406153,-0.08835826,-0.0828
 5681,0.00328947,-0.00151665,0.00087949,-0.00085524,0.00062204,-0.00026
 236,0.00187942,0.00042611,0.00284792,-0.01504387,-0.01140972,-0.025443
 25,0.05593789,0.09309481,0.00000302,0.00000346,0.00000090,0.00000114,-
 0.00001410,-0.00000392,-0.00002146,0.00001120,-0.00000967,0.00009847,0
 .00007146,0.00001226,-0.00020059,0.00005013,-0.00003997,0.00005105,-0.
 00002368,0.00001646,0.00011443,-0.00008584,0.00004083,-0.00012129,-0.0
 0003802,-0.00000105,0.00002867,0.00000254,0.00000219,0.00005950,0.0000
 3524,0.00001747,-0.00001263,0.00000635,0.00000522,0.00000896,-0.000025
 10,0.00000940,-0.00002731,-0.00001368,0.00000367,0.00000531,-0.0000007
 4,-0.00000012,-0.00000040,-0.00000062,-0.00000143,-0.00000180,0.000002
 73,0.00000229,-0.00000049,0.00000208,0.00000709,-0.00000175,-0.0000014
 0,-0.00000298,0.00000529,0.00000033,0.00000207,0.00000492,-0.00000317,
 0.00000117,-0.00002782,-0.00006719,0.00000310,0.00002129,0.00012102,-0
 .00004360,-0.00000754,-0.00000737,-0.00000197,0.00000634,0.00007603,-0
 .00005977,0.00002642,0.00001251,-0.00000930,0.00005362,0.00005504,-0.0
 0003914,-0.00001661,-0.00002794,0.00001863,-0.00002245,-0.00003478,0.0
 0000751,-0.00000015,-0.00000314,-0.00000057,-0.00000931,-0.00000228,0.
 00000744,0.00000083,0.00000042,-0.00000419,-0.00000155,0.00000103,0.00
 000249,0.00000019,-0.00000059,-0.00000031,0.00071098,0.00047220,-0.000
 12233,0.00183058,-0.00008622,0.00059503,-0.00219523,-0.00155634,0.0001
 1792,-0.00124588,-0.00069051,-0.00271225,-0.10607028,-0.08100336,-0.21
 352035,-0.00060808,0.00055028,0.00138920,-0.00009393,0.00042350,0.0006
 8374,-0.01389542,-0.01083840,-0.02045421,0.00473911,0.00252141,0.00624
 325,0.11681185,0.09010547,0.22783780\\-0.00000148,-0.00000446,-0.00000
 331,-0.00000343,-0.00000190,0.00000548,-0.00000313,-0.00000560,-0.0000
 0210,0.00000097,0.00001156,-0.00001314,-0.00000549,0.00000701,-0.00000
 028,0.00000174,-0.00000431,-0.00000135,0.00000416,-0.00000049,0.000004
 21,-0.00000111,-0.00000678,-0.00000582,0.00000050,0.00000427,-0.000000
 92,-0.00000158,0.00000189,0.00000070,0.00000064,0.00000473,0.00000073,
 0.00000237,0.00000344,0.00000502,-0.00000357,0.00000365,-0.00000351,-0
 .00000058,-0.00000355,-0.00000155,-0.00000134,-0.00000343,-0.00000023,
 -0.00000118,-0.00000359,-0.00000062,0.00000045,-0.00000143,0.00000011,
 0.00000123,-0.00000252,-0.00000009,-0.00000174,-0.00000396,0.00000022,
 0.00000279,-0.00000256,-0.00000022,-0.00000686,-0.00000996,0.00000312,
 0.00000551,0.00000219,-0.00000250,-0.00000194,0.00000006,-0.00000107,-
 0.00000029,0.00000106,0.00000089,0.00000092,0.00000186,-0.00000005,-0.
 00000383,0.00000354,-0.00000014,0.00000159,0.00000184,0.00000032,-0.00
 000290,0.00000008,-0.00000327,-0.00000202,0.00000070,-0.00000025,0.000
 00003,0.00000348,-0.00000221,0.00000063,0.00000275,0.00000133,-0.00000
 135,0.00000321,-0.00000031,-0.00000116,0.00000138,-0.00000041,0.000007
 91,-0.00000958,0.00000525,-0.00000048,-0.00000826,0.00000940,-0.000001
 42,0.00000594,-0.00000473,0.00000095,0.00000211,-0.00000206,0.00000337
 ,0.00000145,0.00000237,0.00000265,0.00000050,0.00000281,0.00000090,0.0
 0000063,0.00000191,0.00000172,0.00000088,0.00000159,0.00000296,0.00000
 104,0.00000299,0.00000287,0.00000111,0.00000169\\\@


 LIVE PURE, SPEAK TRUE, RIGHT WRONG, FOLLOW THE KING...
 ELSE, WHEREFORE BORN......
           IDYLLS OF THE KING, TENNYSON
 Job cpu time:       0 days  6 hours 53 minutes 35.4 seconds.
 File lengths (MBytes):  RWF=   1221 Int=      0 D2E=      0 Chk=     30 Scr=      1
 Normal termination of Gaussian 09 at Tue Feb 19 15:57:46 2019.
WARNING: pbs_rusage is deprecated and values produced may not be accurate


=============================================================================
                                     Resource usage:
                                       CPU time:              47:18:34
   JobId:    5876034.r-man2            Elapsed time:          05:57:40
   Project:             q95            Requested time:        44:00:00
   Service Units:     47.69 
                                       Max physical memory:     1568MB
                                       Max virtual memory:      3119MB
                                       Requested memory:           0MB

                                       Number of cpus:               8

                                       Max jobfs disk use:       1.2GB
                                       Requested jobfs:         20.0GB
=============================================================================

