 Entering Gaussian System, Link 0=/apps/gaussian/g09e01/g09/g09
 AtFile(1): /home/507/hio507/Basis/6-31pGd.gbs
 Initial command:
 /apps/gaussian/g09e01/g09/l1.exe "/jobfs/local/5877757.r-man2/Gau-11140.inp" -scrdir="/jobfs/local/5877757.r-man2/"
 Entering Link 1 = /apps/gaussian/g09e01/g09/l1.exe PID=     11141.
  
 Copyright (c) 1988,1990,1992,1993,1995,1998,2003,2009,2015,
            Gaussian, Inc.  All Rights Reserved.
  
 This is part of the Gaussian(R) 09 program.  It is based on
 the Gaussian(R) 03 system (copyright 2003, Gaussian, Inc.),
 the Gaussian(R) 98 system (copyright 1998, Gaussian, Inc.),
 the Gaussian(R) 94 system (copyright 1995, Gaussian, Inc.),
 the Gaussian 92(TM) system (copyright 1992, Gaussian, Inc.),
 the Gaussian 90(TM) system (copyright 1990, Gaussian, Inc.),
 the Gaussian 88(TM) system (copyright 1988, Gaussian, Inc.),
 the Gaussian 86(TM) system (copyright 1986, Carnegie Mellon
 University), and the Gaussian 82(TM) system (copyright 1983,
 Carnegie Mellon University). Gaussian is a federally registered
 trademark of Gaussian, Inc.
  
 This software contains proprietary and confidential information,
 including trade secrets, belonging to Gaussian, Inc.
  
 This software is provided under written license and may be
 used, copied, transmitted, or stored only in accord with that
 written license.
  
 The following legend is applicable only to US Government
 contracts under FAR:
  
                    RESTRICTED RIGHTS LEGEND
  
 Use, reproduction and disclosure by the US Government is
 subject to restrictions as set forth in subparagraphs (a)
 and (c) of the Commercial Computer Software - Restricted
 Rights clause in FAR 52.227-19.
  
 Gaussian, Inc.
 340 Quinnipiac St., Bldg. 40, Wallingford CT 06492
  
  
 ---------------------------------------------------------------
 Warning -- This program may not be used in any manner that
 competes with the business of Gaussian, Inc. or will provide
 assistance to any competitor of Gaussian, Inc.  The licensee
 of this program is prohibited from giving any competitor of
 Gaussian, Inc. access to this program.  By using this program,
 the user acknowledges that Gaussian, Inc. is engaged in the
 business of creating and licensing software in the field of
 computational chemistry and represents and warrants to the
 licensee that it is not a competitor of Gaussian, Inc. and that
 it will not use this program in any manner prohibited above.
 ---------------------------------------------------------------
  

 Cite this work as:
 Gaussian 09, Revision E.01,
 M. J. Frisch, G. W. Trucks, H. B. Schlegel, G. E. Scuseria, 
 M. A. Robb, J. R. Cheeseman, G. Scalmani, V. Barone, B. Mennucci, 
 G. A. Petersson, H. Nakatsuji, M. Caricato, X. Li, H. P. Hratchian, 
 A. F. Izmaylov, J. Bloino, G. Zheng, J. L. Sonnenberg, M. Hada, 
 M. Ehara, K. Toyota, R. Fukuda, J. Hasegawa, M. Ishida, T. Nakajima, 
 Y. Honda, O. Kitao, H. Nakai, T. Vreven, J. A. Montgomery, Jr., 
 J. E. Peralta, F. Ogliaro, M. Bearpark, J. J. Heyd, E. Brothers, 
 K. N. Kudin, V. N. Staroverov, T. Keith, R. Kobayashi, J. Normand, 
 K. Raghavachari, A. Rendell, J. C. Burant, S. S. Iyengar, J. Tomasi, 
 M. Cossi, N. Rega, J. M. Millam, M. Klene, J. E. Knox, J. B. Cross, 
 V. Bakken, C. Adamo, J. Jaramillo, R. Gomperts, R. E. Stratmann, 
 O. Yazyev, A. J. Austin, R. Cammi, C. Pomelli, J. W. Ochterski, 
 R. L. Martin, K. Morokuma, V. G. Zakrzewski, G. A. Voth, 
 P. Salvador, J. J. Dannenberg, S. Dapprich, A. D. Daniels, 
 O. Farkas, J. B. Foresman, J. V. Ortiz, J. Cioslowski, 
 and D. J. Fox, Gaussian, Inc., Wallingford CT, 2013.
 
 ******************************************
 Gaussian 09:  ES64L-G09RevE.01 30-Nov-2015
                19-Feb-2019 
 ******************************************
 %chk=3Methyl4Chloro_EtO.M062X_6-31pGd_opt_water.chk
 %mem=196608000
 %nproc=4
 Will use up to    4 processors via shared memory.
 ----------------------------------------------------------------------
 # M062X/Gen 6D SCF=Tight INT(grid=ultrafine) OPT IOP(2/17=4) SCRF=(SMD
 ,Solvent=h2o) maxdisk=2684354560
 ----------------------------------------------------------------------
 1/14=-1,18=20,19=15,26=4,38=1/1,3;
 2/9=110,12=2,17=4,18=5,40=1/2;
 3/5=7,8=2,11=2,16=1,25=1,30=1,70=32201,71=1,72=1,74=-55,75=-5/1,2,3;
 4//1;
 5/5=2,32=2,38=5,53=1/2;
 6/7=2,8=2,9=2,10=2,28=1/1;
 7//1,2,3,16;
 1/14=-1,18=20,19=15,26=4/3(2);
 2/9=110,17=4/2;
 99//99;
 2/9=110,17=4/2;
 3/5=7,6=1,8=2,11=2,16=1,25=1,30=1,70=32205,71=1,72=1,74=-55,75=-5,82=7/1,2,3;
 4/5=5,16=3,69=1/1;
 5/5=2,32=2,38=5,53=1/2;
 7//1,2,3,16;
 1/14=-1,18=20,19=15,26=4/3(-5);
 2/9=110,17=4/2;
 6/7=2,8=2,9=2,10=2,19=2,28=1/1;
 99/9=1/99;
 ------------------------------------------
 3Methyl4Chloro_EtO.M062X_6-31pGd_opt_water
 ------------------------------------------
 Symbolic Z-matrix:
 Charge = -1 Multiplicity = 1
 C                    -1.84512   2.51614   0.31364 
 C                    -0.54539   1.73195   0.15919 
 C                     0.66443   2.67021   0.09437 
 N                     1.90173   1.92145  -0.05399 
 C                     3.1103    2.54995  -0.13612 
 O                     3.14725   3.76858  -0.08451 
 N                     4.25583   1.80801  -0.27906 
 C                     5.61202   2.2935   -0.3843 
 C                     5.98382   3.65974  -0.31394 
 C                     6.63902   1.34849  -0.56811 
 C                     7.97303   1.73769  -0.6793 
 C                     8.32857   3.08409  -0.60961 
 C                     7.32817   4.05949  -0.42455 
 H                    -2.70199   1.8113    0.35716 
 H                    -1.98947   3.19856  -0.55097 
 H                    -1.82716   3.11259   1.25065 
 H                    -0.59758   1.12929  -0.77369 
 H                    -0.43552   1.04387   1.02554 
 H                     0.71046   3.27143   1.02924 
 H                     0.54652   3.35707  -0.77276 
 H                     1.85422   0.78267  -0.1034 
 H                     4.11852   0.67081  -0.3236 
 H                     5.26974   4.44894  -0.17188 
 H                     6.4167    0.29268  -0.62979 
 H                     8.73596   0.98235  -0.82122 
 C                     7.64146   5.53102  -0.33846 
 Cl                    10.03571   3.49152  -0.75886 
 H                     8.72154   5.75486  -0.43517 
 H                     7.29916   5.92549   0.64154 
 H                     7.10847   6.07105  -1.14928 
 O                     1.82832  -1.28981  -0.06488 
 O                     4.04291  -1.40503  -0.27457 
 C                     2.97501  -1.99393  -0.15933 
 C                     2.91474  -3.4976   -0.1194 
 C                     4.28878  -4.15765  -0.23298 
 H                     2.27698  -3.85014  -0.95789 
 H                     2.44634  -3.80882   0.83865 
 H                     4.77138  -3.88188  -1.19495 
 H                     4.17495  -5.26161  -0.19663 
 H                     4.94016  -3.84016   0.60926 
 
 Add virtual bond connecting atoms O31        and H21        Dist= 3.92D+00.
 Add virtual bond connecting atoms O32        and H22        Dist= 3.93D+00.

 GradGradGradGradGradGradGradGradGradGradGradGradGradGradGradGradGradGrad
 Berny optimization.
 Initialization pass.
                           ----------------------------
                           !    Initial Parameters    !
                           ! (Angstroms and Degrees)  !
 --------------------------                            --------------------------
 ! Name  Definition              Value          Derivative Info.                !
 --------------------------------------------------------------------------------
 ! R1    R(1,2)                  1.5258         estimate D2E/DX2                !
 ! R2    R(1,14)                 1.1104         estimate D2E/DX2                !
 ! R3    R(1,15)                 1.1109         estimate D2E/DX2                !
 ! R4    R(1,16)                 1.1109         estimate D2E/DX2                !
 ! R5    R(2,3)                  1.5324         estimate D2E/DX2                !
 ! R6    R(2,17)                 1.1118         estimate D2E/DX2                !
 ! R7    R(2,18)                 1.1118         estimate D2E/DX2                !
 ! R8    R(3,4)                  1.4538         estimate D2E/DX2                !
 ! R9    R(3,19)                 1.1125         estimate D2E/DX2                !
 ! R10   R(3,20)                 1.1125         estimate D2E/DX2                !
 ! R11   R(4,5)                  1.3647         estimate D2E/DX2                !
 ! R12   R(4,21)                 1.1408         estimate D2E/DX2                !
 ! R13   R(5,6)                  1.2203         estimate D2E/DX2                !
 ! R14   R(5,7)                  1.3723         estimate D2E/DX2                !
 ! R15   R(7,8)                  1.4443         estimate D2E/DX2                !
 ! R16   R(7,22)                 1.1463         estimate D2E/DX2                !
 ! R17   R(8,9)                  1.4177         estimate D2E/DX2                !
 ! R18   R(8,10)                 1.4077         estimate D2E/DX2                !
 ! R19   R(9,13)                 1.4069         estimate D2E/DX2                !
 ! R20   R(9,23)                 1.0737         estimate D2E/DX2                !
 ! R21   R(10,11)                1.3941         estimate D2E/DX2                !
 ! R22   R(10,24)                1.0807         estimate D2E/DX2                !
 ! R23   R(11,12)                1.3943         estimate D2E/DX2                !
 ! R24   R(11,25)                1.0829         estimate D2E/DX2                !
 ! R25   R(12,13)                1.4094         estimate D2E/DX2                !
 ! R26   R(12,27)                1.7614         estimate D2E/DX2                !
 ! R27   R(13,26)                1.507          estimate D2E/DX2                !
 ! R28   R(21,31)                2.073          estimate D2E/DX2                !
 ! R29   R(22,32)                2.0778         estimate D2E/DX2                !
 ! R30   R(26,28)                1.1073         estimate D2E/DX2                !
 ! R31   R(26,29)                1.1105         estimate D2E/DX2                !
 ! R32   R(26,30)                1.1105         estimate D2E/DX2                !
 ! R33   R(31,33)                1.3489         estimate D2E/DX2                !
 ! R34   R(32,33)                1.2249         estimate D2E/DX2                !
 ! R35   R(33,34)                1.5054         estimate D2E/DX2                !
 ! R36   R(34,35)                1.5286         estimate D2E/DX2                !
 ! R37   R(34,36)                1.1109         estimate D2E/DX2                !
 ! R38   R(34,37)                1.1109         estimate D2E/DX2                !
 ! R39   R(35,38)                1.111          estimate D2E/DX2                !
 ! R40   R(35,39)                1.1104         estimate D2E/DX2                !
 ! R41   R(35,40)                1.1111         estimate D2E/DX2                !
 ! A1    A(2,1,14)             109.5772         estimate D2E/DX2                !
 ! A2    A(2,1,15)             110.3419         estimate D2E/DX2                !
 ! A3    A(2,1,16)             110.3379         estimate D2E/DX2                !
 ! A4    A(14,1,15)            108.6735         estimate D2E/DX2                !
 ! A5    A(14,1,16)            108.6774         estimate D2E/DX2                !
 ! A6    A(15,1,16)            109.1934         estimate D2E/DX2                !
 ! A7    A(1,2,3)              111.2303         estimate D2E/DX2                !
 ! A8    A(1,2,17)             108.8763         estimate D2E/DX2                !
 ! A9    A(1,2,18)             108.8675         estimate D2E/DX2                !
 ! A10   A(3,2,17)             109.4784         estimate D2E/DX2                !
 ! A11   A(3,2,18)             109.5045         estimate D2E/DX2                !
 ! A12   A(17,2,18)            108.8437         estimate D2E/DX2                !
 ! A13   A(2,3,4)              111.1551         estimate D2E/DX2                !
 ! A14   A(2,3,19)             109.149          estimate D2E/DX2                !
 ! A15   A(2,3,20)             109.1068         estimate D2E/DX2                !
 ! A16   A(4,3,19)             109.2014         estimate D2E/DX2                !
 ! A17   A(4,3,20)             109.187          estimate D2E/DX2                !
 ! A18   A(19,3,20)            109.0103         estimate D2E/DX2                !
 ! A19   A(3,4,5)              121.5105         estimate D2E/DX2                !
 ! A20   A(3,4,21)             118.8867         estimate D2E/DX2                !
 ! A21   A(5,4,21)             119.6027         estimate D2E/DX2                !
 ! A22   A(4,5,6)              118.9593         estimate D2E/DX2                !
 ! A23   A(4,5,7)              119.771          estimate D2E/DX2                !
 ! A24   A(6,5,7)              121.2692         estimate D2E/DX2                !
 ! A25   A(5,7,8)              127.5669         estimate D2E/DX2                !
 ! A26   A(5,7,22)             116.1304         estimate D2E/DX2                !
 ! A27   A(8,7,22)             116.3023         estimate D2E/DX2                !
 ! A28   A(7,8,9)              124.5127         estimate D2E/DX2                !
 ! A29   A(7,8,10)             117.9638         estimate D2E/DX2                !
 ! A30   A(9,8,10)             117.5235         estimate D2E/DX2                !
 ! A31   A(8,9,13)             121.368          estimate D2E/DX2                !
 ! A32   A(8,9,23)             122.7167         estimate D2E/DX2                !
 ! A33   A(13,9,23)            115.9151         estimate D2E/DX2                !
 ! A34   A(8,10,11)            121.4082         estimate D2E/DX2                !
 ! A35   A(8,10,24)            120.8784         estimate D2E/DX2                !
 ! A36   A(11,10,24)           117.7132         estimate D2E/DX2                !
 ! A37   A(10,11,12)           120.6383         estimate D2E/DX2                !
 ! A38   A(10,11,25)           119.3325         estimate D2E/DX2                !
 ! A39   A(12,11,25)           120.0291         estimate D2E/DX2                !
 ! A40   A(11,12,13)           119.5942         estimate D2E/DX2                !
 ! A41   A(11,12,27)           117.7921         estimate D2E/DX2                !
 ! A42   A(13,12,27)           122.6136         estimate D2E/DX2                !
 ! A43   A(9,13,12)            119.4676         estimate D2E/DX2                !
 ! A44   A(9,13,26)            118.1395         estimate D2E/DX2                !
 ! A45   A(12,13,26)           122.3929         estimate D2E/DX2                !
 ! A46   A(13,26,28)           113.2786         estimate D2E/DX2                !
 ! A47   A(13,26,29)           109.4633         estimate D2E/DX2                !
 ! A48   A(13,26,30)           109.4738         estimate D2E/DX2                !
 ! A49   A(28,26,29)           107.815          estimate D2E/DX2                !
 ! A50   A(28,26,30)           107.8245         estimate D2E/DX2                !
 ! A51   A(29,26,30)           108.885          estimate D2E/DX2                !
 ! A52   A(21,31,33)           120.6593         estimate D2E/DX2                !
 ! A53   A(22,32,33)           120.9472         estimate D2E/DX2                !
 ! A54   A(31,33,32)           119.7839         estimate D2E/DX2                !
 ! A55   A(31,33,34)           119.0447         estimate D2E/DX2                !
 ! A56   A(32,33,34)           121.1713         estimate D2E/DX2                !
 ! A57   A(33,34,35)           113.1631         estimate D2E/DX2                !
 ! A58   A(33,34,36)           108.6596         estimate D2E/DX2                !
 ! A59   A(33,34,37)           108.6376         estimate D2E/DX2                !
 ! A60   A(35,34,36)           108.8407         estimate D2E/DX2                !
 ! A61   A(35,34,37)           108.7912         estimate D2E/DX2                !
 ! A62   A(36,34,37)           108.6609         estimate D2E/DX2                !
 ! A63   A(34,35,38)           110.3418         estimate D2E/DX2                !
 ! A64   A(34,35,39)           109.5554         estimate D2E/DX2                !
 ! A65   A(34,35,40)           110.321          estimate D2E/DX2                !
 ! A66   A(38,35,39)           108.6416         estimate D2E/DX2                !
 ! A67   A(38,35,40)           109.3153         estimate D2E/DX2                !
 ! A68   A(39,35,40)           108.6253         estimate D2E/DX2                !
 ! A69   L(4,21,31,2,-1)       181.2969         estimate D2E/DX2                !
 ! A70   L(7,22,32,1,-1)       184.4043         estimate D2E/DX2                !
 ! A71   L(4,21,31,2,-2)       183.9383         estimate D2E/DX2                !
 ! A72   L(7,22,32,1,-2)       184.1559         estimate D2E/DX2                !
 ! D1    D(14,1,2,3)           179.9737         estimate D2E/DX2                !
 ! D2    D(14,1,2,17)           59.2506         estimate D2E/DX2                !
 ! D3    D(14,1,2,18)          -59.2765         estimate D2E/DX2                !
 ! D4    D(15,1,2,3)            60.3521         estimate D2E/DX2                !
 ! D5    D(15,1,2,17)          -60.3711         estimate D2E/DX2                !
 ! D6    D(15,1,2,18)         -178.8982         estimate D2E/DX2                !
 ! D7    D(16,1,2,3)           -60.4022         estimate D2E/DX2                !
 ! D8    D(16,1,2,17)          178.8747         estimate D2E/DX2                !
 ! D9    D(16,1,2,18)           60.3476         estimate D2E/DX2                !
 ! D10   D(1,2,3,4)           -179.9486         estimate D2E/DX2                !
 ! D11   D(1,2,3,19)            59.5418         estimate D2E/DX2                !
 ! D12   D(1,2,3,20)           -59.4844         estimate D2E/DX2                !
 ! D13   D(17,2,3,4)           -59.5803         estimate D2E/DX2                !
 ! D14   D(17,2,3,19)          179.9101         estimate D2E/DX2                !
 ! D15   D(17,2,3,20)           60.8839         estimate D2E/DX2                !
 ! D16   D(18,2,3,4)            59.677          estimate D2E/DX2                !
 ! D17   D(18,2,3,19)          -60.8326         estimate D2E/DX2                !
 ! D18   D(18,2,3,20)         -179.8588         estimate D2E/DX2                !
 ! D19   D(2,3,4,5)            179.8754         estimate D2E/DX2                !
 ! D20   D(2,3,4,21)            -0.056          estimate D2E/DX2                !
 ! D21   D(19,3,4,5)           -59.6459         estimate D2E/DX2                !
 ! D22   D(19,3,4,21)          120.4227         estimate D2E/DX2                !
 ! D23   D(20,3,4,5)            59.4586         estimate D2E/DX2                !
 ! D24   D(20,3,4,21)         -120.4728         estimate D2E/DX2                !
 ! D25   D(3,4,5,6)             -0.067          estimate D2E/DX2                !
 ! D26   D(3,4,5,7)           -179.8404         estimate D2E/DX2                !
 ! D27   D(21,4,5,6)           179.8639         estimate D2E/DX2                !
 ! D28   D(21,4,5,7)             0.0905         estimate D2E/DX2                !
 ! D29   D(3,4,31,33)         -177.8957         estimate D2E/DX2                !
 ! D30   D(5,4,31,33)           -0.491          estimate D2E/DX2                !
 ! D31   D(4,5,7,8)            179.8814         estimate D2E/DX2                !
 ! D32   D(4,5,7,22)             0.1111         estimate D2E/DX2                !
 ! D33   D(6,5,7,8)              0.1133         estimate D2E/DX2                !
 ! D34   D(6,5,7,22)          -179.6569         estimate D2E/DX2                !
 ! D35   D(5,7,8,9)              2.0178         estimate D2E/DX2                !
 ! D36   D(5,7,8,10)          -178.0505         estimate D2E/DX2                !
 ! D37   D(22,7,8,9)          -178.2123         estimate D2E/DX2                !
 ! D38   D(22,7,8,10)            1.7195         estimate D2E/DX2                !
 ! D39   D(5,7,32,33)            0.5273         estimate D2E/DX2                !
 ! D40   D(8,7,32,33)          178.1659         estimate D2E/DX2                !
 ! D41   D(7,8,9,13)           179.9873         estimate D2E/DX2                !
 ! D42   D(7,8,9,23)             0.1626         estimate D2E/DX2                !
 ! D43   D(10,8,9,13)            0.0553         estimate D2E/DX2                !
 ! D44   D(10,8,9,23)         -179.7694         estimate D2E/DX2                !
 ! D45   D(7,8,10,11)          179.9683         estimate D2E/DX2                !
 ! D46   D(7,8,10,24)            0.0919         estimate D2E/DX2                !
 ! D47   D(9,8,10,11)           -0.0951         estimate D2E/DX2                !
 ! D48   D(9,8,10,24)         -179.9714         estimate D2E/DX2                !
 ! D49   D(8,9,13,12)            0.0193         estimate D2E/DX2                !
 ! D50   D(8,9,13,26)         -179.955          estimate D2E/DX2                !
 ! D51   D(23,9,13,12)         179.8553         estimate D2E/DX2                !
 ! D52   D(23,9,13,26)          -0.119          estimate D2E/DX2                !
 ! D53   D(8,10,11,12)           0.0601         estimate D2E/DX2                !
 ! D54   D(8,10,11,25)        -179.9299         estimate D2E/DX2                !
 ! D55   D(24,10,11,12)        179.9403         estimate D2E/DX2                !
 ! D56   D(24,10,11,25)         -0.0497         estimate D2E/DX2                !
 ! D57   D(10,11,12,13)          0.0179         estimate D2E/DX2                !
 ! D58   D(10,11,12,27)        179.9896         estimate D2E/DX2                !
 ! D59   D(25,11,12,13)       -179.9922         estimate D2E/DX2                !
 ! D60   D(25,11,12,27)         -0.0204         estimate D2E/DX2                !
 ! D61   D(11,12,13,9)          -0.0566         estimate D2E/DX2                !
 ! D62   D(11,12,13,26)        179.9166         estimate D2E/DX2                !
 ! D63   D(27,12,13,9)         179.9731         estimate D2E/DX2                !
 ! D64   D(27,12,13,26)         -0.0537         estimate D2E/DX2                !
 ! D65   D(9,13,26,28)         179.9969         estimate D2E/DX2                !
 ! D66   D(9,13,26,29)          59.6467         estimate D2E/DX2                !
 ! D67   D(9,13,26,30)         -59.6334         estimate D2E/DX2                !
 ! D68   D(12,13,26,28)          0.0234         estimate D2E/DX2                !
 ! D69   D(12,13,26,29)       -120.3268         estimate D2E/DX2                !
 ! D70   D(12,13,26,30)        120.3931         estimate D2E/DX2                !
 ! D71   D(21,31,33,32)         -0.3001         estimate D2E/DX2                !
 ! D72   D(21,31,33,34)        179.648          estimate D2E/DX2                !
 ! D73   D(22,32,33,31)          0.1188         estimate D2E/DX2                !
 ! D74   D(22,32,33,34)       -179.8282         estimate D2E/DX2                !
 ! D75   D(31,33,34,35)       -179.8473         estimate D2E/DX2                !
 ! D76   D(31,33,34,36)         59.1406         estimate D2E/DX2                !
 ! D77   D(31,33,34,37)        -58.9133         estimate D2E/DX2                !
 ! D78   D(32,33,34,35)          0.1001         estimate D2E/DX2                !
 ! D79   D(32,33,34,36)       -120.912          estimate D2E/DX2                !
 ! D80   D(32,33,34,37)        121.034          estimate D2E/DX2                !
 ! D81   D(33,34,35,38)        -60.4597         estimate D2E/DX2                !
 ! D82   D(33,34,35,39)        179.9716         estimate D2E/DX2                !
 ! D83   D(33,34,35,40)         60.436          estimate D2E/DX2                !
 ! D84   D(36,34,35,38)         60.45           estimate D2E/DX2                !
 ! D85   D(36,34,35,39)        -59.1187         estimate D2E/DX2                !
 ! D86   D(36,34,35,40)       -178.6543         estimate D2E/DX2                !
 ! D87   D(37,34,35,38)        178.6934         estimate D2E/DX2                !
 ! D88   D(37,34,35,39)         59.1247         estimate D2E/DX2                !
 ! D89   D(37,34,35,40)        -60.411          estimate D2E/DX2                !
 --------------------------------------------------------------------------------
 Trust Radius=3.00D-01 FncErr=1.00D-07 GrdErr=1.00D-06
 Number of steps in this run=    212 maximum allowed number of steps=    240.
 GradGradGradGradGradGradGradGradGradGradGradGradGradGradGradGradGradGrad

                          Input orientation:                          
 ---------------------------------------------------------------------
 Center     Atomic      Atomic             Coordinates (Angstroms)
 Number     Number       Type             X           Y           Z
 ---------------------------------------------------------------------
      1          6           0       -1.845120    2.516140    0.313640
      2          6           0       -0.545390    1.731950    0.159190
      3          6           0        0.664430    2.670210    0.094370
      4          7           0        1.901730    1.921450   -0.053990
      5          6           0        3.110300    2.549950   -0.136120
      6          8           0        3.147250    3.768580   -0.084510
      7          7           0        4.255830    1.808010   -0.279060
      8          6           0        5.612020    2.293500   -0.384300
      9          6           0        5.983820    3.659740   -0.313940
     10          6           0        6.639020    1.348490   -0.568110
     11          6           0        7.973030    1.737690   -0.679300
     12          6           0        8.328570    3.084090   -0.609610
     13          6           0        7.328170    4.059490   -0.424550
     14          1           0       -2.701990    1.811300    0.357160
     15          1           0       -1.989470    3.198560   -0.550970
     16          1           0       -1.827160    3.112590    1.250650
     17          1           0       -0.597580    1.129290   -0.773690
     18          1           0       -0.435520    1.043870    1.025540
     19          1           0        0.710460    3.271430    1.029240
     20          1           0        0.546520    3.357070   -0.772760
     21          1           0        1.854220    0.782670   -0.103400
     22          1           0        4.118520    0.670810   -0.323600
     23          1           0        5.269740    4.448940   -0.171880
     24          1           0        6.416700    0.292680   -0.629790
     25          1           0        8.735960    0.982350   -0.821220
     26          6           0        7.641460    5.531020   -0.338460
     27         17           0       10.035710    3.491520   -0.758860
     28          1           0        8.721540    5.754860   -0.435170
     29          1           0        7.299160    5.925490    0.641540
     30          1           0        7.108470    6.071050   -1.149280
     31          8           0        1.828320   -1.289810   -0.064880
     32          8           0        4.042910   -1.405030   -0.274570
     33          6           0        2.975010   -1.993930   -0.159330
     34          6           0        2.914740   -3.497600   -0.119400
     35          6           0        4.288780   -4.157650   -0.232980
     36          1           0        2.276980   -3.850140   -0.957890
     37          1           0        2.446340   -3.808820    0.838650
     38          1           0        4.771380   -3.881880   -1.194950
     39          1           0        4.174950   -5.261610   -0.196630
     40          1           0        4.940160   -3.840160    0.609260
 ---------------------------------------------------------------------
                    Distance matrix (angstroms):
                    1          2          3          4          5
     1  C    0.000000
     2  C    1.525813   0.000000
     3  C    2.523818   1.532383   0.000000
     4  N    3.811521   2.463687   1.453810   0.000000
     5  C    4.975903   3.757712   2.459648   1.364697   0.000000
     6  O    5.162450   4.224079   2.720811   2.228035   1.220282
     7  N    6.170440   4.821780   3.712276   2.367554   1.372278
     8  C    7.493038   6.206804   4.984946   3.743498   2.527046
     9  C    7.936875   6.824281   5.426030   4.444399   3.085510
    10  C    8.609386   7.231304   6.154799   4.799429   3.752597
    11  C    9.898888   8.559590   7.408360   6.106182   4.959935
    12  C   10.231272   9.009245   7.707524   6.554748   5.266862
    13  C    9.331458   8.231108   6.826771   5.844209   4.489135
    14  H    1.110369   2.167121   3.484188   4.623355   5.879766
    15  H    1.110894   2.177301   2.781870   4.125462   5.157562
    16  H    1.110884   2.177243   2.782212   4.126199   5.159283
    17  H    2.159165   1.111840   2.172702   2.718830   4.021585
    18  H    2.159017   1.111795   2.173005   2.719976   4.023751
    19  H    2.759264   2.168904   1.112460   2.101180   2.763662
    20  H    2.758146   2.168366   1.112472   2.101007   2.762195
    21  H    4.106575   2.593880   2.239982   1.140841   2.168429
    22  H    6.275055   4.807407   4.012859   2.559482   2.140753
    23  H    7.388686   6.427082   4.944052   4.212552   2.875869
    24  H    8.607642   7.152949   6.266232   4.834190   4.033765
    25  H   10.751729   9.363042   8.296793   6.940983   5.880033
    26  C    9.975467   9.039087   7.553180   6.786341   5.427627
    27  Cl  11.968949  10.765620   9.445816   8.314060   7.016813
    28  H   11.077199  10.119934   8.643639   7.832633   6.468917
    29  H    9.764683   8.908165   7.410525   6.756356   5.435584
    30  H    9.743936   8.895024   7.391754   6.747517   5.423099
    31  O    5.303083   3.849122   4.130588   3.212117   4.048741
    32  O    7.098624   5.575059   5.306395   3.962168   4.065808
    33  C    6.618012   5.135840   5.211271   4.061185   4.545953
    34  C    7.681722   6.276807   6.568978   5.513309   6.050734
    35  C    9.080914   7.629573   7.737102   6.533414   6.811027
    36  H    7.690125   6.354004   6.798716   5.853981   6.506219
    37  H    7.661422   6.333423   6.760694   5.824895   6.467223
    38  H    9.326767   7.849639   7.839596   6.573836   6.726719
    39  H    9.848605   8.445004   8.678836   7.535531   7.884010
    40  H    9.302148   7.832128   7.805889   6.547374   6.688609
                    6          7          8          9         10
     6  O    0.000000
     7  N    2.260671   0.000000
     8  C    2.888049   1.444309   0.000000
     9  C    2.847914   2.532996   1.417673   0.000000
    10  C    4.275881   2.444239   1.407679   2.415733   0.000000
    11  C    5.269387   3.739347   2.443423   2.790111   1.394067
    12  C    5.252650   4.280754   2.838211   2.432416   2.422521
    13  C    4.204801   3.811772   2.462826   1.406880   2.800903
    14  H    6.183820   6.986848   8.360924   8.905639   9.398127
    15  H    5.189258   6.404009   7.656994   7.990133   8.824619
    16  H    5.192083   6.406614   7.660638   7.984906   8.837202
    17  H    4.632987   4.925536   6.329782   7.066072   7.242837
    18  H    4.636000   4.928961   6.334190   7.060093   7.258211
    19  H    2.724985   4.052517   5.194202   5.455570   6.434054
    20  H    2.721548   4.049976   5.190508   5.465012   6.418320
    21  H    3.253912   2.617233   4.059874   5.037406   4.840498
    22  H    3.255259   1.146325   2.206207   3.523229   2.621442
    23  H    2.230580   2.830903   2.192761   1.073745   3.412436
    24  H    4.802969   2.662442   2.170497   3.409434   1.080724
    25  H    6.288044   4.587725   3.415994   3.872987   2.143661
    26  C    4.834109   5.032576   3.821291   2.500012   4.307108
    27  Cl   6.926932   6.039158   4.598324   4.079714   4.020754
    28  H    5.927983   5.961926   4.653248   3.449541   4.875516
    29  H    4.734740   5.202211   4.134022   2.788671   4.779955
    30  H    4.703867   5.202725   4.134542   2.788736   4.781288
    31  O    5.227549   3.941468   5.220970   6.467477   5.509692
    32  O    5.254005   3.220090   4.019113   5.424074   3.795764
    33  C    5.765569   4.013674   5.038501   6.406311   4.976328
    34  C    7.269983   5.474807   6.393929   7.790033   6.128311
    35  C    8.009386   5.965929   6.587200   7.999456   5.996125
    36  H    7.717840   6.032522   7.013972   8.399621   6.797432
    37  H    7.665539   6.006023   6.982510   8.343957   6.793776
    38  H    7.899393   5.786147   6.284835   7.689098   5.589077
    39  H    9.089173   7.070563   7.692859   9.103640   7.064210
    40  H    7.847851   5.758406   6.249827   7.628239   5.585196
                   11         12         13         14         15
    11  C    0.000000
    12  C    1.394295   0.000000
    13  C    2.423117   1.409416   0.000000
    14  H   10.725471  11.145757  10.308712   0.000000
    15  H   10.069857  10.318842   9.358183   1.804681   0.000000
    16  H   10.082598  10.324739   9.355372   1.804718   1.810958
    17  H    8.592695   9.139164   8.457274   2.484452   2.503765
    18  H    8.607647   9.145791   8.454088   2.484465   3.089148
    19  H    7.616849   7.794647   6.821190   3.772067   3.129216
    20  H    7.601590   7.788545   6.826816   3.770801   2.550600
    21  H    6.219611   6.889847   6.387865   4.693532   4.561885
    22  H    4.015221   4.861095   4.668533   6.948634   6.614284
    23  H    3.862140   3.377997   2.110130   8.413412   7.375859
    24  H    2.124304   3.383434   3.880948   9.296816   8.894608
    25  H    1.082932   2.151292   3.407053  11.528332  10.955340
    26  C    3.823018   2.555995   1.506971  11.013953   9.911627
    27  Cl   2.708671   1.761420   2.786598  12.896420  12.030544
    28  H    4.093595   2.705156   2.194510  12.111007  11.012439
    29  H    4.442565   3.270874   2.149266  10.818060   9.753813
    30  H    4.443687   3.271363   2.149390  10.800924   9.559377
    31  O    6.877553   7.853724   7.680672   5.506243   5.912467
    32  O    5.048400   6.215411   6.377806   7.499169   7.593355
    33  C    6.259038   7.392540   7.460847   6.853821   7.194539
    34  C    7.301236   8.536305   8.756774   7.743332   8.311203
    35  C    6.966199   8.300877   8.763332   9.211270   9.676330
    36  H    7.984137   9.210135   9.400065   7.653196   8.249385
    37  H    7.975729   9.176617   9.345493   7.636942   8.408973
    38  H    6.488145   7.843530   8.378308   9.522216   9.811036
    39  H    7.978006   9.331335   9.842644   9.880539  10.473782
    40  H    6.478510   7.804627   8.317201   9.508155   9.945325
                   16         17         18         19         20
    16  H    0.000000
    17  H    3.089223   0.000000
    18  H    2.503385   1.808532   0.000000
    19  H    2.552208   3.090354   2.505056   0.000000
    20  H    3.128628   2.504390   3.090175   1.811468   0.000000
    21  H    4.562295   2.565299   2.566250   2.963948   2.964061
    22  H    6.617527   4.759662   4.764308   4.495361   4.491873
    23  H    7.360395   6.768138   6.751171   4.859656   4.884879
    24  H    8.913427   7.065462   7.089240   6.647293   6.623439
    25  H   10.973152   9.334818   9.355766   8.548259   8.526932
    26  C    9.900951   9.351280   9.339840   7.417217   7.433226
    27  Cl  12.037832  10.892530  10.900538   9.497685   9.490153
    28  H   11.004483  10.409442  10.400906   8.514066   8.526096
    29  H    9.569385   9.346920   9.154395   7.113741   7.361737
    30  H    9.713786   9.162165   9.322777   7.315624   7.111023
    31  O    5.871480   3.498492   3.429293   4.821993   4.872125
    32  O    7.562599   5.310936   5.267232   5.888499   5.928788
    33  C    7.150205   4.784908   4.718460   5.853623   5.908220
    34  C    8.249683   5.845733   5.758479   7.210963   7.281610
    35  C    9.615730   7.219461   7.138536   8.341990   8.412306
    36  H    8.378617   5.752543   5.936580   7.557740   7.414354
    37  H    8.144843   6.020799   5.647003   7.292431   7.586563
    38  H    9.921910   7.356291   7.503692   8.521029   8.392263
    39  H   10.404190   7.997102   7.906277   9.290760   9.369049
    40  H    9.723617   7.567995   7.274955   8.285014   8.544833
                   21         22         23         24         25
    21  H    0.000000
    22  H    2.277730   0.000000
    23  H    5.011188   3.952543   0.000000
    24  H    4.618809   2.349120   4.335862   0.000000
    25  H    6.921957   4.654614   4.945055   2.427191   0.000000
    26  C    7.489608   6.002747   2.612222   5.387496   4.703338
    27  Cl   8.643163   6.569550   4.896496   4.831818   2.826513
    28  H    8.484859   6.859140   3.699956   5.931743   4.788120
    29  H    7.526680   6.217687   2.638257   5.841538   5.351513
    30  H    7.527813   6.227691   2.639598   5.842771   5.352683
    31  O    2.073000   3.025885   6.692389   4.886372   7.310968
    32  O    3.099305   2.077795   5.982025   2.939945   5.293688
    33  C    2.994796   2.904383   6.839336   4.158744   6.518043
    34  C    4.409724   4.343550   8.288322   5.185600   7.378964
    35  C    5.509141   4.832311   8.662529   4.948832   6.822246
    36  H    4.729885   4.922660   8.857153   5.865824   8.067841
    37  H    4.724388   4.920782   8.785406   5.894266   8.078973
    38  H    5.608862   4.681075   8.408186   4.522547   6.286358
    39  H    6.475168   5.934047   9.772101   6.005265   7.757574
    40  H    5.603701   4.679121   8.332345   4.560239   6.301664
                   26         27         28         29         30
    26  C    0.000000
    27  Cl   3.173126   0.000000
    28  H    1.107262   2.637144   0.000000
    29  H    1.110485   3.920974   1.792089   0.000000
    30  H    1.110468   3.921114   1.792184   1.806817   0.000000
    31  O    8.966112   9.523863   9.863112   9.082383   9.123495
    32  O    7.814246   7.753992   8.554496   8.073348   8.127395
    33  C    8.856225   8.961199   9.651033   9.058525   9.116435
    34  C   10.193422   9.998246  10.928250  10.420979  10.497956
    35  C   10.252898   9.581939  10.860391  10.559209  10.649721
    36  H   10.824394  10.683514  11.578498  11.106008  11.036754
    37  H   10.752091  10.651082  11.509332  10.878672  11.104015
    38  H    9.877936   9.070302  10.442595  10.293050  10.223742
    39  H   11.336563  10.549023  11.920193  11.645361  11.744882
    40  H    9.798684   9.032714  10.366006  10.046584  10.296898
                   31         32         33         34         35
    31  O    0.000000
    32  O    2.227477   0.000000
    33  C    1.348927   1.224946   0.000000
    34  C    2.461223   2.382372   1.505407   0.000000
    35  C    3.782410   2.763892   2.532410   1.528579   0.000000
    36  H    2.748464   3.092571   2.137863   1.110895   2.160416
    37  H    2.746585   3.092976   2.137588   1.110908   2.159782
    38  H    4.081359   2.740904   2.804248   2.179814   1.111008
    39  H    4.615108   3.859627   3.481233   2.169291   1.110408
    40  H    4.079497   2.741545   2.803767   2.179591   1.111064
                   36         37         38         39         40
    36  H    0.000000
    37  H    1.804978   0.000000
    38  H    2.505840   3.089770   0.000000
    39  H    2.484764   2.484048   1.804446   0.000000
    40  H    3.090079   2.504544   1.812568   1.804307   0.000000
 Stoichiometry    C14H20ClN2O3(1-)
 Framework group  C1[X(C14H20ClN2O3)]
 Deg. of freedom   114
 Full point group                 C1      NOp   1
 Largest Abelian subgroup         C1      NOp   1
 Largest concise Abelian subgroup C1      NOp   1
                         Standard orientation:                         
 ---------------------------------------------------------------------
 Center     Atomic      Atomic             Coordinates (Angstroms)
 Number     Number       Type             X           Y           Z
 ---------------------------------------------------------------------
      1          6           0        5.266428   -3.701514   -0.009934
      2          6           0        4.442437   -2.417604   -0.036762
      3          6           0        2.940767   -2.721240   -0.005298
      4          7           0        2.157249   -1.496927   -0.032130
      5          6           0        0.792917   -1.522685   -0.013898
      6          8           0        0.222783   -2.600903    0.024607
      7          7           0        0.088722   -0.345243   -0.043653
      8          6           0       -1.345665   -0.176559   -0.033295
      9          6           0       -2.278938   -1.240295    0.051949
     10          6           0       -1.856913    1.132654   -0.111681
     11          6           0       -3.229192    1.378134   -0.107957
     12          6           0       -4.139187    0.325037   -0.024575
     13          6           0       -3.665090   -0.999736    0.057037
     14          1           0        6.347719   -3.450224   -0.034062
     15          1           0        5.027984   -4.331924   -0.893004
     16          1           0        5.055401   -4.276420    0.916896
     17          1           0        4.687094   -1.852446   -0.962466
     18          1           0        4.714312   -1.797422    0.845024
     19          1           0        2.702398   -3.287927    0.921855
     20          1           0        2.676555   -3.343835   -0.888565
     21          1           0        2.701528   -0.495023   -0.070453
     22          1           0        0.712850    0.615381   -0.085200
     23          1           0       -1.981057   -2.269719    0.118891
     24          1           0       -1.194282    1.983743   -0.179004
     25          1           0       -3.585714    2.398762   -0.170829
     26          6           0       -4.591685   -2.184430    0.151299
     27         17           0       -5.855584    0.720741   -0.025535
     28          1           0       -5.662728   -1.903552    0.148870
     29          1           0       -4.388147   -2.739504    1.091320
     30          1           0       -4.415871   -2.861476   -0.711162
     31          8           0        3.647554    1.348430   -0.006853
     32          8           0        1.705539    2.439374   -0.015547
     33          6           0        2.929145    2.489992    0.011283
     34          6           0        3.653457    3.808577    0.065640
     35          6           0        2.711046    5.011929    0.084527
     36          1           0        4.317002    3.886458   -0.821902
     37          1           0        4.281238    3.831287    0.981878
     38          1           0        2.086030    5.027448   -0.833870
     39          1           0        3.305476    5.948948    0.125201
     40          1           0        2.051178    4.971266    0.977491
 ---------------------------------------------------------------------
 Rotational constants (GHZ):      0.3255037      0.1351478      0.0958963
 General basis read from cards:  (6D, 7F)
 There are   424 symmetry adapted cartesian basis functions of A   symmetry.
 There are   424 symmetry adapted basis functions of A   symmetry.
   424 basis functions,   744 primitive gaussians,   424 cartesian basis functions
    80 alpha electrons       80 beta electrons
       nuclear repulsion energy      1588.0908044373 Hartrees.
 NAtoms=   40 NActive=   40 NUniq=   40 SFac= 1.00D+00 NAtFMM=   60 NAOKFM=F Big=F
 Integral buffers will be    131072 words long.
 Raffenetti 2 integral format.
 Two-electron integral symmetry is turned on.
 ------------------------------------------------------------------------------
 Polarizable Continuum Model (PCM)
 =================================
 Model                : PCM (using non-symmetric T matrix).
 Atomic radii         : SMD-Coulomb.
 Polarization charges : Total charges.
 Charge compensation  : None.
 Solution method      : On-the-fly selection.
 Cavity type          : VdW (van der Waals Surface) (Alpha=1.000).
 Cavity algorithm     : GePol (No added spheres)
                        Default sphere list used, NSphG=   40.
                        Lebedev-Laikov grids with approx.  5.0 points / Ang**2.
                        Smoothing algorithm: York/Karplus (Gamma=1.0000).
                        Polarization charges: spherical gaussians, with
                                              point-specific exponents (IZeta= 3).
                        Self-potential: point-specific (ISelfS= 7).
                        Self-field    : sphere-specific E.n sum rule (ISelfD= 2).
 1st derivatives      : Analytical E(r).r(x)/FMM algorithm (CHGder, D1EAlg=3).
                        Cavity 1st derivative terms included.
 Solvent              : Water, Eps=  78.355300 Eps(inf)=   1.777849
 ------------------------------------------------------------------------------
 ------------------------------------------------------------------------------
 Atomic radii for non-electrostatic terms: SMD-CDS.
 ------------------------------------------------------------------------------
 Nuclear repulsion after PCM non-electrostatic terms =     1588.1035026644 Hartrees.
 One-electron integrals computed using PRISM.
 NBasis=   424 RedAO= T EigKep=  1.31D-06  NBF=   424
 NBsUse=   423 1.00D-06 EigRej=  4.35D-07 NBFU=   423
 ExpMin= 4.38D-02 ExpMax= 2.52D+04 ExpMxC= 3.78D+03 IAcc=3 IRadAn=         5 AccDes= 0.00D+00
 Harris functional with IExCor= 1009 and IRadAn=       5 diagonalized for initial guess.
 HarFok:  IExCor= 1009 AccDes= 0.00D+00 IRadAn=         5 IDoV= 1 UseB2=F ITyADJ=14
 ICtDFT=  3500011 ScaDFX=  1.000000  1.000000  1.000000  1.000000
 FoFCou: FMM=F IPFlag=           0 FMFlag=      100000 FMFlg1=           0
         NFxFlg=           0 DoJE=T BraDBF=F KetDBF=T FulRan=T
         wScrn=  0.000000 ICntrl=     500 IOpCl=  0 I1Cent=   200000004 NGrid=           0
         NMat0=    1 NMatS0=      1 NMatT0=    0 NMatD0=    1 NMtDS0=    0 NMtDT0=    0
 Petite list used in FoFCou.
 Requested convergence on RMS density matrix=1.00D-08 within 128 cycles.
 Requested convergence on MAX density matrix=1.00D-06.
 Requested convergence on             energy=1.00D-06.
 No special actions if energy rises.
 Inv3:  Mode=1 IEnd=    29578800.
 Iteration    1 A*A^-1 deviation from unit magnitude is 6.33D-15 for   3129.
 Iteration    1 A*A^-1 deviation from orthogonality  is 3.11D-15 for   2524    779.
 Iteration    1 A^-1*A deviation from unit magnitude is 6.44D-15 for   3129.
 Iteration    1 A^-1*A deviation from orthogonality  is 1.01D-08 for   2786   2728.
 Iteration    2 A*A^-1 deviation from unit magnitude is 3.11D-15 for    781.
 Iteration    2 A*A^-1 deviation from orthogonality  is 3.96D-15 for   2796    921.
 Iteration    2 A^-1*A deviation from unit magnitude is 9.99D-16 for    133.
 Iteration    2 A^-1*A deviation from orthogonality  is 3.29D-16 for   1641   1566.
 Error on total polarization charges =  0.07257
 SCF Done:  E(RM062X) =  -1340.71856999     A.U. after   15 cycles
            NFock= 15  Conv=0.41D-08     -V/T= 2.0073
 SMD-CDS (non-electrostatic) energy       (kcal/mol) =       7.97
 (included in total energy above)

 **********************************************************************

            Population analysis using the SCF density.

 **********************************************************************

 Orbital symmetries:
       Occupied  (A) (A) (A) (A) (A) (A) (A) (A) (A) (A) (A) (A)
                 (A) (A) (A) (A) (A) (A) (A) (A) (A) (A) (A) (A)
                 (A) (A) (A) (A) (A) (A) (A) (A) (A) (A) (A) (A)
                 (A) (A) (A) (A) (A) (A) (A) (A) (A) (A) (A) (A)
                 (A) (A) (A) (A) (A) (A) (A) (A) (A) (A) (A) (A)
                 (A) (A) (A) (A) (A) (A) (A) (A) (A) (A) (A) (A)
                 (A) (A) (A) (A) (A) (A) (A) (A)
       Virtual   (A) (A) (A) (A) (A) (A) (A) (A) (A) (A) (A) (A)
                 (A) (A) (A) (A) (A) (A) (A) (A) (A) (A) (A) (A)
                 (A) (A) (A) (A) (A) (A) (A) (A) (A) (A) (A) (A)
                 (A) (A) (A) (A) (A) (A) (A) (A) (A) (A) (A) (A)
                 (A) (A) (A) (A) (A) (A) (A) (A) (A) (A) (A) (A)
                 (A) (A) (A) (A) (A) (A) (A) (A) (A) (A) (A) (A)
                 (A) (A) (A) (A) (A) (A) (A) (A) (A) (A) (A) (A)
                 (A) (A) (A) (A) (A) (A) (A) (A) (A) (A) (A) (A)
                 (A) (A) (A) (A) (A) (A) (A) (A) (A) (A) (A) (A)
                 (A) (A) (A) (A) (A) (A) (A) (A) (A) (A) (A) (A)
                 (A) (A) (A) (A) (A) (A) (A) (A) (A) (A) (A) (A)
                 (A) (A) (A) (A) (A) (A) (A) (A) (A) (A) (A) (A)
                 (A) (A) (A) (A) (A) (A) (A) (A) (A) (A) (A) (A)
                 (A) (A) (A) (A) (A) (A) (A) (A) (A) (A) (A) (A)
                 (A) (A) (A) (A) (A) (A) (A) (A) (A) (A) (A) (A)
                 (A) (A) (A) (A) (A) (A) (A) (A) (A) (A) (A) (A)
                 (A) (A) (A) (A) (A) (A) (A) (A) (A) (A) (A) (A)
                 (A) (A) (A) (A) (A) (A) (A) (A) (A) (A) (A) (A)
                 (A) (A) (A) (A) (A) (A) (A) (A) (A) (A) (A) (A)
                 (A) (A) (A) (A) (A) (A) (A) (A) (A) (A) (A) (A)
                 (A) (A) (A) (A) (A) (A) (A) (A) (A) (A) (A) (A)
                 (A) (A) (A) (A) (A) (A) (A) (A) (A) (A) (A) (A)
                 (A) (A) (A) (A) (A) (A) (A) (A) (A) (A) (A) (A)
                 (A) (A) (A) (A) (A) (A) (A) (A) (A) (A) (A) (A)
                 (A) (A) (A) (A) (A) (A) (A) (A) (A) (A) (A) (A)
                 (A) (A) (A) (A) (A) (A) (A) (A) (A) (A) (A) (A)
                 (A) (A) (A) (A) (A) (A) (A) (A) (A) (A) (A) (A)
                 (A) (A) (A) (A) (A) (A) (A) (A) (A) (A) (A) (A)
                 (A) (A) (A) (A) (A) (A) (A)
 The electronic state is 1-A.
 Alpha  occ. eigenvalues -- -102.67357 -19.61346 -19.61069 -19.59277 -14.79963
 Alpha  occ. eigenvalues --  -14.77756 -10.68074 -10.65184 -10.61511 -10.61174
 Alpha  occ. eigenvalues --  -10.57686 -10.57562 -10.56480 -10.55826 -10.55532
 Alpha  occ. eigenvalues --  -10.54307 -10.54238 -10.54220 -10.53259 -10.53229
 Alpha  occ. eigenvalues --   -9.81989  -7.54380  -7.53742  -7.53728  -1.18200
 Alpha  occ. eigenvalues --   -1.16681  -1.03982  -1.03290  -1.00754  -0.98834
 Alpha  occ. eigenvalues --   -0.92846  -0.87622  -0.86944  -0.85985  -0.82633
 Alpha  occ. eigenvalues --   -0.77728  -0.76251  -0.71905  -0.70510  -0.67783
 Alpha  occ. eigenvalues --   -0.66219  -0.64194  -0.61028  -0.59296  -0.58131
 Alpha  occ. eigenvalues --   -0.55674  -0.55041  -0.54096  -0.53149  -0.52912
 Alpha  occ. eigenvalues --   -0.52193  -0.51583  -0.50465  -0.49759  -0.49364
 Alpha  occ. eigenvalues --   -0.49293  -0.47381  -0.45821  -0.45733  -0.45423
 Alpha  occ. eigenvalues --   -0.45179  -0.44375  -0.43666  -0.42605  -0.41491
 Alpha  occ. eigenvalues --   -0.41389  -0.41296  -0.40906  -0.39764  -0.39104
 Alpha  occ. eigenvalues --   -0.38818  -0.37628  -0.35565  -0.34783  -0.33078
 Alpha  occ. eigenvalues --   -0.32906  -0.31612  -0.31335  -0.30346  -0.26432
 Alpha virt. eigenvalues --    0.01031   0.01750   0.01791   0.02433   0.03270
 Alpha virt. eigenvalues --    0.03637   0.04075   0.04293   0.04463   0.05193
 Alpha virt. eigenvalues --    0.05563   0.06110   0.06450   0.06567   0.06657
 Alpha virt. eigenvalues --    0.07115   0.07764   0.07886   0.08095   0.08164
 Alpha virt. eigenvalues --    0.08558   0.09347   0.09369   0.09412   0.09506
 Alpha virt. eigenvalues --    0.10080   0.10941   0.11083   0.11367   0.11587
 Alpha virt. eigenvalues --    0.11824   0.12321   0.12674   0.12886   0.12915
 Alpha virt. eigenvalues --    0.13928   0.14216   0.14507   0.14723   0.15116
 Alpha virt. eigenvalues --    0.15384   0.16246   0.16728   0.17099   0.17618
 Alpha virt. eigenvalues --    0.17957   0.18243   0.18912   0.19453   0.19743
 Alpha virt. eigenvalues --    0.19871   0.20202   0.20838   0.21601   0.22144
 Alpha virt. eigenvalues --    0.22256   0.22730   0.22963   0.23288   0.23530
 Alpha virt. eigenvalues --    0.23948   0.24356   0.24512   0.24792   0.25270
 Alpha virt. eigenvalues --    0.25307   0.25725   0.26006   0.26734   0.26904
 Alpha virt. eigenvalues --    0.27370   0.27490   0.27584   0.28274   0.28483
 Alpha virt. eigenvalues --    0.28698   0.28991   0.29648   0.29854   0.30078
 Alpha virt. eigenvalues --    0.30795   0.30969   0.31372   0.31564   0.31792
 Alpha virt. eigenvalues --    0.32171   0.32537   0.32785   0.33062   0.33770
 Alpha virt. eigenvalues --    0.33932   0.34217   0.34657   0.35184   0.35750
 Alpha virt. eigenvalues --    0.35831   0.36507   0.36874   0.37725   0.38376
 Alpha virt. eigenvalues --    0.38971   0.39535   0.39782   0.40351   0.40706
 Alpha virt. eigenvalues --    0.42136   0.42619   0.43253   0.45249   0.45963
 Alpha virt. eigenvalues --    0.46532   0.46937   0.48580   0.49746   0.51466
 Alpha virt. eigenvalues --    0.52476   0.53168   0.54613   0.55258   0.58240
 Alpha virt. eigenvalues --    0.59070   0.59463   0.62117   0.64771   0.68348
 Alpha virt. eigenvalues --    0.69313   0.70548   0.70992   0.71221   0.71371
 Alpha virt. eigenvalues --    0.72344   0.72800   0.74149   0.74671   0.75341
 Alpha virt. eigenvalues --    0.75621   0.76432   0.76994   0.77324   0.77653
 Alpha virt. eigenvalues --    0.78656   0.78912   0.79019   0.80132   0.80362
 Alpha virt. eigenvalues --    0.81186   0.81916   0.82683   0.83118   0.83693
 Alpha virt. eigenvalues --    0.85072   0.85313   0.86509   0.87531   0.88487
 Alpha virt. eigenvalues --    0.89105   0.90410   0.91715   0.93448   0.93713
 Alpha virt. eigenvalues --    0.94361   0.95964   0.97277   0.98639   0.98849
 Alpha virt. eigenvalues --    0.99599   0.99971   1.00026   1.01173   1.02712
 Alpha virt. eigenvalues --    1.03783   1.03908   1.04961   1.05908   1.06347
 Alpha virt. eigenvalues --    1.06447   1.06626   1.08036   1.08893   1.09972
 Alpha virt. eigenvalues --    1.12006   1.12217   1.12433   1.14777   1.15231
 Alpha virt. eigenvalues --    1.15919   1.16514   1.17136   1.18392   1.19058
 Alpha virt. eigenvalues --    1.19328   1.20776   1.21801   1.23246   1.23774
 Alpha virt. eigenvalues --    1.25150   1.26899   1.27906   1.28370   1.29198
 Alpha virt. eigenvalues --    1.29777   1.32019   1.32398   1.32827   1.34958
 Alpha virt. eigenvalues --    1.35651   1.36451   1.37214   1.39817   1.40529
 Alpha virt. eigenvalues --    1.42585   1.43192   1.44646   1.44967   1.45509
 Alpha virt. eigenvalues --    1.46604   1.46978   1.47028   1.47585   1.49770
 Alpha virt. eigenvalues --    1.50746   1.52284   1.52432   1.53185   1.53735
 Alpha virt. eigenvalues --    1.55884   1.57582   1.58201   1.59520   1.59885
 Alpha virt. eigenvalues --    1.62350   1.63322   1.65730   1.67173   1.71923
 Alpha virt. eigenvalues --    1.75808   1.76255   1.81836   1.83025   1.85180
 Alpha virt. eigenvalues --    1.85698   1.86566   1.88097   1.88760   1.89424
 Alpha virt. eigenvalues --    1.89528   1.90585   1.91200   1.92646   1.93965
 Alpha virt. eigenvalues --    1.94488   1.94693   1.94877   1.96500   1.96926
 Alpha virt. eigenvalues --    1.98142   1.99008   1.99788   2.03661   2.03838
 Alpha virt. eigenvalues --    2.05359   2.05493   2.06276   2.06768   2.08254
 Alpha virt. eigenvalues --    2.10402   2.10486   2.11713   2.12927   2.14516
 Alpha virt. eigenvalues --    2.15805   2.17752   2.17907   2.19108   2.21318
 Alpha virt. eigenvalues --    2.24948   2.25059   2.27950   2.28346   2.29974
 Alpha virt. eigenvalues --    2.30222   2.31198   2.32276   2.32594   2.35712
 Alpha virt. eigenvalues --    2.37368   2.37927   2.38380   2.38865   2.40729
 Alpha virt. eigenvalues --    2.41245   2.42055   2.42639   2.45186   2.52139
 Alpha virt. eigenvalues --    2.55122   2.55402   2.57316   2.60464   2.62116
 Alpha virt. eigenvalues --    2.65734   2.67028   2.69164   2.70551   2.71087
 Alpha virt. eigenvalues --    2.73976   2.75353   2.79942   2.81153   2.81463
 Alpha virt. eigenvalues --    2.83310   2.86697   2.87696   2.94549   3.01321
 Alpha virt. eigenvalues --    3.02839   3.07239   3.12724   3.15425   3.18337
 Alpha virt. eigenvalues --    3.26878   3.32320   3.40132   4.20451   4.22489
 Alpha virt. eigenvalues --    4.26025   4.29454   4.32663   4.34208   4.38299
 Alpha virt. eigenvalues --    4.40022   4.41613   4.43980   4.45180   4.45865
 Alpha virt. eigenvalues --    4.50209   4.51629   4.54208   4.57987   4.64819
 Alpha virt. eigenvalues --    4.70766   4.74192   4.79175
          Condensed to atoms (all electrons):
               1          2          3          4          5          6
     1  C    5.792197  -0.137276   0.009025  -0.010548  -0.041146  -0.001652
     2  C   -0.137276   6.216746  -0.387254  -0.056410   0.147882   0.019483
     3  C    0.009025  -0.387254   6.964318   0.307105  -0.703147  -0.076121
     4  N   -0.010548  -0.056410   0.307105   7.652600   0.490464  -0.187584
     5  C   -0.041146   0.147882  -0.703147   0.490464   6.551682   0.612582
     6  O   -0.001652   0.019483  -0.076121  -0.187584   0.612582   8.507234
     7  N   -0.003683   0.006713  -0.182770  -0.331064   0.240876  -0.092169
     8  C   -0.007616   0.018347  -0.287497  -0.147294  -0.564745  -0.487553
     9  C   -0.001142  -0.011460  -0.072303   0.001282   0.204179   0.486228
    10  C   -0.001484   0.002801  -0.072734  -0.080866  -1.178137  -0.149686
    11  C    0.000200  -0.000159   0.019835   0.002739   0.433540  -0.011964
    12  C   -0.000030   0.000914  -0.006919  -0.014358  -0.142160  -0.018411
    13  C   -0.000495  -0.001337  -0.052355  -0.007074  -0.532026   0.122567
    14  H    0.434967  -0.108955   0.026815   0.000359  -0.002044   0.000005
    15  H    0.421930  -0.068596  -0.010954   0.000425   0.001209  -0.000034
    16  H    0.422815  -0.069155  -0.010289   0.000468   0.000251  -0.000039
    17  H   -0.021540   0.419096  -0.083769   0.006808  -0.004840  -0.000144
    18  H   -0.027620   0.425088  -0.089190   0.007091   0.000150  -0.000092
    19  H   -0.002080  -0.044617   0.434548  -0.052317  -0.030142   0.002356
    20  H   -0.003795  -0.042714   0.444406  -0.052529  -0.036942   0.002822
    21  H   -0.001460   0.001747  -0.060027   0.190160   0.027985   0.005511
    22  H    0.000169   0.000385   0.006561   0.030338  -0.034727   0.004341
    23  H    0.000001   0.000090   0.001134  -0.000640  -0.001340  -0.004120
    24  H   -0.000000   0.000023   0.000171   0.000793   0.011311   0.000035
    25  H    0.000000   0.000000   0.000018   0.000010   0.002351   0.000001
    26  C   -0.000090  -0.000186  -0.009157   0.001347  -0.134874   0.014373
    27  Cl  -0.000001   0.000006  -0.000122   0.000055  -0.006776   0.000093
    28  H    0.000000  -0.000000   0.000001  -0.000000   0.000221   0.000002
    29  H   -0.000000  -0.000001  -0.000016  -0.000001  -0.000383  -0.000028
    30  H   -0.000000  -0.000001  -0.000042  -0.000007  -0.001402  -0.000096
    31  O    0.003775   0.006299  -0.009837  -0.026445  -0.000709  -0.000443
    32  O    0.000119  -0.000904   0.010662   0.007394   0.015518  -0.000061
    33  C   -0.001778  -0.004179   0.000836  -0.010074  -0.014801  -0.000734
    34  C    0.001459  -0.000313   0.013153  -0.006946  -0.003994  -0.000438
    35  C   -0.000167  -0.000421  -0.000687   0.001175  -0.000587   0.000045
    36  H    0.000002   0.000016   0.000006  -0.000005  -0.000006  -0.000000
    37  H    0.000008   0.000043  -0.000028  -0.000026  -0.000078  -0.000000
    38  H    0.000000   0.000006  -0.000013   0.000000  -0.000127   0.000000
    39  H    0.000000   0.000001  -0.000002  -0.000001   0.000010   0.000000
    40  H   -0.000000   0.000003  -0.000008  -0.000000  -0.000040  -0.000000
               7          8          9         10         11         12
     1  C   -0.003683  -0.007616  -0.001142  -0.001484   0.000200  -0.000030
     2  C    0.006713   0.018347  -0.011460   0.002801  -0.000159   0.000914
     3  C   -0.182770  -0.287497  -0.072303  -0.072734   0.019835  -0.006919
     4  N   -0.331064  -0.147294   0.001282  -0.080866   0.002739  -0.014358
     5  C    0.240876  -0.564745   0.204179  -1.178137   0.433540  -0.142160
     6  O   -0.092169  -0.487553   0.486228  -0.149686  -0.011964  -0.018411
     7  N    7.782913   0.261661  -0.146346  -0.086101   0.054697   0.000724
     8  C    0.261661  11.248941  -0.762523  -0.573527  -0.091802   0.259416
     9  C   -0.146346  -0.762523   9.969279  -4.150668   0.384644  -1.849323
    10  C   -0.086101  -0.573527  -4.150668  14.311168  -2.179758  -0.123006
    11  C    0.054697  -0.091802   0.384644  -2.179758   8.479879   0.129075
    12  C    0.000724   0.259416  -1.849323  -0.123006   0.129075   9.895381
    13  C   -0.012904  -2.377175   1.666695   0.368706  -1.418786  -1.271558
    14  H    0.000008  -0.000035  -0.000000  -0.000001   0.000000  -0.000000
    15  H    0.000019  -0.000000  -0.000006  -0.000002   0.000000   0.000000
    16  H    0.000014  -0.000011  -0.000030   0.000003   0.000000   0.000000
    17  H   -0.000026  -0.000655  -0.000279   0.000160   0.000010   0.000001
    18  H    0.000167  -0.000660   0.000105   0.000040   0.000001   0.000001
    19  H   -0.000463   0.000858  -0.001799   0.000475  -0.000023   0.000017
    20  H    0.000053  -0.004801   0.001123  -0.000182   0.000022   0.000003
    21  H    0.029388   0.004788   0.004807  -0.001404   0.000064   0.000391
    22  H    0.176999   0.042124   0.060111  -0.090661  -0.012241  -0.006126
    23  H   -0.011693   0.005295   0.233080   0.033790  -0.032408   0.093915
    24  H   -0.001486   0.008976   0.035671   0.172376   0.098998  -0.014476
    25  H    0.000490   0.019092   0.000181  -0.067128   0.353703  -0.043006
    26  C    0.000783  -0.782494  -0.287961   0.393553   0.005145  -0.325666
    27  Cl  -0.000692  -0.026453  -0.050950   0.046034  -0.090244   0.025969
    28  H    0.000023   0.007670   0.043123  -0.005763   0.019607  -0.041097
    29  H    0.000051  -0.002740  -0.030726   0.002809  -0.003857   0.021033
    30  H    0.000110  -0.011424  -0.048808   0.007565  -0.009333   0.016674
    31  O    0.011489  -0.001935  -0.002541   0.003377  -0.001531   0.000666
    32  O    0.001135  -0.127035  -0.010854   0.075913   0.038846  -0.000827
    33  C   -0.008807   0.026430  -0.004207  -0.003964  -0.016443  -0.000118
    34  C   -0.011971  -0.007261   0.000266  -0.010066   0.004429  -0.000886
    35  C    0.002991  -0.014237  -0.001965   0.010179   0.004686   0.000433
    36  H    0.000063  -0.000483  -0.000033   0.000418   0.000054   0.000002
    37  H    0.000060  -0.000127  -0.000019   0.000134  -0.000016   0.000000
    38  H    0.000017   0.000215   0.000006   0.000009  -0.000484  -0.000029
    39  H   -0.000002   0.000092   0.000004  -0.000086  -0.000019  -0.000000
    40  H    0.000037  -0.001582  -0.000100   0.000943   0.000657   0.000028
              13         14         15         16         17         18
     1  C   -0.000495   0.434967   0.421930   0.422815  -0.021540  -0.027620
     2  C   -0.001337  -0.108955  -0.068596  -0.069155   0.419096   0.425088
     3  C   -0.052355   0.026815  -0.010954  -0.010289  -0.083769  -0.089190
     4  N   -0.007074   0.000359   0.000425   0.000468   0.006808   0.007091
     5  C   -0.532026  -0.002044   0.001209   0.000251  -0.004840   0.000150
     6  O    0.122567   0.000005  -0.000034  -0.000039  -0.000144  -0.000092
     7  N   -0.012904   0.000008   0.000019   0.000014  -0.000026   0.000167
     8  C   -2.377175  -0.000035  -0.000000  -0.000011  -0.000655  -0.000660
     9  C    1.666695  -0.000000  -0.000006  -0.000030  -0.000279   0.000105
    10  C    0.368706  -0.000001  -0.000002   0.000003   0.000160   0.000040
    11  C   -1.418786   0.000000   0.000000   0.000000   0.000010   0.000001
    12  C   -1.271558  -0.000000   0.000000   0.000000   0.000001   0.000001
    13  C    9.902194  -0.000000   0.000000  -0.000001  -0.000020   0.000000
    14  H   -0.000000   0.482367  -0.023994  -0.023961  -0.003135  -0.003122
    15  H    0.000000  -0.023994   0.488173  -0.028565  -0.004642   0.003784
    16  H   -0.000001  -0.023961  -0.028565   0.488149   0.003785  -0.004640
    17  H   -0.000020  -0.003135  -0.004642   0.003785   0.489785  -0.031426
    18  H    0.000000  -0.003122   0.003784  -0.004640  -0.031426   0.489942
    19  H   -0.000056  -0.000054  -0.000304   0.002739   0.003820  -0.005336
    20  H   -0.000033  -0.000054   0.002789  -0.000312  -0.005326   0.003825
    21  H   -0.000365  -0.000002  -0.000000   0.000000   0.000659   0.000594
    22  H    0.014016  -0.000000  -0.000000  -0.000000   0.000001   0.000001
    23  H   -0.011931  -0.000000  -0.000000   0.000000  -0.000000  -0.000000
    24  H   -0.014047  -0.000000   0.000000   0.000000   0.000000   0.000000
    25  H    0.050147  -0.000000   0.000000   0.000000  -0.000000   0.000000
    26  C    0.090618  -0.000000  -0.000000  -0.000000  -0.000001  -0.000000
    27  Cl  -0.176460  -0.000000  -0.000000  -0.000000  -0.000000  -0.000000
    28  H   -0.126007   0.000000  -0.000000  -0.000000  -0.000000  -0.000000
    29  H   -0.048988  -0.000000   0.000000  -0.000000  -0.000000   0.000000
    30  H   -0.028962  -0.000000  -0.000000   0.000000   0.000000  -0.000000
    31  O   -0.000654  -0.000022  -0.000001  -0.000001  -0.000543  -0.000283
    32  O   -0.001060  -0.000000   0.000000   0.000000   0.000008   0.000010
    33  C    0.000926  -0.000031  -0.000014  -0.000006  -0.000490  -0.000588
    34  C   -0.002012   0.000020  -0.000003  -0.000001   0.000137  -0.000230
    35  C    0.000084  -0.000000  -0.000000  -0.000000  -0.000018  -0.000014
    36  H   -0.000004  -0.000000  -0.000000   0.000000  -0.000000   0.000000
    37  H   -0.000001  -0.000000   0.000000  -0.000000  -0.000000  -0.000000
    38  H    0.000018   0.000000   0.000000  -0.000000  -0.000000   0.000000
    39  H    0.000000   0.000000  -0.000000  -0.000000  -0.000000  -0.000000
    40  H    0.000006   0.000000  -0.000000   0.000000   0.000000  -0.000000
              19         20         21         22         23         24
     1  C   -0.002080  -0.003795  -0.001460   0.000169   0.000001  -0.000000
     2  C   -0.044617  -0.042714   0.001747   0.000385   0.000090   0.000023
     3  C    0.434548   0.444406  -0.060027   0.006561   0.001134   0.000171
     4  N   -0.052317  -0.052529   0.190160   0.030338  -0.000640   0.000793
     5  C   -0.030142  -0.036942   0.027985  -0.034727  -0.001340   0.011311
     6  O    0.002356   0.002822   0.005511   0.004341  -0.004120   0.000035
     7  N   -0.000463   0.000053   0.029388   0.176999  -0.011693  -0.001486
     8  C    0.000858  -0.004801   0.004788   0.042124   0.005295   0.008976
     9  C   -0.001799   0.001123   0.004807   0.060111   0.233080   0.035671
    10  C    0.000475  -0.000182  -0.001404  -0.090661   0.033790   0.172376
    11  C   -0.000023   0.000022   0.000064  -0.012241  -0.032408   0.098998
    12  C    0.000017   0.000003   0.000391  -0.006126   0.093915  -0.014476
    13  C   -0.000056  -0.000033  -0.000365   0.014016  -0.011931  -0.014047
    14  H   -0.000054  -0.000054  -0.000002  -0.000000  -0.000000  -0.000000
    15  H   -0.000304   0.002789  -0.000000  -0.000000  -0.000000   0.000000
    16  H    0.002739  -0.000312   0.000000  -0.000000   0.000000   0.000000
    17  H    0.003820  -0.005326   0.000659   0.000001  -0.000000   0.000000
    18  H   -0.005336   0.003825   0.000594   0.000001  -0.000000   0.000000
    19  H    0.501721  -0.041051   0.001731   0.000004  -0.000000  -0.000000
    20  H   -0.041051   0.501950   0.001642   0.000005   0.000000   0.000000
    21  H    0.001731   0.001642   0.263293   0.003460   0.000001   0.000004
    22  H    0.000004   0.000005   0.003460   0.262241  -0.000099   0.004514
    23  H   -0.000000   0.000000   0.000001  -0.000099   0.438538  -0.000106
    24  H   -0.000000   0.000000   0.000004   0.004514  -0.000106   0.439789
    25  H    0.000000   0.000000  -0.000000  -0.000007   0.000012  -0.004018
    26  C   -0.000015  -0.000015  -0.000051   0.000895  -0.017614   0.000810
    27  Cl   0.000000  -0.000000   0.000000   0.000020   0.000313   0.001020
    28  H    0.000000   0.000000   0.000000  -0.000000   0.000127  -0.000000
    29  H   -0.000000   0.000000  -0.000000   0.000000   0.000687   0.000000
    30  H    0.000000  -0.000000  -0.000000   0.000000   0.000744   0.000000
    31  O   -0.000035   0.000000   0.041678   0.002287   0.000000  -0.000003
    32  O   -0.000005  -0.000001   0.001254   0.037996   0.000007  -0.001513
    33  C    0.000249   0.000096  -0.006166  -0.003877   0.000000  -0.001196
    34  C    0.000050   0.000010   0.002258   0.002846   0.000000   0.001124
    35  C   -0.000000   0.000001  -0.000318   0.000027  -0.000000  -0.000419
    36  H    0.000000  -0.000000  -0.000002  -0.000005   0.000000  -0.000000
    37  H   -0.000000   0.000000  -0.000001  -0.000005   0.000000   0.000000
    38  H   -0.000000   0.000000   0.000000  -0.000001   0.000000   0.000001
    39  H   -0.000000  -0.000000   0.000000   0.000000  -0.000000   0.000000
    40  H    0.000000  -0.000000   0.000000  -0.000001   0.000000   0.000000
              25         26         27         28         29         30
     1  C    0.000000  -0.000090  -0.000001   0.000000  -0.000000  -0.000000
     2  C    0.000000  -0.000186   0.000006  -0.000000  -0.000001  -0.000001
     3  C    0.000018  -0.009157  -0.000122   0.000001  -0.000016  -0.000042
     4  N    0.000010   0.001347   0.000055  -0.000000  -0.000001  -0.000007
     5  C    0.002351  -0.134874  -0.006776   0.000221  -0.000383  -0.001402
     6  O    0.000001   0.014373   0.000093   0.000002  -0.000028  -0.000096
     7  N    0.000490   0.000783  -0.000692   0.000023   0.000051   0.000110
     8  C    0.019092  -0.782494  -0.026453   0.007670  -0.002740  -0.011424
     9  C    0.000181  -0.287961  -0.050950   0.043123  -0.030726  -0.048808
    10  C   -0.067128   0.393553   0.046034  -0.005763   0.002809   0.007565
    11  C    0.353703   0.005145  -0.090244   0.019607  -0.003857  -0.009333
    12  C   -0.043006  -0.325666   0.025969  -0.041097   0.021033   0.016674
    13  C    0.050147   0.090618  -0.176460  -0.126007  -0.048988  -0.028962
    14  H   -0.000000  -0.000000  -0.000000   0.000000  -0.000000  -0.000000
    15  H    0.000000  -0.000000  -0.000000  -0.000000   0.000000  -0.000000
    16  H    0.000000  -0.000000  -0.000000  -0.000000  -0.000000   0.000000
    17  H   -0.000000  -0.000001  -0.000000  -0.000000  -0.000000   0.000000
    18  H    0.000000  -0.000000  -0.000000  -0.000000   0.000000  -0.000000
    19  H    0.000000  -0.000015   0.000000   0.000000  -0.000000   0.000000
    20  H    0.000000  -0.000015  -0.000000   0.000000   0.000000  -0.000000
    21  H   -0.000000  -0.000051   0.000000   0.000000  -0.000000  -0.000000
    22  H   -0.000007   0.000895   0.000020  -0.000000   0.000000   0.000000
    23  H    0.000012  -0.017614   0.000313   0.000127   0.000687   0.000744
    24  H   -0.004018   0.000810   0.001020  -0.000000   0.000000   0.000000
    25  H    0.428251  -0.001429  -0.001872  -0.000002   0.000002   0.000002
    26  C   -0.001429   6.608597   0.022177   0.436033   0.399056   0.411503
    27  Cl  -0.001872   0.022177  17.078972   0.010403  -0.000855  -0.000427
    28  H   -0.000002   0.436033   0.010403   0.468479  -0.023052  -0.022962
    29  H    0.000002   0.399056  -0.000855  -0.023052   0.455602  -0.024797
    30  H    0.000002   0.411503  -0.000427  -0.022962  -0.024797   0.455651
    31  O    0.000000  -0.000059  -0.000001   0.000000  -0.000000  -0.000000
    32  O   -0.000009   0.000140  -0.000012  -0.000000  -0.000000   0.000000
    33  C   -0.000024   0.000075  -0.000018  -0.000000   0.000000   0.000000
    34  C   -0.000003  -0.000026   0.000002   0.000000   0.000000  -0.000000
    35  C   -0.000004   0.000003   0.000001  -0.000000  -0.000000   0.000000
    36  H   -0.000000  -0.000000   0.000000  -0.000000   0.000000   0.000000
    37  H   -0.000000  -0.000000  -0.000000  -0.000000  -0.000000   0.000000
    38  H    0.000000   0.000000  -0.000000   0.000000   0.000000  -0.000000
    39  H   -0.000000   0.000000  -0.000000  -0.000000   0.000000   0.000000
    40  H    0.000000   0.000000   0.000000   0.000000   0.000000  -0.000000
              31         32         33         34         35         36
     1  C    0.003775   0.000119  -0.001778   0.001459  -0.000167   0.000002
     2  C    0.006299  -0.000904  -0.004179  -0.000313  -0.000421   0.000016
     3  C   -0.009837   0.010662   0.000836   0.013153  -0.000687   0.000006
     4  N   -0.026445   0.007394  -0.010074  -0.006946   0.001175  -0.000005
     5  C   -0.000709   0.015518  -0.014801  -0.003994  -0.000587  -0.000006
     6  O   -0.000443  -0.000061  -0.000734  -0.000438   0.000045  -0.000000
     7  N    0.011489   0.001135  -0.008807  -0.011971   0.002991   0.000063
     8  C   -0.001935  -0.127035   0.026430  -0.007261  -0.014237  -0.000483
     9  C   -0.002541  -0.010854  -0.004207   0.000266  -0.001965  -0.000033
    10  C    0.003377   0.075913  -0.003964  -0.010066   0.010179   0.000418
    11  C   -0.001531   0.038846  -0.016443   0.004429   0.004686   0.000054
    12  C    0.000666  -0.000827  -0.000118  -0.000886   0.000433   0.000002
    13  C   -0.000654  -0.001060   0.000926  -0.002012   0.000084  -0.000004
    14  H   -0.000022  -0.000000  -0.000031   0.000020  -0.000000  -0.000000
    15  H   -0.000001   0.000000  -0.000014  -0.000003  -0.000000  -0.000000
    16  H   -0.000001   0.000000  -0.000006  -0.000001  -0.000000   0.000000
    17  H   -0.000543   0.000008  -0.000490   0.000137  -0.000018  -0.000000
    18  H   -0.000283   0.000010  -0.000588  -0.000230  -0.000014   0.000000
    19  H   -0.000035  -0.000005   0.000249   0.000050  -0.000000   0.000000
    20  H    0.000000  -0.000001   0.000096   0.000010   0.000001  -0.000000
    21  H    0.041678   0.001254  -0.006166   0.002258  -0.000318  -0.000002
    22  H    0.002287   0.037996  -0.003877   0.002846   0.000027  -0.000005
    23  H    0.000000   0.000007   0.000000   0.000000  -0.000000   0.000000
    24  H   -0.000003  -0.001513  -0.001196   0.001124  -0.000419  -0.000000
    25  H    0.000000  -0.000009  -0.000024  -0.000003  -0.000004  -0.000000
    26  C   -0.000059   0.000140   0.000075  -0.000026   0.000003  -0.000000
    27  Cl  -0.000001  -0.000012  -0.000018   0.000002   0.000001   0.000000
    28  H    0.000000  -0.000000  -0.000000   0.000000  -0.000000  -0.000000
    29  H   -0.000000  -0.000000   0.000000   0.000000  -0.000000   0.000000
    30  H   -0.000000   0.000000   0.000000  -0.000000   0.000000   0.000000
    31  O    8.814148  -0.179384   0.410590  -0.224087   0.021748  -0.001206
    32  O   -0.179384   8.627438   0.252730  -0.084866   0.038925   0.002405
    33  C    0.410590   0.252730   5.205524  -0.338576  -0.096050  -0.060170
    34  C   -0.224087  -0.084866  -0.338576   6.582021  -0.068038   0.418839
    35  C    0.021748   0.038925  -0.096050  -0.068038   5.705802  -0.044930
    36  H   -0.001206   0.002405  -0.060170   0.418839  -0.044930   0.459081
    37  H   -0.000841   0.001966  -0.064913   0.422747  -0.044059  -0.021745
    38  H    0.000059  -0.001004  -0.007559  -0.053159   0.408100  -0.003864
    39  H   -0.000247   0.000895   0.029380  -0.074131   0.391058  -0.002319
    40  H   -0.000006  -0.000728  -0.011561  -0.048812   0.407226   0.003432
              37         38         39         40
     1  C    0.000008   0.000000   0.000000  -0.000000
     2  C    0.000043   0.000006   0.000001   0.000003
     3  C   -0.000028  -0.000013  -0.000002  -0.000008
     4  N   -0.000026   0.000000  -0.000001  -0.000000
     5  C   -0.000078  -0.000127   0.000010  -0.000040
     6  O   -0.000000   0.000000   0.000000  -0.000000
     7  N    0.000060   0.000017  -0.000002   0.000037
     8  C   -0.000127   0.000215   0.000092  -0.001582
     9  C   -0.000019   0.000006   0.000004  -0.000100
    10  C    0.000134   0.000009  -0.000086   0.000943
    11  C   -0.000016  -0.000484  -0.000019   0.000657
    12  C    0.000000  -0.000029  -0.000000   0.000028
    13  C   -0.000001   0.000018   0.000000   0.000006
    14  H   -0.000000   0.000000   0.000000   0.000000
    15  H    0.000000   0.000000  -0.000000  -0.000000
    16  H   -0.000000  -0.000000  -0.000000   0.000000
    17  H   -0.000000  -0.000000  -0.000000   0.000000
    18  H   -0.000000   0.000000  -0.000000  -0.000000
    19  H   -0.000000  -0.000000  -0.000000   0.000000
    20  H    0.000000   0.000000  -0.000000  -0.000000
    21  H   -0.000001   0.000000   0.000000   0.000000
    22  H   -0.000005  -0.000001   0.000000  -0.000001
    23  H    0.000000   0.000000  -0.000000   0.000000
    24  H    0.000000   0.000001   0.000000   0.000000
    25  H   -0.000000   0.000000  -0.000000   0.000000
    26  C   -0.000000   0.000000   0.000000   0.000000
    27  Cl  -0.000000  -0.000000  -0.000000   0.000000
    28  H   -0.000000   0.000000  -0.000000   0.000000
    29  H   -0.000000   0.000000   0.000000   0.000000
    30  H    0.000000  -0.000000   0.000000  -0.000000
    31  O   -0.000841   0.000059  -0.000247  -0.000006
    32  O    0.001966  -0.001004   0.000895  -0.000728
    33  C   -0.064913  -0.007559   0.029380  -0.011561
    34  C    0.422747  -0.053159  -0.074131  -0.048812
    35  C   -0.044059   0.408100   0.391058   0.407226
    36  H   -0.021745  -0.003864  -0.002319   0.003432
    37  H    0.459373   0.003435  -0.002335  -0.003900
    38  H    0.003435   0.485087  -0.024718  -0.027014
    39  H   -0.002335  -0.024718   0.489220  -0.024708
    40  H   -0.003900  -0.027014  -0.024708   0.485106
 Mulliken charges:
               1
     1  C   -0.823065
     2  C   -0.331751
     3  C   -0.123353
     4  N   -0.716424
     5  C    0.694961
     6  O   -0.746308
     7  N   -0.681305
     8  C    0.377758
     9  C    0.343259
    10  C   -0.655230
    11  C   -0.161765
    12  C   -0.586647
    13  C   -0.131666
    14  H    0.220868
    15  H    0.218784
    16  H    0.218789
    17  H    0.232583
    18  H    0.232402
    19  H    0.229730
    20  H    0.229008
    21  H    0.488378
    22  H    0.498407
    23  H    0.272217
    24  H    0.261647
    25  H    0.263243
    26  C   -0.825470
    27  Cl   0.169818
    28  H    0.233195
    29  H    0.256203
    30  H    0.256012
    31  O   -0.865306
    32  O   -0.705100
    33  C    0.729507
    34  C   -0.513543
    35  C   -0.720566
    36  H    0.250453
    37  H    0.250329
    38  H    0.221016
    39  H    0.217907
    40  H    0.221022
 Sum of Mulliken charges =  -1.00000
 Mulliken charges with hydrogens summed into heavy atoms:
               1
     1  C   -0.164624
     2  C    0.133234
     3  C    0.335385
     4  N   -0.228045
     5  C    0.694961
     6  O   -0.746308
     7  N   -0.182899
     8  C    0.377758
     9  C    0.615476
    10  C   -0.393583
    11  C    0.101479
    12  C   -0.586647
    13  C   -0.131666
    26  C   -0.080059
    27  Cl   0.169818
    31  O   -0.865306
    32  O   -0.705100
    33  C    0.729507
    34  C   -0.012761
    35  C   -0.060620
 Electronic spatial extent (au):  <R**2>=          10664.6251
 Charge=             -1.0000 electrons
 Dipole moment (field-independent basis, Debye):
    X=             -4.9357    Y=             -0.9106    Z=             -0.0267  Tot=              5.0191
 Quadrupole moment (field-independent basis, Debye-Ang):
   XX=           -169.0536   YY=           -141.1235   ZZ=           -133.5186
   XY=             -6.1246   XZ=             -0.3046   YZ=             -0.3284
 Traceless Quadrupole moment (field-independent basis, Debye-Ang):
   XX=            -21.1551   YY=              6.7751   ZZ=             14.3800
   XY=             -6.1246   XZ=             -0.3046   YZ=             -0.3284
 Octapole moment (field-independent basis, Debye-Ang**2):
  XXX=             -5.2990  YYY=             45.6359  ZZZ=              1.0234  XYY=              3.1951
  XXY=            -64.5262  XXZ=              2.2825  XZZ=             11.9244  YZZ=             -0.4143
[...]
 0000983,-0.00000173,-0.00000520,-0.00001565,0.00000086,-0.00000194,0.0
 0002460,0.00002259,0.00000755,0.00000074,0.00000205,-0.00000175,-0.000
 00031,-0.00000105,-0.00000206,0.00000186,-0.00000150,0.00000084,-0.000
 00099,0.00000188,0.00000005,0.00000075,-0.00000194,0.00000056,0.000000
 04,0.00000062,0.00000190,0.00000048,0.00000007,0.00000026,0.00000012,0
 .00000019,0.00000051,-0.00000039,-0.00000002,0.00000028,-0.00000425,-0
 .00000091,-0.00000044,-0.00000002,-0.00000141,0.00000194,-0.00000193,-
 0.00000049,0.00000276,-0.00000119,0.00000084,-0.00000413,0.00008110,-0
 .00003324,-0.00001691,-0.00001894,-0.00004177,-0.00000001,0.00000013,-
 0.00000003,0.00000071,-0.00000192,0.00000011,-0.00000016,0.00000013,0.
 00000021,-0.00000019,0.00000003,0.00000026,-0.00000097,-0.00000042,0.0
 0000025,-0.00000003,-0.00000022,0.,-0.00000004,-0.00000007,-0.00000006
 ,0.00000010,-0.00000006,-0.00000003,0.00058698,-0.00149682,-0.00019609
 ,-0.00030243,0.00097953,-0.00101226,0.00415679,0.00340214,0.00093219,-
 0.09235496,-0.02686137,-0.08391329,0.01547776,0.00420109,0.00633515,0.
 09904913,0.02914205,0.08946871,0.00000056,-0.00000007,-0.00000061,-0.0
 0000200,-0.00000108,0.00000153,0.00002009,0.00000176,-0.00000237,0.000
 03466,0.00008909,-0.00000959,-0.00010534,-0.00000950,0.00000256,0.0000
 2671,0.00001306,-0.00000401,0.00001364,-0.00011136,0.00000601,0.000020
 66,-0.00000761,-0.00000058,-0.00000623,-0.00000067,-0.00000038,-0.0000
 0265,0.00000571,-0.00000387,-0.00000044,-0.00000040,0.00000054,-0.0000
 0008,-0.00000001,0.00000012,0.00000066,-0.00000161,-0.00000096,-0.0000
 0105,0.00000038,-0.00000016,-0.00000022,0.00000006,-0.00000005,-0.0000
 0031,0.00000045,0.00000023,0.00000046,-0.00000093,0.00000082,-0.000000
 79,0.00000059,-0.00000079,-0.00000315,0.00000314,0.00000043,-0.0000038
 4,0.00000295,-0.00000113,-0.00001160,-0.00016912,0.00002090,-0.0000016
 3,0.00014812,-0.00000397,0.00000037,-0.00000032,0.00000023,-0.00000146
 ,-0.00000121,0.00000302,-0.00000016,-0.00000024,0.00000059,-0.00000043
 ,-0.00000001,0.00000024,-0.00000086,-0.00000018,0.,-0.00000003,-0.0000
 0015,-0.00000013,-0.00000019,-0.00000022,-0.00000004,0.00000004,-0.000
 00005,0.00000006,-0.00053055,0.00207688,-0.00021988,-0.00058900,-0.001
 75318,-0.00079606,-0.00161307,-0.00338479,0.00591213,-0.04417002,0.000
 07496,0.00827759,-0.00104917,-0.00578089,0.02444145,0.00097040,0.00810
 682,-0.02834163,0.04821573,0.00000074,0.00000156,-0.00000263,0.0000034
 0,-0.00000397,0.00000904,-0.00001345,0.00000989,-0.00000458,0.00005108
 ,0.00006239,0.00000915,-0.00021415,0.00008442,-0.00003354,0.00006265,-
 0.00010504,0.00002397,0.00000333,-0.00046662,0.00004057,0.00014524,-0.
 00001592,-0.00002348,-0.00004130,-0.00001622,0.00000530,-0.00002127,0.
 00002590,0.00000784,0.00000199,-0.00000132,-0.00000052,0.00000003,0.00
 000059,-0.00000338,0.00000451,-0.00000452,-0.00000516,0.00000138,-0.00
 000017,0.00000011,0.00000006,0.00000003,0.00000005,0.00000064,-0.00000
 063,-0.00000012,-0.00000008,-0.00000198,-0.00000154,-0.00000280,0.0000
 0133,-0.00000150,0.00000323,-0.00000259,-0.00000114,0.00000441,-0.0000
 0179,0.00000093,-0.00005976,0.00004684,-0.00000835,0.00004274,0.000761
 28,-0.00003624,0.00000144,0.00000061,0.00000048,-0.00000400,-0.0000124
 5,0.00000417,-0.00000301,-0.00000059,0.00000155,-0.00000302,0.00000031
 ,0.00000174,-0.00001118,-0.00000357,0.00000229,-0.00000080,-0.00000186
 ,-0.00000056,-0.00000095,-0.00000164,-0.00000046,0.00000047,-0.0000005
 7,-0.00000029,-0.00132916,0.00007779,-0.00331704,-0.00430013,-0.006250
 61,-0.00196792,0.00254076,-0.00557093,0.03511638,0.00095731,-0.0626356
 3,0.06536088,0.00046852,0.00378933,-0.01869502,0.00049780,0.00214025,-
 0.00874574,-0.00079571,0.06844032,0.00000061,-0.00000014,0.00000036,-0
 .00000029,0.00000256,-0.00000365,-0.00000451,-0.00000287,-0.00000057,-
 0.00002979,-0.00003315,-0.00000372,0.00008850,-0.00000980,0.00000082,-
 0.00002285,0.00001156,-0.00000259,0.00000279,0.00010900,0.00000342,-0.
 00003514,0.00001208,0.00000072,0.00001138,0.00000265,-0.00000034,0.000
 00397,-0.00000814,-0.00000182,0.00000004,-0.00000003,0.00000074,-0.000
 00011,-0.00000028,0.00000258,-0.00000087,0.00000203,0.00000063,-0.0000
 0097,-0.00000062,-0.00000013,0.00000033,-0.00000056,0.00000033,-0.0000
 0016,0.00000046,0.00000032,0.00000088,-0.00000125,-0.00000005,0.000000
 05,-0.00000043,0.00000274,0.00000058,-0.00000081,0.00000055,-0.0000001
 7,-0.00000165,0.00000094,0.00001750,0.00009286,0.00000761,-0.00003158,
 -0.00016162,-0.00002435,-0.00000036,0.00000034,-0.00000039,0.00000121,
 0.00000334,-0.00000137,0.00000037,-0.00000015,-0.00000068,0.00000090,-
 0.00000037,-0.00000026,0.00000276,0.00000106,-0.00000089,0.00000017,0.
 00000061,0.00000021,0.00000056,0.00000063,0.00000031,-0.00000034,0.000
 00037,0.00000006,0.00010952,-0.00094007,0.00151349,-0.00044577,0.00144
 614,0.00017555,0.00120752,-0.00106676,-0.00288471,0.00722679,0.0634770
 0,-0.29987171,0.00026139,0.00248636,-0.01287641,0.00010637,0.00323007,
 -0.01220037,-0.01067395,-0.06697967,0.32485097,0.00000002,-0.00000090,
 -0.00000029,-0.00000039,0.00000178,0.00000186,0.00000765,-0.00000044,-
 0.00000011,-0.00000087,0.00002771,-0.00001039,-0.00000180,-0.00000932,
 0.00000520,0.00000007,0.00001440,-0.00000421,0.00000389,0.00002785,-0.
 00000058,-0.00000901,-0.00000007,0.00000013,0.00000274,0.00000128,-0.0
 0000050,0.00000187,-0.00000118,-0.00000198,0.00000086,0.00000076,-0.00
 000004,-0.00000107,0.00000034,0.00000137,-0.00000009,0.00000020,0.0000
 0129,-0.00000040,0.00000013,0.00000018,-0.00000026,0.00000046,-0.00000
 026,0.00000005,-0.00000006,-0.00000008,-0.00000040,-0.00000036,-0.0000
 0015,0.00000015,-0.00000054,-0.00000117,-0.00000171,0.00000113,0.00000
 009,-0.00000185,0.00000164,-0.00000059,0.00000525,-0.00005144,0.000012
 58,-0.00000728,-0.00004159,-0.00000441,0.00000001,0.00000007,0.0000001
 1,-0.00000007,-0.00000012,-0.00000034,-0.00000020,-0.00000054,-0.00000
 036,0.00000037,0.00000006,-0.00000041,0.00000127,0.00000047,-0.0000005
 1,0.00000017,0.00000028,0.00000005,0.00000016,0.00000023,0.00000006,-0
 .00000013,0.00000018,0.00000009,-0.00011948,0.00027245,-0.00020436,0.0
 0029723,0.00044365,-0.00033192,0.00037567,-0.00128836,-0.00010095,-0.0
 0072925,-0.00584058,0.02543094,-0.04839681,-0.00157178,0.00344477,0.00
 099958,-0.00089511,-0.00047592,-0.00304087,0.00324908,0.00241687,0.050
 05775,-0.00000002,-0.00000022,0.00000061,0.00000023,0.00000017,-0.0000
 0122,0.00000026,-0.00000079,-0.00000043,-0.00000331,-0.00000792,0.0000
 0125,0.00001620,-0.00000612,0.00000059,-0.00000461,0.00000615,-0.00000
 015,0.00000094,0.00002879,-0.00000021,-0.00000875,0.00000250,-0.000000
 03,0.00000236,0.00000010,-0.00000042,0.00000100,-0.00000441,0.00000012
 ,-0.00000065,0.00000101,-0.00000105,-0.00000067,0.00000050,0.00000112,
 0.00000017,-0.00000049,0.00000274,-0.00000023,-0.00000003,0.,0.0000001
 3,-0.00000013,0.00000004,-0.00000010,0.00000005,0.00000003,0.00000054,
 -0.00000019,-0.00000013,0.00000002,0.00000019,0.00000080,0.00000009,0.
 00000014,0.00000015,-0.00000031,-0.00000015,0.00000008,0.00000080,0.00
 000736,0.00000151,-0.00000845,-0.00004794,-0.00000279,-0.00000006,-0.0
 0000001,-0.00000004,-0.00000170,0.00000181,-0.00000083,0.00000025,-0.0
 0000019,-0.00000010,0.00000029,0.00000009,-0.00000096,0.00000100,0.000
 00054,-0.00000046,0.00000002,0.00000009,-0.00000004,0.00000007,0.00000
 033,0.00000016,0.00000001,0.00000004,0.00000003,0.00013489,0.00005419,
 0.00023387,0.00024468,-0.00019090,-0.00037136,-0.00081709,0.00030813,-
 0.00032859,-0.00008192,0.00370973,-0.01806858,-0.00158847,-0.06033857,
 0.05922957,-0.00060980,0.00056544,0.00063455,0.00265815,-0.00150582,-0
 .00172513,-0.00083367,0.06198663,-0.00000087,0.00000086,-0.00000048,0.
 00000004,-0.00000217,-0.00000219,-0.00000732,-0.00000020,-0.00000048,-
 0.00000584,-0.00004120,0.00002094,0.00002300,0.00000259,-0.00000755,-0
 .00000622,-0.00001099,0.00000346,-0.00000412,0.00000029,0.00000228,0.0
 0000683,0.00000401,0.00000120,-0.00000116,-0.00000075,0.00000254,-0.00
 000205,-0.00000075,0.00000173,0.00000024,-0.00000090,0.00000139,-0.000
 00130,-0.00000005,0.00000086,0.00000083,0.00000105,-0.00000314,0.00000
 051,0.00000020,-0.00000024,0.00000059,-0.00000078,0.00000095,0.0000000
 4,0.00000005,-0.00000005,0.00000046,0.00000164,0.00000060,-0.00000011,
 0.00000066,0.00000179,0.00000125,-0.00000082,-0.00000001,0.00000202,-0
 .00000233,0.00000143,-0.00000162,0.00006658,-0.00002748,-0.00000880,0.
 ,0.00000175,0.00000005,0.00000054,-0.00000017,-0.00000154,-0.00000292,
 -0.00000322,-0.00000148,0.00000048,-0.00000012,0.00000033,0.00000002,0
 .00000044,0.00000070,0.00000031,0.00000003,-0.00000028,0.00000004,0.00
 000031,0.00000008,0.00000020,0.00000003,0.00000009,0.00000020,-0.00000
 015,-0.00014844,-0.00070695,0.00018861,-0.00098474,0.00033374,0.001156
 80,0.00098605,0.00188690,-0.00057169,0.00006780,0.00263076,-0.01385760
 ,0.00446630,0.05720452,-0.30886525,0.00008582,0.00004706,0.00080028,0.
 00266225,-0.00182942,0.00006667,-0.00738078,-0.06309222,0.33377186,0.0
 0000067,-0.00000155,-0.00000012,-0.00000312,0.00000261,0.00000261,0.00
 003324,-0.00000191,-0.00000500,0.00002497,0.00015682,-0.00006263,-0.00
 007305,-0.00003750,0.00001110,0.00001750,0.00005567,-0.00001235,0.0000
 2746,0.00004505,0.00000245,-0.00003204,-0.00000603,0.00000454,0.000008
 36,0.00000458,-0.00000111,0.00000685,-0.00000096,-0.00000069,-0.000000
 28,-0.00000092,0.00000097,0.00000106,0.,-0.00000043,-0.00000158,0.0000
 0022,0.00000038,-0.00000167,0.00000041,0.00000007,-0.00000067,0.000000
 85,-0.00000057,-0.00000047,0.00000066,0.00000018,0.00000022,-0.0000009
 7,0.00000192,-0.00000039,-0.00000139,-0.00000269,-0.00000597,0.0000055
 1,0.00000052,-0.00000817,0.00000634,-0.00000235,0.00001075,-0.00024665
 ,0.00010183,-0.00001277,-0.00008360,-0.00000261,-0.00000022,-0.0000008
 3,-0.00000026,-0.00000052,0.00000302,-0.00000149,0.00000118,0.00000018
 ,-0.00000048,0.00000041,-0.00000012,-0.00000005,0.00000199,0.00000047,
 -0.00000036,0.00000013,0.00000018,0.00000007,0.00000013,0.00000021,0.0
 0000001,-0.00000003,0.,0.,-0.00078769,0.00313665,0.00054461,0.00106934
 ,-0.00009355,-0.00054155,-0.00383030,-0.00156785,0.00296655,0.00402195
 ,0.02650373,-0.00335523,-0.05501852,-0.04451380,0.00393825,0.00094029,
 -0.00060105,-0.00074315,0.00085352,-0.00081682,-0.00029924,-0.00112806
 ,0.00031425,-0.00018479,0.05726367,-0.00000163,0.00000195,-0.00000012,
 0.00000384,-0.00000483,-0.00000236,-0.00003888,0.00000556,0.00000437,-
 0.00001702,-0.00014695,0.00005925,0.00003665,0.00006448,-0.00001774,-0
 .00000657,-0.00008180,0.00002012,-0.00003577,-0.00012216,-0.00000333,0
 .00005535,0.00000208,-0.00001261,-0.00001494,-0.00000784,0.00000295,-0
 .00001015,0.00000390,0.00000574,0.00000084,0.00000016,-0.00000189,0.00
 000125,-0.00000128,-0.00000067,0.00000142,-0.00000043,-0.00000138,0.00
 000280,0.00000019,-0.00000019,0.00000098,-0.00000104,0.00000115,0.0000
 0087,-0.00000123,-0.00000058,-0.00000051,0.00000092,-0.00000201,0.0000
 0007,0.00000193,0.00000277,0.00000731,-0.00000688,-0.00000111,0.000009
 24,-0.00000709,0.00000302,-0.00002418,0.00028051,-0.00010400,0.0000514
 5,0.00023213,0.00000666,0.00000042,0.00000081,-0.00000006,0.00000038,-
 0.00000126,0.00000020,-0.00000144,0.00000031,0.00000048,-0.00000149,0.
 00000053,0.00000065,-0.00000608,-0.00000181,0.00000098,-0.00000037,-0.
 00000099,0.,-0.00000048,-0.00000086,-0.00000042,0.00000034,-0.00000049
 ,-0.00000023,0.00110661,-0.00279116,-0.00070246,0.00005992,-0.00118396
 ,-0.00005770,0.00194789,0.00306196,-0.00120512,-0.00401127,-0.01532334
 ,0.00258960,-0.04301457,-0.31081236,0.02794606,0.00007517,0.00060557,0
 .00040044,-0.00033578,0.00060380,-0.00022885,-0.00093005,-0.00544567,0
 .00070540,0.04611533,0.33656591,-0.00000032,0.00000088,0.00000016,0.00
 000210,-0.00000166,-0.00000208,-0.00002020,0.00000163,0.00000240,-0.00
 001685,-0.00009739,0.00004307,0.00004362,0.00002194,-0.00000688,-0.000
 01065,-0.00003457,0.00000765,-0.00001398,-0.00002619,0.00000311,0.0000
 1848,0.00000351,-0.00000329,-0.00000497,-0.00000238,0.00000045,-0.0000
 0370,0.00000104,0.00000102,0.00000038,0.00000039,0.00000021,-0.0000003
 4,0.00000018,-0.00000025,0.00000077,-0.00000028,0.00000017,0.00000093,
 -0.00000021,0.00000006,0.00000047,-0.00000052,0.00000039,0.00000027,-0
 .00000046,-0.00000010,0.00000036,0.00000076,-0.00000131,0.00000003,0.0
 0000121,0.00000205,0.00000330,-0.00000331,-0.00000023,0.00000520,-0.00
 000405,0.00000143,-0.00000477,0.00015921,-0.00006739,0.00000571,0.0000
 4755,0.00000012,0.00000008,0.00000053,0.00000007,-0.00000062,-0.000000
 82,-0.00000122,-0.00000059,-0.00000010,0.00000007,-0.00000025,0.000000
 05,0.,-0.00000132,-0.00000033,0.00000019,-0.00000009,-0.00000015,-0.00
 000003,-0.00000004,-0.00000016,0.,0.00000003,0.,-0.00000003,0.00053708
 ,-0.00198943,-0.00026912,-0.00058067,0.00006460,0.00059078,0.00298981,
 0.00100470,-0.00108207,-0.00324646,-0.01689957,0.00098755,0.00393924,0
 .02889148,-0.05153617,-0.00026831,0.00063078,0.00036086,-0.00078644,0.
 00028178,0.00044519,0.00558758,0.03147928,-0.00138401,-0.00693810,-0.0
 2997299,0.05097088,0.00000086,-0.00000004,0.00000048,-0.00000102,-0.00
 000048,-0.00000132,0.00000728,0.00000016,-0.00000215,0.00000626,0.0000
 4723,-0.00001139,-0.00002938,-0.00000635,0.00000426,0.00000643,0.00001
 408,-0.00000304,0.00000882,0.00001278,0.00000470,-0.00001353,-0.000000
 90,-0.00000600,0.00000342,0.00000087,0.00000078,0.00000458,-0.00000180
 ,0.00000551,-0.00000149,0.00000083,-0.00000097,0.00000261,-0.00000059,
 0.00000081,-0.00000126,0.00000082,-0.00000012,-0.00000011,-0.00000011,
 -0.00000014,-0.00000033,0.00000022,-0.00000046,-0.00000051,0.00000088,
 0.00000045,0.00000029,0.00000004,0.00000229,-0.00000030,-0.00000124,-0
 .00000118,-0.00000133,0.00000227,0.00000059,-0.00000169,0.00000151,-0.
 00000099,0.00000837,-0.00006240,0.00001783,-0.00000155,-0.00002387,-0.
 00001037,-0.00000031,-0.00000010,-0.00000058,-0.00000070,0.00000740,-0
 .00000280,0.00000180,-0.00000047,-0.00000126,-0.00000025,-0.00000014,0
 .00000004,-0.00000044,0.00000013,-0.00000011,0.00000002,-0.00000012,-0
 .00000004,0.00000044,0.00000007,0.00000022,-0.00000014,-0.00000004,-0.
 00000004,0.00025341,0.00074122,0.00003185,0.00141715,-0.00009828,-0.00
 040264,-0.00067828,-0.00225631,0.00047564,-0.02123738,-0.00491698,-0.0
 0952600,-0.26506246,-0.05294762,-0.09640213,-0.00246607,0.00304556,0.0
 0295407,0.00097759,-0.00042324,0.00008504,0.00168522,0.00058346,0.0004
 3620,-0.00337817,-0.00102697,-0.00123681,0.28849218,0.,-0.00000035,0.0
 0000005,0.00000003,0.00000094,0.00000062,0.00000257,-0.00000056,0.0000
 0110,-0.00000165,0.00000600,-0.00000133,0.00001365,-0.00000744,0.00000
 232,-0.00000313,0.00000853,-0.00000359,-0.00000220,0.00002755,0.000002
 26,-0.00000352,0.00000050,0.00000533,0.00000165,0.00000067,-0.00000134
 ,-0.00000100,-0.00000203,-0.00000671,-0.00000179,0.00000038,0.00000321
 ,-0.00000184,0.00000122,-0.00000164,0.00000057,-0.00000014,-0.00000010
 ,-0.00000024,0.00000006,-0.00000001,0.,0.00000003,0.00000004,0.0000000
 6,-0.00000014,-0.00000008,-0.00000018,-0.00000029,-0.00000047,-0.00000
 011,0.00000014,-0.00000006,-0.00000037,0.00000024,0.00000012,-0.000000
 88,0.00000015,-0.00000030,-0.00000240,-0.00000650,0.00000430,-0.000011
 03,-0.00004506,-0.00000718,0.,0.00000010,0.00000022,0.00000110,0.00000
 238,0.00000381,-0.00000024,-0.00000043,0.00000020,0.00000039,-0.000000
 08,-0.00000008,0.00000185,0.00000071,0.00000014,0.00000009,0.00000040,
 0.00000004,-0.00000001,0.00000021,0.00000014,-0.00000008,0.00000014,0.
 00000015,-0.00014740,0.00005213,-0.00024691,0.00053957,-0.00016441,-0.
 00005075,-0.00004919,0.00034735,0.00090595,0.01635647,0.00373227,0.007
 73151,-0.05493334,-0.06052392,-0.02384486,0.00271640,-0.00150745,-0.00
 168123,-0.00082704,0.00055781,0.00028322,0.00742195,0.00087557,0.00280
 436,-0.02837727,-0.00548928,-0.01355693,0.05730853,0.06213263,0.000000
 33,0.00000021,-0.00000035,0.00000019,-0.00000059,0.00000042,-0.0000021
 3,0.00000047,0.00000023,0.00000682,-0.00000107,-0.00000280,-0.00001346
 ,0.00000705,-0.00000235,0.00000358,-0.00000720,0.00000266,0.00000030,-
 0.00002229,-0.00000142,0.00000381,-0.00000213,0.00000045,-0.00000131,-
 0.00000079,-0.00000025,0.00000002,0.00000312,0.00000074,-0.00000106,-0
 .00000065,0.00000126,0.00000209,-0.00000003,-0.00000152,-0.00000073,-0
 .00000036,-0.00000035,0.00000004,-0.00000012,0.,0.00000002,-0.00000007
 ,0.00000008,0.00000002,0.00000003,0.00000007,-0.00000004,0.00000042,-0
 .00000002,-0.00000008,0.00000032,0.00000034,0.00000068,-0.00000054,-0.
 00000006,0.00000064,-0.00000068,0.00000019,-0.00000593,0.00000882,0.00
 000185,0.00000777,0.00004095,-0.00000154,-0.00000008,-0.00000033,-0.00
 000018,-0.00000060,0.00000275,-0.00000155,0.00000140,0.00000040,-0.000
 00049,-0.00000036,-0.00000013,0.00000027,-0.00000169,-0.00000059,0.000
 00021,-0.00000006,-0.00000030,-0.00000011,-0.00000002,-0.00000035,0.,0
 .00000006,-0.00000026,-0.00000005,-0.00003123,0.00005508,-0.00020763,0
 .00018802,-0.00054947,-0.00003578,-0.00059535,0.00040083,0.00053789,0.
 01581314,0.00419288,0.00671301,-0.09738849,-0.02297650,-0.09153491,0.0
 0271172,-0.00216967,-0.00054013,-0.00048410,0.00079207,0.00079982,-0.0
 2838286,-0.00799175,-0.01130212,0.00457920,0.00056599,0.00093628,0.103
 58976,0.02765449,0.09463784\\-0.00000224,-0.00000051,-0.00000148,0.000
 00299,-0.00000304,-0.00000087,0.00000065,-0.00000130,-0.00000478,0.000
 00079,0.00001118,0.00000669,-0.00000384,-0.00000731,-0.00000180,0.0000
 0282,0.00000571,0.00000030,0.00000479,0.00000774,-0.00000070,0.0000005
 3,-0.00000335,-0.00000471,0.00000341,0.00000181,0.00000301,-0.00000306
 ,0.00000316,0.00000160,0.00000201,0.00000611,0.00000301,0.00000586,-0.
 00000583,-0.00000225,-0.00001503,0.00000733,0.00000752,0.00000029,-0.0
 0000289,-0.00000234,-0.00000026,-0.00000204,-0.00000063,-0.00000117,-0
 .00000348,-0.00000115,-0.00000057,-0.00000051,-0.00000158,-0.00000065,
 -0.00000177,-0.00000171,-0.00000170,-0.00000224,-0.00000015,-0.0000001
 4,-0.00000134,0.00000024,0.00000020,-0.00001021,0.00000082,0.00000073,
 -0.00000978,0.00000332,-0.00000385,0.00000108,0.00000160,-0.00000164,0
 .00000137,0.00000047,0.00000096,0.00000283,0.00000152,0.00000018,0.000
 00021,0.00000460,-0.00000207,0.00000256,0.00000360,-0.00000174,0.00000
 219,0.00000363,-0.00000214,0.00000186,0.00000231,-0.00000205,0.0000013
 7,0.00000179,0.00000363,0.00000158,-0.00000345,0.00000160,0.00000312,-
 0.00000344,-0.00000295,-0.00000747,-0.00000051,-0.00000045,0.00000314,
 0.00000156,0.00000277,-0.00000089,-0.00000317,0.00000272,-0.00000039,-
 0.00000367,0.00000194,-0.00000103,-0.00000363,0.00000244,0.00000061,-0
 .00000119,0.00000286,0.00000039,-0.00000276,0.00000141,0.00000001,-0.0
 0000164\\\@


 THE THINKER DIES, BUT HIS THOUGHTS ARE BEYOND THE 
 REACH OF DESTRUCTION.  MEN ARE MORTAL; BUT IDEAS 
 ARE IMMORTAL.
                              -- WALTER LIPPMANN
 Job cpu time:       0 days  6 hours  0 minutes 52.9 seconds.
 File lengths (MBytes):  RWF=    942 Int=      0 D2E=      0 Chk=     24 Scr=      1
 Normal termination of Gaussian 09 at Tue Feb 19 19:30:37 2019.
WARNING: pbs_rusage is deprecated and values produced may not be accurate


=============================================================================
                                     Resource usage:
                                       CPU time:              35:46:24
   JobId:    5877757.r-man2            Elapsed time:          08:59:11
   Project:             q95            Requested time:        40:00:00
   Service Units:     35.95 
                                       Max physical memory:     1126MB
                                       Max virtual memory:      2387MB
                                       Requested memory:           0MB

                                       Number of cpus:               4

                                       Max jobfs disk use:       0.9GB
                                       Requested jobfs:         20.0GB
=============================================================================

