 Entering Gaussian System, Link 0=/apps/gaussian/g09e01/g09/g09
 AtFile(1): /home/507/hio507/Basis/6-31pGd.gbs
 Initial command:
 /apps/gaussian/g09e01/g09/l1.exe "/jobfs/local/6061028.r-man2/Gau-17885.inp" -scrdir="/jobfs/local/6061028.r-man2/"
 Entering Link 1 = /apps/gaussian/g09e01/g09/l1.exe PID=     17886.
  
 Copyright (c) 1988,1990,1992,1993,1995,1998,2003,2009,2015,
            Gaussian, Inc.  All Rights Reserved.
  
 This is part of the Gaussian(R) 09 program.  It is based on
 the Gaussian(R) 03 system (copyright 2003, Gaussian, Inc.),
 the Gaussian(R) 98 system (copyright 1998, Gaussian, Inc.),
 the Gaussian(R) 94 system (copyright 1995, Gaussian, Inc.),
 the Gaussian 92(TM) system (copyright 1992, Gaussian, Inc.),
 the Gaussian 90(TM) system (copyright 1990, Gaussian, Inc.),
 the Gaussian 88(TM) system (copyright 1988, Gaussian, Inc.),
 the Gaussian 86(TM) system (copyright 1986, Carnegie Mellon
 University), and the Gaussian 82(TM) system (copyright 1983,
 Carnegie Mellon University). Gaussian is a federally registered
 trademark of Gaussian, Inc.
  
 This software contains proprietary and confidential information,
 including trade secrets, belonging to Gaussian, Inc.
  
 This software is provided under written license and may be
 used, copied, transmitted, or stored only in accord with that
 written license.
  
 The following legend is applicable only to US Government
 contracts under FAR:
  
                    RESTRICTED RIGHTS LEGEND
  
 Use, reproduction and disclosure by the US Government is
 subject to restrictions as set forth in subparagraphs (a)
 and (c) of the Commercial Computer Software - Restricted
 Rights clause in FAR 52.227-19.
  
 Gaussian, Inc.
 340 Quinnipiac St., Bldg. 40, Wallingford CT 06492
  
  
 ---------------------------------------------------------------
 Warning -- This program may not be used in any manner that
 competes with the business of Gaussian, Inc. or will provide
 assistance to any competitor of Gaussian, Inc.  The licensee
 of this program is prohibited from giving any competitor of
 Gaussian, Inc. access to this program.  By using this program,
 the user acknowledges that Gaussian, Inc. is engaged in the
 business of creating and licensing software in the field of
 computational chemistry and represents and warrants to the
 licensee that it is not a competitor of Gaussian, Inc. and that
 it will not use this program in any manner prohibited above.
 ---------------------------------------------------------------
  

 Cite this work as:
 Gaussian 09, Revision E.01,
 M. J. Frisch, G. W. Trucks, H. B. Schlegel, G. E. Scuseria, 
 M. A. Robb, J. R. Cheeseman, G. Scalmani, V. Barone, B. Mennucci, 
 G. A. Petersson, H. Nakatsuji, M. Caricato, X. Li, H. P. Hratchian, 
 A. F. Izmaylov, J. Bloino, G. Zheng, J. L. Sonnenberg, M. Hada, 
 M. Ehara, K. Toyota, R. Fukuda, J. Hasegawa, M. Ishida, T. Nakajima, 
 Y. Honda, O. Kitao, H. Nakai, T. Vreven, J. A. Montgomery, Jr., 
 J. E. Peralta, F. Ogliaro, M. Bearpark, J. J. Heyd, E. Brothers, 
 K. N. Kudin, V. N. Staroverov, T. Keith, R. Kobayashi, J. Normand, 
 K. Raghavachari, A. Rendell, J. C. Burant, S. S. Iyengar, J. Tomasi, 
 M. Cossi, N. Rega, J. M. Millam, M. Klene, J. E. Knox, J. B. Cross, 
 V. Bakken, C. Adamo, J. Jaramillo, R. Gomperts, R. E. Stratmann, 
 O. Yazyev, A. J. Austin, R. Cammi, C. Pomelli, J. W. Ochterski, 
 R. L. Martin, K. Morokuma, V. G. Zakrzewski, G. A. Voth, 
 P. Salvador, J. J. Dannenberg, S. Dapprich, A. D. Daniels, 
 O. Farkas, J. B. Foresman, J. V. Ortiz, J. Cioslowski, 
 and D. J. Fox, Gaussian, Inc., Wallingford CT, 2013.
 
 ******************************************
 Gaussian 09:  ES64L-G09RevE.01 30-Nov-2015
                24-Feb-2019 
 ******************************************
 %chk=3Methyl4Chloro.M062X_6-31pGd_opt_Pentadecane.chk
 %mem=196608000
 %nproc=4
 Will use up to    4 processors via shared memory.
 ----------------------------------------------------------------------
 # M062X/Gen 6D SCF=Tight INT(grid=ultrafine) OPT IOP(2/17=4) SCRF=(SMD
 ,Solvent=n-Pentadecane) maxdisk=1610612736
 ----------------------------------------------------------------------
 1/14=-1,18=20,19=15,26=4,38=1/1,3;
 2/9=110,12=2,17=4,18=5,40=1/2;
 3/5=7,8=2,11=2,16=1,25=1,30=1,70=32201,71=1,72=151,74=-55,75=-5/1,2,3;
 4//1;
 5/5=2,32=2,38=5,53=151/2;
 6/7=2,8=2,9=2,10=2,28=1/1;
 7//1,2,3,16;
 1/14=-1,18=20,19=15,26=4/3(2);
 2/9=110,17=4/2;
 99//99;
 2/9=110,17=4/2;
 3/5=7,6=1,8=2,11=2,16=1,25=1,30=1,70=32205,71=1,72=151,74=-55,75=-5,82=7/1,2,3;
 4/5=5,16=3,69=1/1;
 5/5=2,32=2,38=5,53=151/2;
 7//1,2,3,16;
 1/14=-1,18=20,19=15,26=4/3(-5);
 2/9=110,17=4/2;
 6/7=2,8=2,9=2,10=2,19=2,28=1/1;
 99/9=1/99;
 --------------------------------------------
 3Methyl4Chloro.M062X_6-31pGd_opt_Pentadecane
 --------------------------------------------
 Symbolic Z-matrix:
 Charge =  0 Multiplicity = 1
 C                    -1.74362   1.89621   0.31924 
 C                    -0.40412   1.18878   0.13579 
 C                     0.75324   2.19329   0.09478 
 N                     2.02542   1.51514  -0.08465 
 C                     3.20259   2.19955  -0.1513 
 O                     3.19056   3.41631  -0.05608 
 N                     4.37271   1.51022  -0.32652 
 C                     5.70904   2.03839  -0.42199 
 C                     6.04036   3.41144  -0.32138 
 C                     6.75683   1.1235   -0.62861 
 C                     8.08002   1.54948  -0.73359 
 C                     8.39945   2.90392  -0.63427 
 C                     7.37353   3.84892  -0.42547 
 H                    -2.56078   1.14488   0.34569 
 H                    -1.92991   2.59458  -0.5244 
 H                    -1.75251   2.46539   1.27317 
 H                    -0.42852   0.61213  -0.81451 
 H                    -0.25089   0.48136   0.97977 
 H                     0.77417   2.76599   1.0483 
 H                     0.59374   2.90048  -0.74907 
 H                     2.03761   0.4861   -0.165 
 H                     4.28805   0.48444  -0.40323 
 H                     5.30036   4.1739   -0.16131 
 H                     6.54814   0.06395  -0.71107 
 H                     8.86204   0.81773  -0.8936 
 C                     7.64779   5.32579  -0.30715 
 Cl                    10.09472   3.36002  -0.77748 
 H                     8.72136   5.58012  -0.40092 
 H                     7.29765   5.68901   0.68212 
 H                     7.09863   5.8694   -1.10466 
 

 GradGradGradGradGradGradGradGradGradGradGradGradGradGradGradGradGradGrad
 Berny optimization.
 Initialization pass.
                           ----------------------------
                           !    Initial Parameters    !
                           ! (Angstroms and Degrees)  !
 --------------------------                            --------------------------
 ! Name  Definition              Value          Derivative Info.                !
 --------------------------------------------------------------------------------
 ! R1    R(1,2)                  1.5259         estimate D2E/DX2                !
 ! R2    R(1,14)                 1.1104         estimate D2E/DX2                !
 ! R3    R(1,15)                 1.1109         estimate D2E/DX2                !
 ! R4    R(1,16)                 1.1109         estimate D2E/DX2                !
 ! R5    R(2,3)                  1.533          estimate D2E/DX2                !
 ! R6    R(2,17)                 1.1118         estimate D2E/DX2                !
 ! R7    R(2,18)                 1.1119         estimate D2E/DX2                !
 ! R8    R(3,4)                  1.4528         estimate D2E/DX2                !
 ! R9    R(3,19)                 1.1125         estimate D2E/DX2                !
 ! R10   R(3,20)                 1.1125         estimate D2E/DX2                !
 ! R11   R(4,5)                  1.3633         estimate D2E/DX2                !
 ! R12   R(4,21)                 1.0322         estimate D2E/DX2                !
 ! R13   R(5,6)                  1.2205         estimate D2E/DX2                !
 ! R14   R(5,7)                  1.3693         estimate D2E/DX2                !
 ! R15   R(7,8)                  1.4401         estimate D2E/DX2                !
 ! R16   R(7,22)                 1.0321         estimate D2E/DX2                !
 ! R17   R(8,9)                  1.416          estimate D2E/DX2                !
 ! R18   R(8,10)                 1.4063         estimate D2E/DX2                !
 ! R19   R(9,13)                 1.407          estimate D2E/DX2                !
 ! R20   R(9,23)                 1.0745         estimate D2E/DX2                !
 ! R21   R(10,11)                1.394          estimate D2E/DX2                !
 ! R22   R(10,24)                1.0831         estimate D2E/DX2                !
 ! R23   R(11,12)                1.3951         estimate D2E/DX2                !
 ! R24   R(11,25)                1.0829         estimate D2E/DX2                !
 ! R25   R(12,13)                1.4104         estimate D2E/DX2                !
 ! R26   R(12,27)                1.7614         estimate D2E/DX2                !
 ! R27   R(13,26)                1.5068         estimate D2E/DX2                !
 ! R28   R(26,28)                1.1073         estimate D2E/DX2                !
 ! R29   R(26,29)                1.1105         estimate D2E/DX2                !
 ! R30   R(26,30)                1.1105         estimate D2E/DX2                !
 ! A1    A(2,1,14)             109.5842         estimate D2E/DX2                !
 ! A2    A(2,1,15)             110.3255         estimate D2E/DX2                !
 ! A3    A(2,1,16)             110.3534         estimate D2E/DX2                !
 ! A4    A(14,1,15)            108.6657         estimate D2E/DX2                !
 ! A5    A(14,1,16)            108.684          estimate D2E/DX2                !
 ! A6    A(15,1,16)            109.1886         estimate D2E/DX2                !
 ! A7    A(1,2,3)              111.2329         estimate D2E/DX2                !
 ! A8    A(1,2,17)             108.9015         estimate D2E/DX2                !
 ! A9    A(1,2,18)             108.9472         estimate D2E/DX2                !
 ! A10   A(3,2,17)             109.4838         estimate D2E/DX2                !
 ! A11   A(3,2,18)             109.4608         estimate D2E/DX2                !
 ! A12   A(17,2,18)            108.7732         estimate D2E/DX2                !
 ! A13   A(2,3,4)              111.0106         estimate D2E/DX2                !
 ! A14   A(2,3,19)             109.1832         estimate D2E/DX2                !
 ! A15   A(2,3,20)             109.1825         estimate D2E/DX2                !
 ! A16   A(4,3,19)             109.25           estimate D2E/DX2                !
 ! A17   A(4,3,20)             109.1839         estimate D2E/DX2                !
 ! A18   A(19,3,20)            109.0012         estimate D2E/DX2                !
 ! A19   A(3,4,5)              121.859          estimate D2E/DX2                !
 ! A20   A(3,4,21)             119.0325         estimate D2E/DX2                !
 ! A21   A(5,4,21)             119.1084         estimate D2E/DX2                !
 ! A22   A(4,5,6)              119.2187         estimate D2E/DX2                !
 ! A23   A(4,5,7)              119.4318         estimate D2E/DX2                !
 ! A24   A(6,5,7)              121.3493         estimate D2E/DX2                !
 ! A25   A(5,7,8)              128.0832         estimate D2E/DX2                !
 ! A26   A(5,7,22)             116.0868         estimate D2E/DX2                !
 ! A27   A(8,7,22)             115.8296         estimate D2E/DX2                !
 ! A28   A(7,8,9)              124.6134         estimate D2E/DX2                !
 ! A29   A(7,8,10)             117.5508         estimate D2E/DX2                !
 ! A30   A(9,8,10)             117.8357         estimate D2E/DX2                !
 ! A31   A(8,9,13)             121.1946         estimate D2E/DX2                !
 ! A32   A(8,9,23)             122.5133         estimate D2E/DX2                !
 ! A33   A(13,9,23)            116.292          estimate D2E/DX2                !
 ! A34   A(8,10,11)            121.298          estimate D2E/DX2                !
 ! A35   A(8,10,24)            120.2705         estimate D2E/DX2                !
 ! A36   A(11,10,24)           118.4315         estimate D2E/DX2                !
 ! A37   A(10,11,12)           120.5723         estimate D2E/DX2                !
 ! A38   A(10,11,25)           119.3478         estimate D2E/DX2                !
 ! A39   A(12,11,25)           120.0799         estimate D2E/DX2                !
 ! A40   A(11,12,13)           119.6357         estimate D2E/DX2                !
 ! A41   A(11,12,27)           117.7729         estimate D2E/DX2                !
 ! A42   A(13,12,27)           122.5914         estimate D2E/DX2                !
 ! A43   A(9,13,12)            119.4636         estimate D2E/DX2                !
 ! A44   A(9,13,26)            118.127          estimate D2E/DX2                !
 ! A45   A(12,13,26)           122.4093         estimate D2E/DX2                !
 ! A46   A(13,26,28)           113.2637         estimate D2E/DX2                !
 ! A47   A(13,26,29)           109.4603         estimate D2E/DX2                !
 ! A48   A(13,26,30)           109.476          estimate D2E/DX2                !
 ! A49   A(28,26,29)           107.8197         estimate D2E/DX2                !
 ! A50   A(28,26,30)           107.8318         estimate D2E/DX2                !
 ! A51   A(29,26,30)           108.8893         estimate D2E/DX2                !
 ! D1    D(14,1,2,3)          -179.9698         estimate D2E/DX2                !
 ! D2    D(14,1,2,17)           59.2821         estimate D2E/DX2                !
 ! D3    D(14,1,2,18)          -59.2205         estimate D2E/DX2                !
 ! D4    D(15,1,2,3)            60.424          estimate D2E/DX2                !
 ! D5    D(15,1,2,17)          -60.3241         estimate D2E/DX2                !
 ! D6    D(15,1,2,18)         -178.8267         estimate D2E/DX2                !
 ! D7    D(16,1,2,3)           -60.3236         estimate D2E/DX2                !
 ! D8    D(16,1,2,17)          178.9283         estimate D2E/DX2                !
 ! D9    D(16,1,2,18)           60.4257         estimate D2E/DX2                !
 ! D10   D(1,2,3,4)           -179.8011         estimate D2E/DX2                !
 ! D11   D(1,2,3,19)            59.6976         estimate D2E/DX2                !
 ! D12   D(1,2,3,20)           -59.3824         estimate D2E/DX2                !
 ! D13   D(17,2,3,4)           -59.3961         estimate D2E/DX2                !
 ! D14   D(17,2,3,19)         -179.8974         estimate D2E/DX2                !
 ! D15   D(17,2,3,20)           61.0226         estimate D2E/DX2                !
 ! D16   D(18,2,3,4)            59.7521         estimate D2E/DX2                !
 ! D17   D(18,2,3,19)          -60.7492         estimate D2E/DX2                !
 ! D18   D(18,2,3,20)         -179.8292         estimate D2E/DX2                !
 ! D19   D(2,3,4,5)           -179.9761         estimate D2E/DX2                !
 ! D20   D(2,3,4,21)             0.0977         estimate D2E/DX2                !
 ! D21   D(19,3,4,5)           -59.5144         estimate D2E/DX2                !
 ! D22   D(19,3,4,21)          120.5594         estimate D2E/DX2                !
 ! D23   D(20,3,4,5)            59.6061         estimate D2E/DX2                !
 ! D24   D(20,3,4,21)         -120.3201         estimate D2E/DX2                !
 ! D25   D(3,4,5,6)              0.0981         estimate D2E/DX2                !
 ! D26   D(3,4,5,7)           -179.7513         estimate D2E/DX2                !
 ! D27   D(21,4,5,6)          -179.9758         estimate D2E/DX2                !
 ! D28   D(21,4,5,7)             0.1748         estimate D2E/DX2                !
 ! D29   D(4,5,7,8)            179.9992         estimate D2E/DX2                !
 ! D30   D(4,5,7,22)             0.2334         estimate D2E/DX2                !
 ! D31   D(6,5,7,8)              0.1531         estimate D2E/DX2                !
 ! D32   D(6,5,7,22)          -179.6127         estimate D2E/DX2                !
 ! D33   D(5,7,8,9)              1.242          estimate D2E/DX2                !
 ! D34   D(5,7,8,10)          -178.8131         estimate D2E/DX2                !
 ! D35   D(22,7,8,9)          -178.9917         estimate D2E/DX2                !
 ! D36   D(22,7,8,10)            0.9532         estimate D2E/DX2                !
 ! D37   D(7,8,9,13)           179.9951         estimate D2E/DX2                !
 ! D38   D(7,8,9,23)             0.1032         estimate D2E/DX2                !
 ! D39   D(10,8,9,13)            0.0504         estimate D2E/DX2                !
 ! D40   D(10,8,9,23)         -179.8416         estimate D2E/DX2                !
 ! D41   D(7,8,10,11)          179.9604         estimate D2E/DX2                !
 ! D42   D(7,8,10,24)            0.0302         estimate D2E/DX2                !
 ! D43   D(9,8,10,11)           -0.0909         estimate D2E/DX2                !
 ! D44   D(9,8,10,24)          179.9789         estimate D2E/DX2                !
 ! D45   D(8,9,13,12)            0.0225         estimate D2E/DX2                !
 ! D46   D(8,9,13,26)         -179.9575         estimate D2E/DX2                !
 ! D47   D(23,9,13,12)         179.9209         estimate D2E/DX2                !
 ! D48   D(23,9,13,26)          -0.0591         estimate D2E/DX2                !
 ! D49   D(8,10,11,12)           0.0582         estimate D2E/DX2                !
 ! D50   D(8,10,11,25)        -179.9415         estimate D2E/DX2                !
 ! D51   D(24,10,11,12)        179.9896         estimate D2E/DX2                !
 ! D52   D(24,10,11,25)         -0.0101         estimate D2E/DX2                !
 ! D53   D(10,11,12,13)          0.0177         estimate D2E/DX2                !
 ! D54   D(10,11,12,27)        179.992          estimate D2E/DX2                !
 ! D55   D(25,11,12,13)       -179.9826         estimate D2E/DX2                !
 ! D56   D(25,11,12,27)         -0.0084         estimate D2E/DX2                !
 ! D57   D(11,12,13,9)          -0.0571         estimate D2E/DX2                !
 ! D58   D(11,12,13,26)        179.922          estimate D2E/DX2                !
 ! D59   D(27,12,13,9)         179.97           estimate D2E/DX2                !
 ! D60   D(27,12,13,26)         -0.0509         estimate D2E/DX2                !
 ! D61   D(9,13,26,28)        -179.9956         estimate D2E/DX2                !
 ! D62   D(9,13,26,29)          59.6601         estimate D2E/DX2                !
 ! D63   D(9,13,26,30)         -59.6248         estimate D2E/DX2                !
 ! D64   D(12,13,26,28)          0.025          estimate D2E/DX2                !
 ! D65   D(12,13,26,29)       -120.3193         estimate D2E/DX2                !
 ! D66   D(12,13,26,30)        120.3958         estimate D2E/DX2                !
 --------------------------------------------------------------------------------
 Trust Radius=3.00D-01 FncErr=1.00D-07 GrdErr=1.00D-06
 Number of steps in this run=    157 maximum allowed number of steps=    180.
 GradGradGradGradGradGradGradGradGradGradGradGradGradGradGradGradGradGrad

                          Input orientation:                          
 ---------------------------------------------------------------------
 Center     Atomic      Atomic             Coordinates (Angstroms)
 Number     Number       Type             X           Y           Z
 ---------------------------------------------------------------------
      1          6           0       -1.743620    1.896210    0.319240
      2          6           0       -0.404120    1.188780    0.135790
      3          6           0        0.753240    2.193290    0.094780
      4          7           0        2.025420    1.515140   -0.084650
      5          6           0        3.202590    2.199550   -0.151300
      6          8           0        3.190560    3.416310   -0.056080
      7          7           0        4.372710    1.510220   -0.326520
      8          6           0        5.709040    2.038390   -0.421990
      9          6           0        6.040360    3.411440   -0.321380
     10          6           0        6.756830    1.123500   -0.628610
     11          6           0        8.080020    1.549480   -0.733590
     12          6           0        8.399450    2.903920   -0.634270
     13          6           0        7.373530    3.848920   -0.425470
     14          1           0       -2.560780    1.144880    0.345690
     15          1           0       -1.929910    2.594580   -0.524400
     16          1           0       -1.752510    2.465390    1.273170
     17          1           0       -0.428520    0.612130   -0.814510
     18          1           0       -0.250890    0.481360    0.979770
     19          1           0        0.774170    2.765990    1.048300
     20          1           0        0.593740    2.900480   -0.749070
     21          1           0        2.037610    0.486100   -0.165000
     22          1           0        4.288050    0.484440   -0.403230
     23          1           0        5.300360    4.173900   -0.161310
     24          1           0        6.548140    0.063950   -0.711070
     25          1           0        8.862040    0.817730   -0.893600
     26          6           0        7.647790    5.325790   -0.307150
     27         17           0       10.094720    3.360020   -0.777480
     28          1           0        8.721360    5.580120   -0.400920
     29          1           0        7.297650    5.689010    0.682120
     30          1           0        7.098630    5.869400   -1.104660
 ---------------------------------------------------------------------
                    Distance matrix (angstroms):
                    1          2          3          4          5
     1  C    0.000000
     2  C    1.525900   0.000000
     3  C    2.524470   1.533038   0.000000
     4  N    3.809725   2.461254   1.452764   0.000000
     5  C    4.977792   3.756652   2.461688   1.363301   0.000000
     6  O    5.176650   4.233253   2.731129   2.229981   1.220539
     7  N    6.162425   4.809902   3.707377   2.359724   1.369328
     8  C    7.490780   6.197070   4.985078   3.735859   2.526170
     9  C    7.955920   6.832316   5.441573   4.446542   3.090395
    10  C    8.587965   7.201928   6.140915   4.778652   3.744106
    11  C    9.885979   8.536191   7.401513   6.089375   4.954894
    12  C   10.237506   9.002085   7.713691   6.546682   5.266569
    13  C    9.353614   8.239126   6.843976   5.845081   4.493588
    14  H    1.110381   2.167295   3.484946   4.621203   5.880116
    15  H    1.110924   2.177191   2.782752   4.123494   5.161183
    16  H    1.110868   2.177504   2.782342   4.125458   5.162635
    17  H    2.159569   1.111841   2.173346   2.714764   4.018048
    18  H    2.160172   1.111856   2.173060   2.717219   4.019704
    19  H    2.761759   2.169939   1.112485   2.100911   2.767150
    20  H    2.759184   2.169935   1.112493   2.100078   2.766718
    21  H    4.064554   2.558570   2.152113   1.032244   2.072022
    22  H    6.236674   4.775259   3.957659   2.506657   2.045310
    23  H    7.418656   6.445177   4.966357   4.219018   2.880763
    24  H    8.554063   7.093401   6.226102   4.790966   4.008346
    25  H   10.729125   9.330544   8.283821   6.919549   5.872803
    26  C   10.017633   9.063349   7.583464   6.795705   5.436678
    27  Cl  11.978807  10.759832   9.454382   8.306455   7.017140
    28  H   11.117807  10.141317   8.672213   7.839624   6.476680
    29  H    9.811298   8.936879   7.442737   6.767979   5.444303
    30  H    9.797914   8.929624   7.430775   6.762948   5.436527
                    6          7          8          9         10
     6  O    0.000000
     7  N    2.259158   0.000000
     8  C    2.894010   1.440089   0.000000
     9  C    2.862126   2.528976   1.416037   0.000000
    10  C    4.278206   2.434099   1.406264   2.417103   0.000000
    11  C    5.277395   3.729798   2.440835   2.792315   1.394027
    12  C    5.265870   4.272206   2.834168   2.433266   2.422422
    13  C    4.221473   3.805815   2.459382   1.406970   2.801696
    14  H    6.196670   6.975573   8.353300   8.919747   9.368435
    15  H    5.207089   6.398282   7.659856   8.014592   8.811038
    16  H    5.206255   6.402318   7.663591   8.010395   8.821922
    17  H    4.640731   4.908820   6.313314   7.065814   7.205922
    18  H    4.640096   4.913514   6.317439   7.061033   7.218543
    19  H    2.735235   4.051738   5.200394   5.479543   6.426665
    20  H    2.736748   4.048702   5.197737   5.487228   6.415282
    21  H    3.150760   2.554917   3.994377   4.960250   4.784585
    22  H    3.149740   1.032122   2.105784   3.412421   2.560092
    23  H    2.244164   2.825424   2.189835   1.074508   3.412421
    24  H    4.789642   2.640468   2.164733   3.408136   1.083050
    25  H    6.294422   4.577686   3.413771   3.875132   2.143741
    26  C    4.855517   5.028429   3.818238   2.499754   4.307713
    27  Cl   6.941975   6.030466   4.594265   4.080258   4.020658
    28  H    5.949011   5.956541   4.649556   3.449241   4.875724
    29  H    4.751662   5.199511   4.131557   2.788389   4.780626
    30  H    4.731826   5.199865   4.132026   2.788374   4.781947
                   11         12         13         14         15
    11  C    0.000000
    12  C    1.395137   0.000000
    13  C    2.425178   1.410367   0.000000
    14  H   10.703045  11.143661  10.324584   0.000000
    15  H   10.066513  10.334575   9.388139   1.804628   0.000000
    16  H   10.076935  10.338904   9.385315   1.804790   1.810917
    17  H    8.560399   9.122381   8.455776   2.485240   2.503686
    18  H    8.572079   9.127010   8.452629   2.485540   3.089876
    19  H    7.617773   7.809927   6.848086   3.774063   3.132861
    20  H    7.607222   7.806555   6.853452   3.772483   2.552031
    21  H    6.161557   6.821955   6.312562   4.673327   4.507335
    22  H    3.952529   4.776073   4.565129   6.921238   6.567374
    23  H    3.865436   3.382440   2.115048   8.439759   7.409648
    24  H    2.134002   3.390970   3.884435   9.233503   8.849648
    25  H    1.082874   2.152540   3.409240  11.494507  10.943477
    26  C    3.824813   2.556845   1.506772  11.050842   9.961879
    27  Cl   2.709058   1.761385   2.787079  12.896900  12.051625
    28  H    4.094880   2.705573   2.194152  12.145594  11.062470
    29  H    4.444327   3.271631   2.149057  10.860522   9.807092
    30  H    4.445507   3.272227   2.149234  10.850291   9.621626
                   16         17         18         19         20
    16  H    0.000000
    17  H    3.089649   0.000000
    18  H    2.505458   1.807787   0.000000
    19  H    2.554416   3.091219   2.504991   0.000000
    20  H    3.127882   2.507158   3.091024   1.811403   0.000000
    21  H    4.511201   2.553340   2.558858   2.875113   2.873174
    22  H    6.574408   4.736189   4.744963   4.433933   4.427729
    23  H    7.397278   6.777385   6.764118   4.892010   4.911144
    24  H    8.865941   6.998927   7.018545   6.613254   6.595622
    25  H   10.958027   9.293171   9.309573   8.542853   8.527809
    26  C    9.952132   9.364977   9.354882   7.458986   7.472419
    27  Cl  12.056632  10.876160  10.881464   9.516249   9.512129
    28  H   11.054686  10.419803  10.411769   8.554379   8.565039
    29  H    9.625303   9.365272   9.175438   7.157788   7.400447
    30  H    9.776709   9.185917   9.348330   7.366491   7.159227
                   21         22         23         24         25
    21  H    0.000000
    22  H    2.263015   0.000000
    23  H    4.923964   3.833460   0.000000
    24  H    4.563035   2.319393   4.330229   0.000000
    25  H    6.871221   4.612259   4.948302   2.440417   0.000000
    26  C    7.410595   5.893705   2.618883   5.390672   4.705415
    27  Cl   8.576221   6.490488   4.901832   4.842181   2.827759
    28  H    8.406974   6.754273   3.706495   5.936936   4.789873
    29  H    7.446872   6.109274   2.645014   5.843290   5.353464
    30  H    7.448275   6.114667   2.645450   5.844759   5.354767
                   26         27         28         29         30
    26  C    0.000000
    27  Cl   3.173788   0.000000
    28  H    1.107262   2.637567   0.000000
    29  H    1.110487   3.921508   1.792145   0.000000
    30  H    1.110455   3.921810   1.792257   1.806857   0.000000
 Stoichiometry    C11H15ClN2O
 Framework group  C1[X(C11H15ClN2O)]
 Deg. of freedom    84
 Full point group                 C1      NOp   1
 Largest Abelian subgroup         C1      NOp   1
 Largest concise Abelian subgroup C1      NOp   1
                         Standard orientation:                         
 ---------------------------------------------------------------------
 Center     Atomic      Atomic             Coordinates (Angstroms)
 Number     Number       Type             X           Y           Z
 ---------------------------------------------------------------------
      1          6           0        6.766269    0.490389    0.015719
      2          6           0        5.555934   -0.438529   -0.008187
      3          6           0        4.245357    0.356680    0.007164
      4          7           0        3.096468   -0.532279   -0.010984
      5          6           0        1.818705   -0.057055   -0.002481
      6          8           0        1.631672    1.148874    0.019209
      7          7           0        0.772265   -0.940151   -0.015272
      8          6           0       -0.637633   -0.646879   -0.009461
      9          6           0       -1.187832    0.657890   -0.013963
     10          6           0       -1.528323   -1.735069    0.000251
     11          6           0       -2.908754   -1.540974    0.007204
     12          6           0       -3.444226   -0.252695    0.003458
     13          6           0       -2.579940    0.861763   -0.007841
     14          1           0        7.698555   -0.112634    0.003392
     15          1           0        6.757253    1.112323    0.936192
     16          1           0        6.760692    1.155233   -0.874213
     17          1           0        5.595773   -1.104962    0.880897
     18          1           0        5.598971   -1.064000   -0.926423
     19          1           0        4.209874    1.020150   -0.885121
     20          1           0        4.208525    0.982946    0.925899
     21          1           0        3.252682   -1.552463   -0.029714
     22          1           0        1.023308   -1.941206   -0.027260
     23          1           0       -0.577357    1.542079   -0.023860
     24          1           0       -1.150282   -2.749993    0.003628
     25          1           0       -3.565698   -2.401771    0.015582
     26          6           0       -3.090265    2.279469   -0.014174
     27         17           0       -5.198327   -0.092933    0.012536
     28          1           0       -4.195485    2.346456   -0.008630
     29          1           0       -2.722758    2.800904   -0.923144
     30          1           0       -2.712755    2.812870    0.883646
 ---------------------------------------------------------------------
 Rotational constants (GHZ):      2.0343356      0.1627691      0.1513090
 General basis read from cards:  (6D, 7F)
 There are   319 symmetry adapted cartesian basis functions of A   symmetry.
 There are   319 symmetry adapted basis functions of A   symmetry.
   319 basis functions,   564 primitive gaussians,   319 cartesian basis functions
    60 alpha electrons       60 beta electrons
       nuclear repulsion energy      1020.7638409842 Hartrees.
 NAtoms=   30 NActive=   30 NUniq=   30 SFac= 1.00D+00 NAtFMM=   60 NAOKFM=F Big=F
 Integral buffers will be    131072 words long.
 Raffenetti 2 integral format.
 Two-electron integral symmetry is turned on.
 ------------------------------------------------------------------------------
 Polarizable Continuum Model (PCM)
 =================================
 Model                : PCM (using non-symmetric T matrix).
 Atomic radii         : SMD-Coulomb.
 Polarization charges : Total charges.
 Charge compensation  : None.
 Solution method      : On-the-fly selection.
 Cavity type          : VdW (van der Waals Surface) (Alpha=1.000).
 Cavity algorithm     : GePol (No added spheres)
                        Default sphere list used, NSphG=   30.
                        Lebedev-Laikov grids with approx.  5.0 points / Ang**2.
                        Smoothing algorithm: York/Karplus (Gamma=1.0000).
                        Polarization charges: spherical gaussians, with
                                              point-specific exponents (IZeta= 3).
                        Self-potential: point-specific (ISelfS= 7).
                        Self-field    : sphere-specific E.n sum rule (ISelfD= 2).
 1st derivatives      : Analytical E(r).r(x)/FMM algorithm (CHGder, D1EAlg=3).
                        Cavity 1st derivative terms included.
 Solvent              : n-Pentadecane, Eps=   2.033300 Eps(inf)=   2.049192
 ------------------------------------------------------------------------------
 ------------------------------------------------------------------------------
 Atomic radii for non-electrostatic terms: SMD-CDS.
 ------------------------------------------------------------------------------
 Nuclear repulsion after PCM non-electrostatic terms =     1020.7543015544 Hartrees.
 One-electron integrals computed using PRISM.
 NBasis=   319 RedAO= T EigKep=  1.89D-06  NBF=   319
 NBsUse=   318 1.00D-06 EigRej=  6.20D-07 NBFU=   318
 ExpMin= 4.38D-02 ExpMax= 2.52D+04 ExpMxC= 3.78D+03 IAcc=3 IRadAn=         5 AccDes= 0.00D+00
 Harris functional with IExCor= 1009 and IRadAn=       5 diagonalized for initial guess.
 HarFok:  IExCor= 1009 AccDes= 0.00D+00 IRadAn=         5 IDoV= 1 UseB2=F ITyADJ=14
 ICtDFT=  3500011 ScaDFX=  1.000000  1.000000  1.000000  1.000000
 FoFCou: FMM=F IPFlag=           0 FMFlag=      100000 FMFlg1=           0
         NFxFlg=           0 DoJE=T BraDBF=F KetDBF=T FulRan=T
         wScrn=  0.000000 ICntrl=     500 IOpCl=  0 I1Cent=   200000004 NGrid=           0
         NMat0=    1 NMatS0=      1 NMatT0=    0 NMatD0=    1 NMtDS0=    0 NMtDT0=    0
 Petite list used in FoFCou.
 Requested convergence on RMS density matrix=1.00D-08 within 128 cycles.
 Requested convergence on MAX density matrix=1.00D-06.
 Requested convergence on             energy=1.00D-06.
 No special actions if energy rises.
 Inv3:  Mode=1 IEnd=    17978112.
 Iteration    1 A*A^-1 deviation from unit magnitude is 3.55D-15 for   2430.
 Iteration    1 A*A^-1 deviation from orthogonality  is 2.19D-15 for    725      9.
 Iteration    1 A^-1*A deviation from unit magnitude is 3.55D-15 for   2436.
 Iteration    1 A^-1*A deviation from orthogonality  is 1.65D-15 for   1507   1197.
 Error on total polarization charges =  0.02525
 SCF Done:  E(RM062X) =  -1072.88827652     A.U. after   15 cycles
            NFock= 15  Conv=0.36D-08     -V/T= 2.0066
 SMD-CDS (non-electrostatic) energy       (kcal/mol) =      -5.99
 (included in total energy above)

 **********************************************************************

            Population analysis using the SCF density.

 **********************************************************************

 Orbital symmetries:
       Occupied  (A) (A) (A) (A) (A) (A) (A) (A) (A) (A) (A) (A)
                 (A) (A) (A) (A) (A) (A) (A) (A) (A) (A) (A) (A)
                 (A) (A) (A) (A) (A) (A) (A) (A) (A) (A) (A) (A)
                 (A) (A) (A) (A) (A) (A) (A) (A) (A) (A) (A) (A)
                 (A) (A) (A) (A) (A) (A) (A) (A) (A) (A) (A) (A)
       Virtual   (A) (A) (A) (A) (A) (A) (A) (A) (A) (A) (A) (A)
                 (A) (A) (A) (A) (A) (A) (A) (A) (A) (A) (A) (A)
                 (A) (A) (A) (A) (A) (A) (A) (A) (A) (A) (A) (A)
                 (A) (A) (A) (A) (A) (A) (A) (A) (A) (A) (A) (A)
                 (A) (A) (A) (A) (A) (A) (A) (A) (A) (A) (A) (A)
                 (A) (A) (A) (A) (A) (A) (A) (A) (A) (A) (A) (A)
                 (A) (A) (A) (A) (A) (A) (A) (A) (A) (A) (A) (A)
                 (A) (A) (A) (A) (A) (A) (A) (A) (A) (A) (A) (A)
                 (A) (A) (A) (A) (A) (A) (A) (A) (A) (A) (A) (A)
                 (A) (A) (A) (A) (A) (A) (A) (A) (A) (A) (A) (A)
                 (A) (A) (A) (A) (A) (A) (A) (A) (A) (A) (A) (A)
                 (A) (A) (A) (A) (A) (A) (A) (A) (A) (A) (A) (A)
                 (A) (A) (A) (A) (A) (A) (A) (A) (A) (A) (A) (A)
                 (A) (A) (A) (A) (A) (A) (A) (A) (A) (A) (A) (A)
                 (A) (A) (A) (A) (A) (A) (A) (A) (A) (A) (A) (A)
                 (A) (A) (A) (A) (A) (A) (A) (A) (A) (A) (A) (A)
                 (A) (A) (A) (A) (A) (A) (A) (A) (A) (A) (A) (A)
                 (A) (A) (A) (A) (A) (A) (A) (A) (A) (A) (A) (A)
                 (A) (A) (A) (A) (A) (A) (A) (A) (A) (A) (A) (A)
                 (A) (A) (A) (A) (A) (A) (A) (A) (A) (A) (A) (A)
                 (A) (A) (A) (A) (A) (A) (A) (A) (A) (A) (A) (A)
                 (A) (A) (A) (A) (A) (A)
 The electronic state is 1-A.
 Alpha  occ. eigenvalues -- -102.66920 -19.60142 -14.80743 -14.78813 -10.68112
 Alpha  occ. eigenvalues --  -10.61671 -10.61113 -10.58533 -10.57576 -10.56703
 Alpha  occ. eigenvalues --  -10.56373 -10.55636 -10.55466 -10.54440 -10.54395
 Alpha  occ. eigenvalues --   -9.81550  -7.53945  -7.53296  -7.53287  -1.17725
 Alpha  occ. eigenvalues --   -1.04896  -1.02599  -0.98871  -0.92931  -0.88458
 Alpha  occ. eigenvalues --   -0.87511  -0.83001  -0.78180  -0.77144  -0.71047
 Alpha  occ. eigenvalues --   -0.68442  -0.68127  -0.65968  -0.63184  -0.59620
 Alpha  occ. eigenvalues --   -0.55932  -0.55899  -0.54170  -0.53513  -0.52123
 Alpha  occ. eigenvalues --   -0.50581  -0.49412  -0.49300  -0.47778  -0.46610
 Alpha  occ. eigenvalues --   -0.46598  -0.45286  -0.44351  -0.42830  -0.42478
 Alpha  occ. eigenvalues --   -0.41505  -0.41381  -0.40258  -0.39939  -0.37291
 Alpha  occ. eigenvalues --   -0.35457  -0.33851  -0.31808  -0.30347  -0.26789
 Alpha virt. eigenvalues --    0.00392   0.01126   0.01840   0.02274   0.02878
 Alpha virt. eigenvalues --    0.03518   0.03743   0.04356   0.04833   0.05129
 Alpha virt. eigenvalues --    0.06112   0.06454   0.07025   0.07122   0.07714
 Alpha virt. eigenvalues --    0.07862   0.08567   0.08823   0.09291   0.09552
 Alpha virt. eigenvalues --    0.09634   0.10064   0.11152   0.11218   0.12138
 Alpha virt. eigenvalues --    0.12457   0.12606   0.13485   0.13592   0.14492
 Alpha virt. eigenvalues --    0.14549   0.15065   0.15984   0.16213   0.16867
 Alpha virt. eigenvalues --    0.17248   0.18366   0.19059   0.19323   0.19597
 Alpha virt. eigenvalues --    0.19641   0.20066   0.21204   0.21334   0.22129
 Alpha virt. eigenvalues --    0.22454   0.22856   0.22968   0.23216   0.23969
 Alpha virt. eigenvalues --    0.24102   0.24413   0.25361   0.25585   0.25849
 Alpha virt. eigenvalues --    0.26062   0.26505   0.26659   0.27679   0.28275
 Alpha virt. eigenvalues --    0.28659   0.28875   0.29295   0.29803   0.30391
 Alpha virt. eigenvalues --    0.31285   0.31778   0.32129   0.32189   0.32426
 Alpha virt. eigenvalues --    0.33641   0.33884   0.34080   0.34744   0.35548
 Alpha virt. eigenvalues --    0.36052   0.37134   0.38415   0.38663   0.39274
 Alpha virt. eigenvalues --    0.40015   0.40555   0.41444   0.44027   0.45246
 Alpha virt. eigenvalues --    0.46293   0.47606   0.51268   0.52245   0.54551
 Alpha virt. eigenvalues --    0.57899   0.59041   0.61294   0.65284   0.67998
 Alpha virt. eigenvalues --    0.68381   0.69032   0.69229   0.71535   0.71815
 Alpha virt. eigenvalues --    0.72606   0.74217   0.74287   0.75425   0.76485
 Alpha virt. eigenvalues --    0.76910   0.76998   0.77897   0.78034   0.79808
 Alpha virt. eigenvalues --    0.80065   0.80420   0.80871   0.82857   0.83829
 Alpha virt. eigenvalues --    0.83983   0.85567   0.86559   0.88195   0.88889
 Alpha virt. eigenvalues --    0.88955   0.91986   0.93636   0.94007   0.97653
 Alpha virt. eigenvalues --    0.97834   0.98392   0.99567   0.99844   0.99978
 Alpha virt. eigenvalues --    1.02583   1.03195   1.03771   1.04673   1.05254
 Alpha virt. eigenvalues --    1.05471   1.06242   1.07460   1.10509   1.10633
 Alpha virt. eigenvalues --    1.11206   1.12215   1.13364   1.14285   1.15618
 Alpha virt. eigenvalues --    1.16722   1.17524   1.18015   1.19574   1.22199
 Alpha virt. eigenvalues --    1.22689   1.23159   1.27374   1.27911   1.28438
 Alpha virt. eigenvalues --    1.31691   1.31943   1.32257   1.36047   1.37305
 Alpha virt. eigenvalues --    1.39745   1.39864   1.42316   1.44376   1.45607
 Alpha virt. eigenvalues --    1.45849   1.45961   1.46205   1.48465   1.50118
 Alpha virt. eigenvalues --    1.50632   1.52633   1.53418   1.56893   1.57950
 Alpha virt. eigenvalues --    1.59575   1.59841   1.60605   1.65095   1.72293
 Alpha virt. eigenvalues --    1.80136   1.83761   1.85359   1.86409   1.87331
 Alpha virt. eigenvalues --    1.88388   1.88756   1.91414   1.93227   1.93929
 Alpha virt. eigenvalues --    1.94334   1.95577   1.97606   1.98510   2.00171
 Alpha virt. eigenvalues --    2.02685   2.03789   2.04643   2.05606   2.05726
 Alpha virt. eigenvalues --    2.11877   2.13889   2.15859   2.17299   2.17730
 Alpha virt. eigenvalues --    2.20115   2.20484   2.24796   2.24886   2.27224
 Alpha virt. eigenvalues --    2.28324   2.30130   2.32089   2.35679   2.37519
 Alpha virt. eigenvalues --    2.38004   2.39513   2.40115   2.40941   2.41100
 Alpha virt. eigenvalues --    2.43789   2.45125   2.52007   2.56807   2.59571
 Alpha virt. eigenvalues --    2.65684   2.65717   2.68913   2.70286   2.73763
 Alpha virt. eigenvalues --    2.74477   2.78758   2.80267   2.81114   2.82705
 Alpha virt. eigenvalues --    2.86270   2.93298   3.00479   3.06931   3.12724
 Alpha virt. eigenvalues --    3.27953   3.33094   3.40543   4.15081   4.25038
 Alpha virt. eigenvalues --    4.26174   4.30936   4.35037   4.38140   4.39988
 Alpha virt. eigenvalues --    4.41546   4.44198   4.47913   4.50226   4.52859
 Alpha virt. eigenvalues --    4.59232   4.67176   4.77808
          Condensed to atoms (all electrons):
               1          2          3          4          5          6
     1  C    5.579489  -0.004766  -0.020606  -0.002398  -0.022804  -0.002490
     2  C   -0.004766   6.150452  -0.380356  -0.093261   0.122783   0.020130
     3  C   -0.020606  -0.380356   6.544380   0.343039  -0.473671  -0.074881
     4  N   -0.002398  -0.093261   0.343039   7.733484   0.341875  -0.205019
     5  C   -0.022804   0.122783  -0.473671   0.341875   5.905562   0.678965
     6  O   -0.002490   0.020130  -0.074881  -0.205019   0.678965   8.341801
     7  N   -0.001601   0.017091  -0.124932  -0.419422   0.062154  -0.084777
     8  C   -0.004178   0.013549  -0.267770  -0.168051  -0.740299  -0.503928
     9  C    0.000066  -0.008495   0.021573   0.069221   0.485429   0.478457
    10  C   -0.001052   0.003095  -0.073279  -0.100176  -1.171720  -0.127124
    11  C    0.000047  -0.000214   0.006727   0.009386   0.062618   0.003578
    12  C   -0.000028   0.001358  -0.008430  -0.014721  -0.177584  -0.023090
    13  C    0.000085  -0.000715   0.001323   0.018032   0.234890   0.102522
    14  H    0.410427  -0.086395   0.028413   0.000517  -0.002008   0.000008
    15  H    0.415668  -0.063683  -0.009267   0.000560   0.001278  -0.000060
    16  H    0.415359  -0.063199  -0.009240   0.000559   0.001073  -0.000060
    17  H   -0.032695   0.420789  -0.080064   0.006753  -0.001858  -0.000230
    18  H   -0.032778   0.421135  -0.081570   0.006774  -0.000676  -0.000226
    19  H    0.003945  -0.050450   0.422879  -0.057398  -0.010181   0.001448
    20  H    0.005177  -0.051919   0.427822  -0.057916  -0.013808   0.001597
    21  H   -0.002513   0.001605  -0.080238   0.236744   0.034224   0.008680
    22  H   -0.000062   0.000064   0.004354   0.022210  -0.010934   0.007645
    23  H    0.000004   0.000007   0.002364  -0.000085   0.024520  -0.003405
    24  H   -0.000001   0.000022  -0.000181   0.001030  -0.001767   0.000050
    25  H    0.000000   0.000000   0.000016   0.000010   0.001908   0.000001
    26  C   -0.000027  -0.000151  -0.004192   0.001922  -0.045874   0.013318
    27  Cl  -0.000001   0.000007  -0.000152   0.000075  -0.007926   0.000111
    28  H    0.000000  -0.000000  -0.000001   0.000000  -0.000058   0.000003
    29  H   -0.000000  -0.000001  -0.000020  -0.000004  -0.000563  -0.000045
    30  H   -0.000000  -0.000001  -0.000023  -0.000007  -0.000679  -0.000085
               7          8          9         10         11         12
     1  C   -0.001601  -0.004178   0.000066  -0.001052   0.000047  -0.000028
     2  C    0.017091   0.013549  -0.008495   0.003095  -0.000214   0.001358
     3  C   -0.124932  -0.267770   0.021573  -0.073279   0.006727  -0.008430
     4  N   -0.419422  -0.168051   0.069221  -0.100176   0.009386  -0.014721
     5  C    0.062154  -0.740299   0.485429  -1.171720   0.062618  -0.177584
     6  O   -0.084777  -0.503928   0.478457  -0.127124   0.003578  -0.023090
     7  N    7.855444   0.206283  -0.511147   0.354735   0.056262   0.020563
     8  C    0.206283  11.509407  -1.968249   0.726757  -0.598536   0.117678
     9  C   -0.511147  -1.968249   9.914481  -4.467000   0.487967  -1.752494
    10  C    0.354735   0.726757  -4.467000  13.226392  -0.813513   0.980477
    11  C    0.056262  -0.598536   0.487967  -0.813513   7.065538  -0.583726
    12  C    0.020563   0.117678  -1.752494   0.980477  -0.583726   9.821765
    13  C   -0.024620  -2.094850   2.276617  -1.662711   0.020696  -1.418975
    14  H    0.000010  -0.000037   0.000004  -0.000001  -0.000000  -0.000000
    15  H    0.000020   0.000045  -0.000030   0.000002   0.000000   0.000000
    16  H    0.000016   0.000040  -0.000034   0.000002   0.000000  -0.000000
    17  H    0.000066  -0.000237  -0.000208   0.000105   0.000005  -0.000000
    18  H    0.000177  -0.000268  -0.000122   0.000099   0.000003   0.000001
    19  H    0.000156  -0.003287   0.002569  -0.000710  -0.000014   0.000024
    20  H    0.000273  -0.004335   0.002877  -0.000895  -0.000007   0.000014
    21  H    0.029564   0.017828   0.001587  -0.001585  -0.000254   0.000398
    22  H    0.230034  -0.023588   0.056792  -0.077417   0.025000  -0.005858
    23  H   -0.013634   0.014857   0.260091   0.026219  -0.020276   0.088484
    24  H   -0.010527   0.099159   0.052902   0.160302   0.016497  -0.041414
    25  H    0.000408   0.002454  -0.006256  -0.003406   0.281866  -0.023766
    26  C    0.003428  -0.530694   0.025092  -0.017167   0.268466  -0.397659
    27  Cl  -0.000791  -0.029030  -0.029223   0.091418  -0.124020  -0.023095
    28  H    0.000023   0.003361   0.029916   0.002364   0.006662  -0.047967
    29  H    0.000074  -0.009149  -0.032816   0.002274  -0.002936   0.025951
    30  H    0.000115  -0.012803  -0.037543   0.002819  -0.004298   0.025462
              13         14         15         16         17         18
     1  C    0.000085   0.410427   0.415668   0.415359  -0.032695  -0.032778
     2  C   -0.000715  -0.086395  -0.063683  -0.063199   0.420789   0.421135
     3  C    0.001323   0.028413  -0.009267  -0.009240  -0.080064  -0.081570
     4  N    0.018032   0.000517   0.000560   0.000559   0.006753   0.006774
     5  C    0.234890  -0.002008   0.001278   0.001073  -0.001858  -0.000676
     6  O    0.102522   0.000008  -0.000060  -0.000060  -0.000230  -0.000226
     7  N   -0.024620   0.000010   0.000020   0.000016   0.000066   0.000177
     8  C   -2.094850  -0.000037   0.000045   0.000040  -0.000237  -0.000268
     9  C    2.276617   0.000004  -0.000030  -0.000034  -0.000208  -0.000122
    10  C   -1.662711  -0.000001   0.000002   0.000002   0.000105   0.000099
    11  C    0.020696  -0.000000   0.000000   0.000000   0.000005   0.000003
    12  C   -1.418975  -0.000000   0.000000  -0.000000  -0.000000   0.000001
    13  C    9.012543  -0.000000  -0.000000  -0.000000  -0.000008  -0.000004
    14  H   -0.000000   0.488247  -0.024060  -0.024034  -0.003045  -0.003045
    15  H   -0.000000  -0.024060   0.489895  -0.027897  -0.004774   0.003892
    16  H   -0.000000  -0.024034  -0.027897   0.489892   0.003898  -0.004754
    17  H   -0.000008  -0.003045  -0.004774   0.003898   0.505729  -0.033191
    18  H   -0.000004  -0.003045   0.003892  -0.004754  -0.033191   0.505384
    19  H    0.000235  -0.000061  -0.000319   0.002662   0.003848  -0.005414
    20  H    0.000224  -0.000058   0.002671  -0.000329  -0.005371   0.003848
    21  H   -0.000370  -0.000003   0.000001   0.000001   0.000854   0.000849
    22  H    0.007199  -0.000000  -0.000000  -0.000000   0.000001   0.000001
    23  H   -0.065896  -0.000000  -0.000000  -0.000000  -0.000000  -0.000000
    24  H    0.015414   0.000000   0.000000   0.000000   0.000000   0.000000
    25  H    0.061010  -0.000000   0.000000   0.000000   0.000000   0.000000
    26  C   -0.186511  -0.000000  -0.000000  -0.000000  -0.000000  -0.000000
    27  Cl  -0.167519  -0.000000  -0.000000  -0.000000  -0.000000  -0.000000
    28  H   -0.113443   0.000000  -0.000000  -0.000000  -0.000000  -0.000000
    29  H   -0.051526   0.000000   0.000000  -0.000000  -0.000000   0.000000
    30  H   -0.044638   0.000000  -0.000000   0.000000   0.000000  -0.000000
              19         20         21         22         23         24
     1  C    0.003945   0.005177  -0.002513  -0.000062   0.000004  -0.000001
     2  C   -0.050450  -0.051919   0.001605   0.000064   0.000007   0.000022
     3  C    0.422879   0.427822  -0.080238   0.004354   0.002364  -0.000181
     4  N   -0.057398  -0.057916   0.236744   0.022210  -0.000085   0.001030
     5  C   -0.010181  -0.013808   0.034224  -0.010934   0.024520  -0.001767
     6  O    0.001448   0.001597   0.008680   0.007645  -0.003405   0.000050
     7  N    0.000156   0.000273   0.029564   0.230034  -0.013634  -0.010527
     8  C   -0.003287  -0.004335   0.017828  -0.023588   0.014857   0.099159
     9  C    0.002569   0.002877   0.001587   0.056792   0.260091   0.052902
    10  C   -0.000710  -0.000895  -0.001585  -0.077417   0.026219   0.160302
    11  C   -0.000014  -0.000007  -0.000254   0.025000  -0.020276   0.016497
    12  C    0.000024   0.000014   0.000398  -0.005858   0.088484  -0.041414
    13  C    0.000235   0.000224  -0.000370   0.007199  -0.065896   0.015414
    14  H   -0.000061  -0.000058  -0.000003  -0.000000  -0.000000   0.000000
    15  H   -0.000319   0.002671   0.000001  -0.000000  -0.000000   0.000000
    16  H    0.002662  -0.000329   0.000001  -0.000000  -0.000000   0.000000
    17  H    0.003848  -0.005371   0.000854   0.000001  -0.000000   0.000000
    18  H   -0.005414   0.003848   0.000849   0.000001  -0.000000   0.000000
    19  H    0.496003  -0.036248   0.002572   0.000004  -0.000000   0.000000
    20  H   -0.036248   0.496187   0.002576   0.000005  -0.000000   0.000000
    21  H    0.002572   0.002576   0.319883   0.002387  -0.000000   0.000005
    22  H    0.000004   0.000005   0.002387   0.320606  -0.000140   0.005910
    23  H   -0.000000  -0.000000  -0.000000  -0.000140   0.433649  -0.000115
    24  H    0.000000   0.000000   0.000005   0.005910  -0.000115   0.488061
    25  H   -0.000000  -0.000000  -0.000000  -0.000010   0.000012  -0.004280
    26  C   -0.000008  -0.000011  -0.000052   0.000803  -0.021949   0.002268
    27  Cl  -0.000000  -0.000000   0.000000   0.000041   0.000281   0.001110
    28  H    0.000000   0.000000   0.000000  -0.000000   0.000122  -0.000000
    29  H   -0.000000   0.000000  -0.000000   0.000000   0.000659   0.000000
    30  H    0.000000  -0.000000  -0.000000   0.000000   0.000692   0.000000
              25         26         27         28         29         30
     1  C    0.000000  -0.000027  -0.000001   0.000000  -0.000000  -0.000000
     2  C    0.000000  -0.000151   0.000007  -0.000000  -0.000001  -0.000001
     3  C    0.000016  -0.004192  -0.000152  -0.000001  -0.000020  -0.000023
     4  N    0.000010   0.001922   0.000075   0.000000  -0.000004  -0.000007
     5  C    0.001908  -0.045874  -0.007926  -0.000058  -0.000563  -0.000679
     6  O    0.000001   0.013318   0.000111   0.000003  -0.000045  -0.000085
     7  N    0.000408   0.003428  -0.000791   0.000023   0.000074   0.000115
     8  C    0.002454  -0.530694  -0.029030   0.003361  -0.009149  -0.012803
     9  C   -0.006256   0.025092  -0.029223   0.029916  -0.032816  -0.037543
    10  C   -0.003406  -0.017167   0.091418   0.002364   0.002274   0.002819
    11  C    0.281866   0.268466  -0.124020   0.006662  -0.002936  -0.004298
    12  C   -0.023766  -0.397659  -0.023095  -0.047967   0.025951   0.025462
    13  C    0.061010  -0.186511  -0.167519  -0.113443  -0.051526  -0.044638
    14  H   -0.000000  -0.000000  -0.000000   0.000000   0.000000   0.000000
    15  H    0.000000  -0.000000  -0.000000  -0.000000   0.000000  -0.000000
    16  H    0.000000  -0.000000  -0.000000  -0.000000  -0.000000   0.000000
    17  H    0.000000  -0.000000  -0.000000  -0.000000  -0.000000   0.000000
    18  H    0.000000  -0.000000  -0.000000  -0.000000   0.000000  -0.000000
    19  H   -0.000000  -0.000008  -0.000000   0.000000  -0.000000   0.000000
    20  H   -0.000000  -0.000011  -0.000000   0.000000   0.000000  -0.000000
    21  H   -0.000000  -0.000052   0.000000   0.000000  -0.000000  -0.000000
    22  H   -0.000010   0.000803   0.000041  -0.000000   0.000000   0.000000
    23  H    0.000012  -0.021949   0.000281   0.000122   0.000659   0.000692
    24  H   -0.004280   0.002268   0.001110  -0.000000   0.000000   0.000000
    25  H    0.454769   0.001059  -0.004436  -0.000002   0.000002   0.000002
    26  C    0.001059   6.421105   0.025671   0.454725   0.404887   0.407685
    27  Cl  -0.004436   0.025671  17.065015   0.010333  -0.000832  -0.000674
    28  H   -0.000002   0.454725   0.010333   0.469589  -0.023316  -0.023246
    29  H    0.000002   0.404887  -0.000832  -0.023316   0.467051  -0.025838
    30  H    0.000002   0.407685  -0.000674  -0.023246  -0.025838   0.466640
 Mulliken charges:
               1
     1  C   -0.702269
     2  C   -0.368481
     3  C   -0.114017
     4  N   -0.673732
     5  C    0.725130
     6  O   -0.632896
     7  N   -0.645445
     8  C    0.247871
     9  C    0.647976
    10  C   -1.059305
    11  C   -0.163526
    12  C   -0.563366
    13  C    0.080997
    14  H    0.215122
    15  H    0.216058
    16  H    0.216045
    17  H    0.219631
    18  H    0.219885
    19  H    0.227746
    20  H    0.227625
    21  H    0.425260
    22  H    0.434951
    23  H    0.273538
    24  H    0.215555
    25  H    0.238639
    26  C   -0.826133
    27  Cl   0.193636
    28  H    0.230936
    29  H    0.246146
    30  H    0.246420
 Sum of Mulliken charges =  -0.00000
 Mulliken charges with hydrogens summed into heavy atoms:
               1
     1  C   -0.055044
     2  C    0.071036
     3  C    0.341355
     4  N   -0.248471
     5  C    0.725130
     6  O   -0.632896
     7  N   -0.210494
     8  C    0.247871
     9  C    0.921514
    10  C   -0.843750
    11  C    0.075113
    12  C   -0.563366
    13  C    0.080997
    26  C   -0.102631
    27  Cl   0.193636
 Electronic spatial extent (au):  <R**2>=           6793.4523
 Charge=             -0.0000 electrons
 Dipole moment (field-independent basis, Debye):
    X=              4.4741    Y=             -4.0578    Z=             -0.0859  Tot=              6.0408
 Quadrupole moment (field-independent basis, Debye-Ang):
   XX=            -92.8781   YY=            -88.5441   ZZ=           -101.7170
   XY=             -9.4106   XZ=             -0.1175   YZ=             -0.0369
 Traceless Quadrupole moment (field-independent basis, Debye-Ang):
   XX=              1.5016   YY=              5.8356   ZZ=             -7.3372
   XY=             -9.4106   XZ=             -0.1175   YZ=             -0.0369
 Octapole moment (field-independent basis, Debye-Ang**2):
  XXX=            146.0548  YYY=            -23.5932  ZZZ=              0.1519  XYY=            -10.1081
  XXY=            -13.4848  XXZ=             -0.3379  XZZ=              8.3849  YZZ=              5.8171
  YYZ=             -0.3302  XYZ=              0.1989
 Hexadecapole moment (field-independent basis, Debye-Ang**3):
 XXXX=          -8194.7416 YYYY=           -743.3710 ZZZZ=           -142.9041 XXXY=            -81.4569
 XXXZ=             -1.3960 YYYX=            -25.3246 YYYZ=              0.0655 ZZZX=              0.2305
 ZZZY=              0.0837 XXYY=          -1462.6431 XXZZ=          -1430.5588 YYZZ=           -161.3621
 XXYZ=             -0.4608 YYXZ=             -1.1781 ZZXY=             -2.1297
 N-N= 1.020754301554D+03 E-N=-4.557459161413D+03  KE= 1.065874335202D+03
 D1PCM: PCM CHGder 1st derivatives, ID1Alg=3 FixD1E=F DoIter=F DoCFld=F I1PDM=0.
 Calling FoFJK, ICntrl=      2127 FMM=F ISym2X=0 I1Cent= 0 IOpClX= 0 NMat=1 NMatS=1 NMatT=0.
 ***** Axes restored to original set *****
 -------------------------------------------------------------------
 Center     Atomic                   Forces (Hartrees/Bohr)
 Number     Number              X              Y              Z
 -------------------------------------------------------------------
      1        6          -0.005070700    0.001101391    0.000542718
      2        6           0.004695166   -0.005196084   -0.000823317
      3        6          -0.004876552    0.006108388    0.000847531
      4        7           0.010392282   -0.035268016   -0.003642391
      5        6          -0.008287362    0.019336922    0.002012856
      6        8           0.001353122    0.018048900    0.001423656
      7        7           0.018911514   -0.024623659   -0.003700433
      8        6          -0.011698099    0.005699354    0.001790615
      9        6           0.008300802   -0.013794276   -0.002153226
     10        6          -0.000311338    0.004610150    0.000400094
     11        6          -0.005130337    0.001930878    0.000854995
     12        6          -0.011685949   -0.000269305    0.001267832
     13        6           0.010284214   -0.006046739   -0.001768245
     14        1           0.005860775    0.009268316    0.000110158
     15        1          -0.000178748   -0.005412802    0.009035154
     16        1          -0.002007920   -0.004081174   -0.009466007
     17        1           0.001896369    0.002705408    0.008811956
     18        1           0.000124538    0.003973459   -0.008544317
     19        1           0.000140755   -0.002553574   -0.010507052
     20        1           0.002086904   -0.004008458    0.009786739
     21        1          -0.003260645    0.016089509    0.001593523
     22        1           0.005917795    0.015173372    0.000615405
     23        1          -0.008130347   -0.000342099    0.000736841
     24        1          -0.001652597   -0.002775575   -0.000118401
     25        1           0.001546853   -0.000984608   -0.000258819
     26        6           0.000714737    0.009273465    0.000876761
     27       17          -0.005964409   -0.000196633    0.000633836
     28        1          -0.010493872   -0.003874358    0.000771483
     29        1           0.002210259   -0.000984292   -0.010004752
     30        1           0.004312789   -0.002907860    0.008874809
 -------------------------------------------------------------------
 Cartesian Forces:  Max     0.035268016 RMS     0.008070016

 GradGradGradGradGradGradGradGradGradGradGradGradGradGradGradGradGradGrad
 Berny optimization.
 FormGI is forming the generalized inverse of G from B-inverse, IUseBI=4.
 GSVD:  received Info=                   1 from GESDD.
 Internal  Forces:  Max     0.029734699 RMS     0.005927859
 Search for a local minimum.
 Step number   1 out of a maximum of  157
 All quantities printed in internal units (Hartrees-Bohrs-Radians)
 Mixed Optimization -- RFO/linear search
 Second derivative matrix not updated -- first step.
 ITU=  0
     Eigenvalues ---    0.00329   0.00423   0.00676   0.00994   0.01161
     Eigenvalues ---    0.01452   0.01468   0.01631   0.01698   0.01927
     Eigenvalues ---    0.01949   0.01998   0.02046   0.02084   0.02098
     Eigenvalues ---    0.02122   0.02137   0.02160   0.02177   0.03756
     Eigenvalues ---    0.04435   0.04933   0.05553   0.05673   0.05783
     Eigenvalues ---    0.07026   0.07435   0.08033   0.09179   0.11975
     Eigenvalues ---    0.12669   0.16000   0.16000   0.16000   0.16000
     Eigenvalues ---    0.16000   0.16000   0.16000   0.16000   0.16000
     Eigenvalues ---    0.16000   0.16000   0.21964   0.22000   0.22000
     Eigenvalues ---    0.22004   0.22367   0.23481   0.24601   0.25000
     Eigenvalues ---    0.25000   0.25000   0.25000   0.25000   0.29145
     Eigenvalues ---    0.29411   0.29805   0.31677   0.32337   0.32338
     Eigenvalues ---    0.32404   0.32406   0.32502   0.32508   0.32548
     Eigenvalues ---    0.32552   0.32560   0.32892   0.35628   0.35649
     Eigenvalues ---    0.36666   0.37885   0.39573   0.40653   0.40977
     Eigenvalues ---    0.42441   0.42459   0.43853   0.44345   0.45563
     Eigenvalues ---    0.46285   0.51106   0.52286   0.95145
 RFO step:  Lambda=-1.52883612D-02 EMin= 3.28923124D-03
 Linear search not attempted -- first point.
 Iteration  1 RMS(Cart)=  0.07881295 RMS(Int)=  0.00095163
 Iteration  2 RMS(Cart)=  0.00308326 RMS(Int)=  0.00003576
 Iteration  3 RMS(Cart)=  0.00000068 RMS(Int)=  0.00003576
 Variable       Old X    -DE/DX   Delta X   Delta X   Delta X     New X
                                 (Linear)    (Quad)   (Total)
    R1        2.88353   0.00165   0.00000   0.00528   0.00528   2.88881
    R2        2.09832  -0.01058   0.00000  -0.03104  -0.03104   2.06728
    R3        2.09934  -0.01024   0.00000  -0.03008  -0.03008   2.06926
    R4        2.09924  -0.01020   0.00000  -0.02998  -0.02998   2.06926
    R5        2.89702  -0.00556   0.00000  -0.01813  -0.01813   2.87889
    R6        2.10108  -0.00898   0.00000  -0.02645  -0.02645   2.07463
    R7        2.10110  -0.00900   0.00000  -0.02651  -0.02651   2.07460
    R8        2.74533  -0.00149   0.00000  -0.00377  -0.00377   2.74155
    R9        2.10229  -0.01032   0.00000  -0.03047  -0.03047   2.07183
   R10        2.10231  -0.01027   0.00000  -0.03033  -0.03033   2.07198
   R11        2.57626   0.00011   0.00000   0.00020   0.00020   2.57646
   R12        1.95066  -0.01620   0.00000  -0.03685  -0.03685   1.91381
   R13        2.30649   0.01809   0.00000   0.01871   0.01871   2.32520
   R14        2.58765   0.00781   0.00000   0.01484   0.01484   2.60249
   R15        2.72137  -0.02973   0.00000  -0.07234  -0.07234   2.64903
   R16        1.95043  -0.01561   0.00000  -0.03549  -0.03549   1.91494
   R17        2.67592  -0.01769   0.00000  -0.04040  -0.04039   2.63553
   R18        2.65745  -0.00795   0.00000  -0.01732  -0.01729   2.64017
   R19        2.65879  -0.00660   0.00000  -0.01495  -0.01497   2.64382
   R20        2.03053   0.00547   0.00000   0.01431   0.01431   2.04484
   R21        2.63433  -0.00822   0.00000  -0.01650  -0.01648   2.61785
   R22        2.04667   0.00304   0.00000   0.00819   0.00819   2.05485
   R23        2.63643  -0.00334   0.00000  -0.00628  -0.00629   2.63013
   R24        2.04634   0.00182   0.00000   0.00489   0.00489   2.05123
   R25        2.66521  -0.01106   0.00000  -0.02422  -0.02425   2.64095
   R26        3.32854  -0.00584   0.00000  -0.01888  -0.01888   3.30965
   R27        2.84739   0.00093   0.00000   0.00280   0.00280   2.85019
   R28        2.09242  -0.01113   0.00000  -0.03234  -0.03234   2.06008
   R29        2.09852  -0.00993   0.00000  -0.02914  -0.02914   2.06938
   R30        2.09846  -0.00993   0.00000  -0.02914  -0.02914   2.06932
    A1        1.91260   0.00335   0.00000   0.02065   0.02048   1.93308
    A2        1.92554   0.00231   0.00000   0.01247   0.01237   1.93791
    A3        1.92603   0.00229   0.00000   0.01224   0.01214   1.93817
    A4        1.89657  -0.00263   0.00000  -0.01341  -0.01357   1.88301
    A5        1.89689  -0.00264   0.00000  -0.01363  -0.01379   1.88310
    A6        1.90570  -0.00286   0.00000  -0.01923  -0.01926   1.88645
    A7        1.94138  -0.00078   0.00000   0.00078   0.00078   1.94216
    A8        1.90069   0.00138   0.00000   0.01319   0.01319   1.91388
    A9        1.90149   0.00131   0.00000   0.01265   0.01265   1.91413
   A10        1.91085  -0.00025   0.00000  -0.00379  -0.00384   1.90701
   A11        1.91045  -0.00020   0.00000  -0.00350  -0.00355   1.90690
   A12        1.89845  -0.00148   0.00000  -0.01974  -0.01983   1.87862
   A13        1.93750  -0.00439   0.00000  -0.01505  -0.01499   1.92251
   A14        1.90561   0.00235   0.00000   0.01433   0.01434   1.91994
   A15        1.90559   0.00231   0.00000   0.01444   0.01444   1.92004
   A16        1.90677   0.00112   0.00000   0.00418   0.00424   1.91101
   A17        1.90562   0.00124   0.00000   0.00551   0.00557   1.91119
   A18        1.90243  -0.00265   0.00000  -0.02377  -0.02381   1.87862
   A19        2.12684  -0.00435   0.00000  -0.01848  -0.01848   2.10836
   A20        2.07751  -0.00084   0.00000  -0.00794  -0.00794   2.06957
   A21        2.07883   0.00518   0.00000   0.02642   0.02642   2.10525
   A22        2.08076   0.01518   0.00000   0.05721   0.05721   2.13797
   A23        2.08448  -0.02684   0.00000  -0.10118  -0.10118   1.98330
   A24        2.11794   0.01167   0.00000   0.04398   0.04398   2.16192
   A25        2.23547  -0.00366   0.00000  -0.01555  -0.01555   2.21993
   A26        2.02610   0.00640   0.00000   0.03382   0.03382   2.05992
   A27        2.02161  -0.00274   0.00000  -0.01828  -0.01828   2.00333
   A28        2.17491  -0.00373   0.00000  -0.01363  -0.01365   2.16126
   A29        2.05165  -0.00356   0.00000  -0.01301  -0.01303   2.03862
   A30        2.05662   0.00729   0.00000   0.02664   0.02668   2.08330
   A31        2.11524  -0.00003   0.00000  -0.00208  -0.00208   2.11316
   A32        2.13826  -0.00615   0.00000  -0.03413  -0.03412   2.10414
   A33        2.02968   0.00618   0.00000   0.03621   0.03621   2.06589
   A34        2.11705  -0.00473   0.00000  -0.01844  -0.01839   2.09866
   A35        2.09912   0.00125   0.00000   0.00286   0.00283   2.10195
   A36        2.06702   0.00348   0.00000   0.01558   0.01556   2.08258
   A37        2.10438  -0.00323   0.00000  -0.01045  -0.01044   2.09394
   A38        2.08301   0.00196   0.00000   0.00721   0.00721   2.09022
   A39        2.09579   0.00127   0.00000   0.00324   0.00324   2.09903
   A40        2.08804   0.00541   0.00000   0.02240   0.02236   2.11040
   A41        2.05552  -0.00042   0.00000  -0.00259  -0.00257   2.05295
   A42        2.13962  -0.00499   0.00000  -0.01981  -0.01979   2.11984
   A43        2.08503  -0.00471   0.00000  -0.01807  -0.01812   2.06691
   A44        2.06171  -0.00007   0.00000  -0.00010  -0.00008   2.06163
   A45        2.13645   0.00478   0.00000   0.01817   0.01820   2.15464
   A46        1.97683  -0.00272   0.00000  -0.01440  -0.01435   1.96248
   A47        1.91044   0.00281   0.00000   0.01548   0.01547   1.92591
   A48        1.91072   0.00277   0.00000   0.01526   0.01525   1.92597
   A49        1.88181   0.00012   0.00000   0.00178   0.00183   1.88364
   A50        1.88202   0.00012   0.00000   0.00174   0.00179   1.88381
   A51        1.90048  -0.00328   0.00000  -0.02102  -0.02109   1.87939
    D1       -3.14107   0.00000   0.00000   0.00014   0.00014  -3.14092
    D2        1.03467  -0.00010   0.00000  -0.00429  -0.00429   1.03038
    D3       -1.03359   0.00013   0.00000   0.00458   0.00459  -1.02901
    D4        1.05460  -0.00030   0.00000  -0.00402  -0.00406   1.05054
    D5       -1.05285  -0.00040   0.00000  -0.00845  -0.00849  -1.06135
    D6       -3.12111  -0.00017   0.00000   0.00042   0.00039  -3.12073
    D7       -1.05285   0.00027   0.00000   0.00391   0.00394  -1.04890
    D8        3.12289   0.00017   0.00000  -0.00052  -0.00049   3.12239
    D9        1.05463   0.00040   0.00000   0.00835   0.00838   1.06301
   D10       -3.13812  -0.00006   0.00000  -0.00114  -0.00114  -3.13926
   D11        1.04192  -0.00023   0.00000  -0.00618  -0.00615   1.03577
   D12       -1.03642   0.00022   0.00000   0.00563   0.00560  -1.03082
   D13       -1.03666   0.00100   0.00000   0.01334   0.01331  -1.02335
   D14       -3.13980   0.00083   0.00000   0.00830   0.00830  -3.13150
   D15        1.06505   0.00128   0.00000   0.02010   0.02005   1.08509
   D16        1.04287  -0.00108   0.00000  -0.01512  -0.01509   1.02778
   D17       -1.06027  -0.00124   0.00000  -0.02016  -0.02011  -1.08038
   D18       -3.13861  -0.00079   0.00000  -0.00836  -0.00836   3.13622
   D19       -3.14118   0.00002   0.00000   0.00075   0.00074  -3.14043
   D20        0.00171  -0.00000   0.00000  -0.00000  -0.00000   0.00170
   D21       -1.03872   0.00091   0.00000   0.01179   0.01179  -1.02693
   D22        2.10416   0.00089   0.00000   0.01104   0.01105   2.11521
   D23        1.04032  -0.00090   0.00000  -0.01131  -0.01131   1.02901
   D24       -2.09998  -0.00092   0.00000  -0.01206  -0.01205  -2.11203
   D25        0.00171   0.00006   0.00000   0.00158   0.00158   0.00329
   D26       -3.13725  -0.00009   0.00000  -0.00254  -0.00255  -3.13980
   D27       -3.14117   0.00008   0.00000   0.00231   0.00232  -3.13885
   D28        0.00305  -0.00007   0.00000  -0.00182  -0.00182   0.00123
   D29        3.14158   0.00007   0.00000   0.00191   0.00190  -3.13970
   D30        0.00407   0.00008   0.00000   0.00213   0.00212   0.00620
   D31        0.00267  -0.00009   0.00000  -0.00232  -0.00231   0.00036
   D32       -3.13483  -0.00007   0.00000  -0.00210  -0.00209  -3.13692
   D33        0.02168  -0.00003   0.00000  -0.00103  -0.00103   0.02064
   D34       -3.12088  -0.00005   0.00000  -0.00162  -0.00162  -3.12250
   D35       -3.12399  -0.00003   0.00000  -0.00114  -0.00114  -3.12514
   D36        0.01664  -0.00004   0.00000  -0.00173  -0.00173   0.01491
   D37        3.14151  -0.00003   0.00000  -0.00093  -0.00093   3.14057
   D38        0.00180  -0.00010   0.00000  -0.00269  -0.00267  -0.00087
   D39        0.00088  -0.00001   0.00000  -0.00032  -0.00032   0.00056
   D40       -3.13883  -0.00008   0.00000  -0.00208  -0.00205  -3.14088
   D41        3.14090   0.00006   0.00000   0.00170   0.00171  -3.14057
   D42        0.00053   0.00003   0.00000   0.00090   0.00091   0.00144
   D43       -0.00159   0.00004   0.00000   0.00113   0.00114  -0.00045
   D44        3.14122   0.00001   0.00000   0.00032   0.00033   3.14156
   D45        0.00039  -0.00001   0.00000  -0.00046  -0.00047  -0.00008
   D46       -3.14085  -0.00002   0.00000  -0.00052  -0.00053  -3.14138
   D47        3.14021   0.00003   0.00000   0.00113   0.00115   3.14137
   D48       -0.00103   0.00003   0.00000   0.00107   0.00109   0.00006
   D49        0.00102  -0.00004   0.00000  -0.00117  -0.00116  -0.00014
   D50       -3.14057  -0.00002   0.00000  -0.00060  -0.00060  -3.14117
   D51        3.14141  -0.00002   0.00000  -0.00039  -0.00037   3.14104
   D52       -0.00018   0.00000   0.00000   0.00018   0.00019   0.00001
   D53        0.00031   0.00001   0.00000   0.00033   0.00033   0.00064
   D54        3.14145   0.00003   0.00000   0.00078   0.00079  -3.14094
   D55       -3.14129  -0.00001   0.00000  -0.00024  -0.00023  -3.14152
   D56       -0.00015   0.00001   0.00000   0.00021   0.00022   0.00008
   D57       -0.00100   0.00002   0.00000   0.00046   0.00047  -0.00053
   D58        3.14023   0.00002   0.00000   0.00052   0.00053   3.14076
   D59        3.14107  -0.00000   0.00000  -0.00002  -0.00001   3.14106
   D60       -0.00089  -0.00000   0.00000   0.00004   0.00005  -0.00084
   D61       -3.14152   0.00001   0.00000   0.00009   0.00009  -3.14143
   D62        1.04127  -0.00032   0.00000  -0.00357  -0.00352   1.03775
   D63       -1.04065   0.00032   0.00000   0.00353   0.00349  -1.03716
   D64        0.00044   0.00001   0.00000   0.00003   0.00003   0.00046
   D65       -2.09997  -0.00032   0.00000  -0.00362  -0.00357  -2.10354
   D66        2.10130   0.00031   0.00000   0.00348   0.00343   2.10473
         Item               Value     Threshold  Converged?
 Maximum Force            0.029735     0.000450     NO 
 RMS     Force            0.005928     0.000300     NO 
 Maximum Displacement     0.292181     0.001800     NO 
 RMS     Displacement     0.079846     0.001200     NO 
 Predicted change in Energy=-8.043453D-03
 GradGradGradGradGradGradGradGradGradGradGradGradGradGradGradGradGradGrad

                          Input orientation:                          
 ---------------------------------------------------------------------
 Center     Atomic      Atomic             Coordinates (Angstroms)
 Number     Number       Type             X           Y           Z
 ---------------------------------------------------------------------
      1          6           0       -1.697249    1.809191    0.311664
      2          6           0       -0.320309    1.171761    0.125610
      3          6           0        0.777735    2.227288    0.093363
      4          7           0        2.071865    1.596882   -0.087030
      5          6           0        3.210525    2.344485   -0.145459
      6          8           0        3.201885    3.570926   -0.046680
      7          7           0        4.353509    1.596738   -0.321766
      8          6           0        5.669439    2.070194   -0.417835
      9          6           0        6.019110    3.416865   -0.321427
     10          6           0        6.669274    1.115557   -0.620155
     11          6           0        7.994727    1.504659   -0.724320
     12          6           0        8.333844    2.851046   -0.627533
     13          6           0        7.353084    3.825753   -0.424676
     14          1           0       -2.478824    1.044096    0.334286
     15          1           0       -1.925144    2.498678   -0.507916
     16          1           0       -1.747580    2.369443    1.251141
     17          1           0       -0.301349    0.600642   -0.811794
     18          1           0       -0.123944    0.469986    0.946696
     19          1           0        0.776362    2.798629    1.029088
     20          1           0        0.596498    2.932278   -0.726593
     21          1           0        2.112169    0.588288   -0.169298
     22          1           0        4.257521    0.590724   -0.396485
     23          1           0        5.260529    4.172327   -0.164151
     24          1           0        6.416205    0.060893   -0.697857
     25          1           0        8.765135    0.756406   -0.881874
     26          6           0        7.656015    5.298844   -0.310348
     27         17           0       10.027468    3.274137   -0.768984
     28          1           0        8.720752    5.513256   -0.404098
     29          1           0        7.318904    5.682842    0.658196
     30          1           0        7.129503    5.857609   -1.091164
 ---------------------------------------------------------------------
                    Distance matrix (angstroms):
                    1          2          3          4          5
     1  C    0.000000
     2  C    1.528692   0.000000
     3  C    2.519525   1.523443   0.000000
     4  N    3.796084   2.438942   1.450767   0.000000
     5  C    4.957998   3.730355   2.447292   1.363404   0.000000
     6  O    5.218586   4.265153   2.775154   2.274955   1.230442
     7  N    6.087532   4.714374   3.654598   2.293687   1.377180
     8  C    7.407320   6.081085   4.920851   3.643624   2.489113
     9  C    7.907440   6.740071   5.390654   4.352932   3.011497
    10  C    8.446781   7.029480   6.037821   4.653177   3.701154
    11  C    9.751944   8.364988   7.299026   5.957763   4.891726
    12  C   10.128691   8.847688   7.616006   6.409170   5.170822
    13  C    9.301464   8.138024   6.786653   5.742224   4.408277
    14  H    1.093957   2.172333   3.473207   4.603461   5.855754
    15  H    1.095007   2.176594   2.782219   4.119036   5.150752
    16  H    1.095003   2.176779   2.781704   4.120160   5.151109
    17  H    2.161316   1.097845   2.151676   2.673934   3.977217
    18  H    2.161487   1.097829   2.151583   2.675829   3.978094
    19  H    2.759064   2.160014   1.096364   2.090034   2.740612
    20  H    2.756914   2.160140   1.096442   2.090223   2.741597
    21  H    4.029093   2.518801   2.129795   1.012746   2.071517
    22  H    6.119267   4.643998   3.876494   2.425945   2.057886
    23  H    7.363524   6.342958   4.893356   4.099566   2.746611
    24  H    8.360850   6.876972   6.091932   4.648189   3.974459
    25  H   10.582739   9.150565   8.180045   6.792499   5.823916
    26  C   10.002406   8.991363   7.543751   6.703516   5.340206
    27  Cl  11.865195  10.597017   9.348641   8.159035   6.908237
    28  H   11.080034  10.043403   8.610259   7.723096   6.361651
    29  H    9.819179   8.887692   7.419352   6.691924   5.354369
    30  H    9.811685   8.884673   7.411295   6.688930   5.347409
                    6          7          8          9         10
     6  O    0.000000
     7  N    2.302027   0.000000
     8  C    2.911834   1.401806   0.000000
     9  C    2.834780   2.467202   1.394664   0.000000
    10  C    4.287247   2.383975   1.397116   2.409973   0.000000
    11  C    5.263078   3.664560   2.412619   2.778835   1.385308
    12  C    5.214655   4.184477   2.784378   2.402467   2.404739
    13  C    4.176155   3.738522   2.432426   1.399048   2.801958
    14  H    6.229002   6.885971   8.246985   8.847309   9.198030
    15  H    5.258220   6.345836   7.607194   7.999313   8.705724
    16  H    5.255959   6.347787   7.608364   7.993218   8.713060
    17  H    4.656247   4.785399   6.161582   6.936842   6.992242
    18  H    4.654434   4.788126   6.163270   6.930320   7.001399
    19  H    2.763491   4.008158   5.154261   5.449084   6.346585
    20  H    2.767344   4.007828   5.154925   5.459277   6.339590
    21  H    3.177836   2.462483   3.861604   4.825783   4.609608
    22  H    3.180933   1.013341   2.045189   3.331051   2.478311
    23  H    2.147906   2.735176   2.156508   1.082083   3.396519
    24  H    4.803771   2.599034   2.161796   3.400284   1.087381
    25  H    6.290375   4.525740   3.394805   3.864298   2.142457
    26  C    4.784819   4.961075   3.792390   2.494279   4.309238
    27  Cl   6.870108   5.933589   4.534887   4.035791   3.994882
    28  H    5.861594   5.866745   4.600584   3.420608   4.857468
    29  H    4.680479   5.142970   4.114584   2.789942   4.787096
    30  H    4.663266   5.143261   4.114568   2.789749   4.787559
                   11         12         13         14         15
    11  C    0.000000
    12  C    1.391807   0.000000
    13  C    2.426720   1.397532   0.000000
    14  H   10.536985  11.004725  10.245977   0.000000
    15  H    9.971898  10.265735   9.373023   1.769654   0.000000
    16  H    9.978119  10.266279   9.367566   1.769713   1.772713
    17  H    8.345644   8.925516   8.315139   2.500310   2.516265
    18  H    8.353183   8.926467   8.309499   2.500022   3.078280
    19  H    7.540133   7.737098   6.813346   3.762628   3.122577
    20  H    7.534713   7.738407   6.822089   3.761423   2.567977
    21  H    5.979321   6.636211   6.165516   4.640967   4.479302
    22  H    3.861277   4.666781   4.477579   6.791018   6.471325
    23  H    3.860840   3.377243   2.137000   8.362527   7.386012
    24  H    2.139368   3.386332   3.889286   9.008526   8.692351
    25  H    1.085464   2.153652   3.409371  11.313197  10.837777
    26  C    3.831703   2.559644   1.508256  11.010604   9.983915
    27  Cl   2.695381   1.751392   2.752300  12.751377  11.980585
[...]
 0365,-0.00000429,-0.00000407,-0.00000836,0.00000122,0.00000690,-0.0000
 0370,-0.00001107,-0.00000385,-0.00001071,0.00000739,0.00001004,-0.0000
 0430,0.00003319,-0.00002825,0.00003670,0.00022377,0.00022818,0.0005319
 0,-0.00004815,-0.00016862,0.00001493,-0.00168769,0.01128550,0.02440485
 ,-0.00000700,-0.00001664,-0.00000309,-0.00001450,0.00003533,0.00001031
 ,0.00005516,-0.00008409,-0.00000555,-0.00036710,0.00004422,-0.00001553
 ,0.00035633,-0.00068175,0.00002684,-0.00005420,0.00023522,0.00000167,-
 0.00133286,0.00139765,0.00016073,-0.00316392,-0.00303150,0.00091860,-0
 .00035612,-0.00086052,-0.00012882,-0.01548340,0.02090998,0.00320634,-0
 .20861870,0.14609571,0.02617873,0.00705968,-0.00719677,-0.00078682,0.0
 0041566,-0.00201671,0.00045212,-0.00000957,0.00000056,0.00000068,0.000
 00121,0.00000171,0.00000018,0.00000081,0.00000151,0.00000031,0.0000012
 5,-0.00000112,-0.00000293,0.00000056,-0.00000394,0.00000238,-0.0000196
 7,0.00001015,0.00000907,-0.00000221,0.00000551,0.00000186,0.00001252,0
 .00003415,0.00000874,0.00003089,0.00008077,0.00000117,0.00002918,0.000
 10658,-0.00005416,0.00101228,-0.00004575,-0.00056712,0.21882160,-0.000
 00153,-0.00000180,-0.00000040,-0.00000450,0.00000477,0.00000055,-0.000
 00932,-0.00001730,-0.00000379,-0.00003475,0.00005467,0.00000587,-0.000
 17617,-0.00011606,0.00004734,0.00004037,0.00000680,0.00000087,-0.00016
 644,0.00058173,0.00000308,-0.00285733,0.00032156,-0.00009743,-0.001074
 85,-0.00027914,0.00015106,-0.00809022,0.01066957,0.00126396,0.14388357
 ,-0.19616663,-0.02411460,0.02310630,-0.01557549,-0.00345109,-0.0030552
 8,-0.00460357,-0.00028075,-0.00000040,0.00000068,0.00000003,0.00000012
 ,-0.00000051,0.00000005,0.00000007,-0.00000022,-0.00000013,0.00000003,
 0.00000034,-0.00000039,0.00000015,-0.00000007,0.00000088,0.00000120,-0
 .00000019,0.00000031,0.00000027,-0.00000015,-0.00000087,0.00000209,0.0
 0000219,-0.00000232,0.00002138,-0.00000366,-0.00000689,0.00008430,0.00
 003081,0.00001952,0.00036668,0.00067640,0.00025104,-0.15379158,0.20458
 630,0.00000027,0.00000155,0.00000022,0.00000130,-0.00000523,0.00000347
 ,-0.00000470,0.00001205,0.00000646,0.00002851,-0.00000857,-0.00004366,
 -0.00003244,0.00002110,-0.00008738,0.00002163,-0.00000438,0.00002559,0
 .00012344,-0.00012591,0.00021212,0.00090767,-0.00005577,0.00712134,-0.
 00011499,0.00014250,-0.00092367,0.00153913,-0.00177695,0.00339108,0.02
 605766,-0.02438114,-0.04099355,0.00089110,-0.00027361,0.00315051,0.000
 40248,-0.00037801,0.00572189,0.00000082,-0.00000023,0.00000047,-0.0000
 0060,0.00000101,-0.00000024,0.00000075,-0.00000113,-0.00000147,-0.0000
 0072,-0.00000092,-0.00000202,0.00000002,0.00000237,-0.00000104,0.00000
 257,-0.00000366,-0.00000399,0.00000037,0.00000136,-0.00000045,0.000000
 32,-0.00000315,0.00001525,0.00000217,-0.00001236,0.00002155,-0.0000427
 2,0.00001932,-0.00053934,-0.00054966,0.00029689,-0.00438116,-0.0288942
 5,0.02623674,0.02992682,-0.00000091,-0.00001215,-0.00000143,-0.0000124
 4,0.00001766,0.00000878,0.00006957,-0.00006510,-0.00001322,-0.00022179
 ,0.00007075,0.00001975,0.00061597,-0.00042962,-0.00003344,-0.00014888,
 0.00034770,0.00004771,0.00020129,-0.00124588,-0.00017029,-0.00408538,0
 .00140898,0.00152163,-0.00731274,-0.03170038,-0.00039212,-0.00018248,-
 0.00169102,-0.00017885,-0.00499131,0.00360789,0.00126844,0.00940091,0.
 02081052,0.00044353,-0.09328433,-0.02642532,0.00078491,-0.00000596,0.0
 0000207,0.00000081,-0.00000194,0.00000275,-0.00000413,-0.00000132,0.00
 000021,0.00000413,0.00000339,0.00000031,0.00000319,0.00000185,0.000001
 92,-0.00000314,-0.00001723,0.00000892,0.00001627,-0.00000638,0.0000032
 4,-0.00000494,0.00002855,0.00002008,-0.00002211,-0.00034673,-0.0001020
 3,0.00001549,0.00078972,-0.00168178,-0.00073864,0.00015893,0.00000323,
 -0.00007282,0.00058627,0.00139021,0.00002551,0.59567373,-0.00000002,0.
 00000356,0.00000060,0.00000447,-0.00000517,-0.00000340,-0.00002286,0.0
 0002033,0.00000215,0.00008893,-0.00001315,-0.00000530,-0.00025065,0.00
 027343,0.00001674,0.00022634,-0.00016968,0.00001189,0.00051655,0.00014
 155,-0.00006120,0.00022879,0.00197358,-0.00035943,-0.00870374,-0.01288
 093,-0.00018447,0.00013068,-0.00073766,-0.00000558,0.00216230,0.000913
 09,-0.00046053,0.00249585,-0.02606316,-0.00185465,-0.03413793,-0.22288
 770,-0.00488635,0.00000099,-0.00000151,-0.00000028,0.00000147,-0.00000
 067,0.00000180,0.00000092,0.00000049,-0.00000155,-0.00000104,-0.000000
 27,-0.00000112,-0.00000097,-0.00000126,0.00000176,0.00000852,-0.000002
 39,-0.00000712,0.00000393,0.00000008,0.00000172,-0.00000268,-0.0000099
 4,0.00000272,0.00007848,0.00003104,0.00000574,0.00186958,0.00118321,0.
 00012881,-0.00003931,0.00000736,0.00003611,-0.00032783,-0.00021293,0.0
 0002154,-0.02892288,0.51572100,-0.00000039,0.00000125,-0.00000400,0.00
 000112,-0.00000088,0.00000288,0.00000384,-0.00000093,0.00000981,0.0000
 1793,-0.00003278,-0.00001121,-0.00008950,0.00009051,0.00003610,-0.0000
 0734,-0.00008206,0.00013787,-0.00000732,0.00007192,0.00003310,0.001339
 36,-0.00048971,0.00823884,0.00085580,0.00226277,0.00629300,-0.00009386
 ,0.00023008,-0.00088348,0.00121822,-0.00066411,0.00507773,-0.00054658,
 -0.00375135,0.00272412,0.00037568,-0.00567907,-0.07167146,0.00000019,-
 0.00000039,0.00000050,0.00000101,0.00000020,0.00000073,-0.00000047,0.0
 0000034,0.00000045,-0.00000149,0.00000017,-0.00000033,0.00000062,-0.00
 000134,0.00000099,-0.00000060,0.00000030,0.00000067,0.00000270,-0.0000
 0075,0.00000064,-0.00001196,0.00000744,-0.00000546,0.00000461,0.000019
 57,-0.00026134,-0.00040630,0.00048457,-0.00507011,-0.00007627,0.000028
 44,-0.00053980,-0.00007295,-0.00016166,0.00008523,-0.00573597,0.000974
 21,0.55626909,-0.00002419,-0.00007730,-0.00001437,-0.00003325,0.000142
 64,0.00004880,0.00050537,-0.00032229,0.00001296,-0.00189868,-0.0006256
 3,-0.00010061,0.00393125,-0.00168867,-0.00045097,-0.00118855,0.0009334
 0,0.00003330,-0.00538881,-0.00011514,0.00053877,0.00270193,0.00141409,
 -0.00031131,-0.00064947,0.00540714,0.00093029,0.00242592,-0.00247452,0
 .00004194,-0.02858740,-0.00846751,0.00278382,-0.15176409,-0.03228115,0
 .01159977,-0.03905845,-0.01137581,0.00376145,-0.00005718,-0.00000595,0
 .00000241,0.00000627,0.00001711,-0.00000304,0.00000259,0.00001361,0.00
 000919,0.00001237,-0.00000666,-0.00000207,0.00000203,-0.00001915,-0.00
 000030,-0.00014177,0.00007264,0.00007075,-0.00001738,0.00002798,0.0000
 1315,0.00003912,0.00018144,0.00008305,-0.00006663,0.00020287,0.0000423
 0,-0.00114844,-0.00115474,0.00013389,-0.00127339,-0.00034798,0.0001486
 8,0.00105704,0.00055184,-0.00034284,-0.00173176,-0.00288333,-0.0002551
 4,0.22171835,-0.00000547,-0.00001959,-0.00000306,-0.00001255,0.0000358
 6,0.00001040,0.00012518,-0.00008795,-0.00000108,-0.00048494,-0.0000768
 4,-0.00003276,0.00106832,-0.00087050,-0.00006773,-0.00008735,0.0005184
 2,0.00001393,-0.00161082,0.00025161,0.00020896,0.00010812,0.00128109,0
 .00005013,0.00060798,-0.00289504,-0.00047138,0.00244749,-0.00394012,-0
 .00073586,-0.03621831,-0.00676534,0.00322477,-0.03378923,-0.04879329,0
 .00180006,0.01207083,0.00496881,-0.00113766,-0.00001330,-0.00000075,0.
 00000076,0.00000040,0.00000479,-0.00000203,-0.00000016,0.00000296,0.00
 000337,0.00000464,-0.00000133,0.00000153,0.00000180,-0.00000207,-0.000
 00215,-0.00003767,0.00001731,0.00002167,-0.00000978,0.00000717,0.00000
 065,0.00002165,0.00004571,0.00001181,0.00008074,0.00004837,0.00000019,
 0.00038434,0.00036934,-0.00004150,-0.00133435,-0.00029968,0.00010587,-
 0.00087222,0.00056207,0.00029357,0.00498355,-0.00221109,-0.00054835,0.
 05063379,0.05747589,0.00000324,0.00000906,0.00000065,0.00000405,-0.000
 01588,-0.00000496,-0.00004533,0.00002591,0.00001798,0.00018349,0.00006
 386,0.00006385,-0.00037779,0.00011040,-0.00010415,0.00017271,-0.000051
 34,-0.00001159,0.00042731,0.00004187,-0.00063968,-0.00038601,-0.000035
 35,-0.00061254,0.00063095,-0.00095096,0.00452833,0.00040806,-0.0002643
 6,0.00485582,0.00117087,0.00037158,0.00222471,0.01160045,0.00159184,-0
 .02109457,0.00497304,0.00131548,0.00232351,0.00000626,0.00000071,-0.00
 000041,-0.00000080,-0.00000212,0.00000029,-0.00000026,-0.00000124,-0.0
 0000028,-0.00000217,0.00000051,0.00000063,0.00000050,0.00000203,-0.000
 00014,0.00000870,-0.00000619,-0.00000952,0.00000539,0.00000196,-0.0000
 0498,-0.00001067,-0.00002061,-0.00000003,0.00001401,-0.00002949,0.0000
 0801,0.00013615,0.00013910,0.00019308,0.00008841,0.00000032,0.00030142
 ,-0.00043518,0.00014202,-0.00257444,0.00019813,0.00025846,-0.00264893,
 -0.01874342,-0.00265096,0.01329109,-0.00000118,-0.00000467,-0.00000021
 ,-0.00000167,0.00000677,0.00000421,0.00002160,-0.00001740,0.00001451,-
 0.00008809,-0.00003171,-0.00001408,0.00016896,-0.00004194,0.00000501,-
 0.00009186,0.00001308,-0.00006875,-0.00017126,-0.00014550,0.00000197,-
 0.00027201,-0.00023100,-0.00068572,0.00012344,-0.00133749,-0.00006918,
 0.00015383,0.00019989,0.00000381,-0.00017251,-0.00055416,0.00000969,-0
 .00076722,0.00168461,0.00000704,-0.00491533,-0.00473137,0.00487933,-0.
 00000255,0.00000005,0.00000028,-0.00000071,0.00000214,-0.00000044,0.00
 000059,0.00000012,-0.00000098,-0.00000028,-0.00000284,-0.00000171,0.00
 000001,0.00000086,-0.00000132,-0.00000466,0.00000344,-0.00000124,-0.00
 000154,0.00000358,0.00000145,0.00000230,0.00000919,0.00001058,-0.00004
 813,-0.00000743,0.00003145,0.00031079,-0.00016239,0.00054194,0.0000121
 9,-0.00005052,0.00008076,-0.00000231,-0.00002459,-0.00000577,-0.100803
 21,-0.03174522,0.10604302,0.00030724,0.00056012,-0.00036865,0.10728498
 ,-0.00000132,-0.00000708,-0.00000177,-0.00000553,0.00001219,0.00000669
 ,0.00004450,-0.00003653,-0.00000716,-0.00015644,-0.00001825,-0.0000068
 2,0.00033626,-0.00014815,-0.00001176,-0.00015531,0.00010482,-0.0000033
 0,-0.00014294,-0.00017799,-0.00004590,-0.00059570,-0.00009367,-0.00130
 186,0.00074041,-0.00290371,-0.00020208,-0.00015081,-0.00041829,0.00019
 778,-0.00035199,0.00023008,-0.00086454,-0.00208647,0.00002442,-0.00032
 516,-0.01504980,-0.01069026,0.02772537,-0.00000459,0.00000029,0.000000
 52,-0.00000046,0.00000187,-0.00000099,-0.00000035,0.00000069,0.0000015
 0,0.00000128,-0.00000066,0.00000050,0.00000058,-0.00000034,-0.00000155
 ,-0.00001142,0.00000604,0.00000829,-0.00000286,0.00000331,0.00000034,0
 .00001084,0.00001271,-0.00000012,-0.00005381,-0.00002458,0.00005253,0.
 00001756,-0.00008192,0.00052799,0.00001833,-0.00000963,0.00001646,0.00
 007677,-0.00002836,0.00001354,-0.03294827,-0.06815716,0.06552438,0.001
 40034,-0.00003295,0.00049634,0.03872782,0.07521492,0.00000055,0.000002
 14,-0.00000048,-0.00000093,-0.00000290,-0.00000028,-0.00001157,0.00000
 442,-0.00000259,0.00003020,0.00002494,0.00000676,-0.00003414,-0.000077
 79,-0.00001564,0.00003611,0.00004831,0.00000410,-0.00002227,-0.0000190
 8,0.00003921,-0.00014464,0.00008410,-0.00031026,-0.00067876,-0.0003260
 3,-0.00035234,-0.00005383,-0.00010407,-0.00004308,-0.00017527,0.000231
 95,-0.00014421,0.00140114,-0.00003887,0.00069204,-0.00205529,-0.000182
 21,0.00460227,0.00000200,0.00000090,0.00000009,-0.00000042,-0.00000104
 ,0.00000023,-0.00000061,-0.00000049,0.00000015,0.00000015,0.00000078,0
 .00000090,0.00000014,0.00000027,-0.00000034,0.00000078,-0.00000111,0.0
 0000043,-0.00000092,-0.00000067,-0.00000004,0.00000020,-0.00000312,-0.
 00000456,-0.00000101,-0.00000832,0.00001838,-0.00010464,-0.00001600,0.
 00014018,-0.00001091,0.00000490,0.00000886,0.00002094,0.00005683,0.000
 00555,0.10496418,0.06477814,-0.24241090,-0.00032355,-0.00055195,-0.000
 04294,-0.11489458,-0.07025751,0.26103498,-0.00000093,-0.00000425,-0.00
 000247,-0.00000288,0.00000820,0.00000315,0.00003242,-0.00002155,-0.000
 01176,-0.00011150,-0.00005089,0.00001012,0.00017613,0.00002994,-0.0000
 6149,-0.00010736,-0.00003321,0.00005714,-0.00016692,-0.00015985,0.0000
 4099,-0.00009933,-0.00032193,0.00062438,0.00024737,-0.00126439,-0.0002
 2161,0.00013567,0.00021723,-0.00003567,-0.00013400,-0.00057101,-0.0000
 5806,-0.00099023,0.00162612,0.00053792,-0.00542196,-0.00423892,-0.0035
 5291,-0.00000310,0.00000004,0.00000021,0.00000076,0.,-0.00000002,-0.00
 000074,0.00000125,0.00000226,0.00000150,0.00000151,0.00000169,-0.00000
 032,-0.00000318,0.00000026,-0.00001034,0.00000622,0.00000853,0.0000011
 3,0.00000096,0.00000189,-0.00000091,0.00000580,-0.00000529,-0.00005163
 ,-0.00000446,-0.00001378,0.00023552,-0.00010574,-0.00055856,-0.0000029
 8,-0.00004259,-0.00008278,-0.00000404,-0.00003810,0.00000267,-0.152543
 82,-0.02941900,-0.13061835,0.00031647,0.00067381,0.00026298,0.00968006
 ,0.00353968,0.01196322,0.16386149,-0.00000169,-0.00000807,-0.00000034,
 -0.00000570,0.00001319,0.00000411,0.00004519,-0.00003641,-0.00000462,-
 0.00015861,-0.00001342,0.00001178,0.00034082,-0.00016412,-0.00002889,-
 0.00015527,0.00010787,0.00000022,-0.00015408,-0.00021749,0.00002957,-0
 .00032469,-0.00020768,0.00142583,0.00063321,-0.00298107,-0.00021046,-0
 .00020028,-0.00039029,-0.00019846,-0.00018176,0.00013809,0.00093746,-0
 .00183784,-0.00001051,0.00063957,-0.02102801,-0.00759884,-0.02524391,-
 0.00000445,0.00000029,0.00000024,-0.00000039,0.00000183,-0.00000115,-0
 .00000041,0.00000107,0.00000144,0.00000208,-0.00000062,0.00000116,0.00
 000043,-0.00000075,-0.00000127,-0.00001301,0.00000734,0.00000747,-0.00
 000245,0.00000296,0.00000024,0.00000806,0.00000951,-0.00000485,-0.0000
 6719,-0.00002118,-0.00003875,-0.00007656,-0.00003093,-0.00053778,0.000
 01506,-0.00000906,-0.00001870,0.00007312,-0.00001941,-0.00003366,-0.03
 083511,-0.05653205,-0.04029118,0.00129089,-0.00005422,-0.00060782,0.00
 652225,0.00155630,0.00663526,0.03609967,0.06273178,-0.00000068,-0.0000
 0231,-0.00000008,0.00000026,0.00000383,0.00000002,0.00001486,-0.000006
 97,-0.00000559,-0.00003734,-0.00002405,-0.00000069,0.00005729,0.000066
 62,-0.00000497,-0.00003198,-0.00003565,0.00000504,0.00003481,0.0000250
 3,0.00002991,0.00006932,0.00001605,-0.00034101,0.00062745,0.00029451,-
 0.00042476,-0.00000624,0.00000491,-0.00003844,0.00014798,-0.00006990,-
 0.00011289,-0.00125039,-0.00041614,0.00099428,0.00186092,-0.00018667,0
 .00199606,-0.00000234,-0.00000093,-0.00000011,0.00000072,0.00000062,-0
 .00000011,0.00000047,0.00000078,0.00000065,0.00000015,0.00000017,-0.00
 000009,0.00000008,-0.00000094,0.00000057,-0.00000176,0.00000149,0.0000
 0176,0.00000110,0.00000037,-0.00000011,0.00000059,0.00000480,0.0000033
 6,0.00000940,0.00000672,0.00001711,0.00007018,0.00002966,0.00018203,0.
 00001414,0.00000139,0.00002283,-0.00001126,-0.00005423,-0.00000142,-0.
 12971012,-0.03987817,-0.20230380,0.00029400,0.00054893,-0.00027869,-0.
 01826270,-0.00511804,-0.02145374,0.14211403,0.04257047,0.21723592,0.00
 000056,0.00000556,0.00000174,0.00000332,-0.00000774,-0.00000440,-0.000
 03482,0.00002485,0.00000124,0.00011349,0.00002907,0.00000069,-0.000221
 58,0.00008663,0.00004269,0.00010429,-0.00004250,-0.00001527,0.00026122
 ,0.00004781,-0.00003753,0.00003184,-0.00008783,-0.00003090,0.00045826,
 -0.00208657,-0.00022367,0.00019377,-0.00004514,-0.00001657,0.00028163,
 -0.00033561,-0.00000285,-0.00088577,-0.00197908,0.00010064,0.00707435,
 -0.00645237,-0.00133869,0.00000307,-0.00000046,-0.00000036,0.00000046,
 -0.00000145,0.00000154,0.00000055,-0.00000051,-0.00000197,-0.00000111,
 0.00000008,-0.00000116,-0.00000005,0.00000032,0.00000126,0.00000924,-0
 .00000495,-0.00000719,0.00000135,-0.00000178,0.00000009,-0.00000315,-0
 .00000712,-0.00000168,0.00001633,-0.00000345,-0.00000179,0.00009206,-0
 .00013539,0.00003990,0.00000869,0.00001364,0.00000193,-0.00000483,-0.0
 0012351,-0.00001971,-0.24183160,0.12863969,0.02806038,0.00000350,0.000
 70339,0.00007556,-0.01072148,0.00680369,0.00009372,-0.01503553,0.01001
 674,0.00399704,0.26008191,0.00000114,0.00000091,-0.00000021,-0.0000037
 1,-0.00000100,-0.00000009,-0.00000612,-0.00000222,0.00000030,-0.000001
 52,0.00007941,0.00000210,0.00014533,-0.00047882,0.00000223,0.00008199,
 0.00029641,-0.00000276,-0.00033127,0.00016801,0.00003697,0.00022191,0.
 00000333,-0.00001437,0.00226986,0.00138337,-0.00012734,-0.00035160,0.0
 0015616,0.00003534,0.00183461,-0.00036365,-0.00022165,-0.00340618,-0.0
 0552004,-0.00003693,0.02763915,-0.01870703,-0.00390861,0.00000159,0.00
 000099,0.00000011,-0.00000125,-0.00000003,-0.00000084,-0.00000094,-0.0
 0000054,0.00000076,0.00000120,0.00000057,0.00000144,0.00000125,0.00000
 191,-0.00000143,-0.00000359,-0.00000121,0.00000309,-0.00000534,0.00000
 016,-0.00000193,0.00001009,0.00000104,-0.00000870,0.00004151,0.0000151
 9,-0.00000093,-0.00117780,0.00002023,0.00010542,-0.00008439,0.00002857
 ,0.00001109,-0.00017850,-0.00047239,0.00000117,0.12337954,-0.13038200,
 -0.01799157,-0.00044394,0.00046135,0.00006485,-0.00864568,0.00566190,-
 0.00028179,-0.00593138,0.00372588,0.00221763,-0.13505598,0.14392353,-0
 .00000011,-0.00000169,0.00000227,0.00000054,0.00000068,-0.00000019,-0.
 00000152,-0.00000127,0.00002052,-0.00000741,0.00000932,-0.00001335,0.0
 0004926,-0.00008050,0.00004325,-0.00001160,0.00005471,-0.00010380,-0.0
 0006643,0.00001759,-0.00006368,-0.00000480,0.00002206,-0.00012180,0.00
 004093,0.00030776,-0.00024170,-0.00004161,0.00000902,0.00003238,0.0001
 1634,0.00000075,0.00038473,0.00001554,-0.00016913,0.00108696,0.0005904
 2,-0.00023029,-0.00187571,-0.00000046,-0.00000011,-0.00000011,-0.00000
 109,0.00000186,-0.00000050,0.00000109,-0.00000039,-0.00000208,-0.00000
 114,-0.00000347,-0.00000226,0.00000022,0.00000272,-0.00000108,0.000002
 57,-0.00000062,-0.00000665,-0.00000225,0.00000168,-0.00000069,0.000003
 64,0.00000373,0.00001008,0.00000026,0.00000172,0.00000616,-0.00002898,
 -0.00000700,0.00041782,-0.00000517,-0.00000018,0.00000730,-0.00002301,
 -0.00000559,-0.00013371,0.02775878,-0.01853324,-0.05310092,-0.00000090
 ,-0.00005013,0.00021848,0.02274027,-0.01642366,-0.00177272,-0.02040867
 ,0.01495701,0.00447696,-0.03071469,0.02011667,0.05073405\\-0.00000647,
 0.00000977,0.00000305,0.00000643,-0.00001163,-0.00000533,0.00000586,0.
 00001258,0.00000785,-0.00001054,-0.00001282,-0.00000074,-0.00001163,0.
 00004003,0.00000371,-0.00000782,-0.00003042,0.00000437,0.00001637,-0.0
 0001898,-0.00000635,0.00000127,-0.00001028,-0.00000846,0.00000546,0.00
 000257,0.00000307,-0.00001979,0.00000811,-0.00000177,0.00003557,0.0000
 1907,-0.00000453,-0.00001604,-0.00002969,-0.00000446,-0.00002307,0.000
 01163,0.00000479,0.00000212,0.00000224,0.00000219,0.00000098,-0.000001
 19,0.00000490,0.00000087,-0.00000216,-0.00000141,-0.00000087,0.0000067
 0,0.00000185,-0.00000155,0.00000393,-0.00000371,-0.00000057,-0.0000049
 3,-0.00000192,-0.00000215,-0.00000132,0.00000406,-0.00000050,0.0000104
 2,-0.00000638,0.00000288,0.00000894,-0.00000170,0.00000488,0.00000011,
 0.00000362,0.00000235,-0.00000166,-0.00000632,-0.00000592,-0.00000539,
 -0.00000537,0.00000398,-0.00000208,0.00001132,0.00001480,0.00000004,-0
 .00000237,0.00000150,0.00000140,0.00000469,-0.00000101,-0.00000461,-0.
 00000200,0.00000261,-0.00000038,0.00000332\\\@


 AN AIRPLANE IS A COLLECTION OF SPARE PARTS
 FLYING IN CLOSE FORMATION.
 Job cpu time:       0 days  2 hours 23 minutes  1.6 seconds.
 File lengths (MBytes):  RWF=    440 Int=      0 D2E=      0 Chk=     16 Scr=      1
 Normal termination of Gaussian 09 at Sun Feb 24 13:12:32 2019.
WARNING: pbs_rusage is deprecated and values produced may not be accurate


=============================================================================
                                     Resource usage:
                                       CPU time:              12:26:43
   JobId:    6061028.r-man2            Elapsed time:          03:07:25
   Project:             q95            Requested time:        30:00:00
   Service Units:     12.49 
                                       Max physical memory:      563MB
                                       Max virtual memory:      1284MB
                                       Requested memory:           0MB

                                       Number of cpus:               4

                                       Max jobfs disk use:       0.4GB
                                       Requested jobfs:         12.0GB
=============================================================================

