 Entering Gaussian System, Link 0=/apps/gaussian/g09e01/g09/g09
 AtFile(1): /home/507/hio507/Basis/6-31pGd.gbs
 Initial command:
 /apps/gaussian/g09e01/g09/l1.exe "/jobfs/local/5877780.r-man2/Gau-33794.inp" -scrdir="/jobfs/local/5877780.r-man2/"
 Entering Link 1 = /apps/gaussian/g09e01/g09/l1.exe PID=     33796.
  
 Copyright (c) 1988,1990,1992,1993,1995,1998,2003,2009,2015,
            Gaussian, Inc.  All Rights Reserved.
  
 This is part of the Gaussian(R) 09 program.  It is based on
 the Gaussian(R) 03 system (copyright 2003, Gaussian, Inc.),
 the Gaussian(R) 98 system (copyright 1998, Gaussian, Inc.),
 the Gaussian(R) 94 system (copyright 1995, Gaussian, Inc.),
 the Gaussian 92(TM) system (copyright 1992, Gaussian, Inc.),
 the Gaussian 90(TM) system (copyright 1990, Gaussian, Inc.),
 the Gaussian 88(TM) system (copyright 1988, Gaussian, Inc.),
 the Gaussian 86(TM) system (copyright 1986, Carnegie Mellon
 University), and the Gaussian 82(TM) system (copyright 1983,
 Carnegie Mellon University). Gaussian is a federally registered
 trademark of Gaussian, Inc.
  
 This software contains proprietary and confidential information,
 including trade secrets, belonging to Gaussian, Inc.
  
 This software is provided under written license and may be
 used, copied, transmitted, or stored only in accord with that
 written license.
  
 The following legend is applicable only to US Government
 contracts under FAR:
  
                    RESTRICTED RIGHTS LEGEND
  
 Use, reproduction and disclosure by the US Government is
 subject to restrictions as set forth in subparagraphs (a)
 and (c) of the Commercial Computer Software - Restricted
 Rights clause in FAR 52.227-19.
  
 Gaussian, Inc.
 340 Quinnipiac St., Bldg. 40, Wallingford CT 06492
  
  
 ---------------------------------------------------------------
 Warning -- This program may not be used in any manner that
 competes with the business of Gaussian, Inc. or will provide
 assistance to any competitor of Gaussian, Inc.  The licensee
 of this program is prohibited from giving any competitor of
 Gaussian, Inc. access to this program.  By using this program,
 the user acknowledges that Gaussian, Inc. is engaged in the
 business of creating and licensing software in the field of
 computational chemistry and represents and warrants to the
 licensee that it is not a competitor of Gaussian, Inc. and that
 it will not use this program in any manner prohibited above.
 ---------------------------------------------------------------
  

 Cite this work as:
 Gaussian 09, Revision E.01,
 M. J. Frisch, G. W. Trucks, H. B. Schlegel, G. E. Scuseria, 
 M. A. Robb, J. R. Cheeseman, G. Scalmani, V. Barone, B. Mennucci, 
 G. A. Petersson, H. Nakatsuji, M. Caricato, X. Li, H. P. Hratchian, 
 A. F. Izmaylov, J. Bloino, G. Zheng, J. L. Sonnenberg, M. Hada, 
 M. Ehara, K. Toyota, R. Fukuda, J. Hasegawa, M. Ishida, T. Nakajima, 
 Y. Honda, O. Kitao, H. Nakai, T. Vreven, J. A. Montgomery, Jr., 
 J. E. Peralta, F. Ogliaro, M. Bearpark, J. J. Heyd, E. Brothers, 
 K. N. Kudin, V. N. Staroverov, T. Keith, R. Kobayashi, J. Normand, 
 K. Raghavachari, A. Rendell, J. C. Burant, S. S. Iyengar, J. Tomasi, 
 M. Cossi, N. Rega, J. M. Millam, M. Klene, J. E. Knox, J. B. Cross, 
 V. Bakken, C. Adamo, J. Jaramillo, R. Gomperts, R. E. Stratmann, 
 O. Yazyev, A. J. Austin, R. Cammi, C. Pomelli, J. W. Ochterski, 
 R. L. Martin, K. Morokuma, V. G. Zakrzewski, G. A. Voth, 
 P. Salvador, J. J. Dannenberg, S. Dapprich, A. D. Daniels, 
 O. Farkas, J. B. Foresman, J. V. Ortiz, J. Cioslowski, 
 and D. J. Fox, Gaussian, Inc., Wallingford CT, 2013.
 
 ******************************************
 Gaussian 09:  ES64L-G09RevE.01 30-Nov-2015
                19-Feb-2019 
 ******************************************
 %chk=3Methyl4Chloro_EtO.M062X_6-31pGd_opt_Pentadecane.chk
 %mem=196608000
 %nproc=4
 Will use up to    4 processors via shared memory.
 ----------------------------------------------------------------------
 # M062X/Gen 6D SCF=Tight INT(grid=ultrafine) OPT IOP(2/17=4) SCRF=(SMD
 ,Solvent=n-Pentadecane) maxdisk=2684354560
 ----------------------------------------------------------------------
 1/14=-1,18=20,19=15,26=4,38=1/1,3;
 2/9=110,12=2,17=4,18=5,40=1/2;
 3/5=7,8=2,11=2,16=1,25=1,30=1,70=32201,71=1,72=151,74=-55,75=-5/1,2,3;
 4//1;
 5/5=2,32=2,38=5,53=151/2;
 6/7=2,8=2,9=2,10=2,28=1/1;
 7//1,2,3,16;
 1/14=-1,18=20,19=15,26=4/3(2);
 2/9=110,17=4/2;
 99//99;
 2/9=110,17=4/2;
 3/5=7,6=1,8=2,11=2,16=1,25=1,30=1,70=32205,71=1,72=151,74=-55,75=-5,82=7/1,2,3;
 4/5=5,16=3,69=1/1;
 5/5=2,32=2,38=5,53=151/2;
 7//1,2,3,16;
 1/14=-1,18=20,19=15,26=4/3(-5);
 2/9=110,17=4/2;
 6/7=2,8=2,9=2,10=2,19=2,28=1/1;
 99/9=1/99;
 ------------------------------------------------
 3Methyl4Chloro_EtO.M062X_6-31pGd_opt_Pentadecane
 ------------------------------------------------
 Symbolic Z-matrix:
 Charge = -1 Multiplicity = 1
 C                    -1.84512   2.51614   0.31364 
 C                    -0.54539   1.73195   0.15919 
 C                     0.66443   2.67021   0.09437 
 N                     1.90173   1.92145  -0.05399 
 C                     3.1103    2.54995  -0.13612 
 O                     3.14725   3.76858  -0.08451 
 N                     4.25583   1.80801  -0.27906 
 C                     5.61202   2.2935   -0.3843 
 C                     5.98382   3.65974  -0.31394 
 C                     6.63902   1.34849  -0.56811 
 C                     7.97303   1.73769  -0.6793 
 C                     8.32857   3.08409  -0.60961 
 C                     7.32817   4.05949  -0.42455 
 H                    -2.70199   1.8113    0.35716 
 H                    -1.98947   3.19856  -0.55097 
 H                    -1.82716   3.11259   1.25065 
 H                    -0.59758   1.12929  -0.77369 
 H                    -0.43552   1.04387   1.02554 
 H                     0.71046   3.27143   1.02924 
 H                     0.54652   3.35707  -0.77276 
 H                     1.85422   0.78267  -0.1034 
 H                     4.11852   0.67081  -0.3236 
 H                     5.26974   4.44894  -0.17188 
 H                     6.4167    0.29268  -0.62979 
 H                     8.73596   0.98235  -0.82122 
 C                     7.64146   5.53102  -0.33846 
 Cl                    10.03571   3.49152  -0.75886 
 H                     8.72154   5.75486  -0.43517 
 H                     7.29916   5.92549   0.64154 
 H                     7.10847   6.07105  -1.14928 
 O                     1.82832  -1.28981  -0.06488 
 O                     4.04291  -1.40503  -0.27457 
 C                     2.97501  -1.99393  -0.15933 
 C                     2.91474  -3.4976   -0.1194 
 C                     4.28878  -4.15765  -0.23298 
 H                     2.27698  -3.85014  -0.95789 
 H                     2.44634  -3.80882   0.83865 
 H                     4.77138  -3.88188  -1.19495 
 H                     4.17495  -5.26161  -0.19663 
 H                     4.94016  -3.84016   0.60926 
 
 Add virtual bond connecting atoms O31        and H21        Dist= 3.92D+00.
 Add virtual bond connecting atoms O32        and H22        Dist= 3.93D+00.

 GradGradGradGradGradGradGradGradGradGradGradGradGradGradGradGradGradGrad
 Berny optimization.
 Initialization pass.
                           ----------------------------
                           !    Initial Parameters    !
                           ! (Angstroms and Degrees)  !
 --------------------------                            --------------------------
 ! Name  Definition              Value          Derivative Info.                !
 --------------------------------------------------------------------------------
 ! R1    R(1,2)                  1.5258         estimate D2E/DX2                !
 ! R2    R(1,14)                 1.1104         estimate D2E/DX2                !
 ! R3    R(1,15)                 1.1109         estimate D2E/DX2                !
 ! R4    R(1,16)                 1.1109         estimate D2E/DX2                !
 ! R5    R(2,3)                  1.5324         estimate D2E/DX2                !
 ! R6    R(2,17)                 1.1118         estimate D2E/DX2                !
 ! R7    R(2,18)                 1.1118         estimate D2E/DX2                !
 ! R8    R(3,4)                  1.4538         estimate D2E/DX2                !
 ! R9    R(3,19)                 1.1125         estimate D2E/DX2                !
 ! R10   R(3,20)                 1.1125         estimate D2E/DX2                !
 ! R11   R(4,5)                  1.3647         estimate D2E/DX2                !
 ! R12   R(4,21)                 1.1408         estimate D2E/DX2                !
 ! R13   R(5,6)                  1.2203         estimate D2E/DX2                !
 ! R14   R(5,7)                  1.3723         estimate D2E/DX2                !
 ! R15   R(7,8)                  1.4443         estimate D2E/DX2                !
 ! R16   R(7,22)                 1.1463         estimate D2E/DX2                !
 ! R17   R(8,9)                  1.4177         estimate D2E/DX2                !
 ! R18   R(8,10)                 1.4077         estimate D2E/DX2                !
 ! R19   R(9,13)                 1.4069         estimate D2E/DX2                !
 ! R20   R(9,23)                 1.0737         estimate D2E/DX2                !
 ! R21   R(10,11)                1.3941         estimate D2E/DX2                !
 ! R22   R(10,24)                1.0807         estimate D2E/DX2                !
 ! R23   R(11,12)                1.3943         estimate D2E/DX2                !
 ! R24   R(11,25)                1.0829         estimate D2E/DX2                !
 ! R25   R(12,13)                1.4094         estimate D2E/DX2                !
 ! R26   R(12,27)                1.7614         estimate D2E/DX2                !
 ! R27   R(13,26)                1.507          estimate D2E/DX2                !
 ! R28   R(21,31)                2.073          estimate D2E/DX2                !
 ! R29   R(22,32)                2.0778         estimate D2E/DX2                !
 ! R30   R(26,28)                1.1073         estimate D2E/DX2                !
 ! R31   R(26,29)                1.1105         estimate D2E/DX2                !
 ! R32   R(26,30)                1.1105         estimate D2E/DX2                !
 ! R33   R(31,33)                1.3489         estimate D2E/DX2                !
 ! R34   R(32,33)                1.2249         estimate D2E/DX2                !
 ! R35   R(33,34)                1.5054         estimate D2E/DX2                !
 ! R36   R(34,35)                1.5286         estimate D2E/DX2                !
 ! R37   R(34,36)                1.1109         estimate D2E/DX2                !
 ! R38   R(34,37)                1.1109         estimate D2E/DX2                !
 ! R39   R(35,38)                1.111          estimate D2E/DX2                !
 ! R40   R(35,39)                1.1104         estimate D2E/DX2                !
 ! R41   R(35,40)                1.1111         estimate D2E/DX2                !
 ! A1    A(2,1,14)             109.5772         estimate D2E/DX2                !
 ! A2    A(2,1,15)             110.3419         estimate D2E/DX2                !
 ! A3    A(2,1,16)             110.3379         estimate D2E/DX2                !
 ! A4    A(14,1,15)            108.6735         estimate D2E/DX2                !
 ! A5    A(14,1,16)            108.6774         estimate D2E/DX2                !
 ! A6    A(15,1,16)            109.1934         estimate D2E/DX2                !
 ! A7    A(1,2,3)              111.2303         estimate D2E/DX2                !
 ! A8    A(1,2,17)             108.8763         estimate D2E/DX2                !
 ! A9    A(1,2,18)             108.8675         estimate D2E/DX2                !
 ! A10   A(3,2,17)             109.4784         estimate D2E/DX2                !
 ! A11   A(3,2,18)             109.5045         estimate D2E/DX2                !
 ! A12   A(17,2,18)            108.8437         estimate D2E/DX2                !
 ! A13   A(2,3,4)              111.1551         estimate D2E/DX2                !
 ! A14   A(2,3,19)             109.149          estimate D2E/DX2                !
 ! A15   A(2,3,20)             109.1068         estimate D2E/DX2                !
 ! A16   A(4,3,19)             109.2014         estimate D2E/DX2                !
 ! A17   A(4,3,20)             109.187          estimate D2E/DX2                !
 ! A18   A(19,3,20)            109.0103         estimate D2E/DX2                !
 ! A19   A(3,4,5)              121.5105         estimate D2E/DX2                !
 ! A20   A(3,4,21)             118.8867         estimate D2E/DX2                !
 ! A21   A(5,4,21)             119.6027         estimate D2E/DX2                !
 ! A22   A(4,5,6)              118.9593         estimate D2E/DX2                !
 ! A23   A(4,5,7)              119.771          estimate D2E/DX2                !
 ! A24   A(6,5,7)              121.2692         estimate D2E/DX2                !
 ! A25   A(5,7,8)              127.5669         estimate D2E/DX2                !
 ! A26   A(5,7,22)             116.1304         estimate D2E/DX2                !
 ! A27   A(8,7,22)             116.3023         estimate D2E/DX2                !
 ! A28   A(7,8,9)              124.5127         estimate D2E/DX2                !
 ! A29   A(7,8,10)             117.9638         estimate D2E/DX2                !
 ! A30   A(9,8,10)             117.5235         estimate D2E/DX2                !
 ! A31   A(8,9,13)             121.368          estimate D2E/DX2                !
 ! A32   A(8,9,23)             122.7167         estimate D2E/DX2                !
 ! A33   A(13,9,23)            115.9151         estimate D2E/DX2                !
 ! A34   A(8,10,11)            121.4082         estimate D2E/DX2                !
 ! A35   A(8,10,24)            120.8784         estimate D2E/DX2                !
 ! A36   A(11,10,24)           117.7132         estimate D2E/DX2                !
 ! A37   A(10,11,12)           120.6383         estimate D2E/DX2                !
 ! A38   A(10,11,25)           119.3325         estimate D2E/DX2                !
 ! A39   A(12,11,25)           120.0291         estimate D2E/DX2                !
 ! A40   A(11,12,13)           119.5942         estimate D2E/DX2                !
 ! A41   A(11,12,27)           117.7921         estimate D2E/DX2                !
 ! A42   A(13,12,27)           122.6136         estimate D2E/DX2                !
 ! A43   A(9,13,12)            119.4676         estimate D2E/DX2                !
 ! A44   A(9,13,26)            118.1395         estimate D2E/DX2                !
 ! A45   A(12,13,26)           122.3929         estimate D2E/DX2                !
 ! A46   A(13,26,28)           113.2786         estimate D2E/DX2                !
 ! A47   A(13,26,29)           109.4633         estimate D2E/DX2                !
 ! A48   A(13,26,30)           109.4738         estimate D2E/DX2                !
 ! A49   A(28,26,29)           107.815          estimate D2E/DX2                !
 ! A50   A(28,26,30)           107.8245         estimate D2E/DX2                !
 ! A51   A(29,26,30)           108.885          estimate D2E/DX2                !
 ! A52   A(21,31,33)           120.6593         estimate D2E/DX2                !
 ! A53   A(22,32,33)           120.9472         estimate D2E/DX2                !
 ! A54   A(31,33,32)           119.7839         estimate D2E/DX2                !
 ! A55   A(31,33,34)           119.0447         estimate D2E/DX2                !
 ! A56   A(32,33,34)           121.1713         estimate D2E/DX2                !
 ! A57   A(33,34,35)           113.1631         estimate D2E/DX2                !
 ! A58   A(33,34,36)           108.6596         estimate D2E/DX2                !
 ! A59   A(33,34,37)           108.6376         estimate D2E/DX2                !
 ! A60   A(35,34,36)           108.8407         estimate D2E/DX2                !
 ! A61   A(35,34,37)           108.7912         estimate D2E/DX2                !
 ! A62   A(36,34,37)           108.6609         estimate D2E/DX2                !
 ! A63   A(34,35,38)           110.3418         estimate D2E/DX2                !
 ! A64   A(34,35,39)           109.5554         estimate D2E/DX2                !
 ! A65   A(34,35,40)           110.321          estimate D2E/DX2                !
 ! A66   A(38,35,39)           108.6416         estimate D2E/DX2                !
 ! A67   A(38,35,40)           109.3153         estimate D2E/DX2                !
 ! A68   A(39,35,40)           108.6253         estimate D2E/DX2                !
 ! A69   L(4,21,31,2,-1)       181.2969         estimate D2E/DX2                !
 ! A70   L(7,22,32,1,-1)       184.4043         estimate D2E/DX2                !
 ! A71   L(4,21,31,2,-2)       183.9383         estimate D2E/DX2                !
 ! A72   L(7,22,32,1,-2)       184.1559         estimate D2E/DX2                !
 ! D1    D(14,1,2,3)           179.9737         estimate D2E/DX2                !
 ! D2    D(14,1,2,17)           59.2506         estimate D2E/DX2                !
 ! D3    D(14,1,2,18)          -59.2765         estimate D2E/DX2                !
 ! D4    D(15,1,2,3)            60.3521         estimate D2E/DX2                !
 ! D5    D(15,1,2,17)          -60.3711         estimate D2E/DX2                !
 ! D6    D(15,1,2,18)         -178.8982         estimate D2E/DX2                !
 ! D7    D(16,1,2,3)           -60.4022         estimate D2E/DX2                !
 ! D8    D(16,1,2,17)          178.8747         estimate D2E/DX2                !
 ! D9    D(16,1,2,18)           60.3476         estimate D2E/DX2                !
 ! D10   D(1,2,3,4)           -179.9486         estimate D2E/DX2                !
 ! D11   D(1,2,3,19)            59.5418         estimate D2E/DX2                !
 ! D12   D(1,2,3,20)           -59.4844         estimate D2E/DX2                !
 ! D13   D(17,2,3,4)           -59.5803         estimate D2E/DX2                !
 ! D14   D(17,2,3,19)          179.9101         estimate D2E/DX2                !
 ! D15   D(17,2,3,20)           60.8839         estimate D2E/DX2                !
 ! D16   D(18,2,3,4)            59.677          estimate D2E/DX2                !
 ! D17   D(18,2,3,19)          -60.8326         estimate D2E/DX2                !
 ! D18   D(18,2,3,20)         -179.8588         estimate D2E/DX2                !
 ! D19   D(2,3,4,5)            179.8754         estimate D2E/DX2                !
 ! D20   D(2,3,4,21)            -0.056          estimate D2E/DX2                !
 ! D21   D(19,3,4,5)           -59.6459         estimate D2E/DX2                !
 ! D22   D(19,3,4,21)          120.4227         estimate D2E/DX2                !
 ! D23   D(20,3,4,5)            59.4586         estimate D2E/DX2                !
 ! D24   D(20,3,4,21)         -120.4728         estimate D2E/DX2                !
 ! D25   D(3,4,5,6)             -0.067          estimate D2E/DX2                !
 ! D26   D(3,4,5,7)           -179.8404         estimate D2E/DX2                !
 ! D27   D(21,4,5,6)           179.8639         estimate D2E/DX2                !
 ! D28   D(21,4,5,7)             0.0905         estimate D2E/DX2                !
 ! D29   D(3,4,31,33)         -177.8957         estimate D2E/DX2                !
 ! D30   D(5,4,31,33)           -0.491          estimate D2E/DX2                !
 ! D31   D(4,5,7,8)            179.8814         estimate D2E/DX2                !
 ! D32   D(4,5,7,22)             0.1111         estimate D2E/DX2                !
 ! D33   D(6,5,7,8)              0.1133         estimate D2E/DX2                !
 ! D34   D(6,5,7,22)          -179.6569         estimate D2E/DX2                !
 ! D35   D(5,7,8,9)              2.0178         estimate D2E/DX2                !
 ! D36   D(5,7,8,10)          -178.0505         estimate D2E/DX2                !
 ! D37   D(22,7,8,9)          -178.2123         estimate D2E/DX2                !
 ! D38   D(22,7,8,10)            1.7195         estimate D2E/DX2                !
 ! D39   D(5,7,32,33)            0.5273         estimate D2E/DX2                !
 ! D40   D(8,7,32,33)          178.1659         estimate D2E/DX2                !
 ! D41   D(7,8,9,13)           179.9873         estimate D2E/DX2                !
 ! D42   D(7,8,9,23)             0.1626         estimate D2E/DX2                !
 ! D43   D(10,8,9,13)            0.0553         estimate D2E/DX2                !
 ! D44   D(10,8,9,23)         -179.7694         estimate D2E/DX2                !
 ! D45   D(7,8,10,11)          179.9683         estimate D2E/DX2                !
 ! D46   D(7,8,10,24)            0.0919         estimate D2E/DX2                !
 ! D47   D(9,8,10,11)           -0.0951         estimate D2E/DX2                !
 ! D48   D(9,8,10,24)         -179.9714         estimate D2E/DX2                !
 ! D49   D(8,9,13,12)            0.0193         estimate D2E/DX2                !
 ! D50   D(8,9,13,26)         -179.955          estimate D2E/DX2                !
 ! D51   D(23,9,13,12)         179.8553         estimate D2E/DX2                !
 ! D52   D(23,9,13,26)          -0.119          estimate D2E/DX2                !
 ! D53   D(8,10,11,12)           0.0601         estimate D2E/DX2                !
 ! D54   D(8,10,11,25)        -179.9299         estimate D2E/DX2                !
 ! D55   D(24,10,11,12)        179.9403         estimate D2E/DX2                !
 ! D56   D(24,10,11,25)         -0.0497         estimate D2E/DX2                !
 ! D57   D(10,11,12,13)          0.0179         estimate D2E/DX2                !
 ! D58   D(10,11,12,27)        179.9896         estimate D2E/DX2                !
 ! D59   D(25,11,12,13)       -179.9922         estimate D2E/DX2                !
 ! D60   D(25,11,12,27)         -0.0204         estimate D2E/DX2                !
 ! D61   D(11,12,13,9)          -0.0566         estimate D2E/DX2                !
 ! D62   D(11,12,13,26)        179.9166         estimate D2E/DX2                !
 ! D63   D(27,12,13,9)         179.9731         estimate D2E/DX2                !
 ! D64   D(27,12,13,26)         -0.0537         estimate D2E/DX2                !
 ! D65   D(9,13,26,28)         179.9969         estimate D2E/DX2                !
 ! D66   D(9,13,26,29)          59.6467         estimate D2E/DX2                !
 ! D67   D(9,13,26,30)         -59.6334         estimate D2E/DX2                !
 ! D68   D(12,13,26,28)          0.0234         estimate D2E/DX2                !
 ! D69   D(12,13,26,29)       -120.3268         estimate D2E/DX2                !
 ! D70   D(12,13,26,30)        120.3931         estimate D2E/DX2                !
 ! D71   D(21,31,33,32)         -0.3001         estimate D2E/DX2                !
 ! D72   D(21,31,33,34)        179.648          estimate D2E/DX2                !
 ! D73   D(22,32,33,31)          0.1188         estimate D2E/DX2                !
 ! D74   D(22,32,33,34)       -179.8282         estimate D2E/DX2                !
 ! D75   D(31,33,34,35)       -179.8473         estimate D2E/DX2                !
 ! D76   D(31,33,34,36)         59.1406         estimate D2E/DX2                !
 ! D77   D(31,33,34,37)        -58.9133         estimate D2E/DX2                !
 ! D78   D(32,33,34,35)          0.1001         estimate D2E/DX2                !
 ! D79   D(32,33,34,36)       -120.912          estimate D2E/DX2                !
 ! D80   D(32,33,34,37)        121.034          estimate D2E/DX2                !
 ! D81   D(33,34,35,38)        -60.4597         estimate D2E/DX2                !
 ! D82   D(33,34,35,39)        179.9716         estimate D2E/DX2                !
 ! D83   D(33,34,35,40)         60.436          estimate D2E/DX2                !
 ! D84   D(36,34,35,38)         60.45           estimate D2E/DX2                !
 ! D85   D(36,34,35,39)        -59.1187         estimate D2E/DX2                !
 ! D86   D(36,34,35,40)       -178.6543         estimate D2E/DX2                !
 ! D87   D(37,34,35,38)        178.6934         estimate D2E/DX2                !
 ! D88   D(37,34,35,39)         59.1247         estimate D2E/DX2                !
 ! D89   D(37,34,35,40)        -60.411          estimate D2E/DX2                !
 --------------------------------------------------------------------------------
 Trust Radius=3.00D-01 FncErr=1.00D-07 GrdErr=1.00D-06
 Number of steps in this run=    212 maximum allowed number of steps=    240.
 GradGradGradGradGradGradGradGradGradGradGradGradGradGradGradGradGradGrad

                          Input orientation:                          
 ---------------------------------------------------------------------
 Center     Atomic      Atomic             Coordinates (Angstroms)
 Number     Number       Type             X           Y           Z
 ---------------------------------------------------------------------
      1          6           0       -1.845120    2.516140    0.313640
      2          6           0       -0.545390    1.731950    0.159190
      3          6           0        0.664430    2.670210    0.094370
      4          7           0        1.901730    1.921450   -0.053990
      5          6           0        3.110300    2.549950   -0.136120
      6          8           0        3.147250    3.768580   -0.084510
      7          7           0        4.255830    1.808010   -0.279060
      8          6           0        5.612020    2.293500   -0.384300
      9          6           0        5.983820    3.659740   -0.313940
     10          6           0        6.639020    1.348490   -0.568110
     11          6           0        7.973030    1.737690   -0.679300
     12          6           0        8.328570    3.084090   -0.609610
     13          6           0        7.328170    4.059490   -0.424550
     14          1           0       -2.701990    1.811300    0.357160
     15          1           0       -1.989470    3.198560   -0.550970
     16          1           0       -1.827160    3.112590    1.250650
     17          1           0       -0.597580    1.129290   -0.773690
     18          1           0       -0.435520    1.043870    1.025540
     19          1           0        0.710460    3.271430    1.029240
     20          1           0        0.546520    3.357070   -0.772760
     21          1           0        1.854220    0.782670   -0.103400
     22          1           0        4.118520    0.670810   -0.323600
     23          1           0        5.269740    4.448940   -0.171880
     24          1           0        6.416700    0.292680   -0.629790
     25          1           0        8.735960    0.982350   -0.821220
     26          6           0        7.641460    5.531020   -0.338460
     27         17           0       10.035710    3.491520   -0.758860
     28          1           0        8.721540    5.754860   -0.435170
     29          1           0        7.299160    5.925490    0.641540
     30          1           0        7.108470    6.071050   -1.149280
     31          8           0        1.828320   -1.289810   -0.064880
     32          8           0        4.042910   -1.405030   -0.274570
     33          6           0        2.975010   -1.993930   -0.159330
     34          6           0        2.914740   -3.497600   -0.119400
     35          6           0        4.288780   -4.157650   -0.232980
     36          1           0        2.276980   -3.850140   -0.957890
     37          1           0        2.446340   -3.808820    0.838650
     38          1           0        4.771380   -3.881880   -1.194950
     39          1           0        4.174950   -5.261610   -0.196630
     40          1           0        4.940160   -3.840160    0.609260
 ---------------------------------------------------------------------
                    Distance matrix (angstroms):
                    1          2          3          4          5
     1  C    0.000000
     2  C    1.525813   0.000000
     3  C    2.523818   1.532383   0.000000
     4  N    3.811521   2.463687   1.453810   0.000000
     5  C    4.975903   3.757712   2.459648   1.364697   0.000000
     6  O    5.162450   4.224079   2.720811   2.228035   1.220282
     7  N    6.170440   4.821780   3.712276   2.367554   1.372278
     8  C    7.493038   6.206804   4.984946   3.743498   2.527046
     9  C    7.936875   6.824281   5.426030   4.444399   3.085510
    10  C    8.609386   7.231304   6.154799   4.799429   3.752597
    11  C    9.898888   8.559590   7.408360   6.106182   4.959935
    12  C   10.231272   9.009245   7.707524   6.554748   5.266862
    13  C    9.331458   8.231108   6.826771   5.844209   4.489135
    14  H    1.110369   2.167121   3.484188   4.623355   5.879766
    15  H    1.110894   2.177301   2.781870   4.125462   5.157562
    16  H    1.110884   2.177243   2.782212   4.126199   5.159283
    17  H    2.159165   1.111840   2.172702   2.718830   4.021585
    18  H    2.159017   1.111795   2.173005   2.719976   4.023751
    19  H    2.759264   2.168904   1.112460   2.101180   2.763662
    20  H    2.758146   2.168366   1.112472   2.101007   2.762195
    21  H    4.106575   2.593880   2.239982   1.140841   2.168429
    22  H    6.275055   4.807407   4.012859   2.559482   2.140753
    23  H    7.388686   6.427082   4.944052   4.212552   2.875869
    24  H    8.607642   7.152949   6.266232   4.834190   4.033765
    25  H   10.751729   9.363042   8.296793   6.940983   5.880033
    26  C    9.975467   9.039087   7.553180   6.786341   5.427627
    27  Cl  11.968949  10.765620   9.445816   8.314060   7.016813
    28  H   11.077199  10.119934   8.643639   7.832633   6.468917
    29  H    9.764683   8.908165   7.410525   6.756356   5.435584
    30  H    9.743936   8.895024   7.391754   6.747517   5.423099
    31  O    5.303083   3.849122   4.130588   3.212117   4.048741
    32  O    7.098624   5.575059   5.306395   3.962168   4.065808
    33  C    6.618012   5.135840   5.211271   4.061185   4.545953
    34  C    7.681722   6.276807   6.568978   5.513309   6.050734
    35  C    9.080914   7.629573   7.737102   6.533414   6.811027
    36  H    7.690125   6.354004   6.798716   5.853981   6.506219
    37  H    7.661422   6.333423   6.760694   5.824895   6.467223
    38  H    9.326767   7.849639   7.839596   6.573836   6.726719
    39  H    9.848605   8.445004   8.678836   7.535531   7.884010
    40  H    9.302148   7.832128   7.805889   6.547374   6.688609
                    6          7          8          9         10
     6  O    0.000000
     7  N    2.260671   0.000000
     8  C    2.888049   1.444309   0.000000
     9  C    2.847914   2.532996   1.417673   0.000000
    10  C    4.275881   2.444239   1.407679   2.415733   0.000000
    11  C    5.269387   3.739347   2.443423   2.790111   1.394067
    12  C    5.252650   4.280754   2.838211   2.432416   2.422521
    13  C    4.204801   3.811772   2.462826   1.406880   2.800903
    14  H    6.183820   6.986848   8.360924   8.905639   9.398127
    15  H    5.189258   6.404009   7.656994   7.990133   8.824619
    16  H    5.192083   6.406614   7.660638   7.984906   8.837202
    17  H    4.632987   4.925536   6.329782   7.066072   7.242837
    18  H    4.636000   4.928961   6.334190   7.060093   7.258211
    19  H    2.724985   4.052517   5.194202   5.455570   6.434054
    20  H    2.721548   4.049976   5.190508   5.465012   6.418320
    21  H    3.253912   2.617233   4.059874   5.037406   4.840498
    22  H    3.255259   1.146325   2.206207   3.523229   2.621442
    23  H    2.230580   2.830903   2.192761   1.073745   3.412436
    24  H    4.802969   2.662442   2.170497   3.409434   1.080724
    25  H    6.288044   4.587725   3.415994   3.872987   2.143661
    26  C    4.834109   5.032576   3.821291   2.500012   4.307108
    27  Cl   6.926932   6.039158   4.598324   4.079714   4.020754
    28  H    5.927983   5.961926   4.653248   3.449541   4.875516
    29  H    4.734740   5.202211   4.134022   2.788671   4.779955
    30  H    4.703867   5.202725   4.134542   2.788736   4.781288
    31  O    5.227549   3.941468   5.220970   6.467477   5.509692
    32  O    5.254005   3.220090   4.019113   5.424074   3.795764
    33  C    5.765569   4.013674   5.038501   6.406311   4.976328
    34  C    7.269983   5.474807   6.393929   7.790033   6.128311
    35  C    8.009386   5.965929   6.587200   7.999456   5.996125
    36  H    7.717840   6.032522   7.013972   8.399621   6.797432
    37  H    7.665539   6.006023   6.982510   8.343957   6.793776
    38  H    7.899393   5.786147   6.284835   7.689098   5.589077
    39  H    9.089173   7.070563   7.692859   9.103640   7.064210
    40  H    7.847851   5.758406   6.249827   7.628239   5.585196
                   11         12         13         14         15
    11  C    0.000000
    12  C    1.394295   0.000000
    13  C    2.423117   1.409416   0.000000
    14  H   10.725471  11.145757  10.308712   0.000000
    15  H   10.069857  10.318842   9.358183   1.804681   0.000000
    16  H   10.082598  10.324739   9.355372   1.804718   1.810958
    17  H    8.592695   9.139164   8.457274   2.484452   2.503765
    18  H    8.607647   9.145791   8.454088   2.484465   3.089148
    19  H    7.616849   7.794647   6.821190   3.772067   3.129216
    20  H    7.601590   7.788545   6.826816   3.770801   2.550600
    21  H    6.219611   6.889847   6.387865   4.693532   4.561885
    22  H    4.015221   4.861095   4.668533   6.948634   6.614284
    23  H    3.862140   3.377997   2.110130   8.413412   7.375859
    24  H    2.124304   3.383434   3.880948   9.296816   8.894608
    25  H    1.082932   2.151292   3.407053  11.528332  10.955340
    26  C    3.823018   2.555995   1.506971  11.013953   9.911627
    27  Cl   2.708671   1.761420   2.786598  12.896420  12.030544
    28  H    4.093595   2.705156   2.194510  12.111007  11.012439
    29  H    4.442565   3.270874   2.149266  10.818060   9.753813
    30  H    4.443687   3.271363   2.149390  10.800924   9.559377
    31  O    6.877553   7.853724   7.680672   5.506243   5.912467
    32  O    5.048400   6.215411   6.377806   7.499169   7.593355
    33  C    6.259038   7.392540   7.460847   6.853821   7.194539
    34  C    7.301236   8.536305   8.756774   7.743332   8.311203
    35  C    6.966199   8.300877   8.763332   9.211270   9.676330
    36  H    7.984137   9.210135   9.400065   7.653196   8.249385
    37  H    7.975729   9.176617   9.345493   7.636942   8.408973
    38  H    6.488145   7.843530   8.378308   9.522216   9.811036
    39  H    7.978006   9.331335   9.842644   9.880539  10.473782
    40  H    6.478510   7.804627   8.317201   9.508155   9.945325
                   16         17         18         19         20
    16  H    0.000000
    17  H    3.089223   0.000000
    18  H    2.503385   1.808532   0.000000
    19  H    2.552208   3.090354   2.505056   0.000000
    20  H    3.128628   2.504390   3.090175   1.811468   0.000000
    21  H    4.562295   2.565299   2.566250   2.963948   2.964061
    22  H    6.617527   4.759662   4.764308   4.495361   4.491873
    23  H    7.360395   6.768138   6.751171   4.859656   4.884879
    24  H    8.913427   7.065462   7.089240   6.647293   6.623439
    25  H   10.973152   9.334818   9.355766   8.548259   8.526932
    26  C    9.900951   9.351280   9.339840   7.417217   7.433226
    27  Cl  12.037832  10.892530  10.900538   9.497685   9.490153
    28  H   11.004483  10.409442  10.400906   8.514066   8.526096
    29  H    9.569385   9.346920   9.154395   7.113741   7.361737
    30  H    9.713786   9.162165   9.322777   7.315624   7.111023
    31  O    5.871480   3.498492   3.429293   4.821993   4.872125
    32  O    7.562599   5.310936   5.267232   5.888499   5.928788
    33  C    7.150205   4.784908   4.718460   5.853623   5.908220
    34  C    8.249683   5.845733   5.758479   7.210963   7.281610
    35  C    9.615730   7.219461   7.138536   8.341990   8.412306
    36  H    8.378617   5.752543   5.936580   7.557740   7.414354
    37  H    8.144843   6.020799   5.647003   7.292431   7.586563
    38  H    9.921910   7.356291   7.503692   8.521029   8.392263
    39  H   10.404190   7.997102   7.906277   9.290760   9.369049
    40  H    9.723617   7.567995   7.274955   8.285014   8.544833
                   21         22         23         24         25
    21  H    0.000000
    22  H    2.277730   0.000000
    23  H    5.011188   3.952543   0.000000
    24  H    4.618809   2.349120   4.335862   0.000000
    25  H    6.921957   4.654614   4.945055   2.427191   0.000000
    26  C    7.489608   6.002747   2.612222   5.387496   4.703338
    27  Cl   8.643163   6.569550   4.896496   4.831818   2.826513
    28  H    8.484859   6.859140   3.699956   5.931743   4.788120
    29  H    7.526680   6.217687   2.638257   5.841538   5.351513
    30  H    7.527813   6.227691   2.639598   5.842771   5.352683
    31  O    2.073000   3.025885   6.692389   4.886372   7.310968
    32  O    3.099305   2.077795   5.982025   2.939945   5.293688
    33  C    2.994796   2.904383   6.839336   4.158744   6.518043
    34  C    4.409724   4.343550   8.288322   5.185600   7.378964
    35  C    5.509141   4.832311   8.662529   4.948832   6.822246
    36  H    4.729885   4.922660   8.857153   5.865824   8.067841
    37  H    4.724388   4.920782   8.785406   5.894266   8.078973
    38  H    5.608862   4.681075   8.408186   4.522547   6.286358
    39  H    6.475168   5.934047   9.772101   6.005265   7.757574
    40  H    5.603701   4.679121   8.332345   4.560239   6.301664
                   26         27         28         29         30
    26  C    0.000000
    27  Cl   3.173126   0.000000
    28  H    1.107262   2.637144   0.000000
    29  H    1.110485   3.920974   1.792089   0.000000
    30  H    1.110468   3.921114   1.792184   1.806817   0.000000
    31  O    8.966112   9.523863   9.863112   9.082383   9.123495
    32  O    7.814246   7.753992   8.554496   8.073348   8.127395
    33  C    8.856225   8.961199   9.651033   9.058525   9.116435
    34  C   10.193422   9.998246  10.928250  10.420979  10.497956
    35  C   10.252898   9.581939  10.860391  10.559209  10.649721
    36  H   10.824394  10.683514  11.578498  11.106008  11.036754
    37  H   10.752091  10.651082  11.509332  10.878672  11.104015
    38  H    9.877936   9.070302  10.442595  10.293050  10.223742
    39  H   11.336563  10.549023  11.920193  11.645361  11.744882
    40  H    9.798684   9.032714  10.366006  10.046584  10.296898
                   31         32         33         34         35
    31  O    0.000000
    32  O    2.227477   0.000000
    33  C    1.348927   1.224946   0.000000
    34  C    2.461223   2.382372   1.505407   0.000000
    35  C    3.782410   2.763892   2.532410   1.528579   0.000000
    36  H    2.748464   3.092571   2.137863   1.110895   2.160416
    37  H    2.746585   3.092976   2.137588   1.110908   2.159782
    38  H    4.081359   2.740904   2.804248   2.179814   1.111008
    39  H    4.615108   3.859627   3.481233   2.169291   1.110408
    40  H    4.079497   2.741545   2.803767   2.179591   1.111064
                   36         37         38         39         40
    36  H    0.000000
    37  H    1.804978   0.000000
    38  H    2.505840   3.089770   0.000000
    39  H    2.484764   2.484048   1.804446   0.000000
    40  H    3.090079   2.504544   1.812568   1.804307   0.000000
 Stoichiometry    C14H20ClN2O3(1-)
 Framework group  C1[X(C14H20ClN2O3)]
 Deg. of freedom   114
 Full point group                 C1      NOp   1
 Largest Abelian subgroup         C1      NOp   1
 Largest concise Abelian subgroup C1      NOp   1
                         Standard orientation:                         
 ---------------------------------------------------------------------
 Center     Atomic      Atomic             Coordinates (Angstroms)
 Number     Number       Type             X           Y           Z
 ---------------------------------------------------------------------
      1          6           0        5.266428   -3.701514   -0.009934
      2          6           0        4.442437   -2.417604   -0.036762
      3          6           0        2.940767   -2.721240   -0.005298
      4          7           0        2.157249   -1.496927   -0.032130
      5          6           0        0.792917   -1.522685   -0.013898
      6          8           0        0.222783   -2.600903    0.024607
      7          7           0        0.088722   -0.345243   -0.043653
      8          6           0       -1.345665   -0.176559   -0.033295
      9          6           0       -2.278938   -1.240295    0.051949
     10          6           0       -1.856913    1.132654   -0.111681
     11          6           0       -3.229192    1.378134   -0.107957
     12          6           0       -4.139187    0.325037   -0.024575
     13          6           0       -3.665090   -0.999736    0.057037
     14          1           0        6.347719   -3.450224   -0.034062
     15          1           0        5.027984   -4.331924   -0.893004
     16          1           0        5.055401   -4.276420    0.916896
     17          1           0        4.687094   -1.852446   -0.962466
     18          1           0        4.714312   -1.797422    0.845024
     19          1           0        2.702398   -3.287927    0.921855
     20          1           0        2.676555   -3.343835   -0.888565
     21          1           0        2.701528   -0.495023   -0.070453
     22          1           0        0.712850    0.615381   -0.085200
     23          1           0       -1.981057   -2.269719    0.118891
     24          1           0       -1.194282    1.983743   -0.179004
     25          1           0       -3.585714    2.398762   -0.170829
     26          6           0       -4.591685   -2.184430    0.151299
     27         17           0       -5.855584    0.720741   -0.025535
     28          1           0       -5.662728   -1.903552    0.148870
     29          1           0       -4.388147   -2.739504    1.091320
     30          1           0       -4.415871   -2.861476   -0.711162
     31          8           0        3.647554    1.348430   -0.006853
     32          8           0        1.705539    2.439374   -0.015547
     33          6           0        2.929145    2.489992    0.011283
     34          6           0        3.653457    3.808577    0.065640
     35          6           0        2.711046    5.011929    0.084527
     36          1           0        4.317002    3.886458   -0.821902
     37          1           0        4.281238    3.831287    0.981878
     38          1           0        2.086030    5.027448   -0.833870
     39          1           0        3.305476    5.948948    0.125201
     40          1           0        2.051178    4.971266    0.977491
 ---------------------------------------------------------------------
 Rotational constants (GHZ):      0.3255037      0.1351478      0.0958963
 General basis read from cards:  (6D, 7F)
 There are   424 symmetry adapted cartesian basis functions of A   symmetry.
 There are   424 symmetry adapted basis functions of A   symmetry.
   424 basis functions,   744 primitive gaussians,   424 cartesian basis functions
    80 alpha electrons       80 beta electrons
       nuclear repulsion energy      1588.0908044373 Hartrees.
 NAtoms=   40 NActive=   40 NUniq=   40 SFac= 1.00D+00 NAtFMM=   60 NAOKFM=F Big=F
 Integral buffers will be    131072 words long.
 Raffenetti 2 integral format.
 Two-electron integral symmetry is turned on.
 ------------------------------------------------------------------------------
 Polarizable Continuum Model (PCM)
 =================================
 Model                : PCM (using non-symmetric T matrix).
 Atomic radii         : SMD-Coulomb.
 Polarization charges : Total charges.
 Charge compensation  : None.
 Solution method      : On-the-fly selection.
 Cavity type          : VdW (van der Waals Surface) (Alpha=1.000).
 Cavity algorithm     : GePol (No added spheres)
                        Default sphere list used, NSphG=   40.
                        Lebedev-Laikov grids with approx.  5.0 points / Ang**2.
                        Smoothing algorithm: York/Karplus (Gamma=1.0000).
                        Polarization charges: spherical gaussians, with
                                              point-specific exponents (IZeta= 3).
                        Self-potential: point-specific (ISelfS= 7).
                        Self-field    : sphere-specific E.n sum rule (ISelfD= 2).
 1st derivatives      : Analytical E(r).r(x)/FMM algorithm (CHGder, D1EAlg=3).
                        Cavity 1st derivative terms included.
 Solvent              : n-Pentadecane, Eps=   2.033300 Eps(inf)=   2.049192
 ------------------------------------------------------------------------------
 ------------------------------------------------------------------------------
 Atomic radii for non-electrostatic terms: SMD-CDS.
 ------------------------------------------------------------------------------
 Nuclear repulsion after PCM non-electrostatic terms =     1588.0789327750 Hartrees.
 One-electron integrals computed using PRISM.
 NBasis=   424 RedAO= T EigKep=  1.31D-06  NBF=   424
 NBsUse=   423 1.00D-06 EigRej=  4.35D-07 NBFU=   423
 ExpMin= 4.38D-02 ExpMax= 2.52D+04 ExpMxC= 3.78D+03 IAcc=3 IRadAn=         5 AccDes= 0.00D+00
 Harris functional with IExCor= 1009 and IRadAn=       5 diagonalized for initial guess.
 HarFok:  IExCor= 1009 AccDes= 0.00D+00 IRadAn=         5 IDoV= 1 UseB2=F ITyADJ=14
 ICtDFT=  3500011 ScaDFX=  1.000000  1.000000  1.000000  1.000000
 FoFCou: FMM=F IPFlag=           0 FMFlag=      100000 FMFlg1=           0
         NFxFlg=           0 DoJE=T BraDBF=F KetDBF=T FulRan=T
         wScrn=  0.000000 ICntrl=     500 IOpCl=  0 I1Cent=   200000004 NGrid=           0
         NMat0=    1 NMatS0=      1 NMatT0=    0 NMatD0=    1 NMtDS0=    0 NMtDT0=    0
 Petite list used in FoFCou.
 Requested convergence on RMS density matrix=1.00D-08 within 128 cycles.
 Requested convergence on MAX density matrix=1.00D-06.
 Requested convergence on             energy=1.00D-06.
 No special actions if energy rises.
 Inv3:  Mode=1 IEnd=    31279323.
 Iteration    1 A*A^-1 deviation from unit magnitude is 4.88D-15 for   3197.
 Iteration    1 A*A^-1 deviation from orthogonality  is 2.44D-15 for   3213    110.
 Iteration    1 A^-1*A deviation from unit magnitude is 4.44D-15 for   3208.
 Iteration    1 A^-1*A deviation from orthogonality  is 8.44D-15 for   1233   1227.
 Error on total polarization charges =  0.02955
 SCF Done:  E(RM062X) =  -1340.67653282     A.U. after   16 cycles
            NFock= 16  Conv=0.41D-08     -V/T= 2.0073
 SMD-CDS (non-electrostatic) energy       (kcal/mol) =      -7.45
 (included in total energy above)

 **********************************************************************

            Population analysis using the SCF density.

 **********************************************************************

 Orbital symmetries:
       Occupied  (A) (A) (A) (A) (A) (A) (A) (A) (A) (A) (A) (A)
                 (A) (A) (A) (A) (A) (A) (A) (A) (A) (A) (A) (A)
                 (A) (A) (A) (A) (A) (A) (A) (A) (A) (A) (A) (A)
                 (A) (A) (A) (A) (A) (A) (A) (A) (A) (A) (A) (A)
                 (A) (A) (A) (A) (A) (A) (A) (A) (A) (A) (A) (A)
                 (A) (A) (A) (A) (A) (A) (A) (A) (A) (A) (A) (A)
                 (A) (A) (A) (A) (A) (A) (A) (A)
       Virtual   (A) (A) (A) (A) (A) (A) (A) (A) (A) (A) (A) (A)
                 (A) (A) (A) (A) (A) (A) (A) (A) (A) (A) (A) (A)
                 (A) (A) (A) (A) (A) (A) (A) (A) (A) (A) (A) (A)
                 (A) (A) (A) (A) (A) (A) (A) (A) (A) (A) (A) (A)
                 (A) (A) (A) (A) (A) (A) (A) (A) (A) (A) (A) (A)
                 (A) (A) (A) (A) (A) (A) (A) (A) (A) (A) (A) (A)
                 (A) (A) (A) (A) (A) (A) (A) (A) (A) (A) (A) (A)
                 (A) (A) (A) (A) (A) (A) (A) (A) (A) (A) (A) (A)
                 (A) (A) (A) (A) (A) (A) (A) (A) (A) (A) (A) (A)
                 (A) (A) (A) (A) (A) (A) (A) (A) (A) (A) (A) (A)
                 (A) (A) (A) (A) (A) (A) (A) (A) (A) (A) (A) (A)
                 (A) (A) (A) (A) (A) (A) (A) (A) (A) (A) (A) (A)
                 (A) (A) (A) (A) (A) (A) (A) (A) (A) (A) (A) (A)
                 (A) (A) (A) (A) (A) (A) (A) (A) (A) (A) (A) (A)
                 (A) (A) (A) (A) (A) (A) (A) (A) (A) (A) (A) (A)
                 (A) (A) (A) (A) (A) (A) (A) (A) (A) (A) (A) (A)
                 (A) (A) (A) (A) (A) (A) (A) (A) (A) (A) (A) (A)
                 (A) (A) (A) (A) (A) (A) (A) (A) (A) (A) (A) (A)
                 (A) (A) (A) (A) (A) (A) (A) (A) (A) (A) (A) (A)
                 (A) (A) (A) (A) (A) (A) (A) (A) (A) (A) (A) (A)
                 (A) (A) (A) (A) (A) (A) (A) (A) (A) (A) (A) (A)
                 (A) (A) (A) (A) (A) (A) (A) (A) (A) (A) (A) (A)
                 (A) (A) (A) (A) (A) (A) (A) (A) (A) (A) (A) (A)
                 (A) (A) (A) (A) (A) (A) (A) (A) (A) (A) (A) (A)
                 (A) (A) (A) (A) (A) (A) (A) (A) (A) (A) (A) (A)
                 (A) (A) (A) (A) (A) (A) (A) (A) (A) (A) (A) (A)
                 (A) (A) (A) (A) (A) (A) (A) (A) (A) (A) (A) (A)
                 (A) (A) (A) (A) (A) (A) (A) (A) (A) (A) (A) (A)
                 (A) (A) (A) (A) (A) (A) (A)
 The electronic state is 1-A.
 Alpha  occ. eigenvalues -- -102.62972 -19.53416 -19.52113 -19.49430 -14.73411
 Alpha  occ. eigenvalues --  -14.70919 -10.60877 -10.56330 -10.56074 -10.56059
 Alpha  occ. eigenvalues --  -10.52837 -10.52310 -10.51717 -10.50687 -10.50638
 Alpha  occ. eigenvalues --  -10.50259 -10.49667 -10.49510 -10.48278 -10.48153
 Alpha  occ. eigenvalues --   -9.77614  -7.50000  -7.49368  -7.49362  -1.10679
 Alpha  occ. eigenvalues --   -1.07264  -0.96809  -0.94697  -0.93994  -0.93576
 Alpha  occ. eigenvalues --   -0.87852  -0.82933  -0.82265  -0.79986  -0.77475
 Alpha  occ. eigenvalues --   -0.73248  -0.71308  -0.65784  -0.65373  -0.62878
 Alpha  occ. eigenvalues --   -0.61123  -0.58179  -0.54691  -0.52893  -0.51222
 Alpha  occ. eigenvalues --   -0.50225  -0.49663  -0.48615  -0.46806  -0.46467
 Alpha  occ. eigenvalues --   -0.45769  -0.45099  -0.44848  -0.44782  -0.43392
 Alpha  occ. eigenvalues --   -0.42427  -0.41292  -0.41052  -0.40957  -0.39828
 Alpha  occ. eigenvalues --   -0.39751  -0.38018  -0.37985  -0.37299  -0.36734
 Alpha  occ. eigenvalues --   -0.36695  -0.36186  -0.34839  -0.34295  -0.34268
 Alpha  occ. eigenvalues --   -0.33542  -0.33215  -0.29694  -0.27120  -0.25570
 Alpha  occ. eigenvalues --   -0.24357  -0.24184  -0.22444  -0.21513  -0.20704
 Alpha virt. eigenvalues --    0.05412   0.06044   0.06883   0.07017   0.07102
 Alpha virt. eigenvalues --    0.07464   0.08076   0.08463   0.08953   0.09142
 Alpha virt. eigenvalues --    0.09731   0.10336   0.10406   0.10474   0.10967
 Alpha virt. eigenvalues --    0.11092   0.11901   0.12023   0.12618   0.12713
 Alpha virt. eigenvalues --    0.13167   0.13538   0.13891   0.13912   0.14386
 Alpha virt. eigenvalues --    0.15175   0.15405   0.15483   0.16042   0.16070
 Alpha virt. eigenvalues --    0.16845   0.17105   0.17180   0.17497   0.17829
 Alpha virt. eigenvalues --    0.18156   0.18568   0.19083   0.19251   0.19840
 Alpha virt. eigenvalues --    0.20048   0.21149   0.21584   0.21846   0.22509
 Alpha virt. eigenvalues --    0.22723   0.23061   0.23884   0.24075   0.24659
 Alpha virt. eigenvalues --    0.24740   0.25188   0.25832   0.26238   0.26756
 Alpha virt. eigenvalues --    0.27058   0.27260   0.27749   0.28082   0.28320
 Alpha virt. eigenvalues --    0.28545   0.28974   0.29490   0.29993   0.30095
 Alpha virt. eigenvalues --    0.30247   0.30715   0.30871   0.31273   0.31342
 Alpha virt. eigenvalues --    0.31792   0.32759   0.32952   0.33379   0.33695
 Alpha virt. eigenvalues --    0.33958   0.34581   0.34716   0.34982   0.35538
 Alpha virt. eigenvalues --    0.35703   0.35942   0.36421   0.36974   0.37160
 Alpha virt. eigenvalues --    0.37694   0.38073   0.38476   0.38916   0.39142
 Alpha virt. eigenvalues --    0.39597   0.39821   0.40107   0.40559   0.41226
 Alpha virt. eigenvalues --    0.41913   0.41979   0.42692   0.43037   0.43765
 Alpha virt. eigenvalues --    0.44241   0.45018   0.45473   0.45768   0.45937
 Alpha virt. eigenvalues --    0.48310   0.48510   0.50170   0.51383   0.51939
 Alpha virt. eigenvalues --    0.52713   0.53246   0.54955   0.55792   0.58103
 Alpha virt. eigenvalues --    0.58365   0.60167   0.61081   0.62432   0.64142
 Alpha virt. eigenvalues --    0.64583   0.66542   0.68179   0.68956   0.72889
 Alpha virt. eigenvalues --    0.74133   0.74636   0.75955   0.76037   0.76428
 Alpha virt. eigenvalues --    0.77089   0.77328   0.79258   0.80093   0.80762
 Alpha virt. eigenvalues --    0.81224   0.81541   0.81943   0.82278   0.82347
 Alpha virt. eigenvalues --    0.83504   0.83915   0.84302   0.85183   0.85351
 Alpha virt. eigenvalues --    0.86280   0.87211   0.87862   0.88807   0.88845
 Alpha virt. eigenvalues --    0.90274   0.90862   0.92768   0.93086   0.94057
 Alpha virt. eigenvalues --    0.94513   0.95532   0.97133   0.97881   0.98738
 Alpha virt. eigenvalues --    1.01219   1.02358   1.02801   1.03506   1.03740
 Alpha virt. eigenvalues --    1.04165   1.04985   1.05216   1.05719   1.08126
 Alpha virt. eigenvalues --    1.08417   1.08609   1.09657   1.10967   1.11576
 Alpha virt. eigenvalues --    1.12281   1.12431   1.13486   1.14505   1.14753
 Alpha virt. eigenvalues --    1.16420   1.17065   1.18473   1.20407   1.20795
 Alpha virt. eigenvalues --    1.20860   1.21425   1.22235   1.23217   1.24216
 Alpha virt. eigenvalues --    1.25322   1.25858   1.27153   1.27723   1.29199
 Alpha virt. eigenvalues --    1.30873   1.32540   1.33738   1.33909   1.34835
 Alpha virt. eigenvalues --    1.37374   1.38523   1.38858   1.39418   1.41936
 Alpha virt. eigenvalues --    1.42684   1.44020   1.46099   1.46948   1.47405
 Alpha virt. eigenvalues --    1.47908   1.49320   1.50885   1.51058   1.52487
 Alpha virt. eigenvalues --    1.52730   1.53203   1.53864   1.54747   1.55556
 Alpha virt. eigenvalues --    1.55771   1.58912   1.59103   1.59651   1.62166
 Alpha virt. eigenvalues --    1.62917   1.63048   1.63880   1.65528   1.67069
 Alpha virt. eigenvalues --    1.68026   1.69638   1.72306   1.74013   1.79648
 Alpha virt. eigenvalues --    1.82419   1.84448   1.87916   1.90762   1.91433
 Alpha virt. eigenvalues --    1.91592   1.93620   1.93786   1.94812   1.95255
 Alpha virt. eigenvalues --    1.95794   1.97314   1.98647   1.99212   2.00210
 Alpha virt. eigenvalues --    2.00407   2.01365   2.01483   2.03643   2.04258
 Alpha virt. eigenvalues --    2.04438   2.04997   2.05201   2.09475   2.10410
 Alpha virt. eigenvalues --    2.11051   2.11761   2.11902   2.13510   2.14920
 Alpha virt. eigenvalues --    2.16364   2.17529   2.19105   2.19770   2.21305
 Alpha virt. eigenvalues --    2.21942   2.22672   2.23464   2.24850   2.26716
 Alpha virt. eigenvalues --    2.29630   2.30921   2.33012   2.33504   2.35257
 Alpha virt. eigenvalues --    2.37263   2.37580   2.37937   2.38417   2.41269
 Alpha virt. eigenvalues --    2.42235   2.43344   2.43768   2.45106   2.45363
 Alpha virt. eigenvalues --    2.45737   2.47170   2.47243   2.50431   2.57717
 Alpha virt. eigenvalues --    2.62977   2.63606   2.63928   2.65799   2.68523
 Alpha virt. eigenvalues --    2.71164   2.71940   2.74226   2.76352   2.79865
 Alpha virt. eigenvalues --    2.80827   2.81229   2.85702   2.86553   2.86824
 Alpha virt. eigenvalues --    2.88598   2.91984   2.95708   3.00121   3.07448
 Alpha virt. eigenvalues --    3.12020   3.13130   3.19567   3.24632   3.27507
 Alpha virt. eigenvalues --    3.34256   3.38670   3.45760   4.26497   4.29375
 Alpha virt. eigenvalues --    4.30608   4.34247   4.37509   4.42081   4.42779
 Alpha virt. eigenvalues --    4.45452   4.46907   4.49736   4.50560   4.51549
 Alpha virt. eigenvalues --    4.55556   4.57588   4.60711   4.65414   4.71296
 Alpha virt. eigenvalues --    4.78598   4.80730   4.85410
          Condensed to atoms (all electrons):
               1          2          3          4          5          6
     1  C    5.834549  -0.202872   0.025581  -0.014364  -0.054074  -0.001306
     2  C   -0.202872   6.364402  -0.478262  -0.071617   0.177807   0.024479
     3  C    0.025581  -0.478262   7.068724   0.361648  -0.749424  -0.093765
     4  N   -0.014364  -0.071617   0.361648   7.768587   0.463120  -0.186964
     5  C   -0.054074   0.177807  -0.749424   0.463120   6.844624   0.660708
     6  O   -0.001306   0.024479  -0.093765  -0.186964   0.660708   8.360429
     7  N   -0.004552   0.014142  -0.214010  -0.385460   0.178435  -0.077963
     8  C   -0.008301   0.027152  -0.336424  -0.223876  -0.728360  -0.582401
     9  C   -0.001552  -0.021889  -0.048491   0.064654   0.330462   0.568031
    10  C   -0.001387   0.008032  -0.095962  -0.114397  -1.324664  -0.154930
    11  C    0.000155   0.000332   0.018441  -0.001596   0.460725  -0.012592
    12  C   -0.000022   0.001183  -0.007573  -0.018909  -0.160834  -0.026894
    13  C   -0.000520  -0.002781  -0.049048   0.006142  -0.521853   0.143139
    14  H    0.449394  -0.126162   0.029194   0.000265  -0.001957   0.000005
    15  H    0.422155  -0.069777  -0.008658  -0.000011   0.000011  -0.000039
    16  H    0.420236  -0.068645  -0.007017   0.000066  -0.000788  -0.000042
    17  H   -0.034076   0.421088  -0.069548   0.005005  -0.007761  -0.000196
    18  H   -0.033283   0.424185  -0.076457   0.005026  -0.003835  -0.000160
    19  H   -0.007065  -0.052342   0.445935  -0.057969  -0.024715   0.001090
    20  H   -0.006066  -0.052708   0.452895  -0.057941  -0.029984   0.001067
    21  H    0.000628   0.001876  -0.062139   0.172038   0.028551   0.004372
    22  H    0.000223   0.000089   0.008578   0.034074  -0.026007   0.004125
    23  H    0.000008  -0.000006   0.001685   0.000057   0.018133  -0.005857
    24  H   -0.000000   0.000021   0.000139   0.000742   0.008911   0.000061
    25  H    0.000000   0.000000   0.000020   0.000009   0.002620   0.000000
    26  C   -0.000103  -0.000317  -0.009385   0.002626  -0.135152   0.018485
    27  Cl  -0.000001   0.000006  -0.000125   0.000060  -0.006737   0.000104
    28  H    0.000000  -0.000000   0.000002   0.000000   0.000297  -0.000001
    29  H   -0.000000  -0.000001  -0.000018  -0.000001  -0.000433  -0.000031
    30  H   -0.000000  -0.000001  -0.000059  -0.000007  -0.001986  -0.000084
    31  O    0.006620   0.012703  -0.017072  -0.032224  -0.000287  -0.000308
    32  O   -0.000060  -0.001042   0.009697   0.008812   0.026079   0.000023
    33  C   -0.002657  -0.003608  -0.001268  -0.007849  -0.018335  -0.000980
    34  C    0.002714   0.000275   0.017352  -0.011494  -0.012854  -0.000656
    35  C   -0.000313  -0.000400  -0.001377   0.001878   0.001881   0.000048
    36  H    0.000004   0.000007   0.000024  -0.000036  -0.000061  -0.000000
    37  H    0.000006   0.000022   0.000000  -0.000048  -0.000092  -0.000000
    38  H    0.000000   0.000007  -0.000013  -0.000000  -0.000118  -0.000000
    39  H    0.000000   0.000002  -0.000002  -0.000002   0.000011   0.000000
    40  H    0.000000   0.000006  -0.000009  -0.000000  -0.000059  -0.000000
               7          8          9         10         11         12
     1  C   -0.004552  -0.008301  -0.001552  -0.001387   0.000155  -0.000022
     2  C    0.014142   0.027152  -0.021889   0.008032   0.000332   0.001183
     3  C   -0.214010  -0.336424  -0.048491  -0.095962   0.018441  -0.007573
     4  N   -0.385460  -0.223876   0.064654  -0.114397  -0.001596  -0.018909
     5  C    0.178435  -0.728360   0.330462  -1.324664   0.460725  -0.160834
     6  O   -0.077963  -0.582401   0.568031  -0.154930  -0.012592  -0.026894
     7  N    7.884081   0.342545  -0.181645  -0.087988   0.067545  -0.000159
     8  C    0.342545  12.462790  -1.531677  -0.289934  -0.208780   0.614705
     9  C   -0.181645  -1.531677  10.958395  -4.800288   0.588588  -2.283082
    10  C   -0.087988  -0.289934  -4.800288  15.281874  -2.654068   0.145562
    11  C    0.067545  -0.208780   0.588588  -2.654068   9.030672  -0.038960
    12  C   -0.000159   0.614705  -2.283082   0.145562  -0.038960  10.722485
    13  C   -0.029053  -2.915357   2.000450   0.247624  -1.517760  -1.874160
    14  H    0.000008  -0.000034   0.000000  -0.000001   0.000000  -0.000000
    15  H    0.000010  -0.000007  -0.000014  -0.000001   0.000000   0.000000
    16  H    0.000007  -0.000014  -0.000032   0.000003   0.000000  -0.000000
    17  H   -0.000275  -0.000595  -0.000303   0.000191   0.000009   0.000000
    18  H   -0.000126  -0.000598  -0.000074   0.000101   0.000004   0.000001
    19  H   -0.000342   0.000511  -0.001651   0.000476  -0.000002   0.000019
    20  H   -0.000000  -0.001400  -0.001900   0.000164   0.000058   0.000010
    21  H    0.031375   0.009060  -0.003077   0.004380   0.000142   0.000562
    22  H    0.160784   0.021968   0.058141  -0.081878  -0.005193  -0.007120
    23  H   -0.012163  -0.012807   0.237273   0.016602  -0.030528   0.117143
    24  H   -0.002850   0.044941   0.042596   0.153331   0.086480  -0.023315
    25  H    0.000450   0.018156  -0.005564  -0.056323   0.331427  -0.028962
    26  C    0.001755  -1.010308  -0.183224   0.354190   0.042442  -0.541472
    27  Cl  -0.000728  -0.023969  -0.053768   0.047036  -0.088300  -0.042460
    28  H    0.000030   0.009209   0.043998  -0.004461   0.007673  -0.054040
    29  H    0.000060  -0.009538  -0.037474   0.001723  -0.000255   0.031928
    30  H    0.000078  -0.016428  -0.056537   0.008404  -0.006871   0.025484
    31  O    0.015831  -0.007344  -0.008117   0.012406  -0.003394   0.001160
    32  O   -0.007151  -0.139084  -0.006408   0.070371   0.052099  -0.001903
    33  C   -0.003763   0.027441  -0.010683   0.007128  -0.024645   0.002523
    34  C   -0.014680  -0.002047  -0.001465  -0.009402  -0.001031   0.000468
    35  C    0.002665  -0.014682  -0.000965   0.006557   0.009840  -0.000405
    36  H    0.000065  -0.000502  -0.000038   0.000428   0.000040   0.000002
    37  H    0.000068  -0.000334  -0.000040   0.000297   0.000002   0.000002
    38  H   -0.000004  -0.000502  -0.000046   0.000412  -0.000089  -0.000008
    39  H    0.000004   0.000084   0.000004  -0.000081  -0.000032   0.000001
    40  H    0.000004  -0.001106  -0.000074   0.000676   0.000377   0.000011
              13         14         15         16         17         18
     1  C   -0.000520   0.449394   0.422155   0.420236  -0.034076  -0.033283
     2  C   -0.002781  -0.126162  -0.069777  -0.068645   0.421088   0.424185
     3  C   -0.049048   0.029194  -0.008658  -0.007017  -0.069548  -0.076457
     4  N    0.006142   0.000265  -0.000011   0.000066   0.005005   0.005026
     5  C   -0.521853  -0.001957   0.000011  -0.000788  -0.007761  -0.003835
     6  O    0.143139   0.000005  -0.000039  -0.000042  -0.000196  -0.000160
     7  N   -0.029053   0.000008   0.000010   0.000007  -0.000275  -0.000126
     8  C   -2.915357  -0.000034  -0.000007  -0.000014  -0.000595  -0.000598
     9  C    2.000450   0.000000  -0.000014  -0.000032  -0.000303  -0.000074
    10  C    0.247624  -0.000001  -0.000001   0.000003   0.000191   0.000101
    11  C   -1.517760   0.000000   0.000000   0.000000   0.000009   0.000004
    12  C   -1.874160  -0.000000   0.000000  -0.000000   0.000000   0.000001
    13  C   10.882060  -0.000000  -0.000000  -0.000001  -0.000016  -0.000005
    14  H   -0.000000   0.500038  -0.025511  -0.025383  -0.003251  -0.003232
    15  H   -0.000000  -0.025511   0.505496  -0.030057  -0.004663   0.003887
    16  H   -0.000001  -0.025383  -0.030057   0.504919   0.003914  -0.004625
    17  H   -0.000016  -0.003251  -0.004663   0.003914   0.488882  -0.028206
    18  H   -0.000005  -0.003232   0.003887  -0.004625  -0.028206   0.484838
    19  H   -0.000035  -0.000066  -0.000345   0.002956   0.003991  -0.005386
    20  H   -0.000289  -0.000066   0.003026  -0.000366  -0.005488   0.003988
    21  H   -0.000960  -0.000001  -0.000000  -0.000000   0.000566   0.000592
    22  H    0.013931  -0.000000  -0.000000  -0.000000   0.000002   0.000002
    23  H   -0.014068   0.000000  -0.000000  -0.000000  -0.000000  -0.000000
    24  H   -0.013121   0.000000   0.000000   0.000000   0.000000   0.000000
    25  H    0.051786  -0.000000   0.000000   0.000000  -0.000000  -0.000000
    26  C    0.153054  -0.000000  -0.000000  -0.000000  -0.000001  -0.000000
    27  Cl  -0.135696  -0.000000  -0.000000  -0.000000  -0.000000   0.000000
    28  H   -0.110082   0.000000  -0.000000  -0.000000  -0.000000  -0.000000
    29  H   -0.063494  -0.000000   0.000000  -0.000000  -0.000000   0.000000
    30  H   -0.044976  -0.000000  -0.000000   0.000000   0.000000  -0.000000
    31  O   -0.000937  -0.000018  -0.000006  -0.000004  -0.001015  -0.001150
    32  O   -0.000935  -0.000000   0.000000   0.000000  -0.000005  -0.000007
    33  C   -0.000127  -0.000045  -0.000007   0.000002  -0.000010  -0.000230
    34  C   -0.002522   0.000023  -0.000002  -0.000001   0.000141  -0.000015
    35  C    0.000022  -0.000000  -0.000000  -0.000000  -0.000013  -0.000011
    36  H   -0.000003  -0.000000  -0.000000   0.000000  -0.000000   0.000000
    37  H   -0.000003  -0.000000  -0.000000  -0.000000   0.000000  -0.000000
    38  H    0.000016   0.000000   0.000000  -0.000000  -0.000000  -0.000000
    39  H    0.000000   0.000000  -0.000000  -0.000000  -0.000000  -0.000000
    40  H    0.000009   0.000000  -0.000000   0.000000  -0.000000  -0.000000
              19         20         21         22         23         24
     1  C   -0.007065  -0.006066   0.000628   0.000223   0.000008  -0.000000
     2  C   -0.052342  -0.052708   0.001876   0.000089  -0.000006   0.000021
     3  C    0.445935   0.452895  -0.062139   0.008578   0.001685   0.000139
     4  N   -0.057969  -0.057941   0.172038   0.034074   0.000057   0.000742
     5  C   -0.024715  -0.029984   0.028551  -0.026007   0.018133   0.008911
     6  O    0.001090   0.001067   0.004372   0.004125  -0.005857   0.000061
     7  N   -0.000342  -0.000000   0.031375   0.160784  -0.012163  -0.002850
     8  C    0.000511  -0.001400   0.009060   0.021968  -0.012807   0.044941
     9  C   -0.001651  -0.001900  -0.003077   0.058141   0.237273   0.042596
    10  C    0.000476   0.000164   0.004380  -0.081878   0.016602   0.153331
    11  C   -0.000002   0.000058   0.000142  -0.005193  -0.030528   0.086480
    12  C    0.000019   0.000010   0.000562  -0.007120   0.117143  -0.023315
    13  C   -0.000035  -0.000289  -0.000960   0.013931  -0.014068  -0.013121
    14  H   -0.000066  -0.000066  -0.000001  -0.000000   0.000000   0.000000
    15  H   -0.000345   0.003026  -0.000000  -0.000000  -0.000000   0.000000
    16  H    0.002956  -0.000366  -0.000000  -0.000000  -0.000000   0.000000
    17  H    0.003991  -0.005488   0.000566   0.000002  -0.000000   0.000000
    18  H   -0.005386   0.003988   0.000592   0.000002  -0.000000   0.000000
    19  H    0.526407  -0.042998   0.001658   0.000005  -0.000000  -0.000000
    20  H   -0.042998   0.527781   0.001634   0.000005  -0.000000  -0.000000
    21  H    0.001658   0.001634   0.256229   0.004267   0.000000   0.000005
    22  H    0.000005   0.000005   0.004267   0.264341  -0.000097   0.004888
    23  H   -0.000000  -0.000000   0.000000  -0.000097   0.442086  -0.000110
    24  H   -0.000000  -0.000000   0.000005   0.004888  -0.000110   0.449894
    25  H    0.000000  -0.000000  -0.000000  -0.000008   0.000013  -0.004287
    26  C   -0.000006  -0.000028  -0.000082   0.001008  -0.025609   0.001111
    27  Cl   0.000000  -0.000000   0.000000   0.000025   0.000132   0.001093
    28  H    0.000000   0.000000   0.000000  -0.000000   0.000140  -0.000000
    29  H   -0.000000   0.000000  -0.000000   0.000000   0.000649   0.000000
    30  H    0.000000  -0.000000  -0.000000   0.000000   0.000696   0.000000
    31  O   -0.000047  -0.000050   0.051947   0.001616   0.000000  -0.000018
    32  O   -0.000005  -0.000002  -0.000386   0.045502   0.000009  -0.002543
    33  C    0.000292   0.000229  -0.004993  -0.004164  -0.000000  -0.001063
    34  C    0.000032   0.000021   0.006498   0.006678   0.000001   0.001487
    35  C    0.000000   0.000001  -0.001099  -0.000770  -0.000000  -0.000267
    36  H   -0.000000  -0.000000  -0.000001  -0.000007   0.000000  -0.000000
    37  H   -0.000000  -0.000000  -0.000001  -0.000007   0.000000   0.000000
    38  H   -0.000000   0.000000   0.000000  -0.000003   0.000000   0.000001
    39  H   -0.000000  -0.000000   0.000000   0.000000  -0.000000   0.000000
    40  H    0.000000  -0.000000   0.000000  -0.000002   0.000000  -0.000000
              25         26         27         28         29         30
     1  C    0.000000  -0.000103  -0.000001   0.000000  -0.000000  -0.000000
     2  C    0.000000  -0.000317   0.000006  -0.000000  -0.000001  -0.000001
     3  C    0.000020  -0.009385  -0.000125   0.000002  -0.000018  -0.000059
     4  N    0.000009   0.002626   0.000060   0.000000  -0.000001  -0.000007
     5  C    0.002620  -0.135152  -0.006737   0.000297  -0.000433  -0.001986
     6  O    0.000000   0.018485   0.000104  -0.000001  -0.000031  -0.000084
     7  N    0.000450   0.001755  -0.000728   0.000030   0.000060   0.000078
     8  C    0.018156  -1.010308  -0.023969   0.009209  -0.009538  -0.016428
     9  C   -0.005564  -0.183224  -0.053768   0.043998  -0.037474  -0.056537
    10  C   -0.056323   0.354190   0.047036  -0.004461   0.001723   0.008404
    11  C    0.331427   0.042442  -0.088300   0.007673  -0.000255  -0.006871
    12  C   -0.028962  -0.541472  -0.042460  -0.054040   0.031928   0.025484
    13  C    0.051786   0.153054  -0.135696  -0.110082  -0.063494  -0.044976
    14  H   -0.000000  -0.000000  -0.000000   0.000000  -0.000000  -0.000000
    15  H    0.000000  -0.000000  -0.000000  -0.000000   0.000000  -0.000000
    16  H    0.000000  -0.000000  -0.000000  -0.000000  -0.000000   0.000000
    17  H   -0.000000  -0.000001  -0.000000  -0.000000  -0.000000   0.000000
    18  H   -0.000000  -0.000000   0.000000  -0.000000   0.000000  -0.000000
    19  H    0.000000  -0.000006   0.000000   0.000000  -0.000000   0.000000
    20  H   -0.000000  -0.000028  -0.000000   0.000000   0.000000  -0.000000
    21  H   -0.000000  -0.000082   0.000000   0.000000  -0.000000  -0.000000
    22  H   -0.000008   0.001008   0.000025  -0.000000   0.000000   0.000000
    23  H    0.000013  -0.025609   0.000132   0.000140   0.000649   0.000696
    24  H   -0.004287   0.001111   0.001093  -0.000000   0.000000   0.000000
    25  H    0.466499  -0.000805  -0.003321  -0.000002   0.000002   0.000002
    26  C   -0.000805   6.880614   0.007833   0.443417   0.413710   0.428694
    27  Cl  -0.003321   0.007833  17.142231   0.009479  -0.000965  -0.000452
    28  H   -0.000002   0.443417   0.009479   0.481442  -0.024430  -0.024323
    29  H    0.000002   0.413710  -0.000965  -0.024430   0.475540  -0.026880
    30  H    0.000002   0.428694  -0.000452  -0.024323  -0.026880   0.475221
    31  O    0.000000  -0.000088  -0.000001   0.000000  -0.000000  -0.000000
    32  O   -0.000002   0.000224  -0.000015  -0.000000  -0.000000   0.000000
    33  C   -0.000022  -0.000212  -0.000023  -0.000000   0.000000   0.000000
    34  C   -0.000003  -0.000088  -0.000001   0.000000   0.000000  -0.000000
    35  C   -0.000007   0.000024   0.000004  -0.000000  -0.000000   0.000000
    36  H   -0.000000  -0.000000   0.000000  -0.000000   0.000000   0.000000
    37  H   -0.000000  -0.000000  -0.000000  -0.000000  -0.000000   0.000000
    38  H    0.000000   0.000000  -0.000000   0.000000   0.000000  -0.000000
    39  H    0.000000   0.000000  -0.000000  -0.000000  -0.000000   0.000000
    40  H    0.000000   0.000000  -0.000000   0.000000   0.000000  -0.000000
              31         32         33         34         35         36
     1  C    0.006620  -0.000060  -0.002657   0.002714  -0.000313   0.000004
     2  C    0.012703  -0.001042  -0.003608   0.000275  -0.000400   0.000007
     3  C   -0.017072   0.009697  -0.001268   0.017352  -0.001377   0.000024
     4  N   -0.032224   0.008812  -0.007849  -0.011494   0.001878  -0.000036
     5  C   -0.000287   0.026079  -0.018335  -0.012854   0.001881  -0.000061
     6  O   -0.000308   0.000023  -0.000980  -0.000656   0.000048  -0.000000
     7  N    0.015831  -0.007151  -0.003763  -0.014680   0.002665   0.000065
     8  C   -0.007344  -0.139084   0.027441  -0.002047  -0.014682  -0.000502
     9  C   -0.008117  -0.006408  -0.010683  -0.001465  -0.000965  -0.000038
    10  C    0.012406   0.070371   0.007128  -0.009402   0.006557   0.000428
    11  C   -0.003394   0.052099  -0.024645  -0.001031   0.009840   0.000040
    12  C    0.001160  -0.001903   0.002523   0.000468  -0.000405   0.000002
    13  C   -0.000937  -0.000935  -0.000127  -0.002522   0.000022  -0.000003
    14  H   -0.000018  -0.000000  -0.000045   0.000023  -0.000000  -0.000000
    15  H   -0.000006   0.000000  -0.000007  -0.000002  -0.000000  -0.000000
    16  H   -0.000004   0.000000   0.000002  -0.000001  -0.000000   0.000000
    17  H   -0.001015  -0.000005  -0.000010   0.000141  -0.000013  -0.000000
    18  H   -0.001150  -0.000007  -0.000230  -0.000015  -0.000011   0.000000
    19  H   -0.000047  -0.000005   0.000292   0.000032   0.000000  -0.000000
    20  H   -0.000050  -0.000002   0.000229   0.000021   0.000001  -0.000000
    21  H    0.051947  -0.000386  -0.004993   0.006498  -0.001099  -0.000001
    22  H    0.001616   0.045502  -0.004164   0.006678  -0.000770  -0.000007
    23  H    0.000000   0.000009  -0.000000   0.000001  -0.000000   0.000000
    24  H   -0.000018  -0.002543  -0.001063   0.001487  -0.000267  -0.000000
    25  H    0.000000  -0.000002  -0.000022  -0.000003  -0.000007  -0.000000
    26  C   -0.000088   0.000224  -0.000212  -0.000088   0.000024  -0.000000
    27  Cl  -0.000001  -0.000015  -0.000023  -0.000001   0.000004   0.000000
    28  H    0.000000  -0.000000  -0.000000   0.000000  -0.000000  -0.000000
    29  H   -0.000000  -0.000000   0.000000   0.000000  -0.000000   0.000000
    30  H   -0.000000   0.000000   0.000000  -0.000000   0.000000   0.000000
    31  O    8.634016  -0.197833   0.509291  -0.263186   0.024757  -0.002092
    32  O   -0.197833   8.590628   0.278523  -0.151980   0.061009   0.001480
    33  C    0.509291   0.278523   5.442276  -0.655305  -0.019924  -0.067174
    34  C   -0.263186  -0.151980  -0.655305   7.153898  -0.269190   0.434598
    35  C    0.024757   0.061009  -0.019924  -0.269190   5.795503  -0.052266
    36  H   -0.002092   0.001480  -0.067174   0.434598  -0.052266   0.492628
    37  H   -0.001875   0.001271  -0.067294   0.433634  -0.051247  -0.024039
    38  H    0.000004  -0.004914  -0.003045  -0.053183   0.409721  -0.003953
    39  H   -0.000134   0.001857   0.030775  -0.081658   0.389572  -0.002414
    40  H   -0.000024  -0.004739  -0.005917  -0.049398   0.408535   0.003661
              37         38         39         40
     1  C    0.000006   0.000000   0.000000   0.000000
     2  C    0.000022   0.000007   0.000002   0.000006
     3  C    0.000000  -0.000013  -0.000002  -0.000009
     4  N   -0.000048  -0.000000  -0.000002  -0.000000
     5  C   -0.000092  -0.000118   0.000011  -0.000059
     6  O   -0.000000  -0.000000   0.000000  -0.000000
     7  N    0.000068  -0.000004   0.000004   0.000004
     8  C   -0.000334  -0.000502   0.000084  -0.001106
     9  C   -0.000040  -0.000046   0.000004  -0.000074
    10  C    0.000297   0.000412  -0.000081   0.000676
    11  C    0.000002  -0.000089  -0.000032   0.000377
    12  C    0.000002  -0.000008   0.000001   0.000011
    13  C   -0.000003   0.000016   0.000000   0.000009
    14  H   -0.000000   0.000000   0.000000   0.000000
    15  H   -0.000000   0.000000  -0.000000  -0.000000
    16  H   -0.000000  -0.000000  -0.000000   0.000000
    17  H    0.000000  -0.000000  -0.000000  -0.000000
    18  H   -0.000000  -0.000000  -0.000000  -0.000000
    19  H   -0.000000  -0.000000  -0.000000   0.000000
    20  H   -0.000000   0.000000  -0.000000  -0.000000
    21  H   -0.000001   0.000000   0.000000   0.000000
    22  H   -0.000007  -0.000003   0.000000  -0.000002
    23  H    0.000000   0.000000  -0.000000   0.000000
    24  H    0.000000   0.000001   0.000000  -0.000000
    25  H   -0.000000   0.000000   0.000000   0.000000
    26  C   -0.000000   0.000000   0.000000   0.000000
    27  Cl  -0.000000  -0.000000  -0.000000  -0.000000
    28  H   -0.000000   0.000000  -0.000000   0.000000
    29  H   -0.000000   0.000000  -0.000000   0.000000
    30  H    0.000000  -0.000000   0.000000  -0.000000
    31  O   -0.001875   0.000004  -0.000134  -0.000024
    32  O    0.001271  -0.004914   0.001857  -0.004739
    33  C   -0.067294  -0.003045   0.030775  -0.005917
    34  C    0.433634  -0.053183  -0.081658  -0.049398
    35  C   -0.051247   0.409721   0.389572   0.408535
    36  H   -0.024039  -0.003953  -0.002414   0.003661
    37  H    0.492688   0.003673  -0.002433  -0.003989
    38  H    0.003673   0.491784  -0.028778  -0.024139
    39  H   -0.002433  -0.028778   0.539149  -0.028705
    40  H   -0.003989  -0.024139  -0.028705   0.491082
 Mulliken charges:
               1
     1  C   -0.789701
     2  C   -0.325386
     3  C   -0.113808
     4  N   -0.710044
     5  C    0.607995
     6  O   -0.640997
     7  N   -0.677029
     8  C    0.487846
     9  C    0.347486
    10  C   -0.692201
    11  C   -0.102954
    12  C   -0.552970
    13  C   -0.200432
    14  H    0.206803
    15  H    0.204513
    16  H    0.204871
    17  H    0.231631
    18  H    0.234777
    19  H    0.209602
    20  H    0.208407
    21  H    0.496360
    22  H    0.495006
    23  H    0.266619
    24  H    0.251874
    25  H    0.228323
    26  C   -0.842305
    27  Cl   0.148558
    28  H    0.221653
    29  H    0.239908
    30  H    0.240023
    31  O   -0.733127
    32  O   -0.628570
    33  C    0.604862
    34  C   -0.477657
    35  C   -0.699078
    36  H    0.219648
    37  H    0.219736
    38  H    0.213177
    39  H    0.182781
    40  H    0.213801
 Sum of Mulliken charges =  -1.00000
 Mulliken charges with hydrogens summed into heavy atoms:
               1
     1  C   -0.173514
     2  C    0.141022
     3  C    0.304201
     4  N   -0.213684
     5  C    0.607995
     6  O   -0.640997
     7  N   -0.182024
     8  C    0.487846
     9  C    0.614105
    10  C   -0.440327
    11  C    0.125369
    12  C   -0.552970
    13  C   -0.200432
    26  C   -0.140722
    27  Cl   0.148558
    31  O   -0.733127
    32  O   -0.628570
    33  C    0.604862
    34  C   -0.038273
    35  C   -0.089320
 Electronic spatial extent (au):  <R**2>=          10681.2981
 Charge=             -1.0000 electrons
 Dipole moment (field-independent basis, Debye):
    X=             -4.3276    Y=             -1.8722    Z=             -0.0133  Tot=              4.7152
 Quadrupole moment (field-independent basis, Debye-Ang):
   XX=           -180.4824   YY=           -151.3349   ZZ=           -134.3042
   XY=             -7.5481   XZ=             -0.2866   YZ=             -0.3879
 Traceless Quadrupole moment (field-independent basis, Debye-Ang):
   XX=            -25.1086   YY=              4.0389   ZZ=             21.0696
   XY=             -7.5481   XZ=             -0.2866   YZ=             -0.3879
 Octapole moment (field-independent basis, Debye-Ang**2):
  XXX=              8.3275  YYY=              8.6514  ZZZ=              0.9335  XYY=            -31.6529
  XXY=            -62.9843  XXZ=              1.8639  XZZ=             10.4179  YZZ=             -1.1944
  YYZ=             -1.1580  XYZ=              1.9329
 Hexadecapole moment (field-independent basis, Debye-Ang**3):
 XXXX=         -11207.0876 YYYY=          -4903.7733 ZZZZ=           -197.7213 XXXY=             18.9009
[...]
 584,-0.00000314,0.00001451,-0.00000288,0.00000455,0.00002001,-0.000009
 66,-0.00000363,-0.00000533,0.00000403,0.00000178,0.00001526,0.00000020
 ,-0.00000382,0.00000127,-0.00000134,-0.00000085,-0.00000069,0.00000437
 ,0.00000349,-0.00000822,-0.00000610,0.00001617,-0.00001242,-0.00000532
 ,-0.00000446,0.00001278,-0.00000033,-0.00000256,0.00001198,-0.00000664
 ,0.00000332,-0.00000859,0.00010134,-0.00000728,0.00000733,0.00022017,-
 0.00004196,0.00000018,-0.00000041,-0.00000165,0.00002454,0.00000611,-0
 .00000695,0.00000147,0.00000227,-0.00000136,-0.00000379,0.00000091,0.0
 0000056,-0.00002187,-0.00000772,0.00000217,-0.00000124,-0.00000251,-0.
 00000139,0.00000184,-0.00000116,-0.00000066,-0.00000191,-0.00000299,0.
 00000189,0.00176898,-0.00059861,0.00090984,0.00066290,-0.00024855,-0.0
 0046469,-0.00065289,0.00336737,0.00076483,-0.12137038,-0.05519672,-0.1
 8703533,0.00410914,0.00187728,0.00428407,0.13299718,0.05898172,0.20119
 616,0.00000415,0.00000612,0.00000188,-0.00000869,-0.00001016,-0.000003
 74,0.00002177,-0.00000878,0.00000864,0.00007152,0.00007707,-0.00000233
 ,-0.00019336,-0.00001411,0.00003404,0.00004533,0.00000385,-0.00001467,
 0.00006343,-0.00018660,-0.00001298,-0.00001678,-0.00002551,0.00000361,
 0.00000392,0.00000009,-0.00000256,0.00000861,0.00002208,-0.00001350,-0
 .00000286,-0.00000218,-0.00000558,0.00001226,-0.00000538,-0.00000298,-
 0.00000939,-0.00000271,0.00000030,-0.00000566,0.00000040,0.00000043,-0
 .00000189,0.00000026,-0.00000053,-0.00000134,-0.00000089,-0.00000047,0
 .00000838,0.00000338,-0.00000189,0.00001108,0.00000670,0.00000131,-0.0
 0000199,-0.00000040,0.00000177,-0.00000235,0.00000129,-0.00000387,-0.0
 0002906,-0.00015942,-0.00003944,-0.00002536,0.00025886,-0.00002029,-0.
 00000262,-0.00000349,0.00000297,0.00001083,0.00002175,0.00002204,0.000
 00701,0.00000394,0.00000652,-0.00000099,0.00000059,0.00000106,-0.00000
 552,-0.00000437,-0.00000097,-0.00000195,-0.00000211,-0.00000031,0.0000
 0122,-0.00000157,0.00000060,-0.00000012,-0.00000119,-0.00000020,0.0001
 6928,0.00162614,-0.00079371,0.00016146,-0.00194951,-0.00098727,-0.0034
 2016,-0.00157097,0.00346701,-0.09249263,-0.03001199,0.09758733,-0.0127
 0946,-0.00807023,0.02589328,0.00888536,0.00650264,-0.01814588,0.102409
 49,0.00000114,0.00000413,-0.00000342,0.00001658,-0.00001775,0.00001655
 ,-0.00006488,0.00003837,0.00001525,0.00007544,-0.00002830,0.00003031,-
 0.00026503,0.00013279,0.00006113,0.00007223,-0.00017011,-0.00003848,-0
 .00001098,-0.00063036,0.00008110,0.00025078,0.00000648,-0.00001084,-0.
 00005351,-0.00003208,-0.00000834,-0.00007447,0.00007717,0.00000991,0.0
 0002687,-0.00001651,-0.00000385,0.00001131,-0.00001811,-0.00000192,-0.
 00000067,0.00000053,-0.00000353,0.00000936,-0.00000010,0.00000238,-0.0
 0000086,0.00000186,-0.00000245,0.00000253,-0.00000587,-0.00000121,-0.0
 0000827,0.00000241,-0.00000910,-0.00000768,0.00000072,0.00000173,0.000
 00977,-0.00001445,-0.00000616,0.00001726,-0.00000717,-0.00000040,-0.00
 005529,0.00015440,-0.00012568,-0.00001434,0.00101221,-0.00019966,0.000
 00536,0.00000077,0.00000174,0.00008956,0.00000853,-0.00000620,-0.00000
 885,0.00000087,0.00000269,-0.00000648,0.00000150,0.00000281,-0.0000384
 0,-0.00001031,0.00000287,-0.00000320,-0.00000464,-0.00000141,0.0000022
 1,-0.00000067,0.00000042,-0.00000182,-0.00000465,0.00000128,0.00084988
 ,0.00050090,-0.00415380,-0.00205016,-0.00603411,-0.00393705,-0.0136317
 0,-0.00650331,0.03333594,-0.03002699,-0.06616732,0.06765760,0.00743989
 ,0.00403716,-0.01504011,0.00442343,0.00262369,-0.00886694,0.03122002,0
 .07133673,0.00000138,0.00000043,0.00000532,-0.00001206,0.00001052,-0.0
 0002255,0.00006237,-0.00002336,-0.00001293,-0.00005560,0.00005818,0.00
 002527,0.00013291,-0.00007432,-0.00002779,-0.00003579,0.00008047,0.000
 01090,-0.00001451,0.00018268,0.00003320,-0.00006103,0.00000747,0.00001
 469,0.00001149,0.00001070,-0.00000286,0.00001783,-0.00003052,-0.000006
 75,-0.00001244,0.00000253,0.00000847,-0.00002381,0.00001079,0.00000144
 ,0.00000748,-0.00000372,0.00000068,-0.00001457,-0.00000038,-0.00000165
 ,0.00000165,-0.00000484,0.00000325,-0.00000129,0.00000253,0.00000011,0
 .00000937,0.00000428,-0.00000423,0.00000959,0.00000406,0.00001422,-0.0
 0001043,0.00000746,0.00000586,-0.00001313,0.00000027,0.00000060,0.0000
 1318,-0.00008142,-0.00000258,-0.00001191,-0.00026656,-0.00004742,-0.00
 000008,0.00000116,-0.00000217,-0.00002589,-0.00001147,-0.00000721,-0.0
 0000370,-0.00000332,-0.00000249,0.00000402,-0.00000107,-0.00000053,0.0
 0002361,0.00000890,-0.00000121,0.00000276,0.00000338,0.00000176,-0.000
 00229,0.00000157,-0.00000040,0.00000106,0.00000291,-0.00000150,-0.0014
 5164,0.00036011,0.00150921,-0.00081099,0.00071915,-0.00023747,0.001554
 00,-0.00272689,-0.00007190,0.09641390,0.06421032,-0.24381488,0.0003058
 4,0.00019548,-0.00142893,0.01018444,0.00741263,-0.02170284,-0.10689018
 ,-0.06886260,0.26347762,0.00000210,0.00000033,-0.00000362,0.00000046,-
 0.00000404,0.00001616,0.00000527,-0.00000396,0.00000559,0.00001042,0.0
 0006709,-0.00002638,-0.00003951,-0.00002121,0.00001924,0.00000937,0.00
 002490,-0.00000740,-0.00001158,0.00000024,-0.00001860,0.00002870,0.000
 00816,0.00000249,-0.00000746,0.00000460,-0.00000222,-0.00001681,-0.000
 00946,-0.00000327,0.00000832,-0.00000291,-0.00000400,-0.00001278,0.000
 00159,0.00000249,0.00000540,0.00000064,-0.00000161,0.00000197,-0.00000
 108,0.00000207,-0.00000301,0.00000572,-0.00000288,-0.00000036,-0.00000
 034,0.00000046,-0.00000003,-0.00000491,0.00000462,0.00000057,-0.000002
 25,-0.00001363,-0.00000107,0.00000099,-0.00000013,-0.00000122,0.000008
 46,-0.00000319,-0.00000175,-0.00009827,0.00001126,0.00000669,0.0000061
 6,0.00001558,0.00000056,0.00000179,0.00000227,0.00001989,-0.00000896,0
 .00000420,-0.00000935,-0.00000670,0.00000048,-0.00000064,-0.00000015,0
 .00000031,0.00000520,0.00000399,-0.00000065,0.00000037,0.00000095,0.,-
 0.00000082,0.00000124,0.00000077,0.00000163,0.00000146,-0.00000054,0.0
 0043460,0.00036342,-0.00037109,0.00120116,0.00030277,-0.00063422,-0.00
 080253,-0.00174440,0.00036423,-0.01316575,-0.00794006,0.02736006,-0.09
 429855,-0.03069011,0.09828077,0.00095173,-0.00089013,-0.00031516,-0.00
 513385,0.00343895,0.00023686,0.10392780,0.00000097,-0.00000174,0.00000
 053,-0.00000419,0.00000302,-0.00000028,0.00003805,-0.00002007,-0.00000
 535,-0.00003326,0.00004320,0.00001109,0.00009321,-0.00008447,-0.000018
 10,-0.00002451,0.00008418,0.00000644,0.00000881,0.00018010,0.00000775,
 -0.00005729,0.00001036,0.00000280,0.00000806,0.00001166,0.00000216,0.0
 0001260,-0.00004830,0.00000942,-0.00002128,0.00001000,0.00000752,-0.00
 003058,0.00001447,-0.00000035,0.00001183,-0.00000376,0.00000132,-0.000
 00498,-0.00000099,0.00000054,-0.00000063,0.00000173,-0.00000086,-0.000
 00110,0.00000193,0.00000098,0.00000535,-0.00000085,0.00000300,0.000003
 27,-0.00000059,-0.00000303,-0.00000719,0.00000637,0.00000423,-0.000007
 03,0.00000546,-0.00000233,0.00001556,-0.00009207,-0.00000563,-0.000028
 21,-0.00029878,-0.00000461,-0.00000061,0.00000230,-0.00000084,-0.00003
 263,-0.00002977,-0.00002846,-0.00000403,-0.00000420,-0.00000108,0.0000
 0427,-0.00000094,-0.00000068,0.00003346,0.00001060,-0.00000283,0.00000
 206,0.00000428,0.00000175,-0.00000179,0.00000138,0.00000008,0.00000159
 ,0.00000415,-0.00000193,-0.00058134,0.00018153,0.00023100,-0.00039944,
 -0.00007735,0.00069056,0.00100236,0.00037984,-0.00096982,0.00629204,0.
 00427603,-0.01428796,-0.03161381,-0.06715872,0.06484949,-0.00076621,0.
 00048525,0.00032008,0.00305570,-0.00122090,-0.00055425,0.03175060,0.06
 919191,-0.00000307,-0.00000316,0.00000161,-0.00000136,0.00001239,-0.00
 000814,0.00001703,-0.00000889,-0.00000730,-0.00008539,-0.00008173,0.00
 002751,0.00018546,-0.00003305,-0.00003215,-0.00004746,0.00001333,0.000
 01257,-0.00011095,0.00006150,0.00003185,0.00010577,0.00004537,-0.00001
 314,-0.00002775,-0.00000345,0.00000462,-0.00003926,-0.00002525,0.00002
 962,0.00000772,-0.00000295,0.00000887,-0.00004062,0.00001144,0.0000038
 1,0.00002264,0.00000001,-0.00000173,-0.00000450,0.00000039,-0.00000062
 ,0.00000222,-0.00000285,0.00000285,0.00000044,0.00000063,-0.00000121,0
 .00000103,0.00000194,-0.00000282,0.00000051,-0.00000100,0.00000760,-0.
 00000458,0.00000284,0.00000102,-0.00000353,-0.00000211,0.00000255,0.00
 001974,0.00008266,-0.00001332,-0.00000919,-0.00008491,-0.00002809,0.00
 000621,0.00000740,-0.00000344,0.00001011,-0.00007292,-0.00004667,-0.00
 002306,-0.00001097,-0.00000845,0.00000177,-0.00000091,-0.00000072,0.00
 001587,0.00001105,0.00000054,0.00000327,0.00000418,0.00000103,-0.00000
 260,0.00000360,-0.00000045,0.00000108,0.00000301,-0.00000058,-0.000649
 25,-0.00059376,0.00002070,-0.00166171,0.00053814,0.00092131,0.00204605
 ,0.00177426,-0.00021679,0.00071003,-0.00000864,-0.00211761,0.09875274,
 0.06281992,-0.25507868,0.00025849,-0.00031834,0.00072425,0.00053716,-0
 .00024608,0.00153417,-0.10887187,-0.07094734,0.27369085,0.00000861,0.0
 0000523,-0.00000057,-0.00001483,-0.00001066,0.00000115,0.00006528,-0.0
 0001944,-0.00000625,0.00012285,0.00036961,-0.00000069,-0.00027451,-0.0
 0006504,0.00002462,0.00006942,0.00011049,-0.00000398,0.00013964,0.0000
 2407,-0.00001064,-0.00014723,-0.00004706,0.00001116,0.00003407,0.00002
 020,-0.00000231,0.00004733,0.00000248,-0.00000225,-0.00000288,0.000000
 23,0.00000087,0.00001980,-0.00000228,-0.00000212,-0.00001665,-0.000003
 32,0.00000152,-0.00000638,-0.00000186,0.00000068,-0.00000482,0.0000054
 8,-0.00000230,-0.00000437,0.00000525,0.00000332,0.00001427,-0.00000526
 ,0.00001673,0.00001040,-0.00000447,-0.00001929,-0.00001017,0.00001444,
 0.00000769,-0.00001121,0.00001459,-0.00000506,-0.00005172,-0.00054486,
 -0.00001310,-0.00002094,-0.00007081,-0.00000178,-0.00000840,-0.0000063
 9,0.00000061,-0.00002741,0.00003486,-0.00000026,0.00001245,0.00000409,
 -0.00000140,0.00000003,0.00000013,0.00000001,0.00000265,-0.00000224,-0
 .00000032,0.00000010,-0.00000078,-0.00000012,0.00000020,-0.00000165,-0
 .00000005,0.00000011,-0.00000080,0.00000005,-0.00096439,0.00371184,0.0
 0007623,0.00210001,-0.00021590,-0.00017708,-0.00680026,-0.00298418,0.0
 0090285,0.00444904,0.03292387,-0.00060652,-0.05143633,-0.02968600,-0.0
 0005750,0.00111334,-0.00075185,-0.00050153,0.00119686,-0.00085057,0.00
 020808,-0.00227020,-0.01308740,-0.00156436,0.05484689,-0.00001214,-0.0
 0000280,0.00000093,0.00001993,0.00001015,-0.00000122,-0.00012788,0.000
 05737,0.00001346,-0.00004905,-0.00040803,-0.00000722,0.00009798,0.0002
 6049,-0.00000261,-0.00002058,-0.00028224,-0.00000527,-0.00016375,-0.00
 034423,0.00000718,0.00025362,0.00002570,-0.00002331,-0.00004936,-0.000
 04655,0.00000336,-0.00007252,0.00007576,0.00000894,0.00003803,-0.00001
 088,-0.00000407,0.00005004,-0.00002363,-0.00000528,-0.00000472,0.00001
 202,0.00000066,0.00001394,0.00000564,-0.00000119,0.00000759,-0.0000105
 6,0.00000589,0.00000641,-0.00001048,-0.00000775,-0.00002236,0.00000758
 ,-0.00002554,-0.00001645,0.00000610,0.00002963,0.00002055,-0.00002561,
 -0.00001691,0.00002316,-0.00002590,0.00001158,-0.00001172,0.00068679,0
 .00002122,0.00008999,0.00062595,0.00000408,0.00000937,0.00000217,-0.00
 000071,0.00007377,0.00004387,-0.00000568,0.00000053,0.00000698,0.00000
 036,-0.00000858,0.00000170,0.00000093,-0.00007162,-0.00002036,0.000005
 92,-0.00000457,-0.00000748,-0.00000408,0.00000376,-0.00000146,-0.00000
 034,-0.00000370,-0.00000769,0.00000448,0.00183898,-0.00273447,-0.00016
 254,0.00067152,-0.00124747,-0.00007857,0.00106815,0.00285210,-0.000213
 81,-0.00400493,-0.01328732,0.00045955,-0.02918255,-0.30916404,0.003447
 76,0.00019526,0.00042226,0.00049722,0.00004795,0.00043259,-0.00053935,
 -0.00093844,-0.00776158,-0.00010827,0.03107347,0.33760729,-0.00000118,
 -0.00000053,-0.00000055,0.00000237,0.00000114,0.00000422,-0.00000895,0
 .00000284,0.00000155,-0.00001514,-0.00004888,0.00000255,0.00003339,0.0
 0001094,-0.00000650,-0.00000845,-0.00001665,0.00000121,-0.00001739,-0.
 00000883,0.00001561,0.00001887,0.00000544,-0.00000777,-0.00000415,-0.0
 0000297,0.00000235,-0.00000430,0.00000110,0.00001819,0.00000121,-0.000
 00053,0.00000484,-0.00000159,-0.00000012,-0.00000074,0.00000168,0.0000
 0040,-0.00000037,0.00000092,0.00000025,0.00000094,0.00000066,0.0000001
 0,-0.00000011,0.00000052,-0.00000166,-0.00000098,-0.00000155,0.0000009
 5,-0.00000349,-0.00000197,0.00000061,0.00000177,0.00000116,-0.00000248
 ,-0.00000139,0.00000185,-0.00000167,0.00000036,0.00000585,0.00007395,0
 .00000078,0.00000339,0.00001751,-0.00001459,0.00000102,0.00000071,-0.0
 0000057,0.00000139,-0.00000086,-0.00003409,-0.00000164,-0.00000017,-0.
 00000372,-0.00000010,0.,-0.00000003,-0.00000132,-0.00000004,0.00000032
 ,0.00000002,0.00000008,-0.00000002,0.00000002,0.00000016,0.,-0.0000001
 6,-0.00000016,0.00000004,0.00015973,-0.00046948,0.00001253,-0.00011233
 ,-0.00001537,0.00067566,0.00084644,0.00030675,0.00052765,-0.00075244,-
 0.00410807,-0.00101013,-0.00001348,0.00355882,-0.05064165,0.00005454,0
 .00042093,0.00006061,-0.00034333,-0.00023110,0.00001090,0.00208697,0.0
 2913083,0.00142939,-0.00080609,-0.00366881,0.04762345,0.00000331,0.000
 00085,0.00000296,-0.00000226,-0.00000629,-0.00001600,-0.00000136,-0.00
 000050,-0.00000673,0.00003774,0.00008814,0.00002832,-0.00009159,-0.000
 00973,-0.00001017,0.00002368,0.00001910,0.00000702,0.00001669,-0.00002
 432,0.00002148,0.00000876,-0.00000144,-0.00000793,-0.00000161,0.000004
 96,0.00000411,-0.00000817,-0.00000418,0.00001288,0.00000854,-0.0000025
 3,0.00000443,-0.00000370,-0.00000154,-0.00000098,0.00000042,0.00000087
 ,0.00000111,0.00000293,-0.00000102,-0.00000254,-0.00000064,-0.00000016
 ,-0.00000080,-0.00000261,0.00000584,0.00000423,0.00000304,-0.00000289,
 0.00001431,-0.00000175,-0.00000505,-0.00000585,0.00000046,0.00000837,0
 .00000377,0.00000035,0.00000057,0.00000036,-0.00001013,-0.00012029,-0.
 00001718,0.00000740,0.00004038,-0.00002284,-0.00000129,0.00000039,-0.0
 0000282,0.00001745,0.00001011,-0.00001943,-0.00000506,-0.00000435,-0.0
 0000211,-0.00000131,0.00000013,-0.00000025,0.00000103,0.00000124,0.000
 00073,0.00000140,0.00000071,0.00000013,-0.00000031,0.00000046,-0.00000
 079,-0.00000038,-0.00000013,0.00000036,0.00072266,0.00052072,0.0002419
 8,0.00202723,0.00009506,0.00063234,-0.00150088,-0.00212521,-0.00019888
 ,-0.01936969,-0.00770693,-0.02301432,-0.15235347,-0.04550303,-0.125116
 68,-0.00485999,0.00338667,0.00144462,0.00097411,-0.00078841,0.00024952
 ,0.00915504,0.00436770,0.01044521,-0.00218064,-0.00083909,-0.00112646,
 0.16738455,0.00000100,-0.00000180,-0.00000050,-0.00000450,0.00000327,0
 .00000044,0.00004011,-0.00002138,-0.00000366,-0.00003797,0.00004370,0.
 00000025,0.00010396,-0.00009061,-0.00000648,-0.00002745,0.00008953,0.0
 0000290,0.00000404,0.00019234,0.00000056,-0.00005394,0.00001358,0.0000
 0854,0.00000619,0.00001285,-0.00000252,0.00000838,-0.00005360,-0.00001
 544,-0.00002347,0.00001182,-0.00000304,-0.00003298,0.00001571,0.000007
 29,0.00001323,-0.00000377,-0.00000393,-0.00000530,-0.00000101,0.000000
 37,-0.00000128,0.00000199,-0.00000066,-0.00000062,0.00000193,0.0000011
 3,0.00000440,-0.00000093,0.00000277,0.00000494,-0.00000097,-0.00000433
 ,-0.00000700,0.00000595,0.00000415,-0.00000809,0.00000680,-0.00000259,
 0.00001642,-0.00009835,-0.00000448,-0.00002860,-0.00031945,-0.00000076
 ,-0.00000011,0.00000286,0.00000090,-0.00002954,-0.00003798,0.00003468,
 -0.00000492,-0.00000521,0.00000181,0.00000459,-0.00000110,-0.00000025,
 0.00003622,0.00001175,-0.00000292,0.00000217,0.00000448,0.00000190,-0.
 00000193,0.00000162,0.00000031,0.00000187,0.00000479,-0.00000200,-0.00
 072290,0.00019480,-0.00009135,-0.00060817,-0.00048240,-0.00071008,0.00
 132442,0.00035370,0.00073108,0.00958971,0.00431469,0.01222259,-0.04678
 963,-0.06715243,-0.05472416,0.00304341,-0.00125860,-0.00024411,-0.0008
 2724,0.00051291,-0.00011391,0.00637331,0.00189531,0.00716253,-0.019957
 54,-0.00771974,-0.02495513,0.04859481,0.06955297,0.00000258,0.00000305
 ,0.00000029,0.00000052,-0.00001139,-0.00000394,-0.00001835,0.00000935,
 -0.00000076,0.00008451,0.00006282,0.00000444,-0.00017455,0.00003618,0.
 00001019,0.00004540,-0.00001805,-0.00000010,0.00011525,-0.00006151,-0.
 00000187,-0.00011500,-0.00004900,0.00000597,0.00003013,0.00000210,-0.0
 0000142,0.00004844,0.00002715,0.00001495,-0.00000921,0.00000312,0.0000
 0755,0.00004253,-0.00001144,-0.00000421,-0.00002364,-0.00000066,0.0000
 0226,0.00000387,-0.00000014,-0.00000079,-0.00000064,-0.00000029,-0.000
 00125,-0.00000090,0.00000115,0.00000239,0.00000010,0.00000123,0.000003
 88,-0.00000126,-0.00000015,-0.00000172,0.00000416,-0.00000043,0.000000
 96,0.00000486,-0.00000284,-0.00000041,-0.00002138,-0.00005544,-0.00000
 796,0.00000575,0.00008475,-0.00001758,-0.00000678,-0.00000783,-0.00000
 136,-0.00002208,0.00008021,-0.00002818,0.00002380,0.00001330,-0.000009
 68,-0.00000151,0.00000095,-0.00000017,-0.00001604,-0.00001182,0.000002
 27,-0.00000179,-0.00000339,-0.00000051,0.00000261,-0.00000385,-0.00000
 079,-0.00000287,-0.00000425,0.00000123,0.00051538,0.00049235,-0.000143
 12,0.00151447,-0.00083719,-0.00003825,-0.00177908,-0.00138208,0.000226
 49,0.00370107,0.00203229,0.00399868,-0.12563783,-0.05291337,-0.1978141
 6,0.00112432,-0.00063318,0.00128598,-0.00028327,0.00053661,0.00074260,
 -0.01813643,-0.00844584,-0.02087480,0.00252998,0.00035938,0.00133179,0
 .13645289,0.06070813,0.21131110\\0.00000119,0.00000583,0.00000305,0.00
 000060,0.00000455,0.00000215,0.00000081,0.00000368,0.00000214,0.000000
 57,-0.00000086,0.00000280,0.00000296,-0.00000038,0.00001047,0.00000255
 ,0.00000237,0.00000133,-0.00000228,0.00000479,-0.00002071,0.00000639,-
 0.00001512,0.00001210,0.00001341,0.00000467,-0.00000265,-0.00001126,0.
 00000082,-0.00000052,0.00000846,0.00000511,-0.00000172,0.00001062,-0.0
 0002018,-0.00000059,-0.00001656,0.00000285,0.00000551,0.00000050,0.000
 00737,0.00000194,0.00000190,0.00000720,0.00000333,0.00000232,0.0000051
 7,0.00000272,-0.00000080,0.00000531,0.00000113,-0.00000003,0.00000397,
 0.00000062,0.00000311,0.00000311,0.00000137,0.00000257,0.00000401,0.00
 000209,0.00000040,0.00000341,0.00000180,-0.00000036,-0.00000329,0.0000
 0177,0.00000227,-0.00000231,0.00000166,-0.00000059,-0.00000293,-0.0000
 0121,-0.00000190,-0.00000677,-0.00000219,0.00000707,-0.00000536,-0.000
 00058,0.00000061,-0.00000629,-0.00000134,0.00000522,-0.00000713,0.0000
 0142,0.00000557,-0.00000354,0.00000325,0.00000500,-0.00000373,0.000002
 81,-0.00000120,0.00000144,-0.00000256,0.00000062,0.00000040,-0.0000039
 7,-0.00000870,0.00000142,-0.00000082,-0.00000452,0.00000075,-0.0000002
 9,-0.00000592,-0.00000066,-0.00000463,-0.00000532,0.00000269,-0.000003
 75,-0.00000608,0.00000067,-0.00000416,-0.00000608,-0.00000016,-0.00000
 366,-0.00000749,-0.00000026,-0.00000490,-0.00000562,-0.00000261,-0.000
 00518\\\@


 THE MOST BEAUTIFUL EXPERIENCE WE CAN HAVE IS THE MYSTERIOUS.
 IT IS THE FUNDAMENTAL EMOTION WHICH STANDS AT AT THE CRADLE 
 OF TRUE ART AND TRUE SCIENCE.

                                    -- ALBERT EINSTEIN
 Job cpu time:       0 days  6 hours 17 minutes 17.5 seconds.
 File lengths (MBytes):  RWF=    941 Int=      0 D2E=      0 Chk=     26 Scr=      1
 Normal termination of Gaussian 09 at Tue Feb 19 17:20:42 2019.
WARNING: pbs_rusage is deprecated and values produced may not be accurate


=============================================================================
                                     Resource usage:
                                       CPU time:              26:52:09
   JobId:    5877780.r-man2            Elapsed time:          06:44:38
   Project:             q95            Requested time:        40:00:00
   Service Units:     26.98 
                                       Max physical memory:     1028MB
                                       Max virtual memory:      2356MB
                                       Requested memory:           0MB

                                       Number of cpus:               4

                                       Max jobfs disk use:       0.9GB
                                       Requested jobfs:         20.0GB
=============================================================================

