 Entering Gaussian System, Link 0=/apps/gaussian/g09e01/g09/g09
 AtFile(1): /home/507/hio507/Basis/6-31pGd.gbs
 Initial command:
 /apps/gaussian/g09e01/g09/l1.exe "/jobfs/local/1873206.r-man2/Gau-18238.inp" -scrdir="/jobfs/local/1873206.r-man2/"
 Entering Link 1 = /apps/gaussian/g09e01/g09/l1.exe PID=     18239.
  
 Copyright (c) 1988,1990,1992,1993,1995,1998,2003,2009,2015,
            Gaussian, Inc.  All Rights Reserved.
  
 This is part of the Gaussian(R) 09 program.  It is based on
 the Gaussian(R) 03 system (copyright 2003, Gaussian, Inc.),
 the Gaussian(R) 98 system (copyright 1998, Gaussian, Inc.),
 the Gaussian(R) 94 system (copyright 1995, Gaussian, Inc.),
 the Gaussian 92(TM) system (copyright 1992, Gaussian, Inc.),
 the Gaussian 90(TM) system (copyright 1990, Gaussian, Inc.),
 the Gaussian 88(TM) system (copyright 1988, Gaussian, Inc.),
 the Gaussian 86(TM) system (copyright 1986, Carnegie Mellon
 University), and the Gaussian 82(TM) system (copyright 1983,
 Carnegie Mellon University). Gaussian is a federally registered
 trademark of Gaussian, Inc.
  
 This software contains proprietary and confidential information,
 including trade secrets, belonging to Gaussian, Inc.
  
 This software is provided under written license and may be
 used, copied, transmitted, or stored only in accord with that
 written license.
  
 The following legend is applicable only to US Government
 contracts under FAR:
  
                    RESTRICTED RIGHTS LEGEND
  
 Use, reproduction and disclosure by the US Government is
 subject to restrictions as set forth in subparagraphs (a)
 and (c) of the Commercial Computer Software - Restricted
 Rights clause in FAR 52.227-19.
  
 Gaussian, Inc.
 340 Quinnipiac St., Bldg. 40, Wallingford CT 06492
  
  
 ---------------------------------------------------------------
 Warning -- This program may not be used in any manner that
 competes with the business of Gaussian, Inc. or will provide
 assistance to any competitor of Gaussian, Inc.  The licensee
 of this program is prohibited from giving any competitor of
 Gaussian, Inc. access to this program.  By using this program,
 the user acknowledges that Gaussian, Inc. is engaged in the
 business of creating and licensing software in the field of
 computational chemistry and represents and warrants to the
 licensee that it is not a competitor of Gaussian, Inc. and that
 it will not use this program in any manner prohibited above.
 ---------------------------------------------------------------
  

 Cite this work as:
 Gaussian 09, Revision E.01,
 M. J. Frisch, G. W. Trucks, H. B. Schlegel, G. E. Scuseria, 
 M. A. Robb, J. R. Cheeseman, G. Scalmani, V. Barone, B. Mennucci, 
 G. A. Petersson, H. Nakatsuji, M. Caricato, X. Li, H. P. Hratchian, 
 A. F. Izmaylov, J. Bloino, G. Zheng, J. L. Sonnenberg, M. Hada, 
 M. Ehara, K. Toyota, R. Fukuda, J. Hasegawa, M. Ishida, T. Nakajima, 
 Y. Honda, O. Kitao, H. Nakai, T. Vreven, J. A. Montgomery, Jr., 
 J. E. Peralta, F. Ogliaro, M. Bearpark, J. J. Heyd, E. Brothers, 
 K. N. Kudin, V. N. Staroverov, T. Keith, R. Kobayashi, J. Normand, 
 K. Raghavachari, A. Rendell, J. C. Burant, S. S. Iyengar, J. Tomasi, 
 M. Cossi, N. Rega, J. M. Millam, M. Klene, J. E. Knox, J. B. Cross, 
 V. Bakken, C. Adamo, J. Jaramillo, R. Gomperts, R. E. Stratmann, 
 O. Yazyev, A. J. Austin, R. Cammi, C. Pomelli, J. W. Ochterski, 
 R. L. Martin, K. Morokuma, V. G. Zakrzewski, G. A. Voth, 
 P. Salvador, J. J. Dannenberg, S. Dapprich, A. D. Daniels, 
 O. Farkas, J. B. Foresman, J. V. Ortiz, J. Cioslowski, 
 and D. J. Fox, Gaussian, Inc., Wallingford CT, 2013.
 
 ******************************************
 Gaussian 09:  ES64L-G09RevE.01 30-Nov-2015
                31-Oct-2018 
 ******************************************
 %chk=3Methyl4Chloro_a1.M062X_6-31pGd_opt.chk
 %mem=196608000
 %nproc=4
 Will use up to    4 processors via shared memory.
 ----------------------------------------------------------------------
 # M062X/Gen 6D SCF=Tight INT(grid=ultrafine) OPT IOP(2/17=4) maxdisk=1
 610612736
 ----------------------------------------------------------------------
 1/14=-1,18=20,19=15,26=4,38=1/1,3;
 2/9=110,12=2,17=4,18=5,40=1/2;
 3/5=7,8=2,11=2,16=1,25=1,30=1,71=1,74=-55,75=-5/1,2,3;
 4//1;
 5/5=2,32=2,38=5/2;
 6/7=2,8=2,9=2,10=2,28=1/1;
 7//1,2,3,16;
 1/14=-1,18=20,19=15,26=4/3(2);
 2/9=110,17=4/2;
 99//99;
 2/9=110,17=4/2;
 3/5=7,6=1,8=2,11=2,16=1,25=1,30=1,71=1,74=-55,75=-5,82=7/1,2,3;
 4/5=5,16=3,69=1/1;
 5/5=2,32=2,38=5/2;
 7//1,2,3,16;
 1/14=-1,18=20,19=15,26=4/3(-5);
 2/9=110,17=4/2;
 6/7=2,8=2,9=2,10=2,19=2,28=1/1;
 99/9=1/99;
 -----------------------------------
 3Methyl4Chloro_a1.M062X_6-31pGd_opt
 -----------------------------------
 Symbolic Z-matrix:
 Charge = -1 Multiplicity = 1
 C                    -1.67221   1.78842  -0.00103 
 C                    -0.30377   1.36082   0.52099 
 C                     0.81605   2.16582  -0.12265 
 N                     2.11576   1.73617   0.38161 
 C                     3.27486   2.28912  -0.16887 
 O                     3.18218   3.44433  -0.69076 
 N                     4.35136   1.50693  -0.08446 
 C                     5.60302   2.03331  -0.37649 
 C                     6.03746   3.31841   0.01524 
 C                     6.55007   1.20939  -1.01676 
 C                     7.8444    1.65183  -1.2677 
 C                     8.22221   2.93161  -0.87563 
 C                     7.33091   3.78938  -0.22146 
 H                    -2.47362   1.20888   0.4674 
 H                    -1.74156   1.64364  -1.08502 
 H                    -1.85676   2.84819   0.20837 
 H                    -0.14542   0.29344   0.31804 
 H                    -0.26084   1.48923   1.60955 
 H                     0.6799    3.22754   0.10511 
 H                     0.7604    2.06138  -1.21763 
 H                     2.19182   0.73158   0.50695 
 H                     5.34296   3.97118   0.53641 
 H                     6.25712   0.20768  -1.31993 
 H                     8.5582    1.00386  -1.76847 
 C                     7.73916   5.16774   0.22456 
 Cl                    9.86436   3.4687   -1.2094 
 H                     8.58056   5.1255    0.92496 
 H                     6.90411   5.6704    0.7184 
 H                     8.0569    5.78149  -0.62551 
 

 GradGradGradGradGradGradGradGradGradGradGradGradGradGradGradGradGradGrad
 Berny optimization.
 Initialization pass.
                           ----------------------------
                           !    Initial Parameters    !
                           ! (Angstroms and Degrees)  !
 --------------------------                            --------------------------
 ! Name  Definition              Value          Derivative Info.                !
 --------------------------------------------------------------------------------
 ! R1    R(1,2)                  1.5258         estimate D2E/DX2                !
 ! R2    R(1,14)                 1.0943         estimate D2E/DX2                !
 ! R3    R(1,15)                 1.0958         estimate D2E/DX2                !
 ! R4    R(1,16)                 1.0959         estimate D2E/DX2                !
 ! R5    R(2,3)                  1.5219         estimate D2E/DX2                !
 ! R6    R(2,17)                 1.098          estimate D2E/DX2                !
 ! R7    R(2,18)                 1.097          estimate D2E/DX2                !
 ! R8    R(3,4)                  1.4588         estimate D2E/DX2                !
 ! R9    R(3,19)                 1.0944         estimate D2E/DX2                !
 ! R10   R(3,20)                 1.1014         estimate D2E/DX2                !
 ! R11   R(4,5)                  1.3973         estimate D2E/DX2                !
 ! R12   R(4,21)                 1.0152         estimate D2E/DX2                !
 ! R13   R(5,6)                  1.271          estimate D2E/DX2                !
 ! R14   R(5,7)                  1.3333         estimate D2E/DX2                !
 ! R15   R(7,8)                  1.3889         estimate D2E/DX2                !
 ! R16   R(8,9)                  1.412          estimate D2E/DX2                !
 ! R17   R(8,10)                 1.4091         estimate D2E/DX2                !
 ! R18   R(9,13)                 1.3967         estimate D2E/DX2                !
 ! R19   R(9,22)                 1.0863         estimate D2E/DX2                !
 ! R20   R(10,11)                1.3907         estimate D2E/DX2                !
 ! R21   R(10,23)                1.0868         estimate D2E/DX2                !
 ! R22   R(11,12)                1.3908         estimate D2E/DX2                !
 ! R23   R(11,24)                1.0863         estimate D2E/DX2                !
 ! R24   R(12,13)                1.3993         estimate D2E/DX2                !
 ! R25   R(12,26)                1.7597         estimate D2E/DX2                !
 ! R26   R(13,25)                1.5051         estimate D2E/DX2                !
 ! R27   R(25,27)                1.0956         estimate D2E/DX2                !
 ! R28   R(25,28)                1.0926         estimate D2E/DX2                !
 ! R29   R(25,29)                1.0956         estimate D2E/DX2                !
 ! A1    A(2,1,14)             111.2194         estimate D2E/DX2                !
 ! A2    A(2,1,15)             110.9885         estimate D2E/DX2                !
 ! A3    A(2,1,16)             110.8964         estimate D2E/DX2                !
 ! A4    A(14,1,15)            107.8857         estimate D2E/DX2                !
 ! A5    A(14,1,16)            107.8787         estimate D2E/DX2                !
 ! A6    A(15,1,16)            107.8255         estimate D2E/DX2                !
 ! A7    A(1,2,3)              111.53           estimate D2E/DX2                !
 ! A8    A(1,2,17)             109.789          estimate D2E/DX2                !
 ! A9    A(1,2,18)             109.9874         estimate D2E/DX2                !
 ! A10   A(3,2,17)             109.263          estimate D2E/DX2                !
 ! A11   A(3,2,18)             109.2052         estimate D2E/DX2                !
 ! A12   A(17,2,18)            106.9526         estimate D2E/DX2                !
 ! A13   A(2,3,4)              110.7062         estimate D2E/DX2                !
 ! A14   A(2,3,19)             109.4875         estimate D2E/DX2                !
 ! A15   A(2,3,20)             109.4583         estimate D2E/DX2                !
 ! A16   A(4,3,19)             108.9437         estimate D2E/DX2                !
 ! A17   A(4,3,20)             111.1463         estimate D2E/DX2                !
 ! A18   A(19,3,20)            107.0149         estimate D2E/DX2                !
 ! A19   A(3,4,5)              119.1009         estimate D2E/DX2                !
 ! A20   A(3,4,21)             113.6322         estimate D2E/DX2                !
 ! A21   A(5,4,21)             112.2151         estimate D2E/DX2                !
 ! A22   A(4,5,6)              117.4493         estimate D2E/DX2                !
 ! A23   A(4,5,7)              114.3718         estimate D2E/DX2                !
 ! A24   A(6,5,7)              128.1751         estimate D2E/DX2                !
 ! A25   A(5,7,8)              119.4689         estimate D2E/DX2                !
 ! A26   A(7,8,9)              124.325          estimate D2E/DX2                !
 ! A27   A(7,8,10)             118.66           estimate D2E/DX2                !
 ! A28   A(9,8,10)             116.8354         estimate D2E/DX2                !
 ! A29   A(8,9,13)             123.0116         estimate D2E/DX2                !
 ! A30   A(8,9,22)             118.9016         estimate D2E/DX2                !
 ! A31   A(13,9,22)            118.0819         estimate D2E/DX2                !
 ! A32   A(8,10,11)            121.4317         estimate D2E/DX2                !
 ! A33   A(8,10,23)            118.9801         estimate D2E/DX2                !
 ! A34   A(11,10,23)           119.5883         estimate D2E/DX2                !
 ! A35   A(10,11,12)           119.6504         estimate D2E/DX2                !
 ! A36   A(10,11,24)           120.3287         estimate D2E/DX2                !
 ! A37   A(12,11,24)           120.0208         estimate D2E/DX2                !
 ! A38   A(11,12,13)           121.522          estimate D2E/DX2                !
 ! A39   A(11,12,26)           118.7436         estimate D2E/DX2                !
 ! A40   A(13,12,26)           119.7337         estimate D2E/DX2                !
 ! A41   A(9,13,12)            117.5402         estimate D2E/DX2                !
 ! A42   A(9,13,25)            120.6472         estimate D2E/DX2                !
 ! A43   A(12,13,25)           121.8114         estimate D2E/DX2                !
 ! A44   A(13,25,27)           111.25           estimate D2E/DX2                !
 ! A45   A(13,25,28)           110.3606         estimate D2E/DX2                !
 ! A46   A(13,25,29)           111.2082         estimate D2E/DX2                !
 ! A47   A(27,25,28)           108.4052         estimate D2E/DX2                !
 ! A48   A(27,25,29)           107.1521         estimate D2E/DX2                !
 ! A49   A(28,25,29)           108.3381         estimate D2E/DX2                !
 ! D1    D(14,1,2,3)          -179.8099         estimate D2E/DX2                !
 ! D2    D(14,1,2,17)           58.9345         estimate D2E/DX2                !
 ! D3    D(14,1,2,18)          -58.492          estimate D2E/DX2                !
 ! D4    D(15,1,2,3)            60.0696         estimate D2E/DX2                !
 ! D5    D(15,1,2,17)          -61.186          estimate D2E/DX2                !
 ! D6    D(15,1,2,18)         -178.6125         estimate D2E/DX2                !
 ! D7    D(16,1,2,3)           -59.7601         estimate D2E/DX2                !
 ! D8    D(16,1,2,17)          178.9843         estimate D2E/DX2                !
 ! D9    D(16,1,2,18)           61.5578         estimate D2E/DX2                !
 ! D10   D(1,2,3,4)           -179.5896         estimate D2E/DX2                !
 ! D11   D(1,2,3,19)            60.2842         estimate D2E/DX2                !
 ! D12   D(1,2,3,20)           -56.731          estimate D2E/DX2                !
 ! D13   D(17,2,3,4)           -58.0284         estimate D2E/DX2                !
 ! D14   D(17,2,3,19)         -178.1547         estimate D2E/DX2                !
 ! D15   D(17,2,3,20)           64.8301         estimate D2E/DX2                !
 ! D16   D(18,2,3,4)            58.6389         estimate D2E/DX2                !
 ! D17   D(18,2,3,19)          -61.4873         estimate D2E/DX2                !
 ! D18   D(18,2,3,20)         -178.5025         estimate D2E/DX2                !
 ! D19   D(2,3,4,5)            175.1136         estimate D2E/DX2                !
 ! D20   D(2,3,4,21)            39.3993         estimate D2E/DX2                !
 ! D21   D(19,3,4,5)           -64.4356         estimate D2E/DX2                !
 ! D22   D(19,3,4,21)          159.8501         estimate D2E/DX2                !
 ! D23   D(20,3,4,5)            53.2404         estimate D2E/DX2                !
 ! D24   D(20,3,4,21)          -82.4739         estimate D2E/DX2                !
 ! D25   D(3,4,5,6)             25.6843         estimate D2E/DX2                !
 ! D26   D(3,4,5,7)           -153.6626         estimate D2E/DX2                !
 ! D27   D(21,4,5,6)           161.9772         estimate D2E/DX2                !
 ! D28   D(21,4,5,7)           -17.3696         estimate D2E/DX2                !
 ! D29   D(4,5,7,8)           -168.6066         estimate D2E/DX2                !
 ! D30   D(6,5,7,8)             12.1307         estimate D2E/DX2                !
 ! D31   D(5,7,8,9)             40.6686         estimate D2E/DX2                !
 ! D32   D(5,7,8,10)          -144.3655         estimate D2E/DX2                !
 ! D33   D(7,8,9,13)           175.9238         estimate D2E/DX2                !
 ! D34   D(7,8,9,22)            -3.26           estimate D2E/DX2                !
 ! D35   D(10,8,9,13)            0.874          estimate D2E/DX2                !
 ! D36   D(10,8,9,22)         -178.3098         estimate D2E/DX2                !
 ! D37   D(7,8,10,11)         -176.2984         estimate D2E/DX2                !
 ! D38   D(7,8,10,23)            3.7662         estimate D2E/DX2                !
 ! D39   D(9,8,10,11)           -0.9567         estimate D2E/DX2                !
 ! D40   D(9,8,10,23)          179.1079         estimate D2E/DX2                !
 ! D41   D(8,9,13,12)           -0.1355         estimate D2E/DX2                !
 ! D42   D(8,9,13,25)         -179.7462         estimate D2E/DX2                !
 ! D43   D(22,9,13,12)         179.0546         estimate D2E/DX2                !
 ! D44   D(22,9,13,25)          -0.5561         estimate D2E/DX2                !
 ! D45   D(8,10,11,12)           0.3138         estimate D2E/DX2                !
 ! D46   D(8,10,11,24)        -179.5952         estimate D2E/DX2                !
 ! D47   D(23,10,11,12)       -179.7511         estimate D2E/DX2                !
 ! D48   D(23,10,11,24)          0.3399         estimate D2E/DX2                !
 ! D49   D(10,11,12,13)          0.4804         estimate D2E/DX2                !
 ! D50   D(10,11,12,26)       -179.8157         estimate D2E/DX2                !
 ! D51   D(24,11,12,13)       -179.6103         estimate D2E/DX2                !
 ! D52   D(24,11,12,26)          0.0936         estimate D2E/DX2                !
 ! D53   D(11,12,13,9)          -0.5633         estimate D2E/DX2                !
 ! D54   D(11,12,13,25)        179.0426         estimate D2E/DX2                !
 ! D55   D(26,12,13,9)         179.7357         estimate D2E/DX2                !
 ! D56   D(26,12,13,25)         -0.6584         estimate D2E/DX2                !
 ! D57   D(9,13,25,27)         120.3469         estimate D2E/DX2                !
 ! D58   D(9,13,25,28)          -0.0285         estimate D2E/DX2                !
 ! D59   D(9,13,25,29)        -120.292          estimate D2E/DX2                !
 ! D60   D(12,13,25,27)        -59.2469         estimate D2E/DX2                !
 ! D61   D(12,13,25,28)       -179.6223         estimate D2E/DX2                !
 ! D62   D(12,13,25,29)         60.1142         estimate D2E/DX2                !
 --------------------------------------------------------------------------------
 Trust Radius=3.00D-01 FncErr=1.00D-07 GrdErr=1.00D-06
 Number of steps in this run=    150 maximum allowed number of steps=    174.
 GradGradGradGradGradGradGradGradGradGradGradGradGradGradGradGradGradGrad

                          Input orientation:                          
 ---------------------------------------------------------------------
 Center     Atomic      Atomic             Coordinates (Angstroms)
 Number     Number       Type             X           Y           Z
 ---------------------------------------------------------------------
      1          6           0       -1.672205    1.788422   -0.001030
      2          6           0       -0.303772    1.360819    0.520989
      3          6           0        0.816051    2.165821   -0.122645
      4          7           0        2.115758    1.736167    0.381610
      5          6           0        3.274864    2.289122   -0.168873
      6          8           0        3.182177    3.444326   -0.690763
      7          7           0        4.351357    1.506926   -0.084462
      8          6           0        5.603022    2.033306   -0.376489
      9          6           0        6.037462    3.318414    0.015243
     10          6           0        6.550068    1.209392   -1.016762
     11          6           0        7.844404    1.651825   -1.267700
     12          6           0        8.222209    2.931605   -0.875632
     13          6           0        7.330914    3.789385   -0.221458
     14          1           0       -2.473616    1.208878    0.467405
     15          1           0       -1.741559    1.643642   -1.085022
     16          1           0       -1.856762    2.848185    0.208370
     17          1           0       -0.145417    0.293444    0.318044
     18          1           0       -0.260839    1.489235    1.609553
     19          1           0        0.679903    3.227543    0.105107
     20          1           0        0.760401    2.061381   -1.217627
     21          1           0        2.191821    0.731582    0.506951
     22          1           0        5.342957    3.971185    0.536414
     23          1           0        6.257124    0.207678   -1.319930
     24          1           0        8.558201    1.003863   -1.768470
     25          6           0        7.739161    5.167743    0.224557
     26         17           0        9.864355    3.468698   -1.209401
     27          1           0        8.580564    5.125502    0.924964
     28          1           0        6.904109    5.670400    0.718398
     29          1           0        8.056897    5.781490   -0.625512
 ---------------------------------------------------------------------
                    Distance matrix (angstroms):
                    1          2          3          4          5
     1  C    0.000000
     2  C    1.525765   0.000000
     3  C    2.519650   1.521938   0.000000
     4  N    3.807599   2.452435   1.458806   0.000000
     5  C    4.975175   3.760890   2.462337   1.397254   0.000000
     6  O    5.175208   4.238064   2.748798   2.281456   1.271007
     7  N    6.030713   4.696609   3.596386   2.295141   1.333338
     8  C    7.289024   6.012314   4.795529   3.581064   2.351354
     9  C    7.860032   6.655764   5.348889   4.244701   2.953859
    10  C    8.304984   7.025861   5.881595   4.679320   3.551294
    11  C    9.601508   8.347266   7.139544   5.961939   4.742811
    12  C    9.998562   8.781246   7.483622   6.348108   5.038702
    13  C    9.225432   8.045967   6.714847   5.637131   4.324939
    14  H    1.094332   2.175818   3.476465   4.620363   5.883605
    15  H    1.095814   2.174050   2.782123   4.127768   5.140085
    16  H    1.095905   2.172963   2.778330   4.128864   5.175756
    17  H    2.160521   1.097977   2.150447   2.682984   3.989755
    18  H    2.162278   1.096953   2.148946   2.686453   4.037798
    19  H    2.759483   2.150635   1.094377   2.088621   2.772999
    20  H    2.733530   2.155467   1.101358   2.121395   2.733913
    21  H    4.038026   2.573736   2.084748   1.015227   2.013865
    22  H    7.366533   6.220916   4.917985   3.928624   2.757494
    23  H    8.192223   6.911155   5.905344   4.731007   3.814605
    24  H   10.411560   9.159891   7.999986   6.831119   5.667826
    25  C   10.002225   8.903331   7.553909   6.589616   5.326461
    26  Cl  11.720739  10.527498   9.205995   8.097761   6.774621
    27  H   10.821869   9.657508   8.375253   7.319600   6.114898
    28  H    9.441424   8.400298   7.074877   6.206442   5.039019
    29  H   10.535179   9.526677   8.108994   7.257828   5.939107
                    6          7          8          9         10
     6  O    0.000000
     7  N    2.342670   0.000000
     8  C    2.819617   1.388893   0.000000
     9  C    2.943968   2.476768   1.411982   0.000000
    10  C    4.055108   2.406666   1.409142   2.403284   0.000000
    11  C    5.028149   3.690857   2.442043   2.772815   1.390691
    12  C    5.069417   4.199900   2.813579   2.390900   2.404578
    13  C    4.189431   3.755815   2.468493   1.396732   2.810444
    14  H    6.190846   6.853732   8.162348   8.780264   9.144924
    15  H    5.257478   6.176037   7.388960   8.032970   8.303271
    16  H    5.153128   6.358102   7.526916   7.910574   8.652247
    17  H    4.692402   4.674989   6.045995   6.889857   6.888410
    18  H    4.579104   4.913486   6.214921   6.749541   7.305087
    19  H    2.634726   4.059067   5.088736   5.359082   6.307960
    20  H    2.838155   3.806107   4.915210   5.563045   5.855466
    21  H    3.126388   2.369498   3.756494   4.660733   4.641586
    22  H    2.540180   2.727880   2.157869   1.086308   3.390719
    23  H    4.508552   2.616558   2.156582   3.392288   1.086810
    24  H    6.001579   4.559221   3.424974   3.859133   2.154044
    25  C    4.957225   4.997428   3.840447   2.521827   4.315479
    26  Cl   6.702320   5.958791   4.573079   4.020877   4.015728
    27  H    5.880435   5.656786   4.485667   3.249697   4.819661
    28  H    4.560035   4.949308   4.014979   2.603333   4.799658
    29  H    5.406430   5.682927   4.486913   3.248912   4.829875
                   11         12         13         14         15
    11  C    0.000000
    12  C    1.390788   0.000000
    13  C    2.434637   1.399335   0.000000
    14  H   10.472265  10.916603  10.161809   0.000000
    15  H    9.587707  10.048849   9.362677   1.770581   0.000000
    16  H    9.885478  10.137440   9.245756   1.770575   1.771174
    17  H    8.258149   8.854487   8.270925   2.506161   2.517797
    18  H    8.602324   8.956488   8.141130   2.505891   3.078491
    19  H    7.463079   7.611558   6.682683   3.761775   3.128678
    20  H    7.096009   7.520162   6.866586   3.744991   2.540057
    21  H    5.995659   6.566371   6.024203   4.689955   4.340243
    22  H    3.858950   3.371157   2.135274   8.290592   7.631309
    23  H    2.146566   3.388029   3.897215   8.967876   8.129951
    24  H    1.086339   2.150870   3.414471  11.257982  10.342218
    25  C    3.820941   2.538517   1.505147  10.955930  10.198938
    26  Cl   2.717468   1.759691   2.738101  12.654802  11.749194
    27  H    4.173265   2.860725   2.158962  11.736448  11.077437
    28  H    4.580140   3.432101   2.145626  10.387969   9.706425
    29  H    4.184697   2.865612   2.158424  11.532344  10.646251
                   16         17         18         19         20
    16  H    0.000000
    17  H    3.076920   0.000000
    18  H    2.521315   1.763869   0.000000
    19  H    2.566953   3.055394   2.483962   0.000000
    20  H    3.082543   2.510856   3.059939   1.765231   0.000000
    21  H    4.578229   2.385441   2.793798   2.945707   2.606050
    22  H    7.294155   6.610274   6.222076   4.741635   5.265343
    23  H    8.668513   6.609300   7.260034   6.500439   5.801780
    24  H   10.760152   8.978374   9.456325   8.397775   7.888439
    25  C    9.872302   9.270065   8.913452   7.322005   7.773833
    26  Cl  11.822847  10.611827  10.695061   9.281177   9.212090
    27  H   10.706888   9.992992   9.584441   8.166692   8.668015
    28  H    9.218345   8.875120   8.343427   6.714493   7.383655
    29  H   10.372091   9.913975   9.623081   7.840694   8.211496
                   21         22         23         24         25
    21  H    0.000000
    22  H    4.519464   0.000000
    23  H    4.487612   4.294845   0.000000
    24  H    6.766275   4.945229   2.475894   0.000000
    25  C    7.108604   2.696442   5.402233   4.688378   0.000000
    26  Cl   8.324990   4.872721   4.864009   2.844998   3.075621
    27  H    7.765134   3.459121   5.884123   4.923717   1.095589
    28  H    6.829516   2.314659   5.866404   5.540497   1.092636
    29  H    7.821966   3.463054   5.898201   4.937953   1.095563
                   26         27         28         29
    26  Cl   0.000000
    27  H    2.991426   0.000000
    28  H    4.162566   1.774848   0.000000
    29  H    2.992798   1.763101   1.774078   0.000000
 Stoichiometry    C11H14ClN2O(1-)
 Framework group  C1[X(C11H14ClN2O)]
 Deg. of freedom    81
 Full point group                 C1      NOp   1
 Largest Abelian subgroup         C1      NOp   1
 Largest concise Abelian subgroup C1      NOp   1
                         Standard orientation:                         
 ---------------------------------------------------------------------
 Center     Atomic      Atomic             Coordinates (Angstroms)
 Number     Number       Type             X           Y           Z
 ---------------------------------------------------------------------
      1          6           0        6.655427    0.257669    0.427545
      2          6           0        5.447682   -0.199573   -0.385009
      3          6           0        4.141083    0.230247    0.266414
      4          7           0        2.999053   -0.224081   -0.519379
      5          6           0        1.708493   -0.013921   -0.026830
      6          8           0        1.539382    0.954354    0.778963
      7          7           0        0.802420   -0.887239   -0.467442
      8          6           0       -0.546457   -0.644443   -0.242488
      9          6           0       -1.156904    0.623710   -0.355791
     10          6           0       -1.395754   -1.738250    0.018204
     11          6           0       -2.767166   -1.570044    0.176190
     12          6           0       -3.321221   -0.298833    0.069706
     13          6           0       -2.530977    0.823092   -0.204034
     14          1           0        7.591946   -0.051057   -0.046989
     15          1           0        6.633313   -0.168104    1.437018
     16          1           0        6.671036    1.349200    0.524098
     17          1           0        5.459744   -1.292853   -0.485734
     18          1           0        5.499027    0.215642   -1.399043
     19          1           0        4.110936    1.321819    0.338668
     20          1           0        4.097260   -0.162128    1.294573
     21          1           0        3.115536   -1.155751   -0.905524
     22          1           0       -0.537160    1.486213   -0.583981
     23          1           0       -0.964400   -2.732628    0.097588
     24          1           0       -3.404462   -2.425104    0.383212
     25          6           0       -3.126488    2.198558   -0.341613
     26         17           0       -5.058514   -0.112701    0.278711
     27          1           0       -3.867640    2.231558   -1.147789
     28          1           0       -2.345607    2.930729   -0.560711
     29          1           0       -3.636477    2.503516    0.578806
 ---------------------------------------------------------------------
 Rotational constants (GHZ):      2.0060800      0.1690540      0.1596843
 General basis read from cards:  (6D, 7F)
 There are   317 symmetry adapted cartesian basis functions of A   symmetry.
 There are   317 symmetry adapted basis functions of A   symmetry.
   317 basis functions,   560 primitive gaussians,   317 cartesian basis functions
    60 alpha electrons       60 beta electrons
       nuclear repulsion energy      1011.5333155830 Hartrees.
 NAtoms=   29 NActive=   29 NUniq=   29 SFac= 1.00D+00 NAtFMM=   60 NAOKFM=F Big=F
 Integral buffers will be    131072 words long.
 Raffenetti 2 integral format.
 Two-electron integral symmetry is turned on.
 One-electron integrals computed using PRISM.
 NBasis=   317 RedAO= T EigKep=  2.35D-06  NBF=   317
 NBsUse=   316 1.00D-06 EigRej=  8.34D-07 NBFU=   316
 ExpMin= 4.38D-02 ExpMax= 2.52D+04 ExpMxC= 3.78D+03 IAcc=3 IRadAn=         5 AccDes= 0.00D+00
 Harris functional with IExCor= 1009 and IRadAn=       5 diagonalized for initial guess.
 HarFok:  IExCor= 1009 AccDes= 0.00D+00 IRadAn=         5 IDoV= 1 UseB2=F ITyADJ=14
 ICtDFT=  3500011 ScaDFX=  1.000000  1.000000  1.000000  1.000000
 FoFCou: FMM=F IPFlag=           0 FMFlag=      100000 FMFlg1=           0
         NFxFlg=           0 DoJE=T BraDBF=F KetDBF=T FulRan=T
         wScrn=  0.000000 ICntrl=     500 IOpCl=  0 I1Cent=   200000004 NGrid=           0
         NMat0=    1 NMatS0=      1 NMatT0=    0 NMatD0=    1 NMtDS0=    0 NMtDT0=    0
 Petite list used in FoFCou.
 Requested convergence on RMS density matrix=1.00D-08 within 128 cycles.
 Requested convergence on MAX density matrix=1.00D-06.
 Requested convergence on             energy=1.00D-06.
 No special actions if energy rises.
 SCF Done:  E(RM062X) =  -1072.32320339     A.U. after   16 cycles
            NFock= 16  Conv=0.76D-08     -V/T= 2.0062

 **********************************************************************

            Population analysis using the SCF density.

 **********************************************************************

 Orbital symmetries:
       Occupied  (A) (A) (A) (A) (A) (A) (A) (A) (A) (A) (A) (A)
                 (A) (A) (A) (A) (A) (A) (A) (A) (A) (A) (A) (A)
                 (A) (A) (A) (A) (A) (A) (A) (A) (A) (A) (A) (A)
                 (A) (A) (A) (A) (A) (A) (A) (A) (A) (A) (A) (A)
                 (A) (A) (A) (A) (A) (A) (A) (A) (A) (A) (A) (A)
       Virtual   (A) (A) (A) (A) (A) (A) (A) (A) (A) (A) (A) (A)
                 (A) (A) (A) (A) (A) (A) (A) (A) (A) (A) (A) (A)
                 (A) (A) (A) (A) (A) (A) (A) (A) (A) (A) (A) (A)
                 (A) (A) (A) (A) (A) (A) (A) (A) (A) (A) (A) (A)
                 (A) (A) (A) (A) (A) (A) (A) (A) (A) (A) (A) (A)
                 (A) (A) (A) (A) (A) (A) (A) (A) (A) (A) (A) (A)
                 (A) (A) (A) (A) (A) (A) (A) (A) (A) (A) (A) (A)
                 (A) (A) (A) (A) (A) (A) (A) (A) (A) (A) (A) (A)
                 (A) (A) (A) (A) (A) (A) (A) (A) (A) (A) (A) (A)
                 (A) (A) (A) (A) (A) (A) (A) (A) (A) (A) (A) (A)
                 (A) (A) (A) (A) (A) (A) (A) (A) (A) (A) (A) (A)
                 (A) (A) (A) (A) (A) (A) (A) (A) (A) (A) (A) (A)
                 (A) (A) (A) (A) (A) (A) (A) (A) (A) (A) (A) (A)
                 (A) (A) (A) (A) (A) (A) (A) (A) (A) (A) (A) (A)
                 (A) (A) (A) (A) (A) (A) (A) (A) (A) (A) (A) (A)
                 (A) (A) (A) (A) (A) (A) (A) (A) (A) (A) (A) (A)
                 (A) (A) (A) (A) (A) (A) (A) (A) (A) (A) (A) (A)
                 (A) (A) (A) (A) (A) (A) (A) (A) (A) (A) (A) (A)
                 (A) (A) (A) (A) (A) (A) (A) (A) (A) (A) (A) (A)
                 (A) (A) (A) (A) (A) (A) (A) (A) (A) (A) (A) (A)
                 (A) (A) (A) (A) (A) (A) (A) (A) (A) (A) (A) (A)
                 (A) (A) (A) (A)
 The electronic state is 1-A.
 Alpha  occ. eigenvalues -- -102.55135 -19.42333 -14.61928 -14.55425 -10.48839
 Alpha  occ. eigenvalues --  -10.47130 -10.45332 -10.45183 -10.44803 -10.43941
 Alpha  occ. eigenvalues --  -10.43819 -10.43338 -10.43038 -10.40919 -10.40600
 Alpha  occ. eigenvalues --   -9.69800  -7.42169  -7.41567  -7.41567  -0.97054
 Alpha  occ. eigenvalues --   -0.86714  -0.86484  -0.83203  -0.78612  -0.77187
 Alpha  occ. eigenvalues --   -0.74307  -0.68014  -0.65631  -0.64346  -0.57446
 Alpha  occ. eigenvalues --   -0.55754  -0.53002  -0.48689  -0.45296  -0.43965
 Alpha  occ. eigenvalues --   -0.42320  -0.41909  -0.39907  -0.38029  -0.37954
 Alpha  occ. eigenvalues --   -0.36748  -0.36037  -0.34780  -0.33576  -0.33186
 Alpha  occ. eigenvalues --   -0.32488  -0.31805  -0.31289  -0.29887  -0.29324
 Alpha  occ. eigenvalues --   -0.28863  -0.27343  -0.26938  -0.25275  -0.20749
 Alpha  occ. eigenvalues --   -0.17046  -0.16603  -0.15812  -0.13461  -0.08831
 Alpha virt. eigenvalues --    0.10131   0.11074   0.11820   0.12354   0.13245
 Alpha virt. eigenvalues --    0.13708   0.14391   0.14695   0.15274   0.15588
 Alpha virt. eigenvalues --    0.15992   0.16618   0.16893   0.17126   0.17181
 Alpha virt. eigenvalues --    0.17571   0.18521   0.18803   0.19040   0.19670
 Alpha virt. eigenvalues --    0.19984   0.20945   0.21334   0.22207   0.22434
 Alpha virt. eigenvalues --    0.23693   0.23910   0.24510   0.24896   0.25812
 Alpha virt. eigenvalues --    0.25960   0.26605   0.27343   0.27986   0.28837
 Alpha virt. eigenvalues --    0.29018   0.29357   0.30210   0.30794   0.31538
 Alpha virt. eigenvalues --    0.31592   0.31899   0.32880   0.33137   0.33446
 Alpha virt. eigenvalues --    0.33716   0.34096   0.34366   0.34659   0.35444
 Alpha virt. eigenvalues --    0.35843   0.36072   0.37191   0.38453   0.38473
 Alpha virt. eigenvalues --    0.38551   0.39150   0.39496   0.39872   0.40707
 Alpha virt. eigenvalues --    0.40939   0.41372   0.42046   0.42797   0.43403
 Alpha virt. eigenvalues --    0.43782   0.44297   0.44483   0.45429   0.45785
 Alpha virt. eigenvalues --    0.46197   0.46640   0.47977   0.48278   0.48720
 Alpha virt. eigenvalues --    0.50167   0.50312   0.51332   0.51705   0.52451
 Alpha virt. eigenvalues --    0.53711   0.54395   0.56622   0.57664   0.57862
 Alpha virt. eigenvalues --    0.58802   0.60569   0.62857   0.66690   0.69755
 Alpha virt. eigenvalues --    0.72762   0.73923   0.76238   0.78107   0.78646
 Alpha virt. eigenvalues --    0.79029   0.81680   0.82747   0.83432   0.84029
 Alpha virt. eigenvalues --    0.86129   0.86890   0.87308   0.88774   0.89482
 Alpha virt. eigenvalues --    0.89974   0.90422   0.91450   0.93001   0.94246
 Alpha virt. eigenvalues --    0.95069   0.95435   0.96319   0.97242   0.99715
 Alpha virt. eigenvalues --    0.99858   1.01391   1.01750   1.03172   1.03624
 Alpha virt. eigenvalues --    1.05620   1.06274   1.07900   1.09050   1.09779
 Alpha virt. eigenvalues --    1.10560   1.11829   1.12746   1.13688   1.14270
 Alpha virt. eigenvalues --    1.15548   1.16265   1.17794   1.18732   1.19403
 Alpha virt. eigenvalues --    1.20432   1.21971   1.22756   1.23206   1.25819
 Alpha virt. eigenvalues --    1.26182   1.26850   1.27739   1.28649   1.29196
 Alpha virt. eigenvalues --    1.30492   1.30720   1.32479   1.33064   1.34022
 Alpha virt. eigenvalues --    1.37226   1.39246   1.40647   1.42303   1.42712
 Alpha virt. eigenvalues --    1.44918   1.46672   1.49695   1.49722   1.54706
 Alpha virt. eigenvalues --    1.56019   1.56785   1.57396   1.57926   1.60379
 Alpha virt. eigenvalues --    1.60747   1.62302   1.64049   1.65796   1.66891
 Alpha virt. eigenvalues --    1.69590   1.69674   1.70926   1.74113   1.74931
 Alpha virt. eigenvalues --    1.77883   1.82163   1.86932   1.89053   1.95859
 Alpha virt. eigenvalues --    1.99741   2.00799   2.02718   2.03784   2.05205
 Alpha virt. eigenvalues --    2.06178   2.06664   2.08358   2.09141   2.10462
 Alpha virt. eigenvalues --    2.13022   2.13841   2.14175   2.15716   2.17292
 Alpha virt. eigenvalues --    2.17866   2.18676   2.20804   2.22964   2.26683
 Alpha virt. eigenvalues --    2.28244   2.30511   2.32593   2.33745   2.35074
 Alpha virt. eigenvalues --    2.36570   2.38716   2.41337   2.42201   2.43724
 Alpha virt. eigenvalues --    2.46170   2.48184   2.49481   2.50315   2.51914
 Alpha virt. eigenvalues --    2.54302   2.55013   2.56666   2.61830   2.63510
 Alpha virt. eigenvalues --    2.72047   2.72968   2.74884   2.77365   2.79724
 Alpha virt. eigenvalues --    2.81722   2.84345   2.88109   2.91238   2.93359
 Alpha virt. eigenvalues --    2.94842   2.96360   2.97603   3.06313   3.09243
 Alpha virt. eigenvalues --    3.12541   3.20916   3.26425   3.37029   3.49583
 Alpha virt. eigenvalues --    3.55148   4.30916   4.37020   4.39155   4.44509
 Alpha virt. eigenvalues --    4.48360   4.51729   4.52623   4.55222   4.57331
 Alpha virt. eigenvalues --    4.58784   4.61347   4.67241   4.69769   4.78191
 Alpha virt. eigenvalues --    4.92888
          Condensed to atoms (all electrons):
               1          2          3          4          5          6
     1  C    5.738017  -0.107734  -0.031388   0.010358  -0.055904   0.003917
     2  C   -0.107734   6.504799  -0.637696  -0.048585   0.072639   0.015927
     3  C   -0.031388  -0.637696   7.136274   0.259845  -0.336215  -0.043391
     4  N    0.010358  -0.048585   0.259845   8.022381   0.111207  -0.240548
     5  C   -0.055904   0.072639  -0.336215   0.111207   7.467314   0.481414
     6  O    0.003917   0.015927  -0.043391  -0.240548   0.481414   8.587259
     7  N    0.007686  -0.040011  -0.001089  -0.534278   0.185428  -0.159924
     8  C   -0.015293   0.019390  -0.467057  -0.248596  -0.929511  -0.044898
     9  C    0.002012   0.011247  -0.014333   0.097368   0.629626   0.115340
    10  C   -0.008950  -0.001937  -0.166188  -0.027518  -1.735789  -0.010589
    11  C    0.000601  -0.002361   0.031465  -0.015604   0.561649   0.018350
    12  C   -0.000307  -0.000402  -0.026381  -0.009526  -0.481633  -0.005317
    13  C   -0.000944   0.005003  -0.030545   0.037030  -0.456482  -0.038172
    14  H    0.414554  -0.099264   0.035852   0.000634  -0.000961   0.000005
    15  H    0.420637  -0.059094  -0.011984  -0.000238  -0.001424  -0.000003
    16  H    0.418038  -0.053303  -0.015774   0.000189  -0.000924  -0.000100
    17  H   -0.045610   0.453347  -0.092607   0.005149  -0.005623  -0.000450
    18  H   -0.036894   0.413861  -0.058409   0.000472  -0.002436   0.000112
    19  H   -0.016462   0.009025   0.364759  -0.012482  -0.005440  -0.006793
    20  H    0.016429  -0.153177   0.520574  -0.137623   0.008883   0.009306
    21  H    0.006191   0.018779  -0.103950   0.256310   0.043891   0.010252
    22  H    0.000012  -0.000091  -0.002178  -0.001582   0.001241  -0.005310
    23  H    0.000004  -0.000002   0.000128  -0.000423   0.000365  -0.000021
    24  H   -0.000000  -0.000000   0.000008   0.000008   0.000487  -0.000002
    25  C   -0.000100   0.000988  -0.006023   0.005912  -0.107154  -0.003158
    26  Cl  -0.000002   0.000009  -0.000457   0.000268  -0.018824   0.000067
    27  H   -0.000000  -0.000000  -0.000003  -0.000002   0.000448  -0.000031
    28  H    0.000000  -0.000001  -0.000049   0.000005  -0.003873  -0.000003
    29  H    0.000000   0.000000   0.000013   0.000002   0.000814   0.000045
               7          8          9         10         11         12
     1  C    0.007686  -0.015293   0.002012  -0.008950   0.000601  -0.000307
     2  C   -0.040011   0.019390   0.011247  -0.001937  -0.002361  -0.000402
     3  C   -0.001089  -0.467057  -0.014333  -0.166188   0.031465  -0.026381
     4  N   -0.534278  -0.248596   0.097368  -0.027518  -0.015604  -0.009526
     5  C    0.185428  -0.929511   0.629626  -1.735789   0.561649  -0.481633
     6  O   -0.159924  -0.044898   0.115340  -0.010589   0.018350  -0.005317
     7  N    7.640092   0.819281  -0.119465  -0.326741   0.052433   0.004766
     8  C    0.819281  11.661291   1.775084  -5.181176   1.557104  -0.894957
     9  C   -0.119465   1.775084  11.060074  -6.413256   1.988477  -2.053318
    10  C   -0.326741  -5.181176  -6.413256  18.696643  -3.390887   1.789916
    11  C    0.052433   1.557104   1.988477  -3.390887   8.816851  -0.983581
    12  C    0.004766  -0.894957  -2.053318   1.789916  -0.983581   9.542938
    13  C   -0.029792  -1.567236  -0.792357   2.027550  -2.297429  -0.175072
    14  H    0.000008  -0.000023  -0.000008   0.000003   0.000000  -0.000000
    15  H    0.000050   0.000029   0.000032  -0.000028  -0.000000   0.000000
    16  H   -0.000041   0.000004  -0.000049   0.000019   0.000000  -0.000000
    17  H   -0.002819  -0.001526  -0.000492   0.000556   0.000015  -0.000005
    18  H    0.001393  -0.000183   0.000571  -0.000402  -0.000002   0.000004
    19  H   -0.012396  -0.004607   0.002362   0.000563  -0.000074  -0.000069
    20  H    0.020863   0.005594  -0.001599  -0.002966   0.000167   0.000032
    21  H    0.007099   0.014693   0.003172  -0.014836  -0.000713  -0.000143
    22  H   -0.002661   0.039397   0.307943   0.019597  -0.009115   0.044990
    23  H   -0.005950   0.127165   0.067366   0.248706  -0.117373  -0.010310
    24  H    0.000328  -0.034233  -0.022367  -0.022238   0.238509   0.025778
    25  C    0.005335  -0.467393  -0.320814   0.540109  -0.295217  -0.543585
    26  Cl  -0.000723  -0.036221  -0.067347   0.120537  -0.114294  -0.321840
    27  H    0.000055   0.017888  -0.013722   0.002718  -0.012497   0.007860
    28  H   -0.000004  -0.020154  -0.023041   0.007071  -0.005472  -0.005610
    29  H    0.000077  -0.001093   0.038877  -0.004137   0.014175  -0.017555
              13         14         15         16         17         18
     1  C   -0.000944   0.414554   0.420637   0.418038  -0.045610  -0.036894
     2  C    0.005003  -0.099264  -0.059094  -0.053303   0.453347   0.413861
     3  C   -0.030545   0.035852  -0.011984  -0.015774  -0.092607  -0.058409
     4  N    0.037030   0.000634  -0.000238   0.000189   0.005149   0.000472
     5  C   -0.456482  -0.000961  -0.001424  -0.000924  -0.005623  -0.002436
     6  O   -0.038172   0.000005  -0.000003  -0.000100  -0.000450   0.000112
     7  N   -0.029792   0.000008   0.000050  -0.000041  -0.002819   0.001393
     8  C   -1.567236  -0.000023   0.000029   0.000004  -0.001526  -0.000183
     9  C   -0.792357  -0.000008   0.000032  -0.000049  -0.000492   0.000571
    10  C    2.027550   0.000003  -0.000028   0.000019   0.000556  -0.000402
    11  C   -2.297429   0.000000  -0.000000   0.000000   0.000015  -0.000002
    12  C   -0.175072  -0.000000   0.000000  -0.000000  -0.000005   0.000004
    13  C    9.671764  -0.000000   0.000001  -0.000001   0.000008   0.000002
    14  H   -0.000000   0.523390  -0.028416  -0.028166  -0.003033  -0.002859
    15  H    0.000001  -0.028416   0.506097  -0.031054  -0.004754   0.004017
    16  H   -0.000001  -0.028166  -0.031054   0.505322   0.004287  -0.004816
    17  H    0.000008  -0.003033  -0.004754   0.004287   0.540593  -0.037533
    18  H    0.000002  -0.002859   0.004017  -0.004816  -0.037533   0.511383
    19  H    0.000643  -0.000087  -0.000219   0.002782   0.004466  -0.006240
    20  H   -0.000775  -0.000059   0.002629  -0.000531  -0.006951   0.004747
    21  H    0.000084  -0.000002   0.000004  -0.000001   0.002405  -0.000160
    22  H   -0.086373  -0.000000   0.000000  -0.000000  -0.000000   0.000000
    23  H   -0.010953  -0.000000   0.000000  -0.000000  -0.000000   0.000000
    24  H    0.113603  -0.000000   0.000000   0.000000   0.000000  -0.000000
    25  C    0.142388  -0.000000   0.000000   0.000000   0.000001  -0.000002
    26  Cl   0.040677  -0.000000   0.000000   0.000000   0.000000  -0.000000
    27  H   -0.026733   0.000000   0.000000  -0.000000   0.000000  -0.000000
    28  H   -0.130304  -0.000000   0.000000  -0.000000  -0.000000   0.000000
    29  H   -0.119072   0.000000  -0.000000   0.000000  -0.000000   0.000000
              19         20         21         22         23         24
     1  C   -0.016462   0.016429   0.006191   0.000012   0.000004  -0.000000
     2  C    0.009025  -0.153177   0.018779  -0.000091  -0.000002  -0.000000
     3  C    0.364759   0.520574  -0.103950  -0.002178   0.000128   0.000008
     4  N   -0.012482  -0.137623   0.256310  -0.001582  -0.000423   0.000008
     5  C   -0.005440   0.008883   0.043891   0.001241   0.000365   0.000487
     6  O   -0.006793   0.009306   0.010252  -0.005310  -0.000021  -0.000002
     7  N   -0.012396   0.020863   0.007099  -0.002661  -0.005950   0.000328
     8  C   -0.004607   0.005594   0.014693   0.039397   0.127165  -0.034233
     9  C    0.002362  -0.001599   0.003172   0.307943   0.067366  -0.022367
    10  C    0.000563  -0.002966  -0.014836   0.019597   0.248706  -0.022238
    11  C   -0.000074   0.000167  -0.000713  -0.009115  -0.117373   0.238509
    12  C   -0.000069   0.000032  -0.000143   0.044990  -0.010310   0.025778
    13  C    0.000643  -0.000775   0.000084  -0.086373  -0.010953   0.113603
    14  H   -0.000087  -0.000059  -0.000002  -0.000000  -0.000000  -0.000000
    15  H   -0.000219   0.002629   0.000004   0.000000   0.000000   0.000000
    16  H    0.002782  -0.000531  -0.000001  -0.000000  -0.000000   0.000000
    17  H    0.004466  -0.006951   0.002405  -0.000000  -0.000000   0.000000
    18  H   -0.006240   0.004747  -0.000160   0.000000   0.000000  -0.000000
    19  H    0.505151  -0.044128   0.003289   0.000000  -0.000000   0.000000
    20  H   -0.044128   0.571446   0.000991  -0.000000   0.000000  -0.000000
    21  H    0.003289   0.000991   0.380769   0.000011   0.000006  -0.000000
    22  H    0.000000  -0.000000   0.000011   0.501193  -0.000150   0.000014
    23  H   -0.000000   0.000000   0.000006  -0.000150   0.518049  -0.004321
    24  H    0.000000  -0.000000  -0.000000   0.000014  -0.004321   0.514042
    25  C    0.000134  -0.000074   0.000028  -0.018782   0.000691   0.004564
    26  Cl   0.000000  -0.000000  -0.000000   0.000284   0.000744  -0.001088
    27  H    0.000000  -0.000000   0.000000   0.000166  -0.000000  -0.000001
    28  H    0.000000  -0.000000   0.000000   0.004032  -0.000000   0.000002
    29  H   -0.000000   0.000000  -0.000000   0.000175   0.000000  -0.000002
              25         26         27         28         29
     1  C   -0.000100  -0.000002  -0.000000   0.000000   0.000000
     2  C    0.000988   0.000009  -0.000000  -0.000001   0.000000
     3  C   -0.006023  -0.000457  -0.000003  -0.000049   0.000013
     4  N    0.005912   0.000268  -0.000002   0.000005   0.000002
     5  C   -0.107154  -0.018824   0.000448  -0.003873   0.000814
     6  O   -0.003158   0.000067  -0.000031  -0.000003   0.000045
     7  N    0.005335  -0.000723   0.000055  -0.000004   0.000077
     8  C   -0.467393  -0.036221   0.017888  -0.020154  -0.001093
     9  C   -0.320814  -0.067347  -0.013722  -0.023041   0.038877
    10  C    0.540109   0.120537   0.002718   0.007071  -0.004137
    11  C   -0.295217  -0.114294  -0.012497  -0.005472   0.014175
    12  C   -0.543585  -0.321840   0.007860  -0.005610  -0.017555
    13  C    0.142388   0.040677  -0.026733  -0.130304  -0.119072
    14  H   -0.000000  -0.000000   0.000000  -0.000000   0.000000
    15  H    0.000000   0.000000   0.000000   0.000000  -0.000000
    16  H    0.000000   0.000000  -0.000000  -0.000000   0.000000
    17  H    0.000001   0.000000   0.000000  -0.000000  -0.000000
    18  H   -0.000002  -0.000000  -0.000000   0.000000   0.000000
    19  H    0.000134   0.000000   0.000000   0.000000  -0.000000
    20  H   -0.000074  -0.000000  -0.000000  -0.000000   0.000000
    21  H    0.000028  -0.000000   0.000000   0.000000  -0.000000
    22  H   -0.018782   0.000284   0.000166   0.004032   0.000175
    23  H    0.000691   0.000744  -0.000000  -0.000000   0.000000
    24  H    0.004564  -0.001088  -0.000001   0.000002  -0.000002
    25  C    6.594464   0.019326   0.356965   0.525819   0.424545
    26  Cl   0.019326  17.307336   0.002276  -0.001366  -0.000817
    27  H    0.356965   0.002276   0.507831  -0.026251  -0.034565
    28  H    0.525819  -0.001366  -0.026251   0.495522  -0.024972
    29  H    0.424545  -0.000817  -0.034565  -0.024972   0.502768
 Mulliken charges:
               1
     1  C   -0.718870
     2  C   -0.321356
     3  C   -0.303199
     4  N   -0.530133
     5  C    0.576788
     6  O   -0.683282
     7  N   -0.509001
     8  C   -0.122763
     9  C   -0.257384
    10  C   -0.146352
    11  C   -0.035177
    12  C    0.113328
    13  C   -0.276512
    14  H    0.188433
    15  H    0.203716
    16  H    0.204121
    17  H    0.190576
    18  H    0.213375
    19  H    0.215821
    20  H    0.186220
    21  H    0.371827
    22  H    0.207186
    23  H    0.186279
    24  H    0.186907
    25  C   -0.858966
    26  Cl   0.071454
    27  H    0.217596
    28  H    0.208647
    29  H    0.220721
 Sum of Mulliken charges =  -1.00000
 Mulliken charges with hydrogens summed into heavy atoms:
               1
     1  C   -0.122600
     2  C    0.082594
     3  C    0.098843
     4  N   -0.158305
     5  C    0.576788
     6  O   -0.683282
     7  N   -0.509001
     8  C   -0.122763
     9  C   -0.050198
    10  C    0.039928
    11  C    0.151730
    12  C    0.113328
    13  C   -0.276512
    25  C   -0.212002
    26  Cl   0.071454
 Electronic spatial extent (au):  <R**2>=           6560.2447
 Charge=             -1.0000 electrons
 Dipole moment (field-independent basis, Debye):
    X=              1.4252    Y=             -0.2922    Z=             -0.7529  Tot=              1.6381
 Quadrupole moment (field-independent basis, Debye-Ang):
   XX=           -137.9617   YY=           -103.7995   ZZ=           -108.6343
   XY=             -5.1295   XZ=             -0.4921   YZ=             -4.2585
 Traceless Quadrupole moment (field-independent basis, Debye-Ang):
   XX=            -21.1632   YY=             12.9990   ZZ=              8.1642
   XY=             -5.1295   XZ=             -0.4921   YZ=             -4.2585
 Octapole moment (field-independent basis, Debye-Ang**2):
  XXX=             81.8970  YYY=              0.5574  ZZZ=              3.9959  XYY=             -6.6273
  XXY=             -5.3827  XXZ=             -7.3764  XZZ=             -3.0013  YZZ=              1.9709
  YYZ=              0.1842  XYZ=             -2.2731
 Hexadecapole moment (field-independent basis, Debye-Ang**3):
 XXXX=          -9230.4208 YYYY=           -762.6526 ZZZZ=           -252.0058 XXXY=            -56.6214
 XXXZ=            -20.9449 YYYX=             15.8070 YYYZ=             -7.8034 ZZZX=             -2.0055
 ZZZY=             -2.1951 XXYY=          -1484.8622 XXZZ=          -1449.5380 YYZZ=           -177.5908
 XXYZ=             -7.5957 YYXZ=            -14.3581 ZZXY=            -14.2937
 N-N= 1.011533315583D+03 E-N=-4.555660699274D+03  KE= 1.065755974979D+03
 Calling FoFJK, ICntrl=      2127 FMM=F ISym2X=0 I1Cent= 0 IOpClX= 0 NMat=1 NMatS=1 NMatT=0.
 ***** Axes restored to original set *****
 -------------------------------------------------------------------
 Center     Atomic                   Forces (Hartrees/Bohr)
 Number     Number              X              Y              Z
 -------------------------------------------------------------------
      1        6          -0.001046934   -0.001339848    0.000448677
      2        6           0.000446690    0.001181787    0.000097859
      3        6           0.008350279   -0.001123589    0.002096159
      4        7          -0.015063085   -0.007383378    0.004042057
      5        6           0.009196530    0.034879021   -0.015653242
      6        8          -0.001942735   -0.019421805    0.011081331
      7        7           0.011277871   -0.003951006   -0.001761621
      8        6          -0.017937272   -0.006417639    0.004469104
      9        6           0.004009417    0.004815468    0.000497054
     10        6           0.004759584   -0.000564870   -0.001057842
     11        6          -0.002236087    0.000248009    0.001128695
     12        6          -0.001530839   -0.000400999    0.000348782
     13        6          -0.003730250   -0.004271845   -0.000417727
     14        1          -0.001287420   -0.000147321    0.000045315
     15        1           0.000000050    0.000396388   -0.000130547
     16        1           0.000241162    0.000076085   -0.000303703
     17        1          -0.000704251   -0.001077246    0.000194149
     18        1           0.000636216   -0.000342863    0.000241975
     19        1           0.001924944    0.000722182   -0.000984089
     20        1          -0.000605293    0.001043934   -0.001577493
     21        1           0.002565789    0.000883362   -0.000306145
     22        1          -0.001913247   -0.001041159   -0.002127643
     23        1          -0.001735411    0.000643003    0.000732929
     24        1           0.000856079    0.000484076   -0.000162988
     25        6           0.000533627    0.000179255    0.000094188
     26       17           0.004405124    0.001385815   -0.000920776
     27        1           0.000786127    0.000275161    0.000109703
     28        1          -0.000608625   -0.000086865   -0.000087999
     29        1           0.000351963    0.000356886   -0.000136160
 -------------------------------------------------------------------
 Cartesian Forces:  Max     0.034879021 RMS     0.005988914

 GradGradGradGradGradGradGradGradGradGradGradGradGradGradGradGradGradGrad
 Berny optimization.
 FormGI is forming the generalized inverse of G from B-inverse, IUseBI=4.
 GSVD:  received Info=                   1 from GESDD.
 Internal  Forces:  Max     0.022060644 RMS     0.002932940
 Search for a local minimum.
 Step number   1 out of a maximum of  150
 All quantities printed in internal units (Hartrees-Bohrs-Radians)
 Mixed Optimization -- RFO/linear search
 Second derivative matrix not updated -- first step.
 ITU=  0
     Eigenvalues ---    0.00425   0.00476   0.00698   0.00914   0.01523
     Eigenvalues ---    0.01728   0.01839   0.01946   0.01993   0.02030
     Eigenvalues ---    0.02058   0.02089   0.02109   0.02155   0.02174
     Eigenvalues ---    0.02211   0.02318   0.02574   0.03713   0.04420
     Eigenvalues ---    0.04927   0.05539   0.05574   0.05592   0.07189
     Eigenvalues ---    0.07229   0.08186   0.09163   0.12082   0.12685
     Eigenvalues ---    0.13575   0.15999   0.16000   0.16000   0.16000
     Eigenvalues ---    0.16000   0.16000   0.16000   0.16000   0.16000
     Eigenvalues ---    0.21896   0.21913   0.22369   0.22779   0.23458
     Eigenvalues ---    0.24599   0.24898   0.24999   0.24999   0.25000
     Eigenvalues ---    0.25000   0.25000   0.29568   0.29818   0.30181
     Eigenvalues ---    0.31843   0.33532   0.33907   0.34021   0.34139
     Eigenvalues ---    0.34149   0.34175   0.34178   0.34312   0.34317
     Eigenvalues ---    0.34510   0.35184   0.35239   0.35243   0.37114
     Eigenvalues ---    0.41153   0.41672   0.44687   0.45108   0.45255
     Eigenvalues ---    0.46079   0.46564   0.46961   0.47512   0.58724
     Eigenvalues ---    0.75934
 RFO step:  Lambda=-5.50879710D-03 EMin= 4.25121506D-03
 Linear search not attempted -- first point.
 Iteration  1 RMS(Cart)=  0.13658459 RMS(Int)=  0.00963824
 Iteration  2 RMS(Cart)=  0.02838132 RMS(Int)=  0.00029666
 Iteration  3 RMS(Cart)=  0.00045500 RMS(Int)=  0.00005244
 Iteration  4 RMS(Cart)=  0.00000017 RMS(Int)=  0.00005244
 Variable       Old X    -DE/DX   Delta X   Delta X   Delta X     New X
                                 (Linear)    (Quad)   (Total)
    R1        2.88328   0.00157   0.00000   0.00518   0.00518   2.88846
    R2        2.06799   0.00104   0.00000   0.00298   0.00298   2.07097
    R3        2.07079   0.00008   0.00000   0.00022   0.00022   2.07101
    R4        2.07096  -0.00002   0.00000  -0.00007  -0.00007   2.07089
    R5        2.87605   0.00217   0.00000   0.00707   0.00707   2.88312
    R6        2.07488   0.00091   0.00000   0.00264   0.00264   2.07751
    R7        2.07294   0.00022   0.00000   0.00065   0.00065   2.07359
    R8        2.75674  -0.00731   0.00000  -0.01940  -0.01940   2.73734
    R9        2.06807   0.00026   0.00000   0.00074   0.00074   2.06881
   R10        2.08127   0.00150   0.00000   0.00440   0.00440   2.08567
   R11        2.64043   0.00810   0.00000   0.01737   0.01737   2.65780
   R12        1.91850  -0.00072   0.00000  -0.00158  -0.00158   1.91692
   R13        2.40185  -0.02206   0.00000  -0.02884  -0.02884   2.37301
   R14        2.51964   0.00276   0.00000   0.00465   0.00465   2.52429
   R15        2.62463  -0.01479   0.00000  -0.03078  -0.03078   2.59385
   R16        2.66826   0.00133   0.00000   0.00310   0.00311   2.67137
   R17        2.66289   0.00177   0.00000   0.00411   0.00410   2.66700
   R18        2.63944  -0.00160   0.00000  -0.00347  -0.00344   2.63600
   R19        2.05283  -0.00042   0.00000  -0.00118  -0.00118   2.05164
   R20        2.62803  -0.00011   0.00000  -0.00018  -0.00020   2.62783
   R21        2.05377  -0.00033   0.00000  -0.00092  -0.00092   2.05285
   R22        2.62821  -0.00031   0.00000  -0.00074  -0.00075   2.62746
   R23        2.05288   0.00035   0.00000   0.00098   0.00098   2.05386
   R24        2.64436   0.00009   0.00000   0.00005   0.00005   2.64441
   R25        3.32533   0.00471   0.00000   0.01563   0.01563   3.34097
   R26        2.84432   0.00094   0.00000   0.00292   0.00292   2.84723
   R27        2.07036   0.00066   0.00000   0.00191   0.00191   2.07227
   R28        2.06478   0.00039   0.00000   0.00110   0.00110   2.06588
   R29        2.07031   0.00041   0.00000   0.00117   0.00117   2.07149
    A1        1.94115   0.00126   0.00000   0.00950   0.00949   1.95064
    A2        1.93712  -0.00003   0.00000  -0.00089  -0.00091   1.93620
    A3        1.93551  -0.00043   0.00000  -0.00374  -0.00374   1.93176
    A4        1.88296  -0.00038   0.00000  -0.00015  -0.00017   1.88279
    A5        1.88284  -0.00026   0.00000  -0.00019  -0.00019   1.88265
    A6        1.88191  -0.00021   0.00000  -0.00483  -0.00485   1.87706
    A7        1.94657   0.00162   0.00000   0.00870   0.00869   1.95526
    A8        1.91618  -0.00110   0.00000  -0.00658  -0.00661   1.90957
    A9        1.91964   0.00007   0.00000   0.00222   0.00222   1.92186
   A10        1.90700   0.00026   0.00000   0.00496   0.00497   1.91197
   A11        1.90599  -0.00095   0.00000  -0.00504  -0.00505   1.90094
   A12        1.86667   0.00004   0.00000  -0.00480  -0.00480   1.86188
   A13        1.93219  -0.00064   0.00000  -0.00106  -0.00109   1.93110
   A14        1.91092   0.00165   0.00000   0.01003   0.01000   1.92092
   A15        1.91041   0.00026   0.00000   0.00683   0.00677   1.91718
   A16        1.90143  -0.00141   0.00000  -0.01662  -0.01659   1.88484
   A17        1.93987   0.00099   0.00000   0.01041   0.01038   1.95025
   A18        1.86776  -0.00084   0.00000  -0.00987  -0.00987   1.85789
   A19        2.07870  -0.00499   0.00000  -0.02166  -0.02164   2.05706
   A20        1.98326   0.00408   0.00000   0.02306   0.02301   2.00627
   A21        1.95852  -0.00001   0.00000  -0.00634  -0.00625   1.95227
   A22        2.04988  -0.00071   0.00000  -0.00278  -0.00279   2.04709
   A23        1.99616  -0.00809   0.00000  -0.03168  -0.03168   1.96448
   A24        2.23708   0.00879   0.00000   0.03440   0.03439   2.27147
   A25        2.08513  -0.00422   0.00000  -0.01653  -0.01653   2.06860
   A26        2.16988   0.00048   0.00000   0.00198   0.00196   2.17184
   A27        2.07101   0.00102   0.00000   0.00409   0.00405   2.07506
   A28        2.03916  -0.00148   0.00000  -0.00518  -0.00518   2.03398
   A29        2.14696  -0.00010   0.00000  -0.00038  -0.00048   2.14648
   A30        2.07523  -0.00221   0.00000  -0.01331  -0.01348   2.06175
   A31        2.06092   0.00232   0.00000   0.01408   0.01390   2.07482
   A32        2.11938   0.00061   0.00000   0.00300   0.00296   2.12234
   A33        2.07659  -0.00232   0.00000  -0.01366  -0.01366   2.06293
   A34        2.08721   0.00171   0.00000   0.01068   0.01068   2.09789
   A35        2.08829   0.00054   0.00000   0.00217   0.00214   2.09043
   A36        2.10013   0.00069   0.00000   0.00469   0.00470   2.10483
   A37        2.09476  -0.00123   0.00000  -0.00686  -0.00685   2.08791
   A38        2.12096  -0.00144   0.00000  -0.00620  -0.00621   2.11475
   A39        2.07247   0.00062   0.00000   0.00273   0.00272   2.07519
   A40        2.08975   0.00082   0.00000   0.00351   0.00349   2.09324
   A41        2.05146   0.00188   0.00000   0.00689   0.00692   2.05839
   A42        2.10569  -0.00022   0.00000  -0.00059  -0.00062   2.10507
   A43        2.12601  -0.00166   0.00000  -0.00625  -0.00628   2.11973
   A44        1.94168   0.00048   0.00000   0.00323   0.00323   1.94491
   A45        1.92616  -0.00069   0.00000  -0.00397  -0.00397   1.92219
   A46        1.94095   0.00031   0.00000   0.00134   0.00134   1.94229
   A47        1.89203   0.00030   0.00000   0.00285   0.00285   1.89488
   A48        1.87016  -0.00048   0.00000  -0.00325  -0.00325   1.86691
   A49        1.89086   0.00008   0.00000  -0.00018  -0.00018   1.89067
    D1       -3.13828   0.00029   0.00000   0.00320   0.00319  -3.13509
    D2        1.02860  -0.00036   0.00000  -0.00433  -0.00431   1.02429
    D3       -1.02088   0.00020   0.00000   0.00413   0.00414  -1.01674
    D4        1.04841  -0.00005   0.00000  -0.00236  -0.00237   1.04604
    D5       -1.06790  -0.00070   0.00000  -0.00988  -0.00987  -1.07777
    D6       -3.11738  -0.00014   0.00000  -0.00143  -0.00142  -3.11880
    D7       -1.04301   0.00051   0.00000   0.00678   0.00676  -1.03625
    D8        3.12386  -0.00014   0.00000  -0.00075  -0.00074   3.12312
    D9        1.07439   0.00042   0.00000   0.00771   0.00771   1.08210
   D10       -3.13443  -0.00055   0.00000  -0.01568  -0.01571   3.13305
   D11        1.05216   0.00054   0.00000  -0.00085  -0.00085   1.05131
   D12       -0.99014   0.00045   0.00000   0.00135   0.00133  -0.98881
   D13       -1.01279  -0.00070   0.00000  -0.01492  -0.01492  -1.02771
   D14       -3.10939   0.00039   0.00000  -0.00009  -0.00006  -3.10944
   D15        1.13150   0.00030   0.00000   0.00210   0.00212   1.13362
   D16        1.02344  -0.00104   0.00000  -0.02073  -0.02074   1.00270
   D17       -1.07316   0.00005   0.00000  -0.00590  -0.00588  -1.07904
   D18       -3.11546  -0.00004   0.00000  -0.00371  -0.00371  -3.11916
   D19        3.05631  -0.00014   0.00000   0.02549   0.02543   3.08174
   D20        0.68765   0.00075   0.00000   0.03319   0.03324   0.72089
   D21       -1.12461   0.00060   0.00000   0.02658   0.02655  -1.09806
   D22        2.78991   0.00149   0.00000   0.03429   0.03436   2.82427
   D23        0.92922  -0.00071   0.00000   0.01040   0.01032   0.93954
   D24       -1.43944   0.00018   0.00000   0.01810   0.01814  -1.42130
   D25        0.44827  -0.00051   0.00000  -0.00660  -0.00664   0.44163
   D26       -2.68192  -0.00040   0.00000  -0.00139  -0.00150  -2.68342
   D27        2.82704   0.00032   0.00000  -0.00203  -0.00192   2.82512
   D28       -0.30316   0.00043   0.00000   0.00318   0.00323  -0.29993
   D29       -2.94274  -0.00267   0.00000  -0.08528  -0.08533  -3.02807
   D30        0.21172  -0.00246   0.00000  -0.07902  -0.07897   0.13275
   D31        0.70980  -0.00515   0.00000  -0.21671  -0.21672   0.49308
   D32       -2.51965  -0.00491   0.00000  -0.20448  -0.20448  -2.72413
   D33        3.07045  -0.00003   0.00000  -0.00254  -0.00259   3.06786
   D34       -0.05690  -0.00090   0.00000  -0.03551  -0.03532  -0.09222
   D35        0.01525  -0.00038   0.00000  -0.01498  -0.01498   0.00027
   D36       -3.11209  -0.00125   0.00000  -0.04795  -0.04772   3.12337
   D37       -3.07699   0.00018   0.00000   0.00727   0.00734  -3.06965
   D38        0.06573  -0.00005   0.00000  -0.00155  -0.00147   0.06427
   D39       -0.01670   0.00049   0.00000   0.01890   0.01894   0.00224
   D40        3.12602   0.00026   0.00000   0.01008   0.01013   3.13616
   D41       -0.00236   0.00001   0.00000   0.00139   0.00138  -0.00098
   D42       -3.13716  -0.00012   0.00000  -0.00571  -0.00578   3.14024
   D43        3.12509   0.00084   0.00000   0.03390   0.03414  -3.12395
   D44       -0.00971   0.00071   0.00000   0.02679   0.02698   0.01727
   D45        0.00548  -0.00024   0.00000  -0.00944  -0.00947  -0.00400
   D46       -3.13453  -0.00016   0.00000  -0.00603  -0.00606  -3.14059
   D47       -3.13725  -0.00002   0.00000  -0.00058  -0.00051  -3.13776
   D48        0.00593   0.00007   0.00000   0.00283   0.00290   0.00883
   D49        0.00838  -0.00014   0.00000  -0.00514  -0.00515   0.00323
   D50       -3.13838   0.00011   0.00000   0.00451   0.00453  -3.13385
   D51       -3.13479  -0.00022   0.00000  -0.00852  -0.00852   3.13987
   D52        0.00163   0.00002   0.00000   0.00113   0.00116   0.00279
   D53       -0.00983   0.00025   0.00000   0.00900   0.00905  -0.00078
   D54        3.12488   0.00039   0.00000   0.01622   0.01630   3.14118
   D55        3.13698  -0.00001   0.00000  -0.00074  -0.00073   3.13625
   D56       -0.01149   0.00014   0.00000   0.00648   0.00652  -0.00497
   D57        2.10045   0.00019   0.00000   0.00532   0.00532   2.10577
   D58       -0.00050  -0.00005   0.00000   0.00226   0.00227   0.00177
   D59       -2.09949   0.00010   0.00000   0.00426   0.00426  -2.09523
   D60       -1.03405   0.00003   0.00000  -0.00215  -0.00215  -1.03621
   D61       -3.13500  -0.00021   0.00000  -0.00521  -0.00520  -3.14020
   D62        1.04919  -0.00005   0.00000  -0.00321  -0.00321   1.04598
         Item               Value     Threshold  Converged?
 Maximum Force            0.022061     0.000450     NO 
 RMS     Force            0.002933     0.000300     NO 
 Maximum Displacement     0.680907     0.001800     NO 
 RMS     Displacement     0.161459     0.001200     NO 
 Predicted change in Energy=-3.093458D-03
 GradGradGradGradGradGradGradGradGradGradGradGradGradGradGradGradGradGrad

                          Input orientation:                          
 ---------------------------------------------------------------------
 Center     Atomic      Atomic             Coordinates (Angstroms)
 Number     Number       Type             X           Y           Z
 ---------------------------------------------------------------------
      1          6           0       -1.646988    1.872022    0.014554
      2          6           0       -0.288280    1.309356    0.431275
      3          6           0        0.865279    2.184733   -0.049052
      4          7           0        2.136030    1.630894    0.371324
      5          6           0        3.308929    2.280001   -0.054192
      6          8           0        3.222840    3.501953   -0.330443
      7          7           0        4.357643    1.454915   -0.115777
      8          6           0        5.594290    1.985790   -0.385808
      9          6           0        5.987233    3.303733   -0.058743
     10          6           0        6.585409    1.153674   -0.948899
     11          6           0        7.881218    1.608740   -1.166903
     12          6           0        8.220119    2.914587   -0.830612
     13          6           0        7.279156    3.785494   -0.269962
     14          1           0       -2.472565    1.243538    0.367326
     15          1           0       -1.722522    1.945545   -1.076297
     16          1           0       -1.791438    2.878084    0.424308
     17          1           0       -0.173275    0.294078    0.025556
     18          1           0       -0.235902    1.219753    1.523652
     19          1           0        0.776815    3.189423    0.376725
     20          1           0        0.813877    2.304138   -1.145057
     21          1           0        2.211463    0.622631    0.289425
     22          1           0        5.240581    3.971447    0.360036
     23          1           0        6.314003    0.133645   -1.205759
     24          1           0        8.631520    0.954098   -1.602500
     25          6           0        7.639537    5.201587    0.097355
     26         17           0        9.871021    3.472614   -1.128641
     27          1           0        8.452884    5.230344    0.832318
     28          1           0        6.770708    5.713585    0.519396
     29          1           0        7.980024    5.765576   -0.778776
 ---------------------------------------------------------------------
                    Distance matrix (angstroms):
                    1          2          3          4          5
     1  C    0.000000
     2  C    1.528508   0.000000
     3  C    2.532453   1.525679   0.000000
     4  N    3.807447   2.446275   1.448538   0.000000
     5  C    4.973156   3.757359   2.445512   1.406448   0.000000
     6  O    5.146933   4.208997   2.715206   2.274751   1.255743
     7  N    6.020511   4.680283   3.568430   2.281184   1.335799
     8  C    7.253230   5.977443   4.745159   3.557916   2.327962
     9  C    7.767657   6.603009   5.242774   4.220796   2.867292
    10  C    8.319653   7.012611   5.881556   4.665587   3.578329
    11  C    9.604783   8.329736   7.127746   5.947589   4.753372
    12  C    9.957963   8.749970   7.432173   6.333139   5.012515
    13  C    9.133366   7.993065   6.614307   5.612958   4.251561
    14  H    1.095910   2.186212   3.492910   4.624847   5.888770
    15  H    1.095932   2.175905   2.794487   4.133163   5.145101
    16  H    1.095867   2.172658   2.786207   4.121080   5.157558
    17  H    2.159133   1.099373   2.158410   2.690636   4.009488
    18  H    2.166563   1.097296   2.148763   2.668887   4.022380
    19  H    2.782361   2.161494   1.094766   2.067972   2.724764
    20  H    2.754501   2.165448   1.103687   2.121499   2.723206
    21  H    4.064994   2.596233   2.089723   1.014392   2.017270
    22  H    7.208713   6.136783   4.743730   3.888001   2.600741
    23  H    8.239447   6.903066   5.935784   4.710032   3.868258
    24  H   10.445342   9.155615   8.015121   6.822421   5.699583
    25  C    9.865718   8.838057   7.417103   6.566087   5.226165
    26  Cl  11.684747  10.503544   9.161198   8.091472   6.755577
    27  H   10.674946   9.588688   8.223400   7.284998   5.995890
    28  H    9.266611   8.320716   6.902900   6.178231   4.909422
    29  H   10.414820   9.470320   7.998408   7.250557   5.873106
                    6          7          8          9         10
     6  O    0.000000
     7  N    2.350366   0.000000
     8  C    2.815242   1.372604   0.000000
     9  C    2.784777   2.465146   1.413630   0.000000
    10  C    4.147743   2.397453   1.411313   2.402696   0.000000
    11  C    5.097490   3.680232   2.445877   2.772760   1.390586
    12  C    5.056477   4.190507   2.820548   2.394367   2.405636
    13  C    4.066664   3.740403   2.468021   1.394909   2.805124
    14  H    6.166438   6.850533   8.135865   8.717461   9.153547
    15  H    5.237873   6.175089   7.349431   7.894329   8.346557
    16  H    5.108997   6.334690   7.483412   7.805270   8.662035
    17  H    4.685167   4.679395   6.024609   6.856894   6.882462
    18  H    4.539713   4.882999   6.182555   6.750878   7.255905
    19  H    2.565307   4.009165   5.023769   5.229834   6.296135
    20  H    2.810953   3.786670   4.850789   5.379859   5.888346
    21  H    3.114099   2.337300   3.709132   4.643918   4.576774
    22  H    2.183682   2.709042   2.150401   1.085682   3.385516
    23  H    4.654778   2.600224   2.149592   3.387017   1.086323
    24  H    6.112570   4.552712   3.430669   3.859562   2.157219
    25  C    4.751734   4.985359   3.841592   2.521175   4.311778
    26  Cl   6.695991   5.957713   4.588341   4.031998   4.025548
    27  H    5.629628   5.650110   4.492496   3.253498   4.824877
    28  H    4.266253   4.935848   4.012457   2.599128   4.794061
    29  H    5.287323   5.669480   4.486973   3.248127   4.821154
                   11         12         13         14         15
    11  C    0.000000
    12  C    1.390390   0.000000
    13  C    2.430070   1.399363   0.000000
    14  H   10.473206  10.888569  10.097710   0.000000
    15  H    9.610071   9.992773   9.223112   1.771843   0.000000
    16  H    9.884506  10.089966   9.142269   1.771701   1.768105
    17  H    8.247736   8.834543   8.235050   2.510979   2.518251
    18  H    8.560259   8.939759   8.141018   2.517998   3.081647
    19  H    7.440019   7.545592   6.561550   3.787483   3.147251
    20  H    7.101504   7.438006   6.690294   3.769997   2.562546
    21  H    5.936280   6.527747   5.999844   4.725644   4.369387
    22  H    3.858353   3.378200   2.141790   8.181330   7.392709
    23  H    2.152574   3.392293   3.891432   8.995012   8.239264
    24  H    1.086855   2.146760   3.409010  11.281165  10.414703
    25  C    3.816453   2.535461   1.506690  10.862488   9.981354
    26  Cl   2.726685   1.767964   2.748270  12.632135  11.693799
    27  H    4.176088   2.860462   2.163388  11.639427  10.861473
    28  H    4.574560   3.428950   2.144561  10.268522   9.427583
    29  H    4.176085   2.861549   2.161210  11.446353  10.431709
                   16         17         18         19         20
    16  H    0.000000
    17  H    3.074824   0.000000
    18  H    2.525532   1.762126   0.000000
    19  H    2.587493   3.067411   2.494120   0.000000
    20  H    3.095156   2.526884   3.065931   1.760944   0.000000
    21  H    4.596573   2.421684   2.805257   2.941812   2.615043
    22  H    7.116802   6.553225   6.238404   4.531782   4.963963
    23  H    8.711328   6.605047   7.178479   6.519393   5.913214
    24  H   10.791095   8.978341   9.406092   8.402999   7.946534
    25  C    9.718480   9.226529   8.939343   7.157081   7.518539
    26  Cl  11.780411  10.598262  10.689244   9.222305   9.132221
    27  H   10.518827   9.971369   9.594674   7.955813   8.415885
    28  H    9.019948   8.822349   8.384249   6.505268   7.062476
    29  H   10.259945   9.851929   9.667839   7.736793   7.966766
                   21         22         23         24         25
    21  H    0.000000
    22  H    4.516094   0.000000
    23  H    4.393804   4.281667   0.000000
    24  H    6.701222   4.945139   2.490267   0.000000
    25  C    7.104063   2.708733   5.398072   4.681314   0.000000
    26  Cl   8.294706   4.889373   4.879246   2.846723   3.077651
    27  H    7.776958   3.482350   5.891088   4.924076   1.096600
    28  H    6.837940   2.324162   5.858368   5.533334   1.093218
    29  H    7.801745   3.467036   5.888682   4.924762   1.096184
                   26         27         28         29
    26  Cl   0.000000
    27  H    2.991001   0.000000
    28  H    4.165323   1.777964   0.000000
    29  H    2.992649   1.762298   1.774936   0.000000
 Stoichiometry    C11H14ClN2O(1-)
 Framework group  C1[X(C11H14ClN2O)]
 Deg. of freedom    81
 Full point group                 C1      NOp   1
 Largest Abelian subgroup         C1      NOp   1
 Largest concise Abelian subgroup C1      NOp   1
                         Standard orientation:                         
 ---------------------------------------------------------------------
 Center     Atomic      Atomic             Coordinates (Angstroms)
 Number     Number       Type             X           Y           Z
 ---------------------------------------------------------------------
      1          6           0        6.617241    0.346167    0.446885
      2          6           0        5.430291   -0.300974   -0.266342
      3          6           0        4.096843    0.263404    0.214379
      4          7           0        2.994832   -0.361476   -0.488018
      5          6           0        1.687853   -0.005383   -0.109732
      6          8           0        1.529061    1.121219    0.421722
      7          7           0        0.798933   -0.967972   -0.369741
      8          6           0       -0.533135   -0.699864   -0.175433
      9          6           0       -1.112946    0.585410   -0.276626
     10          6           0       -1.418166   -1.774377    0.056832
     11          6           0       -2.789324   -1.576173    0.176713
     12          6           0       -3.313138   -0.292507    0.071808
     13          6           0       -2.484237    0.811426   -0.157259
     14          1           0        7.572875   -0.057626    0.093707
     15          1           0        6.561496    0.180913    1.528851
     16          1           0        6.626760    1.428913    0.278078
     17          1           0        5.451635   -1.387349   -0.099138
     18          1           0        5.511673   -0.147452   -1.349794
     19          1           0        4.053519    1.340225    0.021788
     20          1           0        4.008909    0.137611    1.307342
     21          1           0        3.088364   -1.361910   -0.627208
     22          1           0       -0.453930    1.432984   -0.437938
     23          1           0       -1.001837   -2.774776    0.134090
     24          1           0       -3.455998   -2.415509    0.356478
     25          6           0       -3.045012    2.205109   -0.272553
     26         17           0       -5.058413   -0.065518    0.239700
     27          1           0       -3.767407    2.279710   -1.094204
     28          1           0       -2.238860    2.921463   -0.451667
     29          1           0       -3.570635    2.499562    0.643219
 ---------------------------------------------------------------------
 Rotational constants (GHZ):      2.0018809      0.1713731      0.1604164
 Basis read from rwf:  (6D, 7F)
 There are   317 symmetry adapted cartesian basis functions of A   symmetry.
 There are   317 symmetry adapted basis functions of A   symmetry.
   317 basis functions,   560 primitive gaussians,   317 cartesian basis functions
    60 alpha electrons       60 beta electrons
       nuclear repulsion energy      1014.5697394838 Hartrees.
[...]
 00000489,0.00000417,0.00001180,-0.00000691,0.00001501,0.00005694,-0.00
 003334,-0.00000314,-0.00071507,-0.00114412,-0.00002339,0.07279246,0.33
 031993,0.00000104,0.00000056,0.00000038,-0.00001267,0.00000178,0.00000
 548,0.00003645,-0.00000265,0.00009085,0.00008751,0.00001534,0.00004637
 ,-0.00011650,0.00028204,-0.00099423,0.00000773,0.00015965,0.00037278,-
 0.00107718,0.00117538,-0.00279186,-0.00308686,-0.00892196,0.00373914,0
 .00222324,-0.00202932,0.00397955,-0.01140598,-0.06355217,-0.04892820,0
 .00082410,0.00248228,0.00228610,0.00112641,-0.00101503,0.00653548,0.00
 044879,0.00014864,-0.00051013,0.00000122,0.00000081,-0.00000088,-0.000
 00411,0.00000095,-0.00000471,-0.00000144,0.00000111,0.00000111,0.00000
 424,0.00000367,0.00000410,0.00000450,-0.00000109,-0.00001080,-0.000008
 62,-0.00000129,-0.00000007,0.00000107,-0.00000355,-0.00002508,0.000031
 04,-0.00000718,0.00005385,-0.00032990,-0.00030645,-0.00075016,0.012079
 76,0.07021481,0.04100483,-0.00001026,-0.00001534,0.00001017,-0.0000206
 5,0.00003233,-0.00001767,0.00008766,-0.00009960,0.00002525,-0.00042162
 ,0.00001443,0.00010307,0.00023086,-0.00042263,-0.00019784,-0.00013098,
 0.00025968,0.00009040,-0.00155669,0.00097467,0.00047178,-0.00229765,-0
 .00396103,0.00046274,-0.00054834,-0.00087448,-0.00029456,-0.01589327,0
 .02160240,0.00854432,-0.20134913,0.13174317,0.05931226,0.00508819,-0.0
 0662796,-0.00219560,0.00096913,-0.00174168,0.00012967,-0.00001745,-0.0
 0000161,0.00000414,0.00000032,0.00000264,-0.00000476,0.00000273,0.0000
 0285,-0.00000097,-0.00000162,-0.00000913,-0.00000244,0.00000456,0.0000
 0178,0.00000160,0.00001343,0.00001167,0.00000129,-0.00003603,0.0000115
 8,-0.00003107,0.00003157,0.00003330,-0.00001839,0.00003622,0.00014753,
 -0.00004922,0.00084988,-0.00036308,-0.00092254,0.21280448,0.00000265,0
 .00000494,-0.00000310,0.00000223,-0.00000729,0.00000691,-0.00006677,0.
 00002382,0.00000744,0.00016024,0.00008703,-0.00007393,-0.00056552,0.00
 021503,0.00025863,0.00011422,-0.00016679,-0.00007464,0.00049202,0.0002
 3665,0.00002131,-0.00296036,0.00051545,-0.00157053,-0.00088254,0.00008
 217,0.00039292,-0.00733887,0.01007252,0.00279452,0.12838283,-0.1737568
 8,-0.05577791,0.02417788,-0.01432071,-0.00788284,-0.00372159,-0.004443
 73,-0.00198918,0.00000821,0.00000185,-0.00000241,0.00000020,-0.0000014
 4,0.00000302,-0.00000138,-0.00000218,0.00000036,0.00000090,0.00000368,
 0.00000002,-0.00000214,-0.00000092,-0.00000014,-0.00000817,-0.00000456
 ,-0.00000002,0.00002321,-0.00000806,0.00001939,-0.00000422,-0.00001050
 ,0.00000787,0.00010432,-0.00001088,0.00013334,0.00059994,0.00036333,0.
 00128813,-0.14000287,0.18137683,0.00000254,0.00000319,-0.00000169,0.00
 000012,-0.00000382,0.00000646,-0.00002457,0.00001451,0.00002272,0.0001
 0567,0.00002147,-0.00003698,-0.00024163,0.00019772,-0.00030480,0.00006
 243,-0.00008595,0.00004168,0.00032302,-0.00006629,-0.00011871,0.000747
 41,-0.00143742,0.00758571,-0.00027463,0.00040566,-0.00077104,0.0008799
 7,-0.00139100,0.00302872,0.05840871,-0.05620942,-0.05772513,0.00600495
 ,-0.00347035,0.00031942,-0.00042990,-0.00227167,0.00452674,0.00000494,
 0.00000122,-0.00000150,-0.00000147,-0.00000047,-0.00000074,-0.00000098
 ,-0.00000105,0.00000067,0.00000088,0.00000233,0.00000118,0.00000024,-0
 .00000058,-0.00000379,-0.00000534,-0.00000383,0.00000121,0.00000930,-0
 .00000278,0.00000077,-0.00000261,-0.00001002,0.00001749,-0.00005559,0.
 00013210,-0.00052970,-0.00067607,0.00141287,-0.00434000,-0.06460321,0.
 06214515,0.05020043,-0.00000331,-0.00001124,0.00000081,-0.00001335,0.0
 0000872,-0.00000841,0.00001744,-0.00004094,0.00002796,-0.00011053,0.00
 014970,-0.00000103,0.00051118,-0.00043521,-0.00012250,-0.00013152,0.00
 055029,0.00017184,0.00010512,-0.00131642,-0.00051361,-0.00438850,0.001
 02369,0.00219535,-0.00644872,-0.03065778,-0.00638443,0.00018368,-0.001
 23238,-0.00047606,-0.00496357,0.00236956,0.00200000,0.00896270,0.02103
 275,0.00458806,-0.09217316,-0.02695784,-0.00374687,-0.00000318,0.00000
 256,-0.00000042,-0.00000034,-0.00000018,-0.00000007,-0.00000241,0.0000
 0591,0.00000307,0.00000298,0.00000700,0.00000224,0.00000052,-0.0000028
 7,0.00000076,-0.00001268,0.00000690,0.00000532,-0.00000545,0.00000126,
 -0.00000867,0.00006638,0.00003194,0.00001188,0.00057339,-0.00153272,-0
 .00128008,0.00015978,-0.00000881,-0.00009789,0.00047697,0.00138597,0.0
 0036852,0.58958118,0.00000342,0.00000847,-0.00000102,0.00000661,-0.000
 00708,0.00000878,-0.00004849,0.00003833,0.00000291,0.00018328,0.000011
 62,-0.00007995,-0.00047081,0.00053592,0.00017030,0.00026023,-0.0003903
 7,-0.00016953,0.00065775,-0.00033731,0.00008499,-0.00048994,0.00227933
 ,-0.00163818,-0.00887383,-0.01372930,-0.00392648,0.00000311,-0.0002257
 0,0.00014575,0.00245390,0.00104322,-0.00127402,0.00096668,-0.02372657,
 -0.00701071,-0.03194700,-0.20966144,-0.03302048,0.00000481,-0.00000091
 ,-0.00000081,0.00000029,-0.00000038,0.00000093,0.00000086,-0.00000410,
 -0.00000166,-0.00000073,-0.00000192,-0.00000125,-0.00000199,0.00000063
 ,0.00000006,0.00000160,-0.00000296,-0.00000134,0.00002012,-0.00000681,
 0.00001625,-0.00000793,-0.00001895,0.00001326,0.00207790,0.00092538,0.
 00137408,-0.00002533,-0.00005304,0.00012373,-0.00033649,-0.00024006,-0
 .00014015,-0.02588878,0.50702500,0.00000112,0.00000188,-0.00000087,0.0
 0000493,-0.00000604,-0.00000179,-0.00000784,0.00001878,0.00003361,0.00
 005602,-0.00005124,-0.00002741,-0.00018926,0.00017161,0.00025381,0.000
 07879,-0.00024691,0.00008512,0.00003158,0.00033168,-0.00087972,0.00175
 649,-0.00182896,0.00787690,-0.00063085,-0.00073087,0.00566225,-0.00014
 591,0.00033958,-0.00062724,0.00204578,-0.00125168,0.00381950,-0.000728
 29,-0.00993990,-0.00051913,-0.00509754,-0.03378519,-0.07658898,0.00000
 190,-0.00000030,0.00000005,-0.00000008,-0.00000005,-0.00000041,0.00000
 044,-0.00000205,-0.00000040,-0.00000128,-0.00000251,-0.00000114,-0.000
 00134,0.00000178,-0.00000102,0.00000381,0.00000263,-0.00000053,0.00000
 746,-0.00000243,0.00000305,-0.00002397,0.00001548,-0.00001977,-0.00024
 707,0.00187106,-0.00480268,-0.00010339,0.00011500,-0.00044940,-0.00009
 317,-0.00039439,0.00037898,-0.01314459,-0.00687123,0.54705924,-0.00004
 358,-0.00007507,0.00004143,-0.00005313,0.00010961,-0.00009665,0.000709
 78,-0.00040697,-0.00006073,-0.00220978,-0.00073304,0.00079662,0.004474
 54,-0.00207252,-0.00136356,-0.00153985,0.00151699,0.00057654,-0.006189
 47,-0.00017570,0.00070665,0.00406953,0.00232932,-0.00019813,-0.0019878
 9,0.00510734,0.00224085,0.00206485,-0.00335345,-0.00054114,-0.02853737
 ,-0.00548479,0.00273167,-0.13399080,-0.02995791,0.00960626,-0.03614761
 ,-0.01488571,0.00138915,-0.00010407,-0.00001920,0.00002895,0.00000229,
 0.00001550,-0.00002944,0.00001573,0.00003076,-0.00000240,-0.00001267,-
 0.00003924,-0.00000312,0.00002523,0.00000733,0.00001100,0.00009491,0.0
 0005879,0.00000142,-0.00025268,0.00008225,-0.00020829,0.00007883,0.000
 14337,-0.00013145,-0.00120410,-0.00131512,-0.00003484,-0.00139718,-0.0
 0032961,0.00021456,0.00166596,0.00027372,-0.00053907,-0.00182728,-0.00
 263934,-0.00079094,0.20127276,-0.00001131,-0.00002156,0.00001065,-0.00
 001677,0.00002739,-0.00002568,0.00018735,-0.00012068,-0.00002211,-0.00
 060240,-0.00011320,0.00018316,0.00129257,-0.00103272,-0.00041727,-0.00
 018314,0.00078192,0.00023571,-0.00194030,0.00023465,0.00043693,0.00071
 197,0.00116456,0.00044425,-0.00024073,-0.00204687,-0.00160277,0.002577
 55,-0.00342598,-0.00243120,-0.03498692,-0.00615739,0.00342406,-0.03116
 929,-0.04583354,-0.00403328,0.01030396,0.00390555,-0.00056480,-0.00002
 667,-0.00000430,0.00000705,0.00000045,0.00000343,-0.00000782,0.0000029
 9,0.00001076,0.00000075,-0.00000079,-0.00000506,0.00000053,0.00000683,
 0.00000040,0.00000234,0.00001543,0.00001995,0.00000383,-0.00006945,0.0
 0002412,-0.00005610,0.00003544,0.00003858,-0.00003590,0.00022934,0.000
 35506,-0.00016538,-0.00135427,-0.00023278,-0.00005930,-0.00040026,0.00
 062086,0.00090183,0.00454781,-0.00221699,-0.00059988,0.04936746,0.0531
 0292,0.00000147,0.00000393,-0.00000483,0.00000022,-0.00000313,0.000006
 55,-0.00003952,0.00003766,0.00000945,0.00017603,0.00004955,0.00007734,
 -0.00036485,0.00007330,-0.00015525,0.00020911,-0.00001338,-0.00005766,
 0.00032919,0.00019298,-0.00039851,-0.00056129,0.00023033,-0.00082376,0
 .00083317,-0.00236664,0.00330724,0.00104538,-0.00157730,0.00373080,-0.
 00516883,-0.00090803,0.00067772,0.00930042,-0.00421332,-0.01581850,0.0
 0806003,0.00312066,0.00005417,0.00000752,0.00000162,-0.00000226,0.0000
 0028,-0.00000104,0.00000370,-0.00000173,-0.00000168,0.00000042,0.00000
 236,0.00000543,0.00000019,-0.00000120,-0.00000053,0.,-0.00001425,-0.00
 001098,0.,0.00002053,-0.00001357,0.00001159,0.00000939,-0.00000735,0.0
 0002199,0.00033508,0.00007910,0.00080414,-0.00005635,-0.00020304,0.000
 67100,-0.00071219,0.00080715,-0.00217017,0.00111420,0.00046579,-0.0025
 5622,-0.01482414,0.00436934,0.01266302,-0.00000518,-0.00000870,0.00000
 475,-0.00000555,0.00000997,-0.00001489,0.00006184,-0.00003843,-0.00000
 941,-0.00021116,-0.00008377,0.00007562,0.00039591,-0.00002313,-0.00008
 158,-0.00019893,0.00000855,0.00011068,-0.00042996,-0.00019073,-0.00005
 434,0.00020286,-0.00013727,0.00074548,-0.00001056,-0.00166996,-0.00038
 516,0.00008613,0.00010792,-0.00001797,-0.00006275,-0.00047692,-0.00018
 155,-0.00105492,0.00115417,0.00096032,-0.00532655,-0.00296358,-0.00442
 377,-0.00001124,-0.00000244,0.00000272,0.00000143,0.00000181,-0.000000
 58,0.00000147,0.00000436,-0.00000134,-0.00000147,-0.00000331,0.0000009
 0,0.00000139,-0.00000084,0.00000518,0.00001134,0.00000888,-0.00000349,
 -0.00001953,0.00000799,-0.00001182,0.00000871,0.00001713,-0.00002144,0
 .00029539,0.00004928,-0.00073760,0.00000178,-0.00003583,-0.00010197,0.
 00001521,-0.00005464,0.00000532,-0.15940942,-0.00346476,-0.13210436,0.
 00060464,0.00053951,0.00027074,0.17165312,-0.00000348,-0.00000688,0.00
 000368,-0.00000862,0.00000803,-0.00000935,0.00004834,-0.00003885,0.000
 01456,-0.00015629,-0.00001382,0.00004674,0.00033986,-0.00013681,-0.000
 08481,-0.00017507,0.00016959,0.00005903,-0.00019617,-0.00019649,-0.000
 22490,-0.00037025,-0.00030807,0.00173136,0.00070161,-0.00292573,-0.000
 94036,0.00025125,-0.00036515,-0.00038216,-0.00055831,-0.00049273,0.000
 79889,-0.00169219,0.00046745,0.00060685,-0.02172637,-0.00234872,-0.024
 94145,-0.00000732,-0.00000032,0.00000133,-0.00000006,0.00000040,-0.000
 00206,0.00000024,0.00000345,0.00000089,0.00000008,0.00000005,0.0000007
 7,0.00000162,0.00000012,0.00000094,0.00000222,0.00000528,0.00000299,-0
 .00001595,0.00000303,-0.00001608,0.00002062,0.00001947,-0.00001117,-0.
 00012413,0.00014051,-0.00054047,0.00003919,-0.00001067,-0.00002629,0.0
 0009172,-0.00004427,0.00002159,-0.00535575,-0.04585660,-0.00904084,0.0
 0125776,0.00015826,-0.00052536,0.00789707,0.05155667,-0.00000303,-0.00
 000590,0.00000219,-0.00000293,0.00000740,-0.00000594,0.00004465,-0.000
 02662,0.00000030,-0.00013107,-0.00004101,0.00003706,0.00024231,0.00002
 182,-0.00004812,-0.00012316,0.00002743,0.00003268,-0.00012214,-0.00008
 121,0.00000352,0.00003911,0.00016491,0.00018630,0.00081670,-0.00049264
 ,-0.00055813,0.00013492,-0.00011526,-0.00017309,0.00002352,-0.00026396
 ,0.00001016,-0.00183150,-0.00057197,0.00108573,-0.00294428,-0.00117492
 ,-0.00312590,-0.00000836,-0.00000203,0.00000250,0.00000062,0.00000136,
 -0.00000169,0.00000133,0.00000286,-0.00000039,-0.00000111,-0.00000236,
 -0.00000012,0.00000153,-0.00000005,0.00000195,0.00000668,0.00000463,0.
 00000046,-0.00001285,0.00000409,-0.00001016,0.00001177,0.00001059,-0.0
 0000997,0.00008537,0.00003424,0.00002821,0.00003651,-0.00001372,0.0000
 0780,0.00001729,-0.00009867,-0.00000981,-0.13131036,-0.00783904,-0.199
 92318,0.00070611,0.00076053,-0.00017459,0.14563033,0.00877532,0.215376
 48,0.00000459,0.00001022,-0.00000337,0.00000685,-0.00000929,0.00001183
 ,-0.00006754,0.00004613,0.00000844,0.00021536,0.00004895,-0.00007279,-
 0.00046230,0.00027520,0.00015254,0.00017775,-0.00019397,-0.00009166,0.
 00055485,0.00000154,-0.00007660,-0.00016445,-0.00002512,-0.00000414,0.
 00036148,-0.00216964,-0.00068910,0.00030928,-0.00010027,-0.00007446,0.
 00013215,-0.00035330,-0.00004864,-0.00076025,-0.00172291,-0.00020398,0
 .00624673,-0.00485211,-0.00244499,0.00000915,0.00000070,-0.00000179,-0
 .00000014,-0.00000100,0.00000183,-0.00000043,-0.00000560,-0.00000101,0
 .00000067,-0.00000020,-0.00000165,-0.00000217,0.00000107,-0.00000165,-
 0.00000664,-0.00000621,-0.00000145,0.00002466,-0.00000739,0.00001926,-
 0.00001261,-0.00001327,0.00001127,0.00002596,-0.00029027,-0.00000372,0
 .00000883,0.00001800,0.00000423,-0.00000441,-0.00010073,-0.00004240,-0
 .23775429,0.11590527,0.05897976,0.00004253,0.00069690,0.00021579,-0.01
 589058,0.00925653,0.00651013,0.25701501,-0.00000003,-0.00000046,-0.000
 00134,-0.00000336,0.00000034,-0.00000057,-0.00000637,-0.00000317,-0.00
 001436,-0.00001767,0.00007799,0.00003233,0.00024165,-0.00068084,-0.000
 20729,0.00015310,0.00048253,0.00014458,-0.00046630,0.00019629,0.000132
 37,0.00011207,0.00013472,0.00004514,0.00235299,0.00126023,0.00011470,-
 0.00016900,0.00017976,0.00006579,0.00163955,-0.00036532,-0.00044007,-0
 .00364534,-0.00512492,-0.00111339,0.02754597,-0.01709479,-0.00826420,0
 .00000235,0.00000116,-0.00000095,0.00000010,-0.00000043,0.00000185,-0.
 00000155,0.00000109,0.00000051,0.00000267,0.00000415,0.00000084,-0.000
 00001,-0.00000153,0.00000060,-0.00001265,0.00000138,0.00000022,-0.0000
 0236,0.00000156,0.00000151,0.00001461,0.00000765,0.00000278,-0.0014393
 3,0.00008024,0.00007928,-0.00007774,0.00004799,0.00002604,-0.00015000,
 -0.00052097,-0.00008479,0.11151964,-0.11488940,-0.03404664,-0.00045756
 ,0.00047116,0.00012535,-0.00160989,0.00009242,0.00139465,-0.12220661,0
 .12733344,-0.00000003,-0.00000105,0.00000049,-0.00000395,0.00000171,0.
 00000109,0.00001968,-0.00001273,0.00001169,-0.00003591,0.00002292,0.00
 002168,0.00013737,-0.00024863,-0.00006234,-0.00000262,0.00020993,-0.00
 009048,-0.00022312,0.00007537,-0.00001874,0.00004469,0.00006561,-0.000
 07627,0.00052560,0.00075577,-0.00026129,-0.00009259,0.00006059,0.00003
 293,0.00047880,-0.00015278,0.00030401,-0.00071670,-0.00138450,0.000739
 05,0.00622855,-0.00344719,-0.00329626,0.00000015,0.00000132,-0.0000004
 5,-0.00000162,-0.00000096,-0.00000267,-0.00000035,0.00000038,0.0000023
 6,0.00000092,0.00000172,-0.00000046,0.00000169,0.00000204,-0.00000440,
 -0.00000205,-0.00000132,0.00000588,-0.00000983,-0.00000013,-0.00001355
 ,0.00000641,0.00000296,0.00000653,-0.00031556,-0.00007783,0.00054366,-
 0.00002293,0.00001126,0.00000271,-0.00005605,-0.00009345,-0.00013315,0
 .05780362,-0.03470322,-0.06738594,-0.00010094,-0.00003518,0.00025166,-
 0.02098079,0.01360678,0.00822245,-0.06392915,0.03961457,0.06708925,-0.
 00000302,-0.00000635,0.00000444,-0.00000649,0.00000789,-0.00000866,0.0
 0006445,-0.00003621,0.00000924,-0.00018050,-0.00004919,0.00004939,0.00
 034159,-0.00006252,-0.00007465,-0.00018451,0.00006787,-0.00004788,-0.0
 0037958,-0.00020774,0.00006686,-0.00007634,0.00024114,-0.00081037,-0.0
 0021296,-0.00161965,-0.00055216,0.00008035,0.00009507,0.00003776,-0.00
 010820,-0.00044397,-0.00007954,-0.00070987,0.00141496,0.00025089,-0.00
 442801,-0.00532459,0.00457466,-0.00000763,-0.00000041,0.00000148,-0.00
 000106,0.00000034,-0.00000437,0.00000103,0.00000271,0.00000136,-0.0000
 0075,-0.00000199,0.00000032,0.00000281,0.00000186,-0.00000213,0.000008
 72,0.00000388,0.00000346,-0.00002501,0.00000526,-0.00002540,0.00001000
 ,0.00000611,-0.00000008,0.00043425,-0.00030611,0.00060217,0.00002018,-
 0.00007643,0.00006975,0.00001092,-0.00001872,-0.00002655,-0.09339359,-
 0.04835039,0.09034180,0.00037589,0.00048674,-0.00018658,0.00929657,0.0
 1048187,-0.01781810,-0.01001006,-0.01331892,0.02124670,0.09908084,-0.0
 0000495,-0.00001016,0.00000525,-0.00000797,0.00001123,-0.00001193,0.00
 006973,-0.00004705,0.00000634,-0.00022238,-0.00001945,0.00004554,0.000
 44171,-0.00010899,-0.00010033,-0.00022726,0.00016573,0.00005603,-0.000
 21817,-0.00030399,0.00011638,-0.00071170,0.00059674,-0.00138669,0.0010
 7776,-0.00296867,-0.00075143,0.00035942,-0.00050000,0.00007845,-0.0006
 8747,-0.00021433,-0.00073508,-0.00264736,0.00055246,-0.00019299,-0.013
 65672,-0.01552191,0.02370792,-0.00001064,-0.00000124,0.00000246,-0.000
 00016,0.00000128,-0.00000329,0.00000090,0.00000457,0.00000057,-0.00000
 030,-0.00000163,0.00000104,0.00000253,0.00000016,0.00000039,0.00000734
 ,0.00000790,0.00000072,-0.00002540,0.00000755,-0.00002167,0.00003024,0
 .00000811,-0.00000095,0.00009307,-0.00012509,0.00050905,0.00005670,-0.
 00002626,0.00000136,0.00007641,-0.00006493,-0.00008004,-0.04920278,-0.
 10049800,0.09593161,0.00164501,0.00029153,0.00028315,0.00095756,0.0001
 2040,-0.00048047,0.00579740,0.00830774,-0.01427399,0.05700748,0.110336
 30,0.00000148,0.00000328,-0.00000178,0.00000142,-0.00000454,0.00000175
 ,-0.00003879,0.00001936,-0.00000700,0.00008899,0.00004652,-0.00002077,
 -0.00014207,-0.00006686,0.00000211,0.00008105,0.00003774,0.00002920,0.
 00014633,-0.00002366,0.00006431,-0.00040863,0.00000886,-0.00045644,-0.
 00038600,-0.00047041,-0.00028179,-0.00000753,-0.00011854,-0.00002228,-
 0.00037712,0.00028139,-0.00023300,0.00119714,-0.00000102,0.00064990,-0
 .00414426,-0.00406795,0.00913823,0.00000557,0.00000120,-0.00000183,0.0
 0000036,-0.00000066,0.00000330,-0.00000138,-0.00000127,-0.00000051,0.0
 0000131,0.00000251,0.00000060,-0.00000164,-0.00000139,0.00000144,-0.00
 000775,-0.00000208,-0.00000212,0.00001175,-0.00000305,0.00001258,-0.00
 000018,-0.00000601,0.00000614,-0.00018192,-0.00002991,0.00014295,-0.00
 001248,0.00001687,0.00000398,0.00002570,0.00007504,0.00001502,0.088801
 37,0.09427222,-0.21138668,-0.00012638,-0.00072431,-0.00012925,0.011320
 00,0.01107357,-0.02095668,0.00177746,0.00239051,-0.00588946,-0.0976238
 4,-0.10270741,0.22931812\\-0.00000324,0.00000098,0.00000325,0.00000563
 ,-0.00000004,-0.00000208,-0.00001395,0.00000333,-0.00000337,0.00000869
 ,0.00000398,0.00000326,-0.00001444,0.00000347,0.00000462,-0.00000067,-
 0.00000871,-0.00000028,0.00001116,-0.00000357,-0.00000876,-0.00000250,
 0.00001799,0.00000510,-0.00001568,-0.00001519,-0.00000134,0.00001990,-
 0.00000256,-0.00000619,-0.00001695,-0.00001525,-0.00000458,0.00000307,
 0.00002244,0.00000555,0.00001422,-0.00000957,-0.00000353,-0.00000012,-
 0.00000061,-0.00000031,0.00000041,0.00000182,-0.00000007,0.00000029,-0
 .00000167,0.00000229,-0.00000089,0.00000020,-0.00000110,0.00000088,-0.
 00000059,-0.00000095,0.00000205,0.00000024,0.00000235,0.00000266,0.000
 00032,0.00000201,0.00000113,0.00000075,-0.00000087,0.00000291,0.000001
 94,0.00000135,-0.00000390,0.00000122,-0.00000327,0.00000185,0.00000212
 ,-0.00000312,-0.00000120,0.00000047,0.00000437,-0.00000344,-0.00000219
 ,-0.00000117,0.00000157,-0.00000135,0.00000168,0.00000046,-0.00000083,
 0.00000313,0.00000010,0.00000086,0.00000203\\\@


 DO YOU KNOW THAT THE LETTERS IN "EPISCOPAL", WHEN
 REARRANGED, SPELL "PEPSI COLA"?
 Job cpu time:       0 days  2 hours  3 minutes 52.8 seconds.
 File lengths (MBytes):  RWF=    319 Int=      0 D2E=      0 Chk=      9 Scr=      1
 Normal termination of Gaussian 09 at Wed Oct 31 13:10:04 2018.
WARNING: pbs_rusage is deprecated and values produced may not be accurate


=============================================================================
                                     Resource usage:
                                       CPU time:              05:37:11
   JobId:    1873206.r-man2            Elapsed time:          01:25:05
   Project:             q95            Requested time:        30:00:00
   Service Units:      5.67 
                                       Max physical memory:      571MB
                                       Max virtual memory:      1137MB
                                       Requested memory:           0MB

                                       Number of cpus:               4

                                       Max jobfs disk use:       0.3GB
                                       Requested jobfs:         12.0GB
=============================================================================

