 Entering Gaussian System, Link 0=/apps/gaussian/g09e01/g09/g09
 AtFile(1): /home/507/hio507/Basis/6-31pGd.gbs
 Initial command:
 /apps/gaussian/g09e01/g09/l1.exe "/jobfs/local/5977521.r-man2/Gau-7611.inp" -scrdir="/jobfs/local/5977521.r-man2/"
 Entering Link 1 = /apps/gaussian/g09e01/g09/l1.exe PID=      7612.
  
 Copyright (c) 1988,1990,1992,1993,1995,1998,2003,2009,2015,
            Gaussian, Inc.  All Rights Reserved.
  
 This is part of the Gaussian(R) 09 program.  It is based on
 the Gaussian(R) 03 system (copyright 2003, Gaussian, Inc.),
 the Gaussian(R) 98 system (copyright 1998, Gaussian, Inc.),
 the Gaussian(R) 94 system (copyright 1995, Gaussian, Inc.),
 the Gaussian 92(TM) system (copyright 1992, Gaussian, Inc.),
 the Gaussian 90(TM) system (copyright 1990, Gaussian, Inc.),
 the Gaussian 88(TM) system (copyright 1988, Gaussian, Inc.),
 the Gaussian 86(TM) system (copyright 1986, Carnegie Mellon
 University), and the Gaussian 82(TM) system (copyright 1983,
 Carnegie Mellon University). Gaussian is a federally registered
 trademark of Gaussian, Inc.
  
 This software contains proprietary and confidential information,
 including trade secrets, belonging to Gaussian, Inc.
  
 This software is provided under written license and may be
 used, copied, transmitted, or stored only in accord with that
 written license.
  
 The following legend is applicable only to US Government
 contracts under FAR:
  
                    RESTRICTED RIGHTS LEGEND
  
 Use, reproduction and disclosure by the US Government is
 subject to restrictions as set forth in subparagraphs (a)
 and (c) of the Commercial Computer Software - Restricted
 Rights clause in FAR 52.227-19.
  
 Gaussian, Inc.
 340 Quinnipiac St., Bldg. 40, Wallingford CT 06492
  
  
 ---------------------------------------------------------------
 Warning -- This program may not be used in any manner that
 competes with the business of Gaussian, Inc. or will provide
 assistance to any competitor of Gaussian, Inc.  The licensee
 of this program is prohibited from giving any competitor of
 Gaussian, Inc. access to this program.  By using this program,
 the user acknowledges that Gaussian, Inc. is engaged in the
 business of creating and licensing software in the field of
 computational chemistry and represents and warrants to the
 licensee that it is not a competitor of Gaussian, Inc. and that
 it will not use this program in any manner prohibited above.
 ---------------------------------------------------------------
  

 Cite this work as:
 Gaussian 09, Revision E.01,
 M. J. Frisch, G. W. Trucks, H. B. Schlegel, G. E. Scuseria, 
 M. A. Robb, J. R. Cheeseman, G. Scalmani, V. Barone, B. Mennucci, 
 G. A. Petersson, H. Nakatsuji, M. Caricato, X. Li, H. P. Hratchian, 
 A. F. Izmaylov, J. Bloino, G. Zheng, J. L. Sonnenberg, M. Hada, 
 M. Ehara, K. Toyota, R. Fukuda, J. Hasegawa, M. Ishida, T. Nakajima, 
 Y. Honda, O. Kitao, H. Nakai, T. Vreven, J. A. Montgomery, Jr., 
 J. E. Peralta, F. Ogliaro, M. Bearpark, J. J. Heyd, E. Brothers, 
 K. N. Kudin, V. N. Staroverov, T. Keith, R. Kobayashi, J. Normand, 
 K. Raghavachari, A. Rendell, J. C. Burant, S. S. Iyengar, J. Tomasi, 
 M. Cossi, N. Rega, J. M. Millam, M. Klene, J. E. Knox, J. B. Cross, 
 V. Bakken, C. Adamo, J. Jaramillo, R. Gomperts, R. E. Stratmann, 
 O. Yazyev, A. J. Austin, R. Cammi, C. Pomelli, J. W. Ochterski, 
 R. L. Martin, K. Morokuma, V. G. Zakrzewski, G. A. Voth, 
 P. Salvador, J. J. Dannenberg, S. Dapprich, A. D. Daniels, 
 O. Farkas, J. B. Foresman, J. V. Ortiz, J. Cioslowski, 
 and D. J. Fox, Gaussian, Inc., Wallingford CT, 2013.
 
 ******************************************
 Gaussian 09:  ES64L-G09RevE.01 30-Nov-2015
                21-Feb-2019 
 ******************************************
 %chk=3Methyl4Chloro_EtO.M062X_6-31pGd_bsse.chk
 %mem=196608000
 %nproc=4
 Will use up to    4 processors via shared memory.
 ----------------------------------------------------------------------
 # M062X/Gen 6D SCF=Tight INT(grid=ultrafine) Counterpoise=2 maxdisk=67
 1088640
 ----------------------------------------------------------------------
 1/38=1,62=2/1;
 2/12=2,17=6,18=5,40=1/2;
 1/38=1,53=2,62=2,63=1/22;
 3/5=7,8=2,11=2,16=1,25=1,30=1,74=-55,75=-5/1,2,3;
 4//1;
 5/5=2,32=2,38=5/2;
 6/7=2,8=2,9=2,10=2,28=1/1;
 1/53=2,62=2,63=1/22;
 3/5=7,6=11,8=2,11=2,16=1,25=1,30=1,74=-55,75=-5,82=7/1,2,3;
 4//1;
 5/5=2,32=2,38=5/2;
 6/7=2,8=2,9=2,10=2,28=1/1;
 1/53=2,62=2,63=1/22(-4);
 99/5=1,9=1/99;
 -------------------------------------
 3Methyl4Chloro_EtO.M062X_6-31pGd_bsse
 -------------------------------------
 Symbolic Z-matrix:
 Charge = -1 Multiplicity = 1 in supermolecule
 Charge =  0 Multiplicity = 1 in fragment      1.
 Charge = -1 Multiplicity = 1 in fragment      2.
 C(Fragment=1)        -1.82189   2.19662   0.17942 
 C(Fragment=1)        -0.46416   1.58092  -0.15141 
 C(Fragment=1)         0.68487   2.50909   0.23012 
 N(Fragment=1)         1.9495    1.86665  -0.03955 
 C(Fragment=1)         3.09391   2.5961   -0.09681 
 O(Fragment=1)         3.11347   3.8296   -0.03661 
 N(Fragment=1)         4.2226    1.80789  -0.24215 
 C(Fragment=1)         5.53793   2.22747  -0.34876 
 C(Fragment=1)         5.95463   3.56932  -0.34261 
 C(Fragment=1)         6.51374   1.21826  -0.47463 
 C(Fragment=1)         7.85441   1.55015  -0.58916 
 C(Fragment=1)         8.24177   2.88723  -0.58092 
 C(Fragment=1)         7.30516   3.91307  -0.45825 
 H(Fragment=1)        -2.64376   1.53215  -0.10749 
 H(Fragment=1)        -1.9615    3.14987  -0.34492 
 H(Fragment=1)        -1.91196   2.39448   1.25416 
 H(Fragment=1)        -0.39603   1.36063  -1.22372 
 H(Fragment=1)        -0.33969   0.62235   0.36632 
 H(Fragment=1)         0.59977   2.78551   1.29483 
 H(Fragment=1)         0.63501   3.44406  -0.33999 
 H(Fragment=1)         1.98799   0.83415   0.03614 
 H(Fragment=1)         4.08514   0.77828  -0.26664 
 H(Fragment=1)         5.20816   4.34715  -0.24616 
 H(Fragment=1)         6.19405   0.17877  -0.4785 
 H(Fragment=1)         8.60568   0.77199  -0.68567 
 C(Fragment=1)         7.71978   5.36166  -0.44834 
 Cl(Fragment=1)        9.95566   3.27423  -0.72919 
 H(Fragment=1)         8.24202   5.63056  -1.37345 
 H(Fragment=1)         8.40685   5.57128   0.37922 
 H(Fragment=1)         6.84305   6.00549  -0.34398 
 O(Fragment=2)         1.8776   -0.94946   0.19192 
 O(Fragment=2)         4.07131  -0.98509  -0.2919 
 C(Fragment=2)         2.96732  -1.53492  -0.0345 
 C(Fragment=2)         2.93046  -3.07278   0.00734 
 C(Fragment=2)         4.27608  -3.74298  -0.24153 
 H(Fragment=2)         2.18729  -3.39524  -0.73277 
 H(Fragment=2)         2.52077  -3.35881   0.98398 
 H(Fragment=2)         4.67448  -3.45543  -1.21876 
 H(Fragment=2)         4.18943  -4.83618  -0.20518 
 H(Fragment=2)         5.00905  -3.42592   0.50613 
 
                          Input orientation:                          
 ---------------------------------------------------------------------
 Center     Atomic      Atomic             Coordinates (Angstroms)
 Number     Number       Type             X           Y           Z
 ---------------------------------------------------------------------
      1          6           0       -1.821887    2.196622    0.179418
      2          6           0       -0.464158    1.580918   -0.151405
      3          6           0        0.684871    2.509088    0.230117
      4          7           0        1.949504    1.866646   -0.039551
      5          6           0        3.093906    2.596102   -0.096813
      6          8           0        3.113467    3.829601   -0.036610
      7          7           0        4.222597    1.807888   -0.242151
      8          6           0        5.537930    2.227473   -0.348764
      9          6           0        5.954634    3.569323   -0.342612
     10          6           0        6.513743    1.218256   -0.474635
     11          6           0        7.854411    1.550150   -0.589159
     12          6           0        8.241766    2.887233   -0.580920
     13          6           0        7.305164    3.913067   -0.458246
     14          1           0       -2.643759    1.532146   -0.107487
     15          1           0       -1.961498    3.149872   -0.344916
     16          1           0       -1.911957    2.394477    1.254158
     17          1           0       -0.396033    1.360628   -1.223725
     18          1           0       -0.339688    0.622353    0.366323
     19          1           0        0.599775    2.785505    1.294832
     20          1           0        0.635012    3.444056   -0.339987
     21          1           0        1.987987    0.834153    0.036140
     22          1           0        4.085142    0.778282   -0.266636
     23          1           0        5.208162    4.347149   -0.246157
     24          1           0        6.194050    0.178774   -0.478497
     25          1           0        8.605681    0.771989   -0.685670
     26          6           0        7.719776    5.361657   -0.448336
     27         17           0        9.955659    3.274230   -0.729194
     28          1           0        8.242018    5.630558   -1.373449
     29          1           0        8.406851    5.571279    0.379220
     30          1           0        6.843047    6.005490   -0.343981
     31          8           0        1.877601   -0.949461    0.191915
     32          8           0        4.071309   -0.985088   -0.291900
     33          6           0        2.967322   -1.534918   -0.034498
     34          6           0        2.930462   -3.072780    0.007340
     35          6           0        4.276080   -3.742978   -0.241531
     36          1           0        2.187289   -3.395240   -0.732774
     37          1           0        2.520769   -3.358813    0.983985
     38          1           0        4.674483   -3.455427   -1.218763
     39          1           0        4.189426   -4.836183   -0.205176
     40          1           0        5.009052   -3.425917    0.506134
 ---------------------------------------------------------------------
                    Distance matrix (angstroms):
                    1          2          3          4          5
     1  C    0.000000
     2  C    1.527076   0.000000
     3  C    2.526666   1.525558   0.000000
     4  N    3.792126   2.433088   1.443866   0.000000
     5  C    4.939728   3.700459   2.432675   1.358323   0.000000
     6  O    5.202980   4.227192   2.777225   2.282106   1.235123
     7  N    6.071624   4.693125   3.637338   2.282860   1.384322
     8  C    7.378809   6.040037   4.895568   3.619752   2.484475
     9  C    7.913981   6.722440   5.405786   4.362570   3.031722
    10  C    8.418296   6.994791   6.011545   4.630549   3.706277
    11  C    9.728277   8.330136   7.279635   5.938869   4.898860
    12  C   10.115936   8.813856   7.609694   6.397440   5.178762
    13  C    9.308913   8.117601   6.802447   5.748586   4.427158
    14  H    1.095134   2.180589   3.485423   4.605928   5.835488
    15  H    1.096861   2.177405   2.782901   4.127452   5.091692
    16  H    1.096506   2.175686   2.793799   4.106479   5.188877
    17  H    2.168122   1.096831   2.144987   2.675793   3.869884
    18  H    2.170292   1.096532   2.151289   2.636931   3.987450
    19  H    2.730453   2.162079   1.103298   2.108708   2.862384
    20  H    2.803966   2.171410   1.096207   2.075180   2.612340
    21  H    4.048701   2.570184   2.130996   1.035979   2.084513
    22  H    6.091275   4.620999   3.847635   2.407707   2.077464
    23  H    7.363930   6.311595   4.905657   4.100541   2.749282
    24  H    8.292153   6.812102   6.023583   4.588873   3.949689
    25  H   10.559930   9.121501   8.160601   6.776462   5.835563
    26  C   10.072480   9.019919   7.621505   6.758568   5.400976
    27  Cl  11.861593  10.572309   9.351643   8.158150   6.924118
    28  H   10.746418   9.679384   8.332195   7.452654   6.110710
    29  H   10.772897   9.741630   8.308323   7.456340   6.107837
    30  H    9.479583   8.544540   7.104755   6.416343   5.073566
    31  O    4.856357   3.464754   3.658636   2.826518   3.759491
    32  O    6.713805   5.212925   4.893846   3.563443   3.717296
    33  C    6.075086   4.636503   4.651192   3.550580   4.133429
    34  C    7.097959   5.762426   6.020760   5.036111   5.672194
    35  C    8.522983   7.128945   7.225480   6.076318   6.449993
    36  H    6.940785   5.668360   6.168104   5.312678   6.092830
    37  H    7.097101   5.882163   6.194440   5.355314   6.079277
    38  H    8.723725   7.273902   7.320635   6.094302   6.354368
    39  H    9.259812   7.927037   8.150115   7.069130   7.513372
    40  H    8.853327   7.446931   7.348401   6.137575   6.347916
                    6          7          8          9         10
     6  O    0.000000
     7  N    2.315111   0.000000
     8  C    2.922717   1.384744   0.000000
     9  C    2.869427   2.472386   1.405077   0.000000
    10  C    4.309625   2.377196   1.409458   2.420237   0.000000
    11  C    5.289401   3.657447   2.425416   2.783343   1.385879
    12  C    5.242498   4.175340   2.792832   2.398543   2.404754
    13  C    4.213677   3.739076   2.444654   1.398379   2.808668
    14  H    6.199111   6.873211   8.214727   8.839555   9.170233
    15  H    5.129557   6.328864   7.555942   7.927237   8.693542
    16  H    5.383358   6.341592   7.622209   8.112533   8.681281
    17  H    4.452153   4.742919   6.060437   6.781273   6.951720
    18  H    4.730019   4.752914   6.134669   6.986109   6.930500
    19  H    3.030103   4.054984   5.234328   5.654212   6.368854
    20  H    2.526543   3.944285   5.051609   5.321097   6.287431
    21  H    3.200735   2.453383   3.832960   4.833104   4.570656
    22  H    3.210547   1.039030   2.053654   3.360161   2.476882
    23  H    2.167837   2.723821   2.147627   1.082376   3.398045
    24  H    4.797270   2.568365   2.155108   3.401706   1.087539
    25  H    6.319390   4.525618   3.412189   3.869214   2.149394
    26  C    4.871837   4.990195   3.820141   2.517810   4.315435
    27  Cl   6.899543   5.937622   4.555958   4.030474   4.017289
    28  H    5.597555   5.661129   4.465766   3.247067   4.823195
    29  H    5.588047   5.661907   4.465614   3.246882   4.823042
    30  H    4.328826   4.949443   3.997095   2.593104   4.800324
    31  O    4.941560   3.645599   4.876807   6.109608   5.161114
    32  O    4.915675   2.797513   3.531962   4.928705   3.294480
    33  C    5.366510   3.576757   4.567535   5.922182   4.511185
    34  C    6.904947   5.054976   5.917633   7.306546   5.611167
    35  C    7.664047   5.551124   6.103282   7.503166   5.447506
    36  H    7.317157   5.608542   6.556612   7.927815   6.330023
    37  H    7.284655   5.576238   6.487377   7.845403   6.246677
    38  H    7.543599   5.372193   5.813586   7.193993   5.077393
    39  H    8.733952   6.644257   7.192657   8.589957   6.490862
    40  H    7.518667   5.345199   5.742071   7.109703   4.979392
                   11         12         13         14         15
    11  C    0.000000
    12  C    1.392086   0.000000
    13  C    2.429441   1.394491   0.000000
    14  H   10.509230  10.979757  10.235863   0.000000
    15  H    9.948409  10.209372   9.298728   1.771692   0.000000
    16  H    9.974600  10.329976   9.497040   1.770092   1.769214
    17  H    8.276982   8.795186   8.149193   2.515488   2.534636
    18  H    8.301628   8.925711   8.363760   2.522095   3.086177
    19  H    7.596399   7.869487   7.021889   3.749389   3.062949
    20  H    7.467843   7.630911   6.687667   3.802604   2.613127
    21  H    5.942944   6.611025   6.164130   4.686245   4.594147
    22  H    3.860984   4.671614   4.498015   6.772869   6.495569
    23  H    3.865681   3.383219   2.151936   8.342431   7.269612
    24  H    2.156320   3.396966   3.896142   8.948527   8.680912
    25  H    1.085935   2.148875   3.407262  11.289909  10.836776
    26  C    3.816483   2.532356   1.506790  11.053696   9.931252
    27  Cl   2.721636   1.763287   2.739826  12.734469  11.923999
    28  H    4.173138   2.855509   2.159877  11.700419  10.550992
    29  H    4.172820   2.855385   2.159799  11.775715  10.671937
    30  H    4.575262   3.425796   2.145890  10.491245   9.256055
    31  O    6.525365   7.471284   7.316100   5.166306   5.641933
    32  O    4.563732   5.698343   5.871746   7.173745   7.314060
    33  C    5.805940   6.904619   6.976889   6.395033   6.807121
    34  C    6.780307   8.004858   8.255716   7.231215   7.923179
    35  C    6.398633   7.733146   8.236343   8.702246   9.296745
    36  H    7.522884   8.726353   8.926330   6.928863   7.758954
    37  H    7.417576   8.613467   8.823304   7.196189   8.013718
    38  H    5.963568   7.304908   7.860888   8.925665   9.403714
    39  H    7.373250   8.730052   9.290922   9.341176  10.081194
    40  H    5.835836   7.175513   7.750022   9.139170   9.620492
                   16         17         18         19         20
    16  H    0.000000
    17  H    3.083306   0.000000
    18  H    2.529961   1.753989   0.000000
    19  H    2.542312   3.060235   2.534551   0.000000
    20  H    3.182761   2.486910   3.067723   1.762828   0.000000
    21  H    4.373527   2.747360   2.360498   2.705405   2.963714
    22  H    6.394536   4.619099   4.472591   4.314500   4.360633
    23  H    7.533921   6.425104   6.710282   5.103980   4.662412
    24  H    8.580139   6.736568   6.603047   6.421500   6.448578
    25  H   10.817398   9.036972   9.008258   8.489474   8.413739
    26  C   10.221200   9.081620   9.385076   7.769789   7.340491
    27  Cl  12.064326  10.538689  10.687693   9.584785   9.330315
    28  H   10.976327   9.636942  10.087349   8.580090   7.982191
    29  H   10.832146   9.888872  10.049577   8.339624   8.089735
    30  H    9.604351   8.645980   9.004131   7.213353   6.715702
    31  O    5.164401   3.536942   2.723488   4.098688   4.596731
    32  O    7.043524   5.131065   4.740677   5.365319   5.606047
    33  C    6.395948   4.594628   3.968727   5.102790   5.506648
    34  C    7.409081   5.677693   4.947399   6.435002   6.918011
    35  C    8.842921   6.988573   6.382078   7.648316   8.057328
    36  H    7.366990   5.434415   4.871825   6.695745   7.024231
    37  H    7.267902   5.971167   4.940992   6.445114   7.182479
    38  H    9.149749   6.993178   6.654525   7.865790   8.043161
    39  H    9.572824   7.775882   7.115834   8.557204   9.011902
    40  H    9.073968   7.424174   6.709475   7.658037   8.188081
                   21         22         23         24         25
    21  H    0.000000
    22  H    2.119635   0.000000
    23  H    4.773925   3.741445   0.000000
    24  H    4.287813   2.202678   4.289674   0.000000
    25  H    6.657233   4.539923   4.951573   2.492145   0.000000
    26  C    7.320274   5.852428   2.716304   5.402872   4.680407
    27  Cl   8.368005   6.395833   4.891135   4.877949   2.843509
    28  H    8.006581   6.484539   3.481696   5.892118   4.920466
    29  H    7.984979   6.485917   3.481551   5.891627   4.920031
    30  H    7.103437   5.910645   2.330775   5.864291   5.532916
    31  O    1.793803   2.840528   6.272051   4.511552   7.000043
    32  O    2.785225   1.763605   5.452273   2.428049   4.878822
    33  C    2.564486   2.579594   6.298006   3.680442   6.126740
    34  C    4.019107   4.029768   7.765792   4.632456   6.889893
    35  C    5.124706   4.525360   8.143645   4.372060   6.271175
    36  H    4.303338   4.608407   8.325087   5.375163   7.652698
    37  H    4.331654   4.596397   8.253313   5.305315   7.541712
    38  H    5.214647   4.379287   7.881051   4.008054   5.797375
    39  H    6.087469   5.615769   9.239756   5.407681   7.154424
    40  H    5.243656   4.373336   7.811923   3.920142   5.654958
                   26         27         28         29         30
    26  C    0.000000
    27  Cl   3.071711   0.000000
    28  H    1.095846   2.983942   0.000000
    29  H    1.095838   2.983927   1.761400   0.000000
    30  H    1.092733   4.158909   1.776935   1.776807   0.000000
    31  O    8.623870   9.162042   9.287239   9.229639   8.562369
    32  O    7.322360   7.277265   7.895019   7.888807   7.520200
    33  C    8.385692   8.511601   8.997736   8.958665   8.483795
    34  C    9.710041   9.496336  10.289184  10.239575   9.891751
    35  C    9.736334   9.040831  10.240756  10.208035  10.081292
    36  H   10.362074  10.238624  10.887390  10.968954  10.497665
    37  H   10.253185  10.109887  10.913247  10.712527  10.398833
    38  H    9.359933   8.568475   9.762497   9.897754   9.745607
    39  H   10.794371   9.965081  11.284548  11.244708  11.162564
    40  H    9.245566   8.419437   9.798196   9.618247   9.645603
                   31         32         33         34         35
    31  O    0.000000
    32  O    2.246709   0.000000
    33  C    1.257583   1.259904   0.000000
    34  C    2.377198   2.397819   1.538872   0.000000
    35  C    3.707333   2.765941   2.575119   1.523742   0.000000
    36  H    2.633020   3.090751   2.134675   1.097295   2.173774
    37  H    2.616489   3.109120   2.136190   1.097040   2.174992
    38  H    4.011537   2.706560   2.829352   2.165954   1.093798
    39  H    4.539694   3.853882   3.524346   2.177094   1.097236
    40  H    4.004691   2.733837   2.834928   2.166572   1.093973
                   36         37         38         39         40
    36  H    0.000000
    37  H    1.749228   0.000000
    38  H    2.534945   3.082193   0.000000
    39  H    2.522544   2.526092   1.780204   0.000000
    40  H    3.081912   2.534639   1.757292   1.779494   0.000000
 Stoichiometry    C14H20ClN2O3(1-)
 Framework group  C1[X(C14H20ClN2O3)]
 Deg. of freedom   114
 Full point group                 C1      NOp   1
 Largest Abelian subgroup         C1      NOp   1
 Largest concise Abelian subgroup C1      NOp   1
                         Standard orientation:                         
 ---------------------------------------------------------------------
 Center     Atomic      Atomic             Coordinates (Angstroms)
 Number     Number       Type             X           Y           Z
 ---------------------------------------------------------------------
      1          6           0        5.560832   -3.058126   -0.089028
      2          6           0        4.528289   -1.955201   -0.311223
      3          6           0        3.141567   -2.375384    0.166034
      4          7           0        2.209562   -1.285618   -0.002866
      5          6           0        0.870856   -1.512347    0.035858
      6          8           0        0.377986   -2.642905    0.102543
      7          7           0        0.129824   -0.344437   -0.020746
      8          6           0       -1.249136   -0.218020   -0.018631
      9          6           0       -2.152901   -1.292908    0.026828
     10          6           0       -1.762400    1.093689   -0.069140
     11          6           0       -3.131139    1.310943   -0.073218
     12          6           0       -4.005943    0.229008   -0.028078
     13          6           0       -3.535386   -1.082718    0.022493
     14          1           0        6.551877   -2.756658   -0.444365
     15          1           0        5.278453   -3.975995   -0.619013
     16          1           0        5.648624   -3.305141    0.975680
     17          1           0        4.469553   -1.696092   -1.375390
     18          1           0        4.826133   -1.038124    0.210929
     19          1           0        3.193487   -2.692575    1.221477
     20          1           0        2.780393   -3.240336   -0.402369
     21          1           0        2.581368   -0.321517    0.071430
     22          1           0        0.654409    0.551560   -0.060548
     23          1           0       -1.762509   -2.301682    0.065657
     24          1           0       -1.065076    1.927547   -0.103202
     25          1           0       -3.525810    2.321886   -0.111715
     26          6           0       -4.478436   -2.256866    0.071969
     27         17           0       -5.741366    0.541152   -0.035307
     28          1           0       -5.133069   -2.276459   -0.806638
     29          1           0       -5.127642   -2.206518    0.953364
     30          1           0       -3.915753   -3.192914    0.107557
     31          8           0        3.387960    1.274677    0.210373
     32          8           0        1.350664    2.171560   -0.094134
     33          6           0        2.597706    2.242917    0.070640
     34          6           0        3.232562    3.644359    0.102999
     35          6           0        2.238575    4.790524   -0.038721
     36          1           0        3.983813    3.673796   -0.696258
     37          1           0        3.794445    3.721950    1.042022
     38          1           0        1.686423    4.707172   -0.979239
     39          1           0        2.745880    5.763128   -0.014027
     40          1           0        1.499366    4.761896    0.767212
 ---------------------------------------------------------------------
 Rotational constants (GHZ):      0.3774253      0.1415655      0.1034992
 Counterpoise: doing full dimer calculation.
 General basis read from cards:  (6D, 7F)
 There are   424 symmetry adapted cartesian basis functions of A   symmetry.
 There are   424 symmetry adapted basis functions of A   symmetry.
   424 basis functions,   744 primitive gaussians,   424 cartesian basis functions
    80 alpha electrons       80 beta electrons
       nuclear repulsion energy      1632.6910361345 Hartrees.
 NAtoms=   40 NActive=   40 NUniq=   40 SFac= 1.00D+00 NAtFMM=   60 NAOKFM=F Big=F
 Integral buffers will be    131072 words long.
 Raffenetti 2 integral format.
 Two-electron integral symmetry is turned on.
 One-electron integrals computed using PRISM.
 NBasis=   424 RedAO= T EigKep=  1.05D-06  NBF=   424
 NBsUse=   423 1.00D-06 EigRej=  4.34D-07 NBFU=   423
 ExpMin= 4.38D-02 ExpMax= 2.52D+04 ExpMxC= 3.78D+03 IAcc=3 IRadAn=         5 AccDes= 0.00D+00
 Harris functional with IExCor= 1009 and IRadAn=       5 diagonalized for initial guess.
 HarFok:  IExCor= 1009 AccDes= 0.00D+00 IRadAn=         5 IDoV= 1 UseB2=F ITyADJ=14
 ICtDFT=  3500011 ScaDFX=  1.000000  1.000000  1.000000  1.000000
 FoFCou: FMM=F IPFlag=           0 FMFlag=      100000 FMFlg1=           0
         NFxFlg=           0 DoJE=T BraDBF=F KetDBF=T FulRan=T
         wScrn=  0.000000 ICntrl=     500 IOpCl=  0 I1Cent=   200000004 NGrid=           0
         NMat0=    1 NMatS0=      1 NMatT0=    0 NMatD0=    1 NMtDS0=    0 NMtDT0=    0
 Petite list used in FoFCou.
 Requested convergence on RMS density matrix=1.00D-08 within 128 cycles.
 Requested convergence on MAX density matrix=1.00D-06.
 Requested convergence on             energy=1.00D-06.
 No special actions if energy rises.
 SCF Done:  E(RM062X) =  -1340.67960275     A.U. after   15 cycles
            NFock= 15  Conv=0.92D-08     -V/T= 2.0066

 **********************************************************************

            Population analysis using the SCF density.

 **********************************************************************

 Orbital symmetries:
       Occupied  (A) (A) (A) (A) (A) (A) (A) (A) (A) (A) (A) (A)
                 (A) (A) (A) (A) (A) (A) (A) (A) (A) (A) (A) (A)
                 (A) (A) (A) (A) (A) (A) (A) (A) (A) (A) (A) (A)
                 (A) (A) (A) (A) (A) (A) (A) (A) (A) (A) (A) (A)
                 (A) (A) (A) (A) (A) (A) (A) (A) (A) (A) (A) (A)
                 (A) (A) (A) (A) (A) (A) (A) (A) (A) (A) (A) (A)
                 (A) (A) (A) (A) (A) (A) (A) (A)
       Virtual   (A) (A) (A) (A) (A) (A) (A) (A) (A) (A) (A) (A)
                 (A) (A) (A) (A) (A) (A) (A) (A) (A) (A) (A) (A)
                 (A) (A) (A) (A) (A) (A) (A) (A) (A) (A) (A) (A)
                 (A) (A) (A) (A) (A) (A) (A) (A) (A) (A) (A) (A)
                 (A) (A) (A) (A) (A) (A) (A) (A) (A) (A) (A) (A)
                 (A) (A) (A) (A) (A) (A) (A) (A) (A) (A) (A) (A)
                 (A) (A) (A) (A) (A) (A) (A) (A) (A) (A) (A) (A)
                 (A) (A) (A) (A) (A) (A) (A) (A) (A) (A) (A) (A)
                 (A) (A) (A) (A) (A) (A) (A) (A) (A) (A) (A) (A)
                 (A) (A) (A) (A) (A) (A) (A) (A) (A) (A) (A) (A)
                 (A) (A) (A) (A) (A) (A) (A) (A) (A) (A) (A) (A)
                 (A) (A) (A) (A) (A) (A) (A) (A) (A) (A) (A) (A)
                 (A) (A) (A) (A) (A) (A) (A) (A) (A) (A) (A) (A)
                 (A) (A) (A) (A) (A) (A) (A) (A) (A) (A) (A) (A)
                 (A) (A) (A) (A) (A) (A) (A) (A) (A) (A) (A) (A)
                 (A) (A) (A) (A) (A) (A) (A) (A) (A) (A) (A) (A)
                 (A) (A) (A) (A) (A) (A) (A) (A) (A) (A) (A) (A)
                 (A) (A) (A) (A) (A) (A) (A) (A) (A) (A) (A) (A)
                 (A) (A) (A) (A) (A) (A) (A) (A) (A) (A) (A) (A)
                 (A) (A) (A) (A) (A) (A) (A) (A) (A) (A) (A) (A)
                 (A) (A) (A) (A) (A) (A) (A) (A) (A) (A) (A) (A)
                 (A) (A) (A) (A) (A) (A) (A) (A) (A) (A) (A) (A)
                 (A) (A) (A) (A) (A) (A) (A) (A) (A) (A) (A) (A)
                 (A) (A) (A) (A) (A) (A) (A) (A) (A) (A) (A) (A)
                 (A) (A) (A) (A) (A) (A) (A) (A) (A) (A) (A) (A)
                 (A) (A) (A) (A) (A) (A) (A) (A) (A) (A) (A) (A)
                 (A) (A) (A) (A) (A) (A) (A) (A) (A) (A) (A) (A)
                 (A) (A) (A) (A) (A) (A) (A) (A) (A) (A) (A) (A)
                 (A) (A) (A) (A) (A) (A) (A)
 The electronic state is 1-A.
 Alpha  occ. eigenvalues -- -102.57455 -19.48167 -19.46491 -19.46003 -14.65586
 Alpha  occ. eigenvalues --  -14.63993 -10.55125 -10.51189 -10.50175 -10.48951
 Alpha  occ. eigenvalues --  -10.46867 -10.46456 -10.45935 -10.45575 -10.45001
 Alpha  occ. eigenvalues --  -10.44226 -10.44068 -10.43872 -10.42605 -10.42505
 Alpha  occ. eigenvalues --   -9.72105  -7.44482  -7.43867  -7.43862  -1.04219
 Alpha  occ. eigenvalues --   -1.02572  -0.93037  -0.92480  -0.89871  -0.88502
 Alpha  occ. eigenvalues --   -0.82140  -0.77922  -0.77158  -0.74587  -0.71798
 Alpha  occ. eigenvalues --   -0.68445  -0.66420  -0.60922  -0.60124  -0.58043
 Alpha  occ. eigenvalues --   -0.56408  -0.53898  -0.50244  -0.48402  -0.46085
 Alpha  occ. eigenvalues --   -0.44675  -0.44196  -0.43107  -0.42023  -0.41092
 Alpha  occ. eigenvalues --   -0.40631  -0.40146  -0.39739  -0.39505  -0.38726
 Alpha  occ. eigenvalues --   -0.37178  -0.36964  -0.36287  -0.35994  -0.35089
 Alpha  occ. eigenvalues --   -0.34150  -0.33586  -0.33300  -0.32731  -0.31899
 Alpha  occ. eigenvalues --   -0.31038  -0.30919  -0.30508  -0.29777  -0.29004
 Alpha  occ. eigenvalues --   -0.28381  -0.27806  -0.24345  -0.21763  -0.20065
 Alpha  occ. eigenvalues --   -0.19328  -0.18770  -0.18616  -0.18194  -0.14067
 Alpha virt. eigenvalues --    0.09553   0.10470   0.10975   0.11554   0.12166
 Alpha virt. eigenvalues --    0.12258   0.12786   0.12863   0.13270   0.13518
 Alpha virt. eigenvalues --    0.14268   0.14515   0.14812   0.15334   0.15511
 Alpha virt. eigenvalues --    0.15988   0.16428   0.16511   0.17203   0.17274
 Alpha virt. eigenvalues --    0.17567   0.18205   0.18668   0.18825   0.19122
 Alpha virt. eigenvalues --    0.19820   0.20406   0.20511   0.20932   0.21172
 Alpha virt. eigenvalues --    0.21443   0.21967   0.22308   0.22646   0.22860
 Alpha virt. eigenvalues --    0.23113   0.23646   0.24119   0.24877   0.25176
 Alpha virt. eigenvalues --    0.25625   0.26126   0.26409   0.27106   0.27971
 Alpha virt. eigenvalues --    0.28340   0.28521   0.29218   0.29588   0.30246
 Alpha virt. eigenvalues --    0.30350   0.31277   0.31458   0.32178   0.32349
 Alpha virt. eigenvalues --    0.32600   0.32803   0.33044   0.33736   0.33977
 Alpha virt. eigenvalues --    0.34335   0.34689   0.34908   0.35075   0.35386
 Alpha virt. eigenvalues --    0.35808   0.35987   0.36432   0.36873   0.37356
 Alpha virt. eigenvalues --    0.38026   0.38078   0.38951   0.39248   0.39563
 Alpha virt. eigenvalues --    0.39965   0.40337   0.40504   0.40763   0.41141
 Alpha virt. eigenvalues --    0.41640   0.41889   0.42176   0.42536   0.42766
 Alpha virt. eigenvalues --    0.43435   0.43585   0.44156   0.44870   0.45026
 Alpha virt. eigenvalues --    0.45582   0.45964   0.46584   0.46927   0.47293
 Alpha virt. eigenvalues --    0.47988   0.48197   0.48528   0.49465   0.49834
 Alpha virt. eigenvalues --    0.50238   0.50644   0.51413   0.51772   0.52243
 Alpha virt. eigenvalues --    0.54335   0.55320   0.56367   0.56893   0.57541
 Alpha virt. eigenvalues --    0.57696   0.59058   0.60755   0.61697   0.63789
 Alpha virt. eigenvalues --    0.64197   0.65180   0.66299   0.69063   0.69784
 Alpha virt. eigenvalues --    0.71333   0.72235   0.73641   0.74181   0.77055
 Alpha virt. eigenvalues --    0.79483   0.80189   0.80848   0.81063   0.81510
 Alpha virt. eigenvalues --    0.82767   0.82964   0.83869   0.85064   0.85917
 Alpha virt. eigenvalues --    0.86706   0.87026   0.87411   0.87955   0.88240
 Alpha virt. eigenvalues --    0.88643   0.89709   0.90206   0.90782   0.91281
 Alpha virt. eigenvalues --    0.92523   0.93395   0.93772   0.95110   0.95714
 Alpha virt. eigenvalues --    0.97374   0.98157   0.98379   0.98853   0.99054
 Alpha virt. eigenvalues --    1.00121   1.01980   1.03219   1.03351   1.05127
 Alpha virt. eigenvalues --    1.05645   1.07678   1.08464   1.08749   1.09648
 Alpha virt. eigenvalues --    1.10632   1.10827   1.11522   1.13036   1.14185
 Alpha virt. eigenvalues --    1.14870   1.16044   1.16211   1.17243   1.18458
 Alpha virt. eigenvalues --    1.18793   1.19382   1.19498   1.20794   1.21278
 Alpha virt. eigenvalues --    1.22356   1.24103   1.25179   1.26903   1.27633
 Alpha virt. eigenvalues --    1.27646   1.28656   1.29367   1.30274   1.30889
 Alpha virt. eigenvalues --    1.31857   1.32784   1.34172   1.35206   1.36028
 Alpha virt. eigenvalues --    1.38473   1.39640   1.40881   1.42284   1.44054
 Alpha virt. eigenvalues --    1.44719   1.45969   1.47457   1.48220   1.49586
 Alpha virt. eigenvalues --    1.50305   1.51519   1.52256   1.52552   1.53492
 Alpha virt. eigenvalues --    1.54382   1.54611   1.54902   1.55759   1.56696
 Alpha virt. eigenvalues --    1.57577   1.59490   1.59770   1.61545   1.61805
 Alpha virt. eigenvalues --    1.62438   1.64185   1.66129   1.66944   1.67771
 Alpha virt. eigenvalues --    1.69394   1.69805   1.70947   1.71877   1.73451
 Alpha virt. eigenvalues --    1.74247   1.75886   1.79186   1.80148   1.85472
 Alpha virt. eigenvalues --    1.89297   1.91877   1.93010   1.95977   1.98283
 Alpha virt. eigenvalues --    1.99133   1.99967   2.00220   2.01548   2.01693
 Alpha virt. eigenvalues --    2.03828   2.04072   2.04346   2.05224   2.05697
 Alpha virt. eigenvalues --    2.07661   2.08248   2.08788   2.09188   2.09554
 Alpha virt. eigenvalues --    2.12171   2.13549   2.14393   2.15023   2.15721
 Alpha virt. eigenvalues --    2.17222   2.18549   2.19420   2.21249   2.22180
 Alpha virt. eigenvalues --    2.23408   2.23659   2.25552   2.26781   2.28599
 Alpha virt. eigenvalues --    2.29656   2.30718   2.32443   2.32891   2.35743
 Alpha virt. eigenvalues --    2.36087   2.38913   2.39960   2.40715   2.43036
 Alpha virt. eigenvalues --    2.43674   2.46200   2.47527   2.47997   2.49813
 Alpha virt. eigenvalues --    2.49849   2.50390   2.51232   2.52554   2.54529
 Alpha virt. eigenvalues --    2.55524   2.57960   2.60288   2.61780   2.66118
 Alpha virt. eigenvalues --    2.66903   2.68421   2.72380   2.73428   2.76044
 Alpha virt. eigenvalues --    2.76930   2.78812   2.81523   2.84088   2.85265
 Alpha virt. eigenvalues --    2.89917   2.90654   2.92441   2.93630   2.94226
 Alpha virt. eigenvalues --    2.96061   3.00087   3.06330   3.07315   3.14048
 Alpha virt. eigenvalues --    3.18427   3.24189   3.26784   3.28744   3.36079
 Alpha virt. eigenvalues --    3.41455   3.49118   3.55111   4.35183   4.36914
 Alpha virt. eigenvalues --    4.37655   4.42106   4.43355   4.49312   4.53000
 Alpha virt. eigenvalues --    4.54088   4.55993   4.56346   4.58042   4.60856
 Alpha virt. eigenvalues --    4.61731   4.65370   4.70363   4.74633   4.79722
 Alpha virt. eigenvalues --    4.88108   4.88578   4.99265
          Condensed to atoms (all electrons):
               1          2          3          4          5          6
     1  C    5.845810  -0.248515   0.095101  -0.022240  -0.076408  -0.002478
     2  C   -0.248515   6.423526  -0.417351  -0.034571   0.109248   0.008845
     3  C    0.095101  -0.417351   7.180355   0.397665  -0.780737  -0.099364
     4  N   -0.022240  -0.034571   0.397665   7.826502   0.440634  -0.183519
     5  C   -0.076408   0.109248  -0.780737   0.440634   7.434542   0.712939
     6  O   -0.002478   0.008845  -0.099364  -0.183519   0.712939   8.359114
     7  N   -0.002139   0.010304  -0.213971  -0.390387   0.067581  -0.053736
     8  C   -0.005040  -0.000545  -0.405452  -0.202463  -0.552132  -0.665120
     9  C   -0.005247  -0.008414  -0.120008   0.020127   0.380864   0.613267
    10  C   -0.001336   0.003984  -0.159412  -0.146953  -1.870991  -0.197465
    11  C    0.000117  -0.000313   0.071544   0.009462   1.238945  -0.007999
    12  C   -0.000038   0.000620  -0.018141  -0.012112  -0.298317  -0.018041
    13  C   -0.000782  -0.002102  -0.108412  -0.011640  -1.262203   0.146596
    14  H    0.444023  -0.119277   0.030155   0.000396  -0.001885   0.000000
    15  H    0.449293  -0.073373  -0.022041   0.000576  -0.006616  -0.000064
    16  H    0.396485  -0.058854   0.004212  -0.000146   0.004913   0.000001
    17  H   -0.064518   0.429018  -0.066060   0.001722   0.010471  -0.000155
    18  H   -0.028261   0.443295  -0.086500   0.008687  -0.010534  -0.000098
    19  H   -0.018141  -0.088731   0.369400  -0.077842   0.080428   0.002980
    20  H    0.006929  -0.036640   0.546965  -0.041740  -0.124519  -0.001314
    21  H    0.002434  -0.004967  -0.020216   0.147065  -0.000042   0.003378
    22  H   -0.000024  -0.000556   0.004005   0.011676  -0.019492   0.003747
    23  H    0.000016  -0.000083   0.003750   0.001198   0.044510  -0.010042
    24  H   -0.000002   0.000029  -0.000205   0.000564   0.005383   0.000107
    25  H    0.000000  -0.000000   0.000019   0.000014   0.002137  -0.000001
    26  C   -0.000116  -0.000232  -0.011669  -0.000204  -0.165892   0.010015
    27  Cl  -0.000001   0.000002  -0.000262   0.000159  -0.009942   0.000077
    28  H    0.000000  -0.000000   0.000010   0.000002   0.001373  -0.000010
    29  H    0.000000  -0.000000   0.000014   0.000001   0.001658  -0.000016
    30  H   -0.000000   0.000000  -0.000125  -0.000019  -0.006178  -0.000262
    31  O    0.003420  -0.016982   0.008709  -0.038221  -0.001095  -0.000101
    32  O   -0.000475  -0.003634   0.006271   0.009194   0.009321   0.000156
    33  C   -0.004054  -0.000624  -0.004911  -0.009721  -0.036520  -0.002017
    34  C    0.005160  -0.001581   0.033184  -0.028469  -0.023845  -0.001310
    35  C   -0.000579  -0.000613  -0.003953   0.004263   0.000731   0.000066
    36  H    0.000090   0.000404  -0.000170  -0.000261  -0.000135  -0.000000
    37  H    0.000004  -0.000156   0.000378  -0.000128  -0.000356  -0.000000
    38  H    0.000000  -0.000000   0.000006  -0.000000  -0.000109  -0.000000
    39  H   -0.000000   0.000001  -0.000008  -0.000006   0.000011   0.000000
    40  H    0.000001   0.000019  -0.000013   0.000006  -0.000120  -0.000000
               7          8          9         10         11         12
     1  C   -0.002139  -0.005040  -0.005247  -0.001336   0.000117  -0.000038
     2  C    0.010304  -0.000545  -0.008414   0.003984  -0.000313   0.000620
     3  C   -0.213971  -0.405452  -0.120008  -0.159412   0.071544  -0.018141
     4  N   -0.390387  -0.202463   0.020127  -0.146953   0.009462  -0.012112
     5  C    0.067581  -0.552132   0.380864  -1.870991   1.238945  -0.298317
     6  O   -0.053736  -0.665120   0.613267  -0.197465  -0.007999  -0.018041
     7  N    8.003342   0.280324  -0.203537   0.051621   0.088518  -0.018904
     8  C    0.280324  16.654320  -1.877632  -1.045740   0.312935   0.144433
     9  C   -0.203537  -1.877632  14.164077  -7.293155   1.380276  -2.280124
    10  C    0.051621  -1.045740  -7.293155  20.880452  -6.619152   0.923274
    11  C    0.088518   0.312935   1.380276  -6.619152  14.548751   0.230173
    12  C   -0.018904   0.144433  -2.280124   0.923274   0.230173   9.671365
    13  C   -0.021856  -5.196712   1.356119   1.279397  -5.313178  -1.451767
    14  H    0.000011  -0.000035  -0.000005  -0.000001   0.000000   0.000000
    15  H    0.000011  -0.000226  -0.000036   0.000001   0.000001  -0.000000
    16  H    0.000037   0.000181  -0.000019   0.000009  -0.000000   0.000000
    17  H   -0.000477   0.002742  -0.000295   0.000296  -0.000031   0.000006
    18  H    0.000573  -0.003477  -0.000266   0.000303   0.000060  -0.000003
    19  H    0.000116   0.018402   0.002824   0.000379  -0.000396   0.000064
    20  H   -0.000692  -0.018325  -0.009298   0.000396   0.000528  -0.000079
    21  H    0.012619   0.001199  -0.010235   0.003555   0.000358   0.000348
    22  H    0.103229  -0.000150   0.108007  -0.125207   0.006951  -0.006788
    23  H   -0.016632   0.008658   0.282869   0.004055  -0.029288   0.051844
    24  H   -0.012202   0.132177   0.064288   0.140658   0.011060  -0.033617
    25  H    0.000161   0.021234  -0.006874  -0.067796   0.263244   0.009508
    26  C    0.013835  -1.203618  -0.223880   0.332982  -0.333257  -0.759070
    27  Cl   0.000005  -0.013318  -0.022445   0.078885  -0.039794  -0.349149
    28  H    0.000068   0.021928   0.047000  -0.007731   0.006419  -0.016115
    29  H    0.000108   0.015579   0.050160  -0.014926   0.015165  -0.011370
    30  H   -0.000051  -0.037751  -0.077429   0.014340  -0.013770  -0.000547
    31  O    0.020328  -0.018785  -0.015010   0.015885  -0.004134   0.001426
    32  O    0.003098  -0.267573  -0.004857   0.185597   0.074893  -0.004489
    33  C   -0.004543   0.127995  -0.038025  -0.002969  -0.088591   0.005323
    34  C   -0.021731  -0.071639  -0.037813   0.050713   0.036184   0.003825
    35  C    0.002200  -0.012884   0.004632   0.002150   0.009485  -0.001032
    36  H    0.000157  -0.000683  -0.000065   0.000468  -0.000038   0.000007
    37  H    0.000130  -0.001249  -0.000144   0.001191   0.000104   0.000005
    38  H   -0.000091  -0.000585  -0.000062   0.000442  -0.000016  -0.000071
    39  H    0.000031   0.000069   0.000000  -0.000086  -0.000109   0.000007
    40  H   -0.000069  -0.000899  -0.000085   0.000457  -0.000386  -0.000014
              13         14         15         16         17         18
     1  C   -0.000782   0.444023   0.449293   0.396485  -0.064518  -0.028261
     2  C   -0.002102  -0.119277  -0.073373  -0.058854   0.429018   0.443295
     3  C   -0.108412   0.030155  -0.022041   0.004212  -0.066060  -0.086500
     4  N   -0.011640   0.000396   0.000576  -0.000146   0.001722   0.008687
     5  C   -1.262203  -0.001885  -0.006616   0.004913   0.010471  -0.010534
     6  O    0.146596   0.000000  -0.000064   0.000001  -0.000155  -0.000098
     7  N   -0.021856   0.000011   0.000011   0.000037  -0.000477   0.000573
     8  C   -5.196712  -0.000035  -0.000226   0.000181   0.002742  -0.003477
     9  C    1.356119  -0.000005  -0.000036  -0.000019  -0.000295  -0.000266
    10  C    1.279397  -0.000001   0.000001   0.000009   0.000296   0.000303
    11  C   -5.313178   0.000000   0.000001  -0.000000  -0.000031   0.000060
    12  C   -1.451767   0.000000  -0.000000   0.000000   0.000006  -0.000003
    13  C   16.205755  -0.000000  -0.000004   0.000000   0.000031  -0.000051
    14  H   -0.000000   0.512869  -0.028448  -0.027422  -0.002952  -0.002791
    15  H   -0.000004  -0.028448   0.515587  -0.033189  -0.004734   0.003741
    16  H    0.000000  -0.027422  -0.033189   0.510244   0.003959  -0.004235
    17  H    0.000031  -0.002952  -0.004734   0.003959   0.507697  -0.031962
    18  H   -0.000051  -0.002791   0.003741  -0.004235  -0.031962   0.463661
    19  H    0.000923  -0.000085  -0.000544   0.002925   0.004607  -0.005453
    20  H   -0.001784  -0.000083   0.002555  -0.000190  -0.006088   0.003851
    21  H   -0.001802   0.000000   0.000004  -0.000007  -0.000441   0.002618
    22  H    0.022940  -0.000000  -0.000000  -0.000000  -0.000003   0.000008
    23  H   -0.018534   0.000000  -0.000000   0.000000   0.000000  -0.000000
    24  H   -0.021380   0.000000  -0.000000   0.000000   0.000000  -0.000000
    25  H    0.086449  -0.000000  -0.000000   0.000000   0.000000  -0.000000
    26  C    1.061097  -0.000000  -0.000000   0.000000   0.000001  -0.000001
    27  Cl   0.008187  -0.000000  -0.000000   0.000000   0.000000  -0.000000
    28  H   -0.080674   0.000000   0.000000   0.000000  -0.000000   0.000000
    29  H   -0.087273   0.000000  -0.000000   0.000000   0.000000  -0.000000
    30  H   -0.074751  -0.000000  -0.000000  -0.000000  -0.000000  -0.000000
    31  O   -0.001991   0.000009  -0.000049   0.000077   0.001148  -0.006123
    32  O    0.011655   0.000000  -0.000000   0.000001   0.000053  -0.000002
    33  C   -0.001588  -0.000061  -0.000064   0.000102   0.000528   0.000274
    34  C   -0.016072   0.000053  -0.000005  -0.000018   0.000272  -0.000837
    35  C    0.002405  -0.000000   0.000000   0.000000  -0.000002  -0.000037
    36  H   -0.000010  -0.000000  -0.000000   0.000000   0.000000  -0.000001
    37  H   -0.000018  -0.000000  -0.000000   0.000000   0.000000  -0.000001
    38  H    0.000024   0.000000   0.000000  -0.000000  -0.000000   0.000000
    39  H    0.000001   0.000000  -0.000000  -0.000000  -0.000000  -0.000000
    40  H    0.000062   0.000000  -0.000000  -0.000000  -0.000000   0.000000
              19         20         21         22         23         24
     1  C   -0.018141   0.006929   0.002434  -0.000024   0.000016  -0.000002
     2  C   -0.088731  -0.036640  -0.004967  -0.000556  -0.000083   0.000029
     3  C    0.369400   0.546965  -0.020216   0.004005   0.003750  -0.000205
     4  N   -0.077842  -0.041740   0.147065   0.011676   0.001198   0.000564
     5  C    0.080428  -0.124519  -0.000042  -0.019492   0.044510   0.005383
     6  O    0.002980  -0.001314   0.003378   0.003747  -0.010042   0.000107
     7  N    0.000116  -0.000692   0.012619   0.103229  -0.016632  -0.012202
     8  C    0.018402  -0.018325   0.001199  -0.000150   0.008658   0.132177
     9  C    0.002824  -0.009298  -0.010235   0.108007   0.282869   0.064288
    10  C    0.000379   0.000396   0.003555  -0.125207   0.004055   0.140658
    11  C   -0.000396   0.000528   0.000358   0.006951  -0.029288   0.011060
    12  C    0.000064  -0.000079   0.000348  -0.006788   0.051844  -0.033617
    13  C    0.000923  -0.001784  -0.001802   0.022940  -0.018534  -0.021380
    14  H   -0.000085  -0.000083   0.000000  -0.000000   0.000000   0.000000
    15  H   -0.000544   0.002555   0.000004  -0.000000  -0.000000  -0.000000
    16  H    0.002925  -0.000190  -0.000007  -0.000000   0.000000   0.000000
    17  H    0.004607  -0.006088  -0.000441  -0.000003   0.000000   0.000000
    18  H   -0.005453   0.003851   0.002618   0.000008  -0.000000  -0.000000
    19  H    0.560241  -0.045248   0.000930  -0.000007  -0.000000  -0.000000
    20  H   -0.045248   0.502601   0.002043   0.000015  -0.000002   0.000000
    21  H    0.000930   0.002043   0.251462   0.009082   0.000001   0.000003
    22  H   -0.000007   0.000015   0.009082   0.265140  -0.000217   0.007306
    23  H   -0.000000  -0.000002   0.000001  -0.000217   0.451547  -0.000129
    24  H   -0.000000   0.000000   0.000003   0.007306  -0.000129   0.438053
    25  H    0.000000  -0.000000   0.000000  -0.000010   0.000014  -0.003667
    26  C    0.000058  -0.000116  -0.000096   0.001397  -0.037319   0.001280
    27  Cl   0.000000  -0.000000  -0.000000   0.000006   0.000057   0.001178
    28  H   -0.000000   0.000000   0.000000  -0.000000   0.000173  -0.000000
    29  H    0.000000  -0.000000   0.000000  -0.000000   0.000173  -0.000000
    30  H   -0.000000  -0.000000   0.000000   0.000000   0.003453  -0.000000
    31  O    0.001107  -0.000751   0.075870  -0.001822   0.000001  -0.000015
    32  O   -0.000010  -0.000011  -0.000185   0.090039   0.000010  -0.002375
    33  C   -0.000285   0.000988  -0.003399  -0.010230   0.000092  -0.000751
    34  C    0.000137   0.000052   0.019248   0.016753   0.000012   0.002060
    35  C    0.000001   0.000003  -0.003183  -0.002541  -0.000002  -0.000780
    36  H    0.000000  -0.000000  -0.000007  -0.000025   0.000000  -0.000000
    37  H    0.000000  -0.000000  -0.000003  -0.000025   0.000000   0.000000
    38  H   -0.000000   0.000000  -0.000000  -0.000014   0.000000   0.000015
    39  H   -0.000000  -0.000000   0.000000   0.000000  -0.000000  -0.000000
    40  H   -0.000000   0.000000  -0.000000  -0.000012   0.000000   0.000020
              25         26         27         28         29         30
     1  C    0.000000  -0.000116  -0.000001   0.000000   0.000000  -0.000000
     2  C   -0.000000  -0.000232   0.000002  -0.000000  -0.000000   0.000000
     3  C    0.000019  -0.011669  -0.000262   0.000010   0.000014  -0.000125
     4  N    0.000014  -0.000204   0.000159   0.000002   0.000001  -0.000019
     5  C    0.002137  -0.165892  -0.009942   0.001373   0.001658  -0.006178
     6  O   -0.000001   0.010015   0.000077  -0.000010  -0.000016  -0.000262
     7  N    0.000161   0.013835   0.000005   0.000068   0.000108  -0.000051
     8  C    0.021234  -1.203618  -0.013318   0.021928   0.015579  -0.037751
     9  C   -0.006874  -0.223880  -0.022445   0.047000   0.050160  -0.077429
    10  C   -0.067796   0.332982   0.078885  -0.007731  -0.014926   0.014340
    11  C    0.263244  -0.333257  -0.039794   0.006419   0.015165  -0.013770
    12  C    0.009508  -0.759070  -0.349149  -0.016115  -0.011370  -0.000547
    13  C    0.086449   1.061097   0.008187  -0.080674  -0.087273  -0.074751
    14  H   -0.000000  -0.000000  -0.000000   0.000000   0.000000  -0.000000
    15  H   -0.000000  -0.000000  -0.000000   0.000000  -0.000000  -0.000000
    16  H    0.000000   0.000000   0.000000   0.000000   0.000000  -0.000000
    17  H    0.000000   0.000001   0.000000  -0.000000   0.000000  -0.000000
    18  H   -0.000000  -0.000001  -0.000000   0.000000  -0.000000  -0.000000
    19  H    0.000000   0.000058   0.000000  -0.000000   0.000000  -0.000000
    20  H   -0.000000  -0.000116  -0.000000   0.000000  -0.000000  -0.000000
    21  H    0.000000  -0.000096  -0.000000   0.000000   0.000000   0.000000
    22  H   -0.000010   0.001397   0.000006  -0.000000  -0.000000   0.000000
    23  H    0.000014  -0.037319   0.000057   0.000173   0.000173   0.003453
    24  H   -0.003667   0.001280   0.001178  -0.000000  -0.000000  -0.000000
    25  H    0.490774   0.000708  -0.002149  -0.000001  -0.000002   0.000002
    26  C    0.000708   6.701169   0.007707   0.362285   0.365897   0.539796
    27  Cl  -0.002149   0.007707  17.238488   0.000682   0.000328  -0.000678
    28  H   -0.000001   0.362285   0.000682   0.496377  -0.033493  -0.024840
    29  H   -0.000002   0.365897   0.000328  -0.033493   0.496165  -0.024788
    30  H    0.000002   0.539796  -0.000678  -0.024840  -0.024788   0.488785
    31  O    0.000000  -0.000142  -0.000002  -0.000000   0.000000  -0.000000
    32  O    0.000085   0.000884  -0.000042  -0.000000  -0.000000   0.000000
    33  C   -0.000001  -0.000954  -0.000068   0.000001  -0.000001  -0.000000
    34  C    0.000001  -0.000502   0.000015   0.000000   0.000000  -0.000000
    35  C   -0.000039   0.000117  -0.000006  -0.000000  -0.000000   0.000000
    36  H    0.000000  -0.000000  -0.000000  -0.000000  -0.000000   0.000000
    37  H   -0.000000  -0.000000   0.000000   0.000000  -0.000000  -0.000000
    38  H    0.000000   0.000000  -0.000000   0.000000   0.000000  -0.000000
    39  H    0.000000  -0.000000  -0.000000  -0.000000  -0.000000   0.000000
    40  H    0.000000   0.000000  -0.000000  -0.000000   0.000000  -0.000000
              31         32         33         34         35         36
     1  C    0.003420  -0.000475  -0.004054   0.005160  -0.000579   0.000090
     2  C   -0.016982  -0.003634  -0.000624  -0.001581  -0.000613   0.000404
     3  C    0.008709   0.006271  -0.004911   0.033184  -0.003953  -0.000170
     4  N   -0.038221   0.009194  -0.009721  -0.028469   0.004263  -0.000261
     5  C   -0.001095   0.009321  -0.036520  -0.023845   0.000731  -0.000135
     6  O   -0.000101   0.000156  -0.002017  -0.001310   0.000066  -0.000000
     7  N    0.020328   0.003098  -0.004543  -0.021731   0.002200   0.000157
     8  C   -0.018785  -0.267573   0.127995  -0.071639  -0.012884  -0.000683
     9  C   -0.015010  -0.004857  -0.038025  -0.037813   0.004632  -0.000065
    10  C    0.015885   0.185597  -0.002969   0.050713   0.002150   0.000468
    11  C   -0.004134   0.074893  -0.088591   0.036184   0.009485  -0.000038
    12  C    0.001426  -0.004489   0.005323   0.003825  -0.001032   0.000007
    13  C   -0.001991   0.011655  -0.001588  -0.016072   0.002405  -0.000010
    14  H    0.000009   0.000000  -0.000061   0.000053  -0.000000  -0.000000
    15  H   -0.000049  -0.000000  -0.000064  -0.000005   0.000000  -0.000000
    16  H    0.000077   0.000001   0.000102  -0.000018   0.000000   0.000000
    17  H    0.001148   0.000053   0.000528   0.000272  -0.000002   0.000000
    18  H   -0.006123  -0.000002   0.000274  -0.000837  -0.000037  -0.000001
    19  H    0.001107  -0.000010  -0.000285   0.000137   0.000001   0.000000
    20  H   -0.000751  -0.000011   0.000988   0.000052   0.000003  -0.000000
    21  H    0.075870  -0.000185  -0.003399   0.019248  -0.003183  -0.000007
    22  H   -0.001822   0.090039  -0.010230   0.016753  -0.002541  -0.000025
    23  H    0.000001   0.000010   0.000092   0.000012  -0.000002   0.000000
    24  H   -0.000015  -0.002375  -0.000751   0.002060  -0.000780  -0.000000
    25  H    0.000000   0.000085  -0.000001   0.000001  -0.000039   0.000000
    26  C   -0.000142   0.000884  -0.000954  -0.000502   0.000117  -0.000000
    27  Cl  -0.000002  -0.000042  -0.000068   0.000015  -0.000006  -0.000000
    28  H   -0.000000  -0.000000   0.000001   0.000000  -0.000000  -0.000000
    29  H    0.000000  -0.000000  -0.000001   0.000000  -0.000000  -0.000000
    30  H   -0.000000   0.000000  -0.000000  -0.000000   0.000000   0.000000
    31  O    8.515202  -0.181442   0.548785  -0.302422   0.039727  -0.001832
    32  O   -0.181442   8.568737   0.224793  -0.095341   0.054789   0.000691
    33  C    0.548785   0.224793   5.728015  -1.020410   0.045166  -0.086359
    34  C   -0.302422  -0.095341  -1.020410   7.693103  -0.421164   0.453982
    35  C    0.039727   0.054789   0.045166  -0.421164   5.866396  -0.048119
    36  H   -0.001832   0.000691  -0.086359   0.453982  -0.048119   0.506706
    37  H   -0.002907   0.002592  -0.089241   0.461759  -0.053502  -0.030366
    38  H    0.000153  -0.005126  -0.007455  -0.054720   0.419725  -0.003945
    39  H   -0.000202   0.002067   0.035584  -0.083376   0.385954  -0.002064
    40  H    0.000138  -0.005136  -0.005619  -0.060001   0.424064   0.003722
              37         38         39         40
     1  C    0.000004   0.000000  -0.000000   0.000001
     2  C   -0.000156  -0.000000   0.000001   0.000019
     3  C    0.000378   0.000006  -0.000008  -0.000013
     4  N   -0.000128  -0.000000  -0.000006   0.000006
     5  C   -0.000356  -0.000109   0.000011  -0.000120
     6  O   -0.000000  -0.000000   0.000000  -0.000000
     7  N    0.000130  -0.000091   0.000031  -0.000069
     8  C   -0.001249  -0.000585   0.000069  -0.000899
     9  C   -0.000144  -0.000062   0.000000  -0.000085
    10  C    0.001191   0.000442  -0.000086   0.000457
    11  C    0.000104  -0.000016  -0.000109  -0.000386
    12  C    0.000005  -0.000071   0.000007  -0.000014
    13  C   -0.000018   0.000024   0.000001   0.000062
    14  H   -0.000000   0.000000   0.000000   0.000000
    15  H   -0.000000   0.000000  -0.000000  -0.000000
    16  H    0.000000  -0.000000  -0.000000  -0.000000
    17  H    0.000000  -0.000000  -0.000000  -0.000000
    18  H   -0.000001   0.000000  -0.000000   0.000000
    19  H    0.000000  -0.000000  -0.000000  -0.000000
    20  H   -0.000000   0.000000  -0.000000   0.000000
    21  H   -0.000003  -0.000000   0.000000  -0.000000
    22  H   -0.000025  -0.000014   0.000000  -0.000012
    23  H    0.000000   0.000000  -0.000000   0.000000
    24  H    0.000000   0.000015  -0.000000   0.000020
    25  H   -0.000000   0.000000   0.000000   0.000000
    26  C   -0.000000   0.000000  -0.000000   0.000000
    27  Cl   0.000000  -0.000000  -0.000000  -0.000000
    28  H    0.000000   0.000000  -0.000000  -0.000000
    29  H   -0.000000   0.000000  -0.000000   0.000000
    30  H   -0.000000  -0.000000   0.000000  -0.000000
    31  O   -0.002907   0.000153  -0.000202   0.000138
    32  O    0.002592  -0.005126   0.002067  -0.005136
    33  C   -0.089241  -0.007455   0.035584  -0.005619
    34  C    0.461759  -0.054720  -0.083376  -0.060001
    35  C   -0.053502   0.419725   0.385954   0.424064
    36  H   -0.030366  -0.003945  -0.002064   0.003722
    37  H    0.506055   0.003717  -0.002026  -0.003928
    38  H    0.003717   0.488237  -0.030172  -0.027135
    39  H   -0.002026  -0.030172   0.553802  -0.030261
    40  H   -0.003928  -0.027135  -0.030261   0.489733
 Mulliken charges:
               1
     1  C   -0.768487
     2  C   -0.311178
     3  C   -0.212761
     4  N   -0.679269
     5  C    0.702379
     6  O   -0.618172
     7  N   -0.697391
     8  C   -0.140141
     9  C   -0.239550
    10  C   -0.418570
    11  C    0.145281
    12  C    0.237561
    13  C   -0.507057
    14  H    0.195529
    15  H    0.197627
    16  H    0.200934
    17  H    0.215165
    18  H    0.253559
    19  H    0.191218
    20  H    0.219952
    21  H    0.512366
    22  H    0.516822
    23  H    0.259814
    24  H    0.270944
    25  H    0.206191
    26  C   -0.662160
    27  Cl   0.102082
    28  H    0.226549
    29  H    0.226622
    30  H    0.214814
    31  O   -0.637957
    32  O   -0.674227
    33  C    0.700815
    34  C   -0.535257
    35  C   -0.713436
    36  H    0.207856
    37  H    0.208113
    38  H    0.217184
    39  H    0.170782
    40  H    0.215456
 Sum of Mulliken charges =  -1.00000
 Mulliken charges with hydrogens summed into heavy atoms:
               1
     1  C   -0.174398
     2  C    0.157546
     3  C    0.198409
     4  N   -0.166903
     5  C    0.702379
     6  O   -0.618172
     7  N   -0.180569
     8  C   -0.140141
     9  C    0.020264
    10  C   -0.147626
    11  C    0.351472
    12  C    0.237561
    13  C   -0.507057
    26  C    0.005825
    27  Cl   0.102082
    31  O   -0.637957
    32  O   -0.674227
    33  C    0.700815
    34  C   -0.119288
    35  C   -0.110014
         Mulliken charges condensed to fragments:
      1     -0.159329
      2     -0.840671
 Electronic spatial extent (au):  <R**2>=           9936.8382
 Charge=             -1.0000 electrons
 Dipole moment (field-independent basis, Debye):
    X=             -1.7599    Y=             -0.9232    Z=             -0.1792  Tot=              1.9954
 Quadrupole moment (field-independent basis, Debye-Ang):
   XX=           -181.5062   YY=           -155.4810   ZZ=           -134.8013
   XY=             -3.8410   XZ=             -1.2473   YZ=              0.5668
 Traceless Quadrupole moment (field-independent basis, Debye-Ang):
   XX=            -24.2434   YY=              1.7818   ZZ=             22.4616
   XY=             -3.8410   XZ=             -1.2473   YZ=              0.5668
 Octapole moment (field-independent basis, Debye-Ang**2):
  XXX=             58.6073  YYY=              0.8931  ZZZ=              1.1769  XYY=            -39.7297
  XXY=            -35.6551  XXZ=             -3.7982  XZZ=              9.0400  YZZ=              0.2138
  YYZ=             -1.6382  XYZ=             -0.5834
 Hexadecapole moment (field-independent basis, Debye-Ang**3):
 XXXX=         -10930.5278 YYYY=          -4338.6572 ZZZZ=           -203.3921 XXXY=             89.0527
 XXXZ=            -29.3853 YYYX=            -32.0940 YYYZ=             17.0096 ZZZX=              2.2040
 ZZZY=             -0.5167 XXYY=          -2358.8971 XXZZ=          -1660.0117 YYZZ=           -698.4022
 XXYZ=            -10.2935 YYXZ=             -2.2878 ZZXY=              6.7796
 N-N= 1.632691036134D+03 E-N=-6.428262611585D+03  KE= 1.331894689098D+03
 CPIOFr:  IOpCl= 0 IRwI=-1 IRwCP=  731 ICalc= -1 LCPTot=      283080 Len1MO=      727374 IndFrg=      283080
 CPIOFr:  IOpCl= 0 IRwI=-1 IRwCP=  731 ICalc=  0 LCPTot=      283080 Len1MO=      727374 IndFrg=     1010454
 Counterpoise: doing DCBS calculation for fragment   1 NewBq=T
 Basis read from rwf:  (6D, 7F)
 There are   424 symmetry adapted cartesian basis functions of A   symmetry.
 There are   424 symmetry adapted basis functions of A   symmetry.
   424 basis functions,   744 primitive gaussians,   424 cartesian basis functions
    60 alpha electrons       60 beta electrons
       nuclear repulsion energy      1028.3880279914 Hartrees.
 NAtoms=   40 NActive=   40 NUniq=   40 SFac= 1.00D+00 NAtFMM=   60 NAOKFM=F Big=F
 Integral buffers will be    131072 words long.
 Raffenetti 2 integral format.
 Two-electron integral symmetry is turned on.
 One-electron integrals computed using PRISM.
 NBasis=   424 RedAO= T EigKep=  1.05D-06  NBF=   424
 NBsUse=   423 1.00D-06 EigRej=  4.34D-07 NBFU=   423
 ExpMin= 4.38D-02 ExpMax= 2.52D+04 ExpMxC= 3.78D+03 IAcc=3 IRadAn=         5 AccDes= 0.00D+00
 Harris functional with IExCor= 1009 and IRadAn=       5 diagonalized for initial guess.
 HarFok:  IExCor= 1009 AccDes= 0.00D+00 IRadAn=         5 IDoV= 1 UseB2=F ITyADJ=14
 ICtDFT=  3500011 ScaDFX=  1.000000  1.000000  1.000000  1.000000
 FoFCou: FMM=F IPFlag=           0 FMFlag=      100000 FMFlg1=           0
         NFxFlg=           0 DoJE=T BraDBF=F KetDBF=T FulRan=T
         wScrn=  0.000000 ICntrl=     500 IOpCl=  0 I1Cent=   200000004 NGrid=           0
         NMat0=    1 NMatS0=      1 NMatT0=    0 NMatD0=    1 NMtDS0=    0 NMtDT0=    0
 Petite list used in FoFCou.
 Requested convergence on RMS density matrix=1.00D-08 within 128 cycles.
 Requested convergence on MAX density matrix=1.00D-06.
 Requested convergence on             energy=1.00D-06.
 No special actions if energy rises.
 SCF Done:  E(RM062X) =  -1072.87849110     A.U. after   15 cycles
            NFock= 15  Conv=0.29D-08     -V/T= 2.0062

 **********************************************************************

            Population analysis using the SCF density.

 **********************************************************************

 Orbital symmetries:
       Occupied  (A) (A) (A) (A) (A) (A) (A) (A) (A) (A) (A) (A)
                 (A) (A) (A) (A) (A) (A) (A) (A) (A) (A) (A) (A)
                 (A) (A) (A) (A) (A) (A) (A) (A) (A) (A) (A) (A)
                 (A) (A) (A) (A) (A) (A) (A) (A) (A) (A) (A) (A)
                 (A) (A) (A) (A) (A) (A) (A) (A) (A) (A) (A) (A)
       Virtual   (A) (A) (A) (A) (A) (A) (A) (A) (A) (A) (A) (A)
                 (A) (A) (A) (A) (A) (A) (A) (A) (A) (A) (A) (A)
                 (A) (A) (A) (A) (A) (A) (A) (A) (A) (A) (A) (A)
                 (A) (A) (A) (A) (A) (A) (A) (A) (A) (A) (A) (A)
                 (A) (A) (A) (A) (A) (A) (A) (A) (A) (A) (A) (A)
                 (A) (A) (A) (A) (A) (A) (A) (A) (A) (A) (A) (A)
                 (A) (A) (A) (A) (A) (A) (A) (A) (A) (A) (A) (A)
                 (A) (A) (A) (A) (A) (A) (A) (A) (A) (A) (A) (A)
                 (A) (A) (A) (A) (A) (A) (A) (A) (A) (A) (A) (A)
                 (A) (A) (A) (A) (A) (A) (A) (A) (A) (A) (A) (A)
                 (A) (A) (A) (A) (A) (A) (A) (A) (A) (A) (A) (A)
                 (A) (A) (A) (A) (A) (A) (A) (A) (A) (A) (A) (A)
                 (A) (A) (A) (A) (A) (A) (A) (A) (A) (A) (A) (A)
                 (A) (A) (A) (A) (A) (A) (A) (A) (A) (A) (A) (A)
                 (A) (A) (A) (A) (A) (A) (A) (A) (A) (A) (A) (A)
                 (A) (A) (A) (A) (A) (A) (A) (A) (A) (A) (A) (A)
                 (A) (A) (A) (A) (A) (A) (A) (A) (A) (A) (A) (A)
                 (A) (A) (A) (A) (A) (A) (A) (A) (A) (A) (A) (A)
                 (A) (A) (A) (A) (A) (A) (A) (A) (A) (A) (A) (A)
                 (A) (A) (A) (A) (A) (A) (A) (A) (A) (A) (A) (A)
                 (A) (A) (A) (A) (A) (A) (A) (A) (A) (A) (A) (A)
                 (A) (A) (A) (A) (A) (A) (A) (A) (A) (A) (A) (A)
                 (A) (A) (A) (A) (A) (A) (A) (A) (A) (A) (A) (A)
                 (A) (A) (A) (A) (A) (A) (A) (A) (A) (A) (A) (A)
                 (A) (A) (A) (A) (A) (A) (A) (A) (A) (A) (A) (A)
                 (A) (A) (A) (A) (A) (A) (A) (A) (A) (A) (A) (A)
                 (A) (A) (A) (A) (A) (A) (A) (A) (A) (A) (A) (A)
                 (A) (A) (A) (A) (A) (A) (A) (A) (A) (A) (A) (A)
                 (A) (A) (A) (A) (A) (A) (A) (A) (A) (A) (A) (A)
                 (A) (A) (A) (A) (A) (A) (A) (A) (A) (A) (A) (A)
                 (A) (A) (A)
 The electronic state is 1-A.
 Alpha  occ. eigenvalues -- -102.66401 -19.61630 -14.81387 -14.80027 -10.69342
 Alpha  occ. eigenvalues --  -10.60949 -10.60607 -10.59021 -10.57225 -10.56732
 Alpha  occ. eigenvalues --  -10.56422 -10.56328 -10.55082 -10.55068 -10.54272
 Alpha  occ. eigenvalues --   -9.81030  -7.53423  -7.52778  -7.52766  -1.17978
 Alpha  occ. eigenvalues --   -1.06855  -1.04156  -0.98933  -0.92784  -0.89607
 Alpha  occ. eigenvalues --   -0.87747  -0.83309  -0.79207  -0.77790  -0.71904
 Alpha  occ. eigenvalues --   -0.70071  -0.69231  -0.66862  -0.63933  -0.60499
 Alpha  occ. eigenvalues --   -0.56787  -0.56236  -0.54289  -0.54132  -0.53044
 Alpha  occ. eigenvalues --   -0.51066  -0.49997  -0.49655  -0.48497  -0.48130
 Alpha  occ. eigenvalues --   -0.47168  -0.45567  -0.44459  -0.44041  -0.42792
 Alpha  occ. eigenvalues --   -0.42053  -0.41814  -0.41488  -0.40751  -0.37052
 Alpha  occ. eigenvalues --   -0.35933  -0.34811  -0.32830  -0.30692  -0.26388
 Alpha virt. eigenvalues --   -0.02081   0.01320   0.01473   0.01713   0.02414
 Alpha virt. eigenvalues --    0.02476   0.02705   0.03065   0.03935   0.04477
 Alpha virt. eigenvalues --    0.04902   0.05181   0.05725   0.05956   0.06344
 Alpha virt. eigenvalues --    0.07063   0.07416   0.07721   0.07900   0.08094
 Alpha virt. eigenvalues --    0.08392   0.08712   0.09266   0.09626   0.09930
 Alpha virt. eigenvalues --    0.10061   0.10707   0.11005   0.11208   0.11875
 Alpha virt. eigenvalues --    0.11934   0.12178   0.13068   0.13121   0.13725
 Alpha virt. eigenvalues --    0.13939   0.14390   0.14756   0.15478   0.15617
 Alpha virt. eigenvalues --    0.15738   0.16282   0.16969   0.17173   0.17349
 Alpha virt. eigenvalues --    0.18176   0.18647   0.18831   0.19384   0.19866
 Alpha virt. eigenvalues --    0.20140   0.20420   0.20736   0.21321   0.21542
 Alpha virt. eigenvalues --    0.21633   0.22165   0.22527   0.22684   0.23159
 Alpha virt. eigenvalues --    0.23604   0.23882   0.24223   0.24922   0.25206
 Alpha virt. eigenvalues --    0.25385   0.25713   0.25863   0.26152   0.27151
 Alpha virt. eigenvalues --    0.27244   0.27587   0.28413   0.28524   0.28822
 Alpha virt. eigenvalues --    0.29289   0.29575   0.29964   0.30126   0.30722
 Alpha virt. eigenvalues --    0.30860   0.31073   0.31949   0.32066   0.32484
 Alpha virt. eigenvalues --    0.33272   0.33600   0.34154   0.34369   0.34794
 Alpha virt. eigenvalues --    0.35057   0.35953   0.36674   0.37076   0.38108
 Alpha virt. eigenvalues --    0.38540   0.38834   0.39607   0.39737   0.39820
 Alpha virt. eigenvalues --    0.40261   0.41232   0.42141   0.42513   0.43173
 Alpha virt. eigenvalues --    0.44320   0.44576   0.46016   0.46967   0.48311
 Alpha virt. eigenvalues --    0.49199   0.50832   0.52023   0.52500   0.53882
 Alpha virt. eigenvalues --    0.55357   0.57459   0.59012   0.59474   0.60754
 Alpha virt. eigenvalues --    0.61224   0.61616   0.64139   0.65788   0.66050
 Alpha virt. eigenvalues --    0.67755   0.68316   0.69235   0.70047   0.70782
 Alpha virt. eigenvalues --    0.71909   0.72740   0.73050   0.73458   0.73798
 Alpha virt. eigenvalues --    0.74012   0.75328   0.75415   0.75626   0.76706
 Alpha virt. eigenvalues --    0.76963   0.77451   0.77943   0.78813   0.79360
 Alpha virt. eigenvalues --    0.79797   0.80547   0.81141   0.82285   0.83886
 Alpha virt. eigenvalues --    0.84379   0.85188   0.85681   0.86076   0.86488
 Alpha virt. eigenvalues --    0.87723   0.88727   0.88989   0.90726   0.91209
 Alpha virt. eigenvalues --    0.91967   0.92994   0.94096   0.94585   0.94994
 Alpha virt. eigenvalues --    0.97739   0.98670   0.99554   0.99921   1.00816
 Alpha virt. eigenvalues --    1.02304   1.02925   1.03331   1.04148   1.05309
 Alpha virt. eigenvalues --    1.05583   1.05938   1.06365   1.07811   1.08704
 Alpha virt. eigenvalues --    1.10390   1.11763   1.13135   1.13327   1.16080
 Alpha virt. eigenvalues --    1.16980   1.17842   1.18300   1.19566   1.20067
 Alpha virt. eigenvalues --    1.20990   1.23239   1.23759   1.25061   1.26223
 Alpha virt. eigenvalues --    1.27806   1.28166   1.31014   1.31254   1.32521
 Alpha virt. eigenvalues --    1.33802   1.35706   1.37328   1.38949   1.39410
 Alpha virt. eigenvalues --    1.39956   1.41964   1.43834   1.44305   1.45039
 Alpha virt. eigenvalues --    1.46364   1.47255   1.48790   1.50876   1.51550
 Alpha virt. eigenvalues --    1.52771   1.55101   1.56396   1.57310   1.57800
 Alpha virt. eigenvalues --    1.60462   1.63057   1.65032   1.70242   1.76070
 Alpha virt. eigenvalues --    1.79769   1.84441   1.87225   1.87383   1.88794
 Alpha virt. eigenvalues --    1.90498   1.91166   1.91574   1.92838   1.94195
 Alpha virt. eigenvalues --    1.94348   1.95210   1.95971   1.97528   1.99909
 Alpha virt. eigenvalues --    2.01514   2.02140   2.02965   2.04596   2.04872
 Alpha virt. eigenvalues --    2.05757   2.06968   2.09541   2.11139   2.13207
 Alpha virt. eigenvalues --    2.14613   2.14806   2.17541   2.18892   2.19695
 Alpha virt. eigenvalues --    2.20655   2.20844   2.21959   2.22764   2.24134
 Alpha virt. eigenvalues --    2.25364   2.28286   2.28897   2.31570   2.34708
 Alpha virt. eigenvalues --    2.35360   2.35993   2.37763   2.37901   2.38472
 Alpha virt. eigenvalues --    2.40056   2.40808   2.41064   2.43346   2.44309
 Alpha virt. eigenvalues --    2.45729   2.47576   2.51044   2.53145   2.55162
 Alpha virt. eigenvalues --    2.60012   2.60432   2.60814   2.63372   2.64477
 Alpha virt. eigenvalues --    2.66435   2.67391   2.68530   2.70306   2.71117
 Alpha virt. eigenvalues --    2.72416   2.73587   2.76471   2.77652   2.79380
 Alpha virt. eigenvalues --    2.80894   2.81308   2.82614   2.83495   2.84676
 Alpha virt. eigenvalues --    2.85908   2.87528   2.88116   2.94353   2.96346
 Alpha virt. eigenvalues --    3.00761   3.01995   3.04005   3.05855   3.07131
 Alpha virt. eigenvalues --    3.12826   3.14617   3.16842   3.22206   3.25165
 Alpha virt. eigenvalues --    3.28092   3.32208   3.34142   3.37336   3.42791
 Alpha virt. eigenvalues --    3.52743   3.56162   3.64448   3.70264   3.76543
 Alpha virt. eigenvalues --    3.77644   3.85477   3.86919   4.05283   4.16100
 Alpha virt. eigenvalues --    4.23579   4.27010   4.27385   4.29514   4.32678
 Alpha virt. eigenvalues --    4.39142   4.41788   4.42744   4.45267   4.46247
 Alpha virt. eigenvalues --    4.47423   4.49669   4.51692   4.55711   4.57475
 Alpha virt. eigenvalues --    4.61685   4.64854   4.72060   4.77438   4.79543
 Alpha virt. eigenvalues --    4.85235   5.21388   5.22320   5.27129   5.56800
 Alpha virt. eigenvalues --    5.67976   6.47220   6.50233  23.87128  24.10839
 Alpha virt. eigenvalues --   24.30358  38.21944  38.79799
          Condensed to atoms (all electrons):
               1          2          3          4          5          6
     1  C    5.646305  -0.042847   0.012032  -0.010671  -0.037981  -0.000235
     2  C   -0.042847   6.046953  -0.279312  -0.040984   0.110574   0.005972
     3  C    0.012032  -0.279312   6.899083   0.405627  -0.665858  -0.069384
     4  N   -0.010671  -0.040984   0.405627   7.727773   0.328087  -0.162668
     5  C   -0.037981   0.110574  -0.665858   0.328087   6.948246   0.726455
     6  O   -0.000235   0.005972  -0.069384  -0.162668   0.726455   8.236451
     7  N   -0.001615   0.008392  -0.218936  -0.450503   0.057018  -0.043142
     8  C   -0.004933   0.022780  -0.404225  -0.229743  -0.745345  -0.673517
     9  C   -0.000308  -0.013319   0.076654   0.109262   0.863177   0.594319
    10  C   -0.002381   0.008706  -0.234528  -0.187681  -1.993975  -0.193957
    11  C    0.000171  -0.000922   0.042833   0.000825   0.838780  -0.002968
    12  C   -0.000090   0.000740  -0.021018  -0.015933  -0.330191  -0.010915
    13  C   -0.000218  -0.001050  -0.043034   0.016686  -0.665896   0.141375
    14  H    0.421156  -0.087871   0.022751   0.000831  -0.001730   0.000003
    15  H    0.438170  -0.070624  -0.010874   0.000876  -0.009033  -0.000044
    16  H    0.404994  -0.064483  -0.004108   0.000002   0.009986  -0.000017
    17  H   -0.020340   0.411273  -0.081414   0.002705   0.005405  -0.000233
    18  H   -0.028736   0.402383  -0.065556   0.007007  -0.007509  -0.000079
    19  H   -0.001045  -0.080082   0.406269  -0.069693   0.028702   0.000946
    20  H    0.008281  -0.046208   0.495420  -0.035394  -0.078073  -0.002824
    21  H    0.000172  -0.001371  -0.051323   0.202152   0.021564   0.003054
    22  H    0.000066  -0.000122   0.007356   0.032798  -0.017366   0.003425
    23  H    0.000015  -0.000074   0.003272   0.000916   0.034884  -0.008278
    24  H   -0.000002   0.000022   0.000068   0.000888   0.014585   0.000087
    25  H   -0.000000  -0.000000   0.000015   0.000012   0.001547   0.000000
    26  C   -0.000043  -0.000044  -0.004893   0.003636  -0.087556   0.009859
    27  Cl  -0.000001   0.000004  -0.000208   0.000174  -0.008635   0.000035
    28  H    0.000000   0.000000   0.000003   0.000001   0.000773  -0.000003
    29  H    0.000000  -0.000000   0.000017   0.000001   0.001615  -0.000013
    30  H   -0.000000   0.000000  -0.000103  -0.000019  -0.004455  -0.000237
    31  O   -0.000655   0.000715  -0.006092   0.021840   0.013896   0.000297
    32  O    0.000242   0.000075   0.006153   0.007577  -0.006241   0.000263
    33  C   -0.000998  -0.000007  -0.003934  -0.015303  -0.027318  -0.000133
    34  C    0.000632   0.001326  -0.005796  -0.005212  -0.007634  -0.000251
    35  C   -0.000027  -0.000310  -0.000642  -0.000161  -0.000317  -0.000005
    36  H   -0.000000   0.000004   0.000001   0.000001  -0.000016  -0.000000
    37  H    0.000000   0.000011  -0.000021  -0.000005  -0.000013  -0.000000
    38  H    0.000000   0.000001   0.000002   0.000002   0.000001  -0.000000
    39  H    0.000000   0.000000   0.000001   0.000001  -0.000001   0.000000
    40  H    0.000000  -0.000000   0.000005   0.000003   0.000014   0.000000
               7          8          9         10         11         12
     1  C   -0.001615  -0.004933  -0.000308  -0.002381   0.000171  -0.000090
     2  C    0.008392   0.022780  -0.013319   0.008706  -0.000922   0.000740
     3  C   -0.218936  -0.404225   0.076654  -0.234528   0.042833  -0.021018
     4  N   -0.450503  -0.229743   0.109262  -0.187681   0.000825  -0.015933
     5  C    0.057018  -0.745345   0.863177  -1.993975   0.838780  -0.330191
     6  O   -0.043142  -0.673517   0.594319  -0.193957  -0.002968  -0.010915
     7  N    7.896588   0.329338  -0.276361   0.121694   0.052903  -0.024477
     8  C    0.329338  13.935352  -1.543830  -1.020185   0.852698  -0.336218
     9  C   -0.276361  -1.543830  12.745399  -7.225524   1.617572  -1.829777
    10  C    0.121694  -1.020185  -7.225524  19.463576  -4.768804   1.243707
    11  C    0.052903   0.852698   1.617572  -4.768804  10.869008  -0.162208
    12  C   -0.024477  -0.336218  -1.829777   1.243707  -0.162208   8.645543
    13  C   -0.033636  -3.473334   0.847122   0.741580  -3.484566  -0.538059
    14  H    0.000019  -0.000042  -0.000003   0.000000   0.000000   0.000000
    15  H   -0.000001  -0.000330  -0.000038  -0.000004   0.000001  -0.000000
    16  H    0.000041   0.000310  -0.000015   0.000008  -0.000001   0.000000
    17  H   -0.000888   0.003356  -0.000659   0.000307  -0.000030   0.000005
    18  H    0.001187  -0.004093   0.000202  -0.000127   0.000055  -0.000005
    19  H   -0.002101   0.014183  -0.001284   0.000439  -0.000222   0.000039
    20  H    0.001907  -0.014090  -0.005191   0.000310   0.000335  -0.000035
    21  H    0.031843  -0.006522   0.004553  -0.008018   0.001238   0.000140
    22  H    0.154650   0.078715   0.168054  -0.252547  -0.019753  -0.007273
    23  H   -0.017680   0.002714   0.277475   0.016852  -0.038616   0.030818
    24  H   -0.023369   0.257682   0.125966  -0.089604   0.063585  -0.047497
    25  H    0.000205   0.004134  -0.011865  -0.032710   0.239561   0.017934
    26  C    0.000542  -0.473813  -0.184099   0.253195  -0.262083  -0.532189
    27  Cl   0.000361  -0.016219  -0.022811   0.105038  -0.046622  -0.265392
    28  H    0.000039   0.018377   0.033179  -0.003664  -0.000170  -0.029303
    29  H    0.000107   0.013070   0.040348  -0.012110   0.010922  -0.021320
    30  H   -0.000087  -0.011534  -0.041608   0.011406  -0.010060   0.002787
    31  O    0.004199   0.000276   0.005243  -0.005217   0.000430   0.000089
    32  O    0.022394   0.050714   0.024766  -0.036992  -0.028652  -0.004839
    33  C   -0.006298   0.002249  -0.017458   0.040282  -0.021575   0.000615
    34  C   -0.003131   0.010067  -0.004577  -0.003082  -0.002240  -0.002970
    35  C   -0.001074   0.001353   0.003544  -0.004751  -0.001980   0.000528
    36  H   -0.000006   0.000023   0.000004  -0.000025  -0.000003  -0.000000
    37  H   -0.000002   0.000022   0.000002  -0.000009  -0.000008   0.000000
    38  H   -0.000011   0.000163   0.000004  -0.000088  -0.000069  -0.000009
    39  H   -0.000002   0.000024   0.000001  -0.000016  -0.000011  -0.000000
    40  H   -0.000016   0.000220   0.000013  -0.000170  -0.000037  -0.000013
              13         14         15         16         17         18
     1  C   -0.000218   0.421156   0.438170   0.404994  -0.020340  -0.028736
     2  C   -0.001050  -0.087871  -0.070624  -0.064483   0.411273   0.402383
     3  C   -0.043034   0.022751  -0.010874  -0.004108  -0.081414  -0.065556
     4  N    0.016686   0.000831   0.000876   0.000002   0.002705   0.007007
     5  C   -0.665896  -0.001730  -0.009033   0.009986   0.005405  -0.007509
     6  O    0.141375   0.000003  -0.000044  -0.000017  -0.000233  -0.000079
     7  N   -0.033636   0.000019  -0.000001   0.000041  -0.000888   0.001187
     8  C   -3.473334  -0.000042  -0.000330   0.000310   0.003356  -0.004093
     9  C    0.847122  -0.000003  -0.000038  -0.000015  -0.000659   0.000202
    10  C    0.741580   0.000000  -0.000004   0.000008   0.000307  -0.000127
    11  C   -3.484566   0.000000   0.000001  -0.000001  -0.000030   0.000055
    12  C   -0.538059   0.000000  -0.000000   0.000000   0.000005  -0.000005
    13  C   12.595278  -0.000000  -0.000004   0.000002   0.000023  -0.000042
    14  H   -0.000000   0.486366  -0.025041  -0.025406  -0.002789  -0.002902
    15  H   -0.000004  -0.025041   0.489473  -0.030260  -0.004642   0.003988
    16  H    0.000002  -0.025406  -0.030260   0.492484   0.003797  -0.004792
    17  H    0.000023  -0.002789  -0.004642   0.003797   0.496983  -0.038308
    18  H   -0.000042  -0.002902   0.003988  -0.004792  -0.038308   0.527043
    19  H    0.000448  -0.000064  -0.000534   0.002879   0.004288  -0.005712
    20  H   -0.001119  -0.000067   0.002207  -0.000142  -0.005439   0.003995
    21  H   -0.001176  -0.000001   0.000009  -0.000008  -0.000685   0.004900
[...]
    13  C   -0.000080   0.000688   0.000007   0.012082  -0.042273   0.006584
    14  H   -0.000062  -0.000065  -0.000001  -0.000000  -0.000000   0.000000
    15  H   -0.000567   0.002111   0.000006   0.000000  -0.000000   0.000000
    16  H    0.002786  -0.000142  -0.000004  -0.000000   0.000000  -0.000000
    17  H    0.004222  -0.005318  -0.000446  -0.000001   0.000000  -0.000000
    18  H   -0.005784   0.003891   0.003995   0.000009  -0.000000   0.000000
    19  H    0.523225  -0.037051   0.000942  -0.000001   0.000000  -0.000000
    20  H   -0.037051   0.460179   0.003298   0.000008  -0.000002   0.000000
    21  H    0.000942   0.003298   0.350140   0.004060  -0.000001   0.000011
    22  H   -0.000001   0.000008   0.004060   0.357143  -0.000215   0.009702
    23  H    0.000000  -0.000002  -0.000001  -0.000215   0.442961  -0.000140
    24  H   -0.000000   0.000000   0.000011   0.009702  -0.000140   0.519556
    25  H   -0.000000   0.000000  -0.000000  -0.000015   0.000013  -0.004033
    26  C    0.000020  -0.000038  -0.000085   0.000654  -0.028173   0.002426
    27  Cl   0.000000  -0.000000  -0.000000   0.000051   0.000340   0.001517
    28  H    0.000000   0.000000   0.000000  -0.000000   0.000142  -0.000000
    29  H    0.000000   0.000000  -0.000000  -0.000000   0.000151  -0.000000
    30  H   -0.000000   0.000000   0.000000   0.000000   0.003354  -0.000000
              25         26         27         28         29         30
     1  C   -0.000000  -0.000019  -0.000001   0.000000   0.000000  -0.000000
     2  C   -0.000000   0.000095   0.000005  -0.000000  -0.000000   0.000000
     3  C    0.000014   0.000006  -0.000223   0.000001   0.000012  -0.000066
     4  N    0.000009   0.006330   0.000216  -0.000000   0.000002  -0.000015
     5  C    0.001481  -0.000718  -0.009561   0.000345   0.000967  -0.002889
     6  O    0.000000   0.010068   0.000074  -0.000006  -0.000009  -0.000251
     7  N    0.000223   0.003822   0.000051   0.000063   0.000082  -0.000008
     8  C   -0.008955  -0.395819  -0.024022   0.006939   0.007025  -0.011012
     9  C   -0.005936   0.129619   0.006706   0.010803   0.014515  -0.018213
    10  C   -0.016641  -0.116870   0.119548  -0.000290  -0.002112   0.007789
    11  C    0.218092   0.165969  -0.088275  -0.000613   0.002390  -0.007839
    12  C    0.030692  -0.636305  -0.268727  -0.022262  -0.022936   0.004567
    13  C    0.091519   0.063062  -0.044292  -0.026615  -0.033202  -0.136703
    14  H   -0.000000  -0.000000  -0.000000  -0.000000  -0.000000   0.000000
    15  H    0.000000  -0.000000  -0.000000   0.000000   0.000000  -0.000000
    16  H    0.000000   0.000000   0.000000   0.000000   0.000000  -0.000000
    17  H   -0.000000   0.000001   0.000000   0.000000  -0.000000  -0.000000
    18  H    0.000000  -0.000001  -0.000000   0.000000   0.000000  -0.000000
    19  H   -0.000000   0.000020   0.000000   0.000000   0.000000  -0.000000
    20  H    0.000000  -0.000038  -0.000000   0.000000   0.000000   0.000000
    21  H   -0.000000  -0.000085  -0.000000   0.000000  -0.000000   0.000000
    22  H   -0.000015   0.000654   0.000051  -0.000000  -0.000000   0.000000
    23  H    0.000013  -0.028173   0.000340   0.000142   0.000151   0.003354
    24  H   -0.004033   0.002426   0.001517  -0.000000  -0.000000  -0.000000
    25  H    0.467925   0.002979  -0.003328  -0.000001  -0.000001   0.000002
    26  C    0.002979   6.226102   0.032611   0.365200   0.367267   0.507750
    27  Cl  -0.003328   0.032611  17.093759   0.003489   0.002894  -0.001702
    28  H   -0.000001   0.365200   0.003489   0.473257  -0.030097  -0.023198
    29  H   -0.000001   0.367267   0.002894  -0.030097   0.473460  -0.023208
    30  H    0.000002   0.507750  -0.001702  -0.023198  -0.023208   0.480622
 Mulliken charges:
               1
     1  C   -0.732423
     2  C   -0.321613
     3  C   -0.140727
     4  N   -0.609446
     5  C    0.729272
     6  O   -0.584955
     7  N   -0.639712
     8  C   -0.118004
     9  C    0.191404
    10  C   -0.820443
    11  C   -0.008477
    12  C    0.180480
    13  C   -0.312582
    14  H    0.214450
    15  H    0.216429
    16  H    0.214366
    17  H    0.227329
    18  H    0.201619
    19  H    0.215785
    20  H    0.248485
    21  H    0.389150
    22  H    0.398591
    23  H    0.266841
    24  H    0.188646
    25  H    0.225959
    26  C   -0.705955
    27  Cl   0.178869
    28  H    0.242842
    29  H    0.242801
    30  H    0.221019
    31  O    0.000000
    32  O    0.000000
    33  C    0.000000
    34  C    0.000000
    35  C    0.000000
    36  H    0.000000
    37  H    0.000000
    38  H    0.000000
    39  H    0.000000
    40  H    0.000000
 Sum of Mulliken charges =  -0.00000
 Mulliken charges with hydrogens summed into heavy atoms:
               1
     1  C   -0.087179
     2  C    0.107335
     3  C    0.323544
     4  N   -0.220297
     5  C    0.729272
     6  O   -0.584955
     7  N   -0.241120
     8  C   -0.118004
     9  C    0.458244
    10  C   -0.631797
    11  C    0.217483
    12  C    0.180480
    13  C   -0.312582
    26  C    0.000707
    27  Cl   0.178869
    31  O    0.000000
    32  O    0.000000
    33  C    0.000000
    34  C    0.000000
    35  C    0.000000
         Mulliken charges condensed to fragments:
      1     -0.000000
      2      0.000000
 Electronic spatial extent (au):  <R**2>=           7344.1594
 Charge=             -0.0000 electrons
 Dipole moment (field-independent basis, Debye):
    X=              5.1199    Y=              2.3098    Z=              0.0194  Tot=              5.6168
 Quadrupole moment (field-independent basis, Debye-Ang):
   XX=            -97.1188   YY=            -99.4396   ZZ=           -101.7507
   XY=              1.4059   XZ=              0.1333   YZ=              0.3005
 Traceless Quadrupole moment (field-independent basis, Debye-Ang):
   XX=              2.3176   YY=             -0.0033   ZZ=             -2.3143
   XY=              1.4059   XZ=              0.1333   YZ=              0.3005
 Octapole moment (field-independent basis, Debye-Ang**2):
  XXX=            354.2887  YYY=            299.3780  ZZZ=              5.8244  XYY=             77.2262
  XXY=             49.1126  XXZ=              2.8095  XZZ=             89.1147  YZZ=             90.6930
  YYZ=             -1.7437  XYZ=              1.7517
 Hexadecapole moment (field-independent basis, Debye-Ang**3):
 XXXX=          -8214.2755 YYYY=          -1862.3118 ZZZZ=           -147.7447 XXXY=            734.6661
 XXXZ=              6.5352 YYYX=            678.6152 YYYZ=             18.0504 ZZZX=             21.4468
 ZZZY=              5.2268 XXYY=          -1534.2781 XXZZ=          -1382.4570 YYZZ=           -333.2111
 XXYZ=              3.8875 YYXZ=              1.6862 ZZXY=            236.2176
 N-N= 1.028388027991D+03 E-N=-4.572721775255D+03  KE= 1.066218930319D+03
 CPIOFr:  IOpCl= 0 IRwI=-1 IRwCP=  731 ICalc=  3 LCPTot=      283080 Len1MO=      727374 IndFrg=     3192576
 Counterpoise: doing MCBS calculation for fragment   2
 Basis read from rwf:  (6D, 7F)
 There are   105 symmetry adapted cartesian basis functions of A   symmetry.
 There are   105 symmetry adapted basis functions of A   symmetry.
   105 basis functions,   180 primitive gaussians,   105 cartesian basis functions
    20 alpha electrons       20 beta electrons
       nuclear repulsion energy       168.5305736282 Hartrees.
 NAtoms=   40 NActive=   10 NUniq=   10 SFac= 1.00D+00 NAtFMM=   60 NAOKFM=F Big=F
 Integral buffers will be    131072 words long.
 Raffenetti 2 integral format.
 Two-electron integral symmetry is turned on.
 One-electron integrals computed using PRISM.
 NBasis=   105 RedAO= T EigKep=  1.23D-04  NBF=   105
 NBsUse=   105 1.00D-06 EigRej= -1.00D+00 NBFU=   105
 ExpMin= 4.38D-02 ExpMax= 5.48D+03 ExpMxC= 8.25D+02 IAcc=3 IRadAn=         5 AccDes= 0.00D+00
 Harris functional with IExCor= 1009 and IRadAn=       5 diagonalized for initial guess.
 HarFok:  IExCor= 1009 AccDes= 0.00D+00 IRadAn=         5 IDoV= 1 UseB2=F ITyADJ=14
 ICtDFT=  3500011 ScaDFX=  1.000000  1.000000  1.000000  1.000000
 FoFCou: FMM=F IPFlag=           0 FMFlag=      100000 FMFlg1=           0
         NFxFlg=           0 DoJE=T BraDBF=F KetDBF=T FulRan=T
         wScrn=  0.000000 ICntrl=     500 IOpCl=  0 I1Cent=   200000004 NGrid=           0
         NMat0=    1 NMatS0=      1 NMatT0=    0 NMatD0=    1 NMtDS0=    0 NMtDT0=    0
 Petite list used in FoFCou.
 Keep R1 ints in memory in canonical form, NReq=16474200.
 Requested convergence on RMS density matrix=1.00D-08 within 128 cycles.
 Requested convergence on MAX density matrix=1.00D-06.
 Requested convergence on             energy=1.00D-06.
 No special actions if energy rises.
 SCF Done:  E(RM062X) =  -267.728585053     A.U. after   14 cycles
            NFock= 14  Conv=0.39D-08     -V/T= 2.0084

 **********************************************************************

            Population analysis using the SCF density.

 **********************************************************************

 Orbital symmetries:
       Occupied  (A) (A) (A) (A) (A) (A) (A) (A) (A) (A) (A) (A)
                 (A) (A) (A) (A) (A) (A) (A) (A)
       Virtual   (A) (A) (A) (A) (A) (A) (A) (A) (A) (A) (A) (A)
                 (A) (A) (A) (A) (A) (A) (A) (A) (A) (A) (A) (A)
                 (A) (A) (A) (A) (A) (A) (A) (A) (A) (A) (A) (A)
                 (A) (A) (A) (A) (A) (A) (A) (A) (A) (A) (A) (A)
                 (A) (A) (A) (A) (A) (A) (A) (A) (A) (A) (A) (A)
                 (A) (A) (A) (A) (A) (A) (A) (A) (A) (A) (A) (A)
                 (A) (A) (A) (A) (A) (A) (A) (A) (A) (A) (A) (A)
                 (A)
 The electronic state is 1-A.
 Alpha  occ. eigenvalues --  -19.38352 -19.37986 -10.43633 -10.38677 -10.37510
 Alpha  occ. eigenvalues --   -0.94254  -0.84574  -0.69886  -0.55972  -0.39468
 Alpha  occ. eigenvalues --   -0.36253  -0.33528  -0.30130  -0.27608  -0.27399
 Alpha  occ. eigenvalues --   -0.25027  -0.22654  -0.10916  -0.10833  -0.10206
 Alpha virt. eigenvalues --    0.14623   0.16493   0.18641   0.19565   0.21557
 Alpha virt. eigenvalues --    0.21831   0.22420   0.22884   0.23462   0.25914
 Alpha virt. eigenvalues --    0.28396   0.29751   0.30029   0.38007   0.38908
 Alpha virt. eigenvalues --    0.42253   0.42505   0.43638   0.45463   0.46253
 Alpha virt. eigenvalues --    0.46727   0.48000   0.49553   0.49777   0.50775
 Alpha virt. eigenvalues --    0.55069   0.56079   0.57213   0.71656   0.75267
 Alpha virt. eigenvalues --    0.84467   0.86649   0.89637   0.92056   0.94835
 Alpha virt. eigenvalues --    0.99505   1.01977   1.08503   1.09999   1.14594
 Alpha virt. eigenvalues --    1.20080   1.21337   1.31112   1.32723   1.33992
 Alpha virt. eigenvalues --    1.34591   1.49170   1.54726   1.57841   1.59117
 Alpha virt. eigenvalues --    1.61035   1.63180   1.63279   1.74382   1.78244
 Alpha virt. eigenvalues --    1.80786   1.86824   2.02397   2.02823   2.08643
 Alpha virt. eigenvalues --    2.10052   2.12043   2.14451   2.16438   2.22694
 Alpha virt. eigenvalues --    2.26527   2.28032   2.29507   2.45078   2.52395
 Alpha virt. eigenvalues --    2.54065   2.54334   2.73333   2.74149   2.78594
 Alpha virt. eigenvalues --    2.97833   3.13308   3.27264   3.32633   3.42501
 Alpha virt. eigenvalues --    4.36343   4.41502   4.58223   4.67038   4.82449
          Condensed to atoms (all electrons):
               1          2          3          4          5          6
     1  O    8.617885  -0.168727   0.529150  -0.392851   0.079675  -0.002787
     2  O   -0.168727   8.596017   0.461998  -0.323871   0.096169   0.001144
     3  C    0.529150   0.461998   4.831478  -0.357964   0.051011  -0.015340
     4  C   -0.392851  -0.323871  -0.357964   7.537242  -0.645343   0.388277
     5  C    0.079675   0.096169   0.051011  -0.645343   6.028869  -0.055397
     6  H   -0.002787   0.001144  -0.015340   0.388277  -0.055397   0.530874
     7  H   -0.002932   0.001515  -0.014946   0.388839  -0.056357  -0.032659
     8  H   -0.000124  -0.006683  -0.001815  -0.049582   0.411616  -0.004342
     9  H   -0.000316   0.002859   0.012216  -0.059487   0.378055  -0.002048
    10  H   -0.000075  -0.006521  -0.003629  -0.047458   0.410793   0.003870
               7          8          9         10
     1  O   -0.002932  -0.000124  -0.000316  -0.000075
     2  O    0.001515  -0.006683   0.002859  -0.006521
     3  C   -0.014946  -0.001815   0.012216  -0.003629
     4  C    0.388839  -0.049582  -0.059487  -0.047458
     5  C   -0.056357   0.411616   0.378055   0.410793
     6  H   -0.032659  -0.004342  -0.002048   0.003870
     7  H    0.530307   0.003872  -0.002009  -0.004358
     8  H    0.003872   0.497819  -0.033774  -0.025689
     9  H   -0.002009  -0.033774   0.588919  -0.033947
    10  H   -0.004358  -0.025689  -0.033947   0.500534
 Mulliken charges:
               1
     1  C    0.000000
     2  C    0.000000
     3  C    0.000000
     4  N    0.000000
     5  C    0.000000
     6  O    0.000000
     7  N    0.000000
     8  C    0.000000
     9  C    0.000000
    10  C    0.000000
    11  C    0.000000
    12  C    0.000000
    13  C    0.000000
    14  H    0.000000
    15  H    0.000000
    16  H    0.000000
    17  H    0.000000
    18  H    0.000000
    19  H    0.000000
    20  H    0.000000
    21  H    0.000000
    22  H    0.000000
    23  H    0.000000
    24  H    0.000000
    25  H    0.000000
    26  C    0.000000
    27  Cl   0.000000
    28  H    0.000000
    29  H    0.000000
    30  H    0.000000
    31  O   -0.658899
    32  O   -0.653900
    33  C    0.507841
    34  C   -0.437802
    35  C   -0.699091
    36  H    0.188408
    37  H    0.188728
    38  H    0.208702
    39  H    0.149532
    40  H    0.206480
 Sum of Mulliken charges =  -1.00000
 Mulliken charges with hydrogens summed into heavy atoms:
               1
     1  C    0.000000
     2  C    0.000000
     3  C    0.000000
     4  N    0.000000
     5  C    0.000000
     6  O    0.000000
     7  N    0.000000
     8  C    0.000000
     9  C    0.000000
    10  C    0.000000
    11  C    0.000000
    12  C    0.000000
    13  C    0.000000
    26  C    0.000000
    27  Cl   0.000000
    31  O   -0.658899
    32  O   -0.653900
    33  C    0.507841
    34  C   -0.060666
    35  C   -0.134376
         Mulliken charges condensed to fragments:
      1      0.000000
      2     -1.000000
 Electronic spatial extent (au):  <R**2>=           2578.6371
 Charge=             -1.0000 electrons
 Dipole moment (field-independent basis, Debye):
    X=            -11.1929    Y=             -8.2778    Z=             -0.2641  Tot=             13.9238
 Quadrupole moment (field-independent basis, Debye-Ang):
   XX=            -67.7398   YY=            -54.2822   ZZ=            -32.5709
   XY=            -16.3306   XZ=             -1.9488   YZ=              0.1622
 Traceless Quadrupole moment (field-independent basis, Debye-Ang):
   XX=            -16.2088   YY=             -2.7513   ZZ=             18.9601
   XY=            -16.3306   XZ=             -1.9488   YZ=              0.1622
 Octapole moment (field-independent basis, Debye-Ang**2):
  XXX=           -378.9352  YYY=           -378.2994  ZZZ=             -4.6374  XYY=           -125.3384
  XXY=           -145.4368  XXZ=            -10.0597  XZZ=            -83.9131  YZZ=            -96.5231
  YYZ=             -0.0717  XYZ=             -1.9608
 Hexadecapole moment (field-independent basis, Debye-Ang**3):
 XXXX=          -1946.3662 YYYY=          -2568.6096 ZZZZ=            -52.9993 XXXY=           -917.0585
 XXXZ=            -53.4188 YYYX=           -918.9221 YYYZ=             -1.2676 ZZZX=            -19.9755
 ZZZY=             -7.0414 XXYY=           -713.9310 XXZZ=           -253.1271 YYZZ=           -363.1048
 XXYZ=            -13.5618 YYXZ=             -8.1013 ZZXY=           -244.2944
 N-N= 1.685305736282D+02 E-N=-9.724019107708D+02  KE= 2.654879592861D+02
 CPIOFr:  IOpCl= 0 IRwI=-1 IRwCP=  731 ICalc=  4 LCPTot=      283080 Len1MO=      727374 IndFrg=     3919950
 CPIOFr:  IOpCl= 0 IRwI=-2 IRwCP=  731 ICalc=  0 LCPTot=      283080 Len1MO=      727374 IndFrg=     1010454
 Counterpoise corrected energy =   -1340.677873207310
                   BSSE energy =       0.001729545161
               sum of monomers =   -1340.606290042417
           complexation energy =     -46.00 kcal/mole (raw)
           complexation energy =     -44.92 kcal/mole (corrected)
 1\1\GINC-R3715\SP\RM062X\Gen\C14H20Cl1N2O3(1-)\ROOT\21-Feb-2019\0\\# M
 062X/Gen 6D SCF=Tight INT(grid=ultrafine) Counterpoise=2 maxdisk=67108
 8640\\3Methyl4Chloro_EtO.M062X_6-31pGd_bsse\\-1,1\C,0,-1.8218865031,2.
 1966216877,0.1794181313\C,0,-0.4641579032,1.5809179774,-0.151405293\C,
 0,0.6848711179,2.5090876162,0.2301171233\N,0,1.9495042866,1.8666462607
 ,-0.0395506073\C,0,3.0939064623,2.5961015076,-0.0968130593\O,0,3.11346
 69329,3.8296011007,-0.0366102572\N,0,4.2225974294,1.807888301,-0.24215
 12558\C,0,5.5379299343,2.2274727484,-0.348764013\C,0,5.954633929,3.569
 3225986,-0.3426124918\C,0,6.5137431008,1.2182563945,-0.4746345952\C,0,
 7.854411275,1.5501499562,-0.5891589008\C,0,8.2417661253,2.8872331435,-
 0.580919966\C,0,7.3051644977,3.9130666282,-0.4582457883\H,0,-2.6437592
 987,1.5321457294,-0.1074865042\H,0,-1.9614979918,3.1498724439,-0.34491
 64446\H,0,-1.9119568253,2.3944771865,1.2541584274\H,0,-0.3960332857,1.
 3606277195,-1.2237248255\H,0,-0.3396883625,0.6223525595,0.3663234803\H
 ,0,0.599774588,2.785505456,1.2948321364\H,0,0.6350124279,3.44405588,-0
 .3399868768\H,0,1.9879868596,0.8341533676,0.0361398167\H,0,4.085141789
 4,0.7782818003,-0.2666360405\H,0,5.2081624834,4.3471490927,-0.24615683
 54\H,0,6.1940504081,0.178774272,-0.4784966789\H,0,8.6056811167,0.77198
 92668,-0.6856702369\C,0,7.719776172,5.3616571891,-0.4483356241\Cl,0,9.
 9556587556,3.2742297069,-0.7291939301\H,0,8.2420182661,5.630558081,-1.
 3734488098\H,0,8.4068513202,5.5712789453,0.3792195544\H,0,6.8430467667
 ,6.0054897127,-0.3439810682\O,0,1.8776014164,-0.9494606332,0.191915014
 3\O,0,4.0713092479,-0.9850876684,-0.2918999588\C,0,2.9673220633,-1.534
 9183681,-0.034498437\C,0,2.9304621391,-3.072780187,0.0073399217\C,0,4.
 2760804769,-3.7429783122,-0.241530791\H,0,2.1872886889,-3.3952402956,-
 0.7327741568\H,0,2.5207693688,-3.3588125064,0.9839846883\H,0,4.6744832
 977,-3.4554268408,-1.2187629636\H,0,4.1894255026,-4.836182727,-0.20517
 57702\H,0,5.0090519236,-3.4259167912,0.506133886\\Version=ES64L-G09Rev
 E.01\State=1-A\HF=-267.7285851\RMSD=3.891e-09\Dipole=0.4878629,0.57449
 17,-0.1114512\Quadrupole=-12.7305671,-3.4879351,16.2185022,-8.7919319,
 3.4330277,0.7659952\PG=C01 [X(C14H20Cl1N2O3)]\\@


 QUHEN THE CAUSS IS TAKEN AWAY THE EFFECT WANISHETH.
 -- PROVERBS AND REASONS OF THE YEAR 1585
           AS REPRINTED IN PAISLEY MAGAZINE 1828.
 Job cpu time:       0 days  1 hours 34 minutes 12.9 seconds.
 File lengths (MBytes):  RWF=    148 Int=      0 D2E=      0 Chk=     41 Scr=      1
 Normal termination of Gaussian 09 at Thu Feb 21 21:38:10 2019.
WARNING: pbs_rusage is deprecated and values produced may not be accurate


=============================================================================
                                     Resource usage:
                                       CPU time:              01:29:06
   JobId:    5977521.r-man2            Elapsed time:          00:22:32
   Project:             q95            Requested time:        48:00:00
   Service Units:      1.50 
                                       Max physical memory:      142MB
                                       Max virtual memory:       369MB
                                       Requested memory:           0MB

                                       Number of cpus:               4

                                       Max jobfs disk use:       0.1GB
                                       Requested jobfs:          5.0GB
=============================================================================

