 Entering Gaussian System, Link 0=/apps/gaussian/g09e01/g09/g09
 AtFile(1): /home/507/hio507/Basis/6-31pGd.gbs
 Initial command:
 /apps/gaussian/g09e01/g09/l1.exe "/jobfs/local/1828846.r-man2/Gau-39807.inp" -scrdir="/jobfs/local/1828846.r-man2/"
 Entering Link 1 = /apps/gaussian/g09e01/g09/l1.exe PID=     39808.
  
 Copyright (c) 1988,1990,1992,1993,1995,1998,2003,2009,2015,
            Gaussian, Inc.  All Rights Reserved.
  
 This is part of the Gaussian(R) 09 program.  It is based on
 the Gaussian(R) 03 system (copyright 2003, Gaussian, Inc.),
 the Gaussian(R) 98 system (copyright 1998, Gaussian, Inc.),
 the Gaussian(R) 94 system (copyright 1995, Gaussian, Inc.),
 the Gaussian 92(TM) system (copyright 1992, Gaussian, Inc.),
 the Gaussian 90(TM) system (copyright 1990, Gaussian, Inc.),
 the Gaussian 88(TM) system (copyright 1988, Gaussian, Inc.),
 the Gaussian 86(TM) system (copyright 1986, Carnegie Mellon
 University), and the Gaussian 82(TM) system (copyright 1983,
 Carnegie Mellon University). Gaussian is a federally registered
 trademark of Gaussian, Inc.
  
 This software contains proprietary and confidential information,
 including trade secrets, belonging to Gaussian, Inc.
  
 This software is provided under written license and may be
 used, copied, transmitted, or stored only in accord with that
 written license.
  
 The following legend is applicable only to US Government
 contracts under FAR:
  
                    RESTRICTED RIGHTS LEGEND
  
 Use, reproduction and disclosure by the US Government is
 subject to restrictions as set forth in subparagraphs (a)
 and (c) of the Commercial Computer Software - Restricted
 Rights clause in FAR 52.227-19.
  
 Gaussian, Inc.
 340 Quinnipiac St., Bldg. 40, Wallingford CT 06492
  
  
 ---------------------------------------------------------------
 Warning -- This program may not be used in any manner that
 competes with the business of Gaussian, Inc. or will provide
 assistance to any competitor of Gaussian, Inc.  The licensee
 of this program is prohibited from giving any competitor of
 Gaussian, Inc. access to this program.  By using this program,
 the user acknowledges that Gaussian, Inc. is engaged in the
 business of creating and licensing software in the field of
 computational chemistry and represents and warrants to the
 licensee that it is not a competitor of Gaussian, Inc. and that
 it will not use this program in any manner prohibited above.
 ---------------------------------------------------------------
  

 Cite this work as:
 Gaussian 09, Revision E.01,
 M. J. Frisch, G. W. Trucks, H. B. Schlegel, G. E. Scuseria, 
 M. A. Robb, J. R. Cheeseman, G. Scalmani, V. Barone, B. Mennucci, 
 G. A. Petersson, H. Nakatsuji, M. Caricato, X. Li, H. P. Hratchian, 
 A. F. Izmaylov, J. Bloino, G. Zheng, J. L. Sonnenberg, M. Hada, 
 M. Ehara, K. Toyota, R. Fukuda, J. Hasegawa, M. Ishida, T. Nakajima, 
 Y. Honda, O. Kitao, H. Nakai, T. Vreven, J. A. Montgomery, Jr., 
 J. E. Peralta, F. Ogliaro, M. Bearpark, J. J. Heyd, E. Brothers, 
 K. N. Kudin, V. N. Staroverov, T. Keith, R. Kobayashi, J. Normand, 
 K. Raghavachari, A. Rendell, J. C. Burant, S. S. Iyengar, J. Tomasi, 
 M. Cossi, N. Rega, J. M. Millam, M. Klene, J. E. Knox, J. B. Cross, 
 V. Bakken, C. Adamo, J. Jaramillo, R. Gomperts, R. E. Stratmann, 
 O. Yazyev, A. J. Austin, R. Cammi, C. Pomelli, J. W. Ochterski, 
 R. L. Martin, K. Morokuma, V. G. Zakrzewski, G. A. Voth, 
 P. Salvador, J. J. Dannenberg, S. Dapprich, A. D. Daniels, 
 O. Farkas, J. B. Foresman, J. V. Ortiz, J. Cioslowski, 
 and D. J. Fox, Gaussian, Inc., Wallingford CT, 2013.
 
 ******************************************
 Gaussian 09:  ES64L-G09RevE.01 30-Nov-2015
                30-Oct-2018 
 ******************************************
 %chk=3Methyl4Chloro_a1.M062X_6-31pGd_opt_water.chk
 %mem=196608000
 %nproc=4
 Will use up to    4 processors via shared memory.
 ----------------------------------------------------------------------
 # M062X/Gen 6D SCF=Tight INT(grid=ultrafine) OPT IOP(2/17=4) SCRF=(SMD
 ,Solvent=h2o) maxdisk=1610612736
 ----------------------------------------------------------------------
 1/14=-1,18=20,19=15,26=4,38=1/1,3;
 2/9=110,12=2,17=4,18=5,40=1/2;
 3/5=7,8=2,11=2,16=1,25=1,30=1,70=32201,71=1,72=1,74=-55,75=-5/1,2,3;
 4//1;
 5/5=2,32=2,38=5,53=1/2;
 6/7=2,8=2,9=2,10=2,28=1/1;
 7//1,2,3,16;
 1/14=-1,18=20,19=15,26=4/3(2);
 2/9=110,17=4/2;
 99//99;
 2/9=110,17=4/2;
 3/5=7,6=1,8=2,11=2,16=1,25=1,30=1,70=32205,71=1,72=1,74=-55,75=-5,82=7/1,2,3;
 4/5=5,16=3,69=1/1;
 5/5=2,32=2,38=5,53=1/2;
 7//1,2,3,16;
 1/14=-1,18=20,19=15,26=4/3(-5);
 2/9=110,17=4/2;
 6/7=2,8=2,9=2,10=2,19=2,28=1/1;
 99/9=1/99;
 -----------------------------------------
 3Methyl4Chloro_a1.M062X_6-31pGd_opt_water
 -----------------------------------------
 Symbolic Z-matrix:
 Charge = -1 Multiplicity = 1
 C                    -1.74362   1.89621   0.31924 
 C                    -0.40412   1.18878   0.13579 
 C                     0.75324   2.19329   0.09478 
 N                     2.02542   1.51514  -0.08465 
 C                     3.20259   2.19955  -0.1513 
 O                     3.19056   3.41631  -0.05608 
 N                     4.37271   1.51022  -0.32652 
 C                     5.70904   2.03839  -0.42199 
 C                     6.04036   3.41144  -0.32138 
 C                     6.75683   1.1235   -0.62861 
 C                     8.08002   1.54948  -0.73359 
 C                     8.39945   2.90392  -0.63427 
 C                     7.37353   3.84892  -0.42547 
 H                    -2.56078   1.14488   0.34569 
 H                    -1.92991   2.59458  -0.5244 
 H                    -1.75251   2.46539   1.27317 
 H                    -0.42852   0.61213  -0.81451 
 H                    -0.25089   0.48136   0.97977 
 H                     0.77417   2.76599   1.0483 
 H                     0.59374   2.90048  -0.74907 
 H                     2.03761   0.4861   -0.165 
 H                     5.30036   4.1739   -0.16131 
 H                     6.54814   0.06395  -0.71107 
 H                     8.86204   0.81773  -0.8936 
 C                     7.64779   5.32579  -0.30715 
 Cl                    10.09472   3.36002  -0.77748 
 H                     8.72136   5.58012  -0.40092 
 H                     7.29765   5.68901   0.68212 
 H                     7.09863   5.8694   -1.10466 
 

 GradGradGradGradGradGradGradGradGradGradGradGradGradGradGradGradGradGrad
 Berny optimization.
 Initialization pass.
                           ----------------------------
                           !    Initial Parameters    !
                           ! (Angstroms and Degrees)  !
 --------------------------                            --------------------------
 ! Name  Definition              Value          Derivative Info.                !
 --------------------------------------------------------------------------------
 ! R1    R(1,2)                  1.5259         estimate D2E/DX2                !
 ! R2    R(1,14)                 1.1104         estimate D2E/DX2                !
 ! R3    R(1,15)                 1.1109         estimate D2E/DX2                !
 ! R4    R(1,16)                 1.1109         estimate D2E/DX2                !
 ! R5    R(2,3)                  1.533          estimate D2E/DX2                !
 ! R6    R(2,17)                 1.1118         estimate D2E/DX2                !
 ! R7    R(2,18)                 1.1119         estimate D2E/DX2                !
 ! R8    R(3,4)                  1.4528         estimate D2E/DX2                !
 ! R9    R(3,19)                 1.1125         estimate D2E/DX2                !
 ! R10   R(3,20)                 1.1125         estimate D2E/DX2                !
 ! R11   R(4,5)                  1.3633         estimate D2E/DX2                !
 ! R12   R(4,21)                 1.0322         estimate D2E/DX2                !
 ! R13   R(5,6)                  1.2205         estimate D2E/DX2                !
 ! R14   R(5,7)                  1.3693         estimate D2E/DX2                !
 ! R15   R(7,8)                  1.4401         estimate D2E/DX2                !
 ! R16   R(8,9)                  1.416          estimate D2E/DX2                !
 ! R17   R(8,10)                 1.4063         estimate D2E/DX2                !
 ! R18   R(9,13)                 1.407          estimate D2E/DX2                !
 ! R19   R(9,22)                 1.0745         estimate D2E/DX2                !
 ! R20   R(10,11)                1.394          estimate D2E/DX2                !
 ! R21   R(10,23)                1.0831         estimate D2E/DX2                !
 ! R22   R(11,12)                1.3951         estimate D2E/DX2                !
 ! R23   R(11,24)                1.0829         estimate D2E/DX2                !
 ! R24   R(12,13)                1.4104         estimate D2E/DX2                !
 ! R25   R(12,26)                1.7614         estimate D2E/DX2                !
 ! R26   R(13,25)                1.5068         estimate D2E/DX2                !
 ! R27   R(25,27)                1.1073         estimate D2E/DX2                !
 ! R28   R(25,28)                1.1105         estimate D2E/DX2                !
 ! R29   R(25,29)                1.1105         estimate D2E/DX2                !
 ! A1    A(2,1,14)             109.5842         estimate D2E/DX2                !
 ! A2    A(2,1,15)             110.3255         estimate D2E/DX2                !
 ! A3    A(2,1,16)             110.3534         estimate D2E/DX2                !
 ! A4    A(14,1,15)            108.6657         estimate D2E/DX2                !
 ! A5    A(14,1,16)            108.684          estimate D2E/DX2                !
 ! A6    A(15,1,16)            109.1886         estimate D2E/DX2                !
 ! A7    A(1,2,3)              111.2329         estimate D2E/DX2                !
 ! A8    A(1,2,17)             108.9015         estimate D2E/DX2                !
 ! A9    A(1,2,18)             108.9472         estimate D2E/DX2                !
 ! A10   A(3,2,17)             109.4838         estimate D2E/DX2                !
 ! A11   A(3,2,18)             109.4608         estimate D2E/DX2                !
 ! A12   A(17,2,18)            108.7732         estimate D2E/DX2                !
 ! A13   A(2,3,4)              111.0106         estimate D2E/DX2                !
 ! A14   A(2,3,19)             109.1832         estimate D2E/DX2                !
 ! A15   A(2,3,20)             109.1825         estimate D2E/DX2                !
 ! A16   A(4,3,19)             109.25           estimate D2E/DX2                !
 ! A17   A(4,3,20)             109.1839         estimate D2E/DX2                !
 ! A18   A(19,3,20)            109.0012         estimate D2E/DX2                !
 ! A19   A(3,4,5)              121.859          estimate D2E/DX2                !
 ! A20   A(3,4,21)             119.0325         estimate D2E/DX2                !
 ! A21   A(5,4,21)             119.1084         estimate D2E/DX2                !
 ! A22   A(4,5,6)              119.2187         estimate D2E/DX2                !
 ! A23   A(4,5,7)              119.4318         estimate D2E/DX2                !
 ! A24   A(6,5,7)              121.3493         estimate D2E/DX2                !
 ! A25   A(5,7,8)              128.0832         estimate D2E/DX2                !
 ! A26   A(7,8,9)              124.6134         estimate D2E/DX2                !
 ! A27   A(7,8,10)             117.5508         estimate D2E/DX2                !
 ! A28   A(9,8,10)             117.8357         estimate D2E/DX2                !
 ! A29   A(8,9,13)             121.1946         estimate D2E/DX2                !
 ! A30   A(8,9,22)             122.5133         estimate D2E/DX2                !
 ! A31   A(13,9,22)            116.292          estimate D2E/DX2                !
 ! A32   A(8,10,11)            121.298          estimate D2E/DX2                !
 ! A33   A(8,10,23)            120.2705         estimate D2E/DX2                !
 ! A34   A(11,10,23)           118.4315         estimate D2E/DX2                !
 ! A35   A(10,11,12)           120.5723         estimate D2E/DX2                !
 ! A36   A(10,11,24)           119.3478         estimate D2E/DX2                !
 ! A37   A(12,11,24)           120.0799         estimate D2E/DX2                !
 ! A38   A(11,12,13)           119.6357         estimate D2E/DX2                !
 ! A39   A(11,12,26)           117.7729         estimate D2E/DX2                !
 ! A40   A(13,12,26)           122.5914         estimate D2E/DX2                !
 ! A41   A(9,13,12)            119.4636         estimate D2E/DX2                !
 ! A42   A(9,13,25)            118.127          estimate D2E/DX2                !
 ! A43   A(12,13,25)           122.4093         estimate D2E/DX2                !
 ! A44   A(13,25,27)           113.2637         estimate D2E/DX2                !
 ! A45   A(13,25,28)           109.4603         estimate D2E/DX2                !
 ! A46   A(13,25,29)           109.476          estimate D2E/DX2                !
 ! A47   A(27,25,28)           107.8197         estimate D2E/DX2                !
 ! A48   A(27,25,29)           107.8318         estimate D2E/DX2                !
 ! A49   A(28,25,29)           108.8893         estimate D2E/DX2                !
 ! D1    D(14,1,2,3)          -179.9698         estimate D2E/DX2                !
 ! D2    D(14,1,2,17)           59.2821         estimate D2E/DX2                !
 ! D3    D(14,1,2,18)          -59.2205         estimate D2E/DX2                !
 ! D4    D(15,1,2,3)            60.424          estimate D2E/DX2                !
 ! D5    D(15,1,2,17)          -60.3241         estimate D2E/DX2                !
 ! D6    D(15,1,2,18)         -178.8267         estimate D2E/DX2                !
 ! D7    D(16,1,2,3)           -60.3236         estimate D2E/DX2                !
 ! D8    D(16,1,2,17)          178.9283         estimate D2E/DX2                !
 ! D9    D(16,1,2,18)           60.4257         estimate D2E/DX2                !
 ! D10   D(1,2,3,4)           -179.8011         estimate D2E/DX2                !
 ! D11   D(1,2,3,19)            59.6976         estimate D2E/DX2                !
 ! D12   D(1,2,3,20)           -59.3824         estimate D2E/DX2                !
 ! D13   D(17,2,3,4)           -59.3961         estimate D2E/DX2                !
 ! D14   D(17,2,3,19)         -179.8974         estimate D2E/DX2                !
 ! D15   D(17,2,3,20)           61.0226         estimate D2E/DX2                !
 ! D16   D(18,2,3,4)            59.7521         estimate D2E/DX2                !
 ! D17   D(18,2,3,19)          -60.7492         estimate D2E/DX2                !
 ! D18   D(18,2,3,20)         -179.8292         estimate D2E/DX2                !
 ! D19   D(2,3,4,5)           -179.9761         estimate D2E/DX2                !
 ! D20   D(2,3,4,21)             0.0977         estimate D2E/DX2                !
 ! D21   D(19,3,4,5)           -59.5144         estimate D2E/DX2                !
 ! D22   D(19,3,4,21)          120.5594         estimate D2E/DX2                !
 ! D23   D(20,3,4,5)            59.6061         estimate D2E/DX2                !
 ! D24   D(20,3,4,21)         -120.3201         estimate D2E/DX2                !
 ! D25   D(3,4,5,6)              0.0981         estimate D2E/DX2                !
 ! D26   D(3,4,5,7)           -179.7513         estimate D2E/DX2                !
 ! D27   D(21,4,5,6)          -179.9758         estimate D2E/DX2                !
 ! D28   D(21,4,5,7)             0.1748         estimate D2E/DX2                !
 ! D29   D(4,5,7,8)            179.9992         estimate D2E/DX2                !
 ! D30   D(6,5,7,8)              0.1531         estimate D2E/DX2                !
 ! D31   D(5,7,8,9)              1.242          estimate D2E/DX2                !
 ! D32   D(5,7,8,10)          -178.8131         estimate D2E/DX2                !
 ! D33   D(7,8,9,13)           179.9951         estimate D2E/DX2                !
 ! D34   D(7,8,9,22)             0.1032         estimate D2E/DX2                !
 ! D35   D(10,8,9,13)            0.0504         estimate D2E/DX2                !
 ! D36   D(10,8,9,22)         -179.8416         estimate D2E/DX2                !
 ! D37   D(7,8,10,11)          179.9604         estimate D2E/DX2                !
 ! D38   D(7,8,10,23)            0.0302         estimate D2E/DX2                !
 ! D39   D(9,8,10,11)           -0.0909         estimate D2E/DX2                !
 ! D40   D(9,8,10,23)          179.9789         estimate D2E/DX2                !
 ! D41   D(8,9,13,12)            0.0225         estimate D2E/DX2                !
 ! D42   D(8,9,13,25)         -179.9575         estimate D2E/DX2                !
 ! D43   D(22,9,13,12)         179.9209         estimate D2E/DX2                !
 ! D44   D(22,9,13,25)          -0.0591         estimate D2E/DX2                !
 ! D45   D(8,10,11,12)           0.0582         estimate D2E/DX2                !
 ! D46   D(8,10,11,24)        -179.9415         estimate D2E/DX2                !
 ! D47   D(23,10,11,12)        179.9896         estimate D2E/DX2                !
 ! D48   D(23,10,11,24)         -0.0101         estimate D2E/DX2                !
 ! D49   D(10,11,12,13)          0.0177         estimate D2E/DX2                !
 ! D50   D(10,11,12,26)        179.992          estimate D2E/DX2                !
 ! D51   D(24,11,12,13)       -179.9826         estimate D2E/DX2                !
 ! D52   D(24,11,12,26)         -0.0084         estimate D2E/DX2                !
 ! D53   D(11,12,13,9)          -0.0571         estimate D2E/DX2                !
 ! D54   D(11,12,13,25)        179.922          estimate D2E/DX2                !
 ! D55   D(26,12,13,9)         179.97           estimate D2E/DX2                !
 ! D56   D(26,12,13,25)         -0.0509         estimate D2E/DX2                !
 ! D57   D(9,13,25,27)        -179.9956         estimate D2E/DX2                !
 ! D58   D(9,13,25,28)          59.6601         estimate D2E/DX2                !
 ! D59   D(9,13,25,29)         -59.6248         estimate D2E/DX2                !
 ! D60   D(12,13,25,27)          0.025          estimate D2E/DX2                !
 ! D61   D(12,13,25,28)       -120.3193         estimate D2E/DX2                !
 ! D62   D(12,13,25,29)        120.3958         estimate D2E/DX2                !
 --------------------------------------------------------------------------------
 Trust Radius=3.00D-01 FncErr=1.00D-07 GrdErr=1.00D-06
 Number of steps in this run=    150 maximum allowed number of steps=    174.
 GradGradGradGradGradGradGradGradGradGradGradGradGradGradGradGradGradGrad

                          Input orientation:                          
 ---------------------------------------------------------------------
 Center     Atomic      Atomic             Coordinates (Angstroms)
 Number     Number       Type             X           Y           Z
 ---------------------------------------------------------------------
      1          6           0       -1.743620    1.896210    0.319240
      2          6           0       -0.404120    1.188780    0.135790
      3          6           0        0.753240    2.193290    0.094780
      4          7           0        2.025420    1.515140   -0.084650
      5          6           0        3.202590    2.199550   -0.151300
      6          8           0        3.190560    3.416310   -0.056080
      7          7           0        4.372710    1.510220   -0.326520
      8          6           0        5.709040    2.038390   -0.421990
      9          6           0        6.040360    3.411440   -0.321380
     10          6           0        6.756830    1.123500   -0.628610
     11          6           0        8.080020    1.549480   -0.733590
     12          6           0        8.399450    2.903920   -0.634270
     13          6           0        7.373530    3.848920   -0.425470
     14          1           0       -2.560780    1.144880    0.345690
     15          1           0       -1.929910    2.594580   -0.524400
     16          1           0       -1.752510    2.465390    1.273170
     17          1           0       -0.428520    0.612130   -0.814510
     18          1           0       -0.250890    0.481360    0.979770
     19          1           0        0.774170    2.765990    1.048300
     20          1           0        0.593740    2.900480   -0.749070
     21          1           0        2.037610    0.486100   -0.165000
     22          1           0        5.300360    4.173900   -0.161310
     23          1           0        6.548140    0.063950   -0.711070
     24          1           0        8.862040    0.817730   -0.893600
     25          6           0        7.647790    5.325790   -0.307150
     26         17           0       10.094720    3.360020   -0.777480
     27          1           0        8.721360    5.580120   -0.400920
     28          1           0        7.297650    5.689010    0.682120
     29          1           0        7.098630    5.869400   -1.104660
 ---------------------------------------------------------------------
                    Distance matrix (angstroms):
                    1          2          3          4          5
     1  C    0.000000
     2  C    1.525900   0.000000
     3  C    2.524470   1.533038   0.000000
     4  N    3.809725   2.461254   1.452764   0.000000
     5  C    4.977792   3.756652   2.461688   1.363301   0.000000
     6  O    5.176650   4.233253   2.731129   2.229981   1.220539
     7  N    6.162425   4.809902   3.707377   2.359724   1.369328
     8  C    7.490780   6.197070   4.985078   3.735859   2.526170
     9  C    7.955920   6.832316   5.441573   4.446542   3.090395
    10  C    8.587965   7.201928   6.140915   4.778652   3.744106
    11  C    9.885979   8.536191   7.401513   6.089375   4.954894
    12  C   10.237506   9.002085   7.713691   6.546682   5.266569
    13  C    9.353614   8.239126   6.843976   5.845081   4.493588
    14  H    1.110381   2.167295   3.484946   4.621203   5.880116
    15  H    1.110924   2.177191   2.782752   4.123494   5.161183
    16  H    1.110868   2.177504   2.782342   4.125458   5.162635
    17  H    2.159569   1.111841   2.173346   2.714764   4.018048
    18  H    2.160172   1.111856   2.173060   2.717219   4.019704
    19  H    2.761759   2.169939   1.112485   2.100911   2.767150
    20  H    2.759184   2.169935   1.112493   2.100078   2.766718
    21  H    4.064554   2.558570   2.152113   1.032244   2.072022
    22  H    7.418656   6.445177   4.966357   4.219018   2.880763
    23  H    8.554063   7.093401   6.226102   4.790966   4.008346
    24  H   10.729125   9.330544   8.283821   6.919549   5.872803
    25  C   10.017633   9.063349   7.583464   6.795705   5.436678
    26  Cl  11.978807  10.759832   9.454382   8.306455   7.017140
    27  H   11.117807  10.141317   8.672213   7.839624   6.476680
    28  H    9.811298   8.936879   7.442737   6.767979   5.444303
    29  H    9.797914   8.929624   7.430775   6.762948   5.436527
                    6          7          8          9         10
     6  O    0.000000
     7  N    2.259158   0.000000
     8  C    2.894010   1.440089   0.000000
     9  C    2.862126   2.528976   1.416037   0.000000
    10  C    4.278206   2.434099   1.406264   2.417103   0.000000
    11  C    5.277395   3.729798   2.440835   2.792315   1.394027
    12  C    5.265870   4.272206   2.834168   2.433266   2.422422
    13  C    4.221473   3.805815   2.459382   1.406970   2.801696
    14  H    6.196670   6.975573   8.353300   8.919747   9.368435
    15  H    5.207089   6.398282   7.659856   8.014592   8.811038
    16  H    5.206255   6.402318   7.663591   8.010395   8.821922
    17  H    4.640731   4.908820   6.313314   7.065814   7.205922
    18  H    4.640096   4.913514   6.317439   7.061033   7.218543
    19  H    2.735235   4.051738   5.200394   5.479543   6.426665
    20  H    2.736748   4.048702   5.197737   5.487228   6.415282
    21  H    3.150760   2.554917   3.994377   4.960250   4.784585
    22  H    2.244164   2.825424   2.189835   1.074508   3.412421
    23  H    4.789642   2.640468   2.164733   3.408136   1.083050
    24  H    6.294422   4.577686   3.413771   3.875132   2.143741
    25  C    4.855517   5.028429   3.818238   2.499754   4.307713
    26  Cl   6.941975   6.030466   4.594265   4.080258   4.020658
    27  H    5.949011   5.956541   4.649556   3.449241   4.875724
    28  H    4.751662   5.199511   4.131557   2.788389   4.780626
    29  H    4.731826   5.199865   4.132026   2.788374   4.781947
                   11         12         13         14         15
    11  C    0.000000
    12  C    1.395137   0.000000
    13  C    2.425178   1.410367   0.000000
    14  H   10.703045  11.143661  10.324584   0.000000
    15  H   10.066513  10.334575   9.388139   1.804628   0.000000
    16  H   10.076935  10.338904   9.385315   1.804790   1.810917
    17  H    8.560399   9.122381   8.455776   2.485240   2.503686
    18  H    8.572079   9.127010   8.452629   2.485540   3.089876
    19  H    7.617773   7.809927   6.848086   3.774063   3.132861
    20  H    7.607222   7.806555   6.853452   3.772483   2.552031
    21  H    6.161557   6.821955   6.312562   4.673327   4.507335
    22  H    3.865436   3.382440   2.115048   8.439759   7.409648
    23  H    2.134002   3.390970   3.884435   9.233503   8.849648
    24  H    1.082874   2.152540   3.409240  11.494507  10.943477
    25  C    3.824813   2.556845   1.506772  11.050842   9.961879
    26  Cl   2.709058   1.761385   2.787079  12.896900  12.051625
    27  H    4.094880   2.705573   2.194152  12.145594  11.062470
    28  H    4.444327   3.271631   2.149057  10.860522   9.807092
    29  H    4.445507   3.272227   2.149234  10.850291   9.621626
                   16         17         18         19         20
    16  H    0.000000
    17  H    3.089649   0.000000
    18  H    2.505458   1.807787   0.000000
    19  H    2.554416   3.091219   2.504991   0.000000
    20  H    3.127882   2.507158   3.091024   1.811403   0.000000
    21  H    4.511201   2.553340   2.558858   2.875113   2.873174
    22  H    7.397278   6.777385   6.764118   4.892010   4.911144
    23  H    8.865941   6.998927   7.018545   6.613254   6.595622
    24  H   10.958027   9.293171   9.309573   8.542853   8.527809
    25  C    9.952132   9.364977   9.354882   7.458986   7.472419
    26  Cl  12.056632  10.876160  10.881464   9.516249   9.512129
    27  H   11.054686  10.419803  10.411769   8.554379   8.565039
    28  H    9.625303   9.365272   9.175438   7.157788   7.400447
    29  H    9.776709   9.185917   9.348330   7.366491   7.159227
                   21         22         23         24         25
    21  H    0.000000
    22  H    4.923964   0.000000
    23  H    4.563035   4.330229   0.000000
    24  H    6.871221   4.948302   2.440417   0.000000
    25  C    7.410595   2.618883   5.390672   4.705415   0.000000
    26  Cl   8.576221   4.901832   4.842181   2.827759   3.173788
    27  H    8.406974   3.706495   5.936936   4.789873   1.107262
    28  H    7.446872   2.645014   5.843290   5.353464   1.110487
    29  H    7.448275   2.645450   5.844759   5.354767   1.110455
                   26         27         28         29
    26  Cl   0.000000
    27  H    2.637567   0.000000
    28  H    3.921508   1.792145   0.000000
    29  H    3.921810   1.792257   1.806857   0.000000
 Stoichiometry    C11H14ClN2O(1-)
 Framework group  C1[X(C11H14ClN2O)]
 Deg. of freedom    81
 Full point group                 C1      NOp   1
 Largest Abelian subgroup         C1      NOp   1
 Largest concise Abelian subgroup C1      NOp   1
                         Standard orientation:                         
 ---------------------------------------------------------------------
 Center     Atomic      Atomic             Coordinates (Angstroms)
 Number     Number       Type             X           Y           Z
 ---------------------------------------------------------------------
      1          6           0        6.775476    0.465303    0.015560
      2          6           0        5.563940   -0.462038   -0.008691
      3          6           0        4.254393    0.334860    0.006996
      4          7           0        3.104354   -0.552605   -0.011483
      5          6           0        1.827208   -0.075731   -0.002770
      6          8           0        1.641736    1.130430    0.019398
      7          7           0        0.779626   -0.957467   -0.015891
      8          6           0       -0.629892   -0.662373   -0.009941
      9          6           0       -1.178402    0.643109   -0.013918
     10          6           0       -1.521988   -1.749413   -0.000643
     11          6           0       -2.902167   -1.553535    0.006411
     12          6           0       -3.435972   -0.264563    0.003182
     13          6           0       -2.570245    0.848780   -0.007692
     14          1           0        7.706981   -0.138921    0.002980
     15          1           0        6.767281    1.086885    0.936279
     16          1           0        6.770745    1.130505   -0.874109
     17          1           0        5.602932   -1.128873    0.880129
     18          1           0        5.606152   -1.087203   -0.927175
     19          1           0        4.219754    0.998727   -0.885027
     20          1           0        4.218387    0.960811    0.925979
     21          1           0        3.259248   -1.572982   -0.030618
     22          1           0       -0.566783    1.526510   -0.023478
     23          1           0       -1.145261   -2.764827    0.002328
     24          1           0       -3.560224   -2.413485    0.014460
     25          6           0       -3.078735    2.267148   -0.013458
     26         17           0       -5.189864   -0.102535    0.012353
     27          1           0       -4.183867    2.335563   -0.007868
     28          1           0       -2.710569    2.788465   -0.922228
     29          1           0       -2.700520    2.799706    0.884566
 ---------------------------------------------------------------------
 Rotational constants (GHZ):      2.0657978      0.1628419      0.1515435
 General basis read from cards:  (6D, 7F)
 There are   317 symmetry adapted cartesian basis functions of A   symmetry.
 There are   317 symmetry adapted basis functions of A   symmetry.
   317 basis functions,   560 primitive gaussians,   317 cartesian basis functions
    60 alpha electrons       60 beta electrons
       nuclear repulsion energy      1001.3917643087 Hartrees.
 NAtoms=   29 NActive=   29 NUniq=   29 SFac= 1.00D+00 NAtFMM=   60 NAOKFM=F Big=F
 Integral buffers will be    131072 words long.
 Raffenetti 2 integral format.
 Two-electron integral symmetry is turned on.
 ------------------------------------------------------------------------------
 Polarizable Continuum Model (PCM)
 =================================
 Model                : PCM (using non-symmetric T matrix).
 Atomic radii         : SMD-Coulomb.
 Polarization charges : Total charges.
 Charge compensation  : None.
 Solution method      : On-the-fly selection.
 Cavity type          : VdW (van der Waals Surface) (Alpha=1.000).
 Cavity algorithm     : GePol (No added spheres)
                        Default sphere list used, NSphG=   29.
                        Lebedev-Laikov grids with approx.  5.0 points / Ang**2.
                        Smoothing algorithm: York/Karplus (Gamma=1.0000).
                        Polarization charges: spherical gaussians, with
                                              point-specific exponents (IZeta= 3).
                        Self-potential: point-specific (ISelfS= 7).
                        Self-field    : sphere-specific E.n sum rule (ISelfD= 2).
 1st derivatives      : Analytical E(r).r(x)/FMM algorithm (CHGder, D1EAlg=3).
                        Cavity 1st derivative terms included.
 Solvent              : Water, Eps=  78.355300 Eps(inf)=   1.777849
 ------------------------------------------------------------------------------
 ------------------------------------------------------------------------------
 Atomic radii for non-electrostatic terms: SMD-CDS.
 ------------------------------------------------------------------------------
 Nuclear repulsion after PCM non-electrostatic terms =     1001.3983193101 Hartrees.
 One-electron integrals computed using PRISM.
 NBasis=   317 RedAO= T EigKep=  2.07D-06  NBF=   317
 NBsUse=   316 1.00D-06 EigRej=  6.27D-07 NBFU=   316
 ExpMin= 4.38D-02 ExpMax= 2.52D+04 ExpMxC= 3.78D+03 IAcc=3 IRadAn=         5 AccDes= 0.00D+00
 Harris functional with IExCor= 1009 and IRadAn=       5 diagonalized for initial guess.
 HarFok:  IExCor= 1009 AccDes= 0.00D+00 IRadAn=         5 IDoV= 1 UseB2=F ITyADJ=14
 ICtDFT=  3500011 ScaDFX=  1.000000  1.000000  1.000000  1.000000
 FoFCou: FMM=F IPFlag=           0 FMFlag=      100000 FMFlg1=           0
         NFxFlg=           0 DoJE=T BraDBF=F KetDBF=T FulRan=T
         wScrn=  0.000000 ICntrl=     500 IOpCl=  0 I1Cent=   200000004 NGrid=           0
         NMat0=    1 NMatS0=      1 NMatT0=    0 NMatD0=    1 NMtDS0=    0 NMtDT0=    0
 Petite list used in FoFCou.
 Requested convergence on RMS density matrix=1.00D-08 within 128 cycles.
 Requested convergence on MAX density matrix=1.00D-06.
 Requested convergence on             energy=1.00D-06.
 No special actions if energy rises.
 Inv3:  Mode=1 IEnd=    17078988.
 Iteration    1 A*A^-1 deviation from unit magnitude is 5.77D-15 for    561.
 Iteration    1 A*A^-1 deviation from orthogonality  is 3.63D-15 for    867    608.
 Iteration    1 A^-1*A deviation from unit magnitude is 5.77D-15 for    576.
 Iteration    1 A^-1*A deviation from orthogonality  is 2.19D-12 for   1053   1036.
 Error on total polarization charges =  0.06300
 SCF Done:  E(RM062X) =  -1072.39675887     A.U. after   15 cycles
            NFock= 15  Conv=0.59D-08     -V/T= 2.0065
 SMD-CDS (non-electrostatic) energy       (kcal/mol) =       4.11
 (included in total energy above)

 **********************************************************************

            Population analysis using the SCF density.

 **********************************************************************

 Orbital symmetries:
       Occupied  (A) (A) (A) (A) (A) (A) (A) (A) (A) (A) (A) (A)
                 (A) (A) (A) (A) (A) (A) (A) (A) (A) (A) (A) (A)
                 (A) (A) (A) (A) (A) (A) (A) (A) (A) (A) (A) (A)
                 (A) (A) (A) (A) (A) (A) (A) (A) (A) (A) (A) (A)
                 (A) (A) (A) (A) (A) (A) (A) (A) (A) (A) (A) (A)
       Virtual   (A) (A) (A) (A) (A) (A) (A) (A) (A) (A) (A) (A)
                 (A) (A) (A) (A) (A) (A) (A) (A) (A) (A) (A) (A)
                 (A) (A) (A) (A) (A) (A) (A) (A) (A) (A) (A) (A)
                 (A) (A) (A) (A) (A) (A) (A) (A) (A) (A) (A) (A)
                 (A) (A) (A) (A) (A) (A) (A) (A) (A) (A) (A) (A)
                 (A) (A) (A) (A) (A) (A) (A) (A) (A) (A) (A) (A)
                 (A) (A) (A) (A) (A) (A) (A) (A) (A) (A) (A) (A)
                 (A) (A) (A) (A) (A) (A) (A) (A) (A) (A) (A) (A)
                 (A) (A) (A) (A) (A) (A) (A) (A) (A) (A) (A) (A)
                 (A) (A) (A) (A) (A) (A) (A) (A) (A) (A) (A) (A)
                 (A) (A) (A) (A) (A) (A) (A) (A) (A) (A) (A) (A)
                 (A) (A) (A) (A) (A) (A) (A) (A) (A) (A) (A) (A)
                 (A) (A) (A) (A) (A) (A) (A) (A) (A) (A) (A) (A)
                 (A) (A) (A) (A) (A) (A) (A) (A) (A) (A) (A) (A)
                 (A) (A) (A) (A) (A) (A) (A) (A) (A) (A) (A) (A)
                 (A) (A) (A) (A) (A) (A) (A) (A) (A) (A) (A) (A)
                 (A) (A) (A) (A) (A) (A) (A) (A) (A) (A) (A) (A)
                 (A) (A) (A) (A) (A) (A) (A) (A) (A) (A) (A) (A)
                 (A) (A) (A) (A) (A) (A) (A) (A) (A) (A) (A) (A)
                 (A) (A) (A) (A) (A) (A) (A) (A) (A) (A) (A) (A)
                 (A) (A) (A) (A) (A) (A) (A) (A) (A) (A) (A) (A)
                 (A) (A) (A) (A)
 The electronic state is 1-A.
 Alpha  occ. eigenvalues -- -102.66703 -19.58405 -14.75862 -14.69856 -10.64071
 Alpha  occ. eigenvalues --  -10.59798 -10.58220 -10.57064 -10.56474 -10.55368
 Alpha  occ. eigenvalues --  -10.54111 -10.53925 -10.53794 -10.53382 -10.53214
 Alpha  occ. eigenvalues --   -9.81341  -7.53725  -7.53098  -7.53089  -1.15279
 Alpha  occ. eigenvalues --   -1.00512  -0.98651  -0.95141  -0.90336  -0.86768
 Alpha  occ. eigenvalues --   -0.86028  -0.80282  -0.76516  -0.75258  -0.68405
 Alpha  occ. eigenvalues --   -0.66698  -0.65534  -0.62288  -0.57708  -0.54340
 Alpha  occ. eigenvalues --   -0.54256  -0.54004  -0.52120  -0.50607  -0.49424
 Alpha  occ. eigenvalues --   -0.48557  -0.47983  -0.46371  -0.45296  -0.44647
 Alpha  occ. eigenvalues --   -0.44231  -0.43599  -0.42466  -0.41187  -0.40292
 Alpha  occ. eigenvalues --   -0.39848  -0.38891  -0.38620  -0.36913  -0.34411
 Alpha  occ. eigenvalues --   -0.32305  -0.30331  -0.29252  -0.27345  -0.22409
 Alpha virt. eigenvalues --    0.01970   0.02053   0.02864   0.03323   0.03727
 Alpha virt. eigenvalues --    0.04111   0.04452   0.04925   0.05216   0.06158
 Alpha virt. eigenvalues --    0.06480   0.06795   0.07386   0.08107   0.08187
 Alpha virt. eigenvalues --    0.08252   0.08943   0.09488   0.09715   0.10373
 Alpha virt. eigenvalues --    0.10569   0.10604   0.11565   0.12475   0.12790
 Alpha virt. eigenvalues --    0.13023   0.13630   0.14156   0.14282   0.14962
 Alpha virt. eigenvalues --    0.15607   0.15766   0.16336   0.17468   0.17791
 Alpha virt. eigenvalues --    0.18397   0.19461   0.19610   0.20525   0.20799
 Alpha virt. eigenvalues --    0.21221   0.21690   0.21826   0.22621   0.22732
 Alpha virt. eigenvalues --    0.23324   0.23414   0.24193   0.24236   0.24893
 Alpha virt. eigenvalues --    0.25147   0.25790   0.26221   0.26341   0.26932
 Alpha virt. eigenvalues --    0.27105   0.27503   0.27754   0.28551   0.29116
 Alpha virt. eigenvalues --    0.29632   0.30341   0.31126   0.31554   0.31709
 Alpha virt. eigenvalues --    0.32542   0.33001   0.33084   0.33355   0.33634
 Alpha virt. eigenvalues --    0.33990   0.34896   0.35606   0.36620   0.37087
 Alpha virt. eigenvalues --    0.37200   0.38286   0.39375   0.40431   0.40806
 Alpha virt. eigenvalues --    0.41591   0.42035   0.45168   0.45886   0.47230
 Alpha virt. eigenvalues --    0.49231   0.52047   0.53802   0.56622   0.58933
 Alpha virt. eigenvalues --    0.59551   0.62864   0.65133   0.68935   0.69806
 Alpha virt. eigenvalues --    0.70494   0.70932   0.72148   0.72665   0.73250
 Alpha virt. eigenvalues --    0.75442   0.75485   0.76930   0.77481   0.78124
 Alpha virt. eigenvalues --    0.78319   0.78947   0.79400   0.80883   0.81131
 Alpha virt. eigenvalues --    0.81754   0.81912   0.84047   0.84797   0.85201
 Alpha virt. eigenvalues --    0.86690   0.87468   0.89329   0.90165   0.90309
 Alpha virt. eigenvalues --    0.93628   0.94141   0.98151   0.98952   0.99008
 Alpha virt. eigenvalues --    0.99131   1.00077   1.01171   1.01932   1.04303
 Alpha virt. eigenvalues --    1.04700   1.04845   1.06115   1.06928   1.08499
 Alpha virt. eigenvalues --    1.08751   1.10962   1.11828   1.12935   1.13203
 Alpha virt. eigenvalues --    1.13373   1.15392   1.15855   1.17197   1.18711
 Alpha virt. eigenvalues --    1.19286   1.20742   1.23197   1.23653   1.24320
 Alpha virt. eigenvalues --    1.25435   1.28728   1.29572   1.30341   1.32859
 Alpha virt. eigenvalues --    1.34765   1.35007   1.37755   1.40511   1.40949
 Alpha virt. eigenvalues --    1.42977   1.43677   1.45669   1.46809   1.47511
 Alpha virt. eigenvalues --    1.47853   1.49530   1.49852   1.52179   1.53093
 Alpha virt. eigenvalues --    1.55376   1.56535   1.58392   1.60171   1.61511
 Alpha virt. eigenvalues --    1.62081   1.62884   1.74690   1.81886   1.85328
 Alpha virt. eigenvalues --    1.87073   1.88459   1.88587   1.90326   1.90392
 Alpha virt. eigenvalues --    1.93190   1.94375   1.95034   1.95535   1.98205
 Alpha virt. eigenvalues --    1.99275   2.00312   2.01390   2.04307   2.05467
 Alpha virt. eigenvalues --    2.05507   2.06704   2.08319   2.08866   2.15331
 Alpha virt. eigenvalues --    2.16117   2.18901   2.19177   2.21796   2.22138
 Alpha virt. eigenvalues --    2.26042   2.26214   2.28224   2.29091   2.31730
 Alpha virt. eigenvalues --    2.32118   2.33829   2.37714   2.40222   2.40727
 Alpha virt. eigenvalues --    2.41133   2.42409   2.43054   2.43243   2.47144
 Alpha virt. eigenvalues --    2.55679   2.60442   2.61860   2.67191   2.68145
 Alpha virt. eigenvalues --    2.69981   2.72650   2.75367   2.77933   2.80492
 Alpha virt. eigenvalues --    2.81333   2.82338   2.84735   2.89301   2.96051
 Alpha virt. eigenvalues --    3.03111   3.10267   3.15629   3.29476   3.35712
 Alpha virt. eigenvalues --    3.42894   4.17919   4.26299   4.27730   4.33379
 Alpha virt. eigenvalues --    4.39051   4.40453   4.41744   4.43650   4.45768
 Alpha virt. eigenvalues --    4.48280   4.52149   4.54761   4.60573   4.66652
 Alpha virt. eigenvalues --    4.79740
          Condensed to atoms (all electrons):
               1          2          3          4          5          6
     1  C    5.656210  -0.085563   0.046787  -0.007747  -0.045190  -0.004605
     2  C   -0.085563   6.223444  -0.473099  -0.068520   0.168326   0.023820
     3  C    0.046787  -0.473099   6.960632   0.246395  -0.610600  -0.085628
     4  N   -0.007747  -0.068520   0.246395   7.750636   0.414130  -0.244966
     5  C   -0.045190   0.168326  -0.610600   0.414130   6.092278   0.458821
     6  O   -0.004605   0.023820  -0.085628  -0.244966   0.458821   8.813943
     7  N   -0.002182   0.004776  -0.078625  -0.348214   0.330687  -0.130268
     8  C   -0.008451   0.011635  -0.385758  -0.123617  -0.679585  -0.274903
     9  C    0.002802   0.001005   0.085492   0.033508   0.464928   0.344348
    10  C   -0.002919   0.008028  -0.179910  -0.104980  -1.414523  -0.120035
    11  C    0.000125  -0.001205   0.009704   0.007263   0.089942   0.004698
    12  C   -0.000074   0.001003  -0.007187  -0.008955  -0.138024  -0.017350
    13  C    0.000341   0.001128   0.018767   0.020170   0.234721   0.055701
    14  H    0.412968  -0.088451   0.027787   0.000430  -0.002024   0.000006
    15  H    0.415798  -0.064192  -0.008192   0.000393   0.000315  -0.000051
    16  H    0.415611  -0.063801  -0.008231   0.000395   0.000144  -0.000051
    17  H   -0.035779   0.425910  -0.073404   0.005654  -0.006931  -0.000197
    18  H   -0.035752   0.425869  -0.074158   0.005704  -0.006218  -0.000190
    19  H    0.002265  -0.041619   0.428006  -0.058772  -0.024983   0.003034
    20  H    0.003964  -0.044014   0.436702  -0.059210  -0.031117   0.003166
    21  H   -0.004070   0.003609  -0.080463   0.245640   0.030721   0.011009
    22  H   -0.000005   0.000033   0.003932   0.000292   0.021741  -0.005694
    23  H   -0.000001   0.000045  -0.000964  -0.000237  -0.022761   0.000146
    24  H   -0.000000  -0.000000   0.000020   0.000019   0.002466   0.000000
    25  C   -0.000028   0.000181  -0.007366  -0.000912  -0.082396   0.007552
    26  Cl  -0.000001   0.000007  -0.000228   0.000004  -0.010518   0.000109
    27  H   -0.000000  -0.000000   0.000002   0.000001   0.000217  -0.000004
    28  H   -0.000000  -0.000000  -0.000027  -0.000007  -0.000962  -0.000020
    29  H   -0.000000  -0.000000  -0.000037  -0.000010  -0.001226  -0.000055
               7          8          9         10         11         12
     1  C   -0.002182  -0.008451   0.002802  -0.002919   0.000125  -0.000074
     2  C    0.004776   0.011635   0.001005   0.008028  -0.001205   0.001003
     3  C   -0.078625  -0.385758   0.085492  -0.179910   0.009704  -0.007187
     4  N   -0.348214  -0.123617   0.033508  -0.104980   0.007263  -0.008955
     5  C    0.330687  -0.679585   0.464928  -1.414523   0.089942  -0.138024
     6  O   -0.130268  -0.274903   0.344348  -0.120035   0.004698  -0.017350
     7  N    7.885696   0.479206  -0.331198  -0.144215   0.082113   0.002255
     8  C    0.479206   9.614567  -0.495222  -0.490915  -0.221398  -0.069456
     9  C   -0.331198  -0.495222   7.632932  -2.691301   0.223990  -1.171349
    10  C   -0.144215  -0.490915  -2.691301  11.982130  -0.446768   0.306319
    11  C    0.082113  -0.221398   0.223990  -0.446768   6.822494  -0.179899
    12  C    0.002255  -0.069456  -1.171349   0.306319  -0.179899   9.004630
    13  C   -0.046716  -1.187986   1.321033  -0.515139  -0.402491  -0.928523
    14  H    0.000007  -0.000039   0.000004  -0.000002  -0.000000  -0.000000
    15  H    0.000018   0.000022  -0.000023   0.000001   0.000000   0.000000
    16  H    0.000015   0.000019  -0.000027   0.000002   0.000000  -0.000000
    17  H   -0.000084  -0.000511  -0.000175   0.000107   0.000003   0.000000
    18  H    0.000004  -0.000581  -0.000079   0.000081   0.000001   0.000000
    19  H   -0.000881  -0.002852   0.001349  -0.000181  -0.000034   0.000010
    20  H   -0.000845  -0.005003   0.002233  -0.000633  -0.000029   0.000001
    21  H    0.027580   0.015425  -0.002735   0.004097  -0.000489   0.000303
    22  H   -0.004631  -0.080793   0.318034  -0.006424  -0.007763   0.099333
    23  H    0.002636  -0.073216  -0.009377   0.463900  -0.079685   0.008426
    24  H    0.000788   0.026655   0.003060  -0.034958   0.329727  -0.070396
    25  C    0.002208  -0.242954  -0.142116   0.244310   0.086081  -0.222360
    26  Cl  -0.000951  -0.037568  -0.032174   0.081913  -0.123903  -0.022633
    27  H    0.000071   0.000540   0.029051  -0.001011   0.013514  -0.049397
    28  H   -0.000038  -0.004832  -0.034739   0.004569  -0.005052   0.024860
    29  H   -0.000011  -0.007751  -0.039296   0.005554  -0.006669   0.024453
              13         14         15         16         17         18
     1  C    0.000341   0.412968   0.415798   0.415611  -0.035779  -0.035752
     2  C    0.001128  -0.088451  -0.064192  -0.063801   0.425910   0.425869
     3  C    0.018767   0.027787  -0.008192  -0.008231  -0.073404  -0.074158
     4  N    0.020170   0.000430   0.000393   0.000395   0.005654   0.005704
     5  C    0.234721  -0.002024   0.000315   0.000144  -0.006931  -0.006218
     6  O    0.055701   0.000006  -0.000051  -0.000051  -0.000197  -0.000190
     7  N   -0.046716   0.000007   0.000018   0.000015  -0.000084   0.000004
     8  C   -1.187986  -0.000039   0.000022   0.000019  -0.000511  -0.000581
     9  C    1.321033   0.000004  -0.000023  -0.000027  -0.000175  -0.000079
    10  C   -0.515139  -0.000002   0.000001   0.000002   0.000107   0.000081
    11  C   -0.402491  -0.000000   0.000000   0.000000   0.000003   0.000001
    12  C   -0.928523  -0.000000   0.000000  -0.000000   0.000000   0.000000
    13  C    8.070018   0.000000  -0.000000  -0.000000  -0.000006  -0.000003
    14  H    0.000000   0.484738  -0.024089  -0.024071  -0.002991  -0.002992
    15  H   -0.000000  -0.024089   0.489011  -0.028504  -0.004593   0.003816
    16  H   -0.000000  -0.024071  -0.028504   0.489023   0.003821  -0.004573
    17  H   -0.000006  -0.002991  -0.004593   0.003821   0.495178  -0.031056
    18  H   -0.000003  -0.002992   0.003816  -0.004573  -0.031056   0.495065
    19  H    0.000089  -0.000059  -0.000323   0.002667   0.003864  -0.005702
    20  H    0.000126  -0.000057   0.002679  -0.000333  -0.005655   0.003866
    21  H   -0.000507  -0.000003  -0.000000  -0.000000   0.000471   0.000467
    22  H   -0.032649  -0.000000   0.000000   0.000000  -0.000000  -0.000000
    23  H    0.014505  -0.000000  -0.000000  -0.000000  -0.000000  -0.000000
    24  H    0.056078  -0.000000   0.000000   0.000000   0.000000   0.000000
    25  C   -0.336121  -0.000000  -0.000000  -0.000000  -0.000000  -0.000000
    26  Cl  -0.152041  -0.000000  -0.000000  -0.000000  -0.000000  -0.000000
    27  H   -0.116586   0.000000  -0.000000  -0.000000  -0.000000  -0.000000
    28  H   -0.053832  -0.000000  -0.000000  -0.000000  -0.000000   0.000000
    29  H   -0.047628  -0.000000  -0.000000   0.000000   0.000000  -0.000000
              19         20         21         22         23         24
     1  C    0.002265   0.003964  -0.004070  -0.000005  -0.000001  -0.000000
     2  C   -0.041619  -0.044014   0.003609   0.000033   0.000045  -0.000000
     3  C    0.428006   0.436702  -0.080463   0.003932  -0.000964   0.000020
     4  N   -0.058772  -0.059210   0.245640   0.000292  -0.000237   0.000019
     5  C   -0.024983  -0.031117   0.030721   0.021741  -0.022761   0.002466
     6  O    0.003034   0.003166   0.011009  -0.005694   0.000146   0.000000
     7  N   -0.000881  -0.000845   0.027580  -0.004631   0.002636   0.000788
     8  C   -0.002852  -0.005003   0.015425  -0.080793  -0.073216   0.026655
     9  C    0.001349   0.002233  -0.002735   0.318034  -0.009377   0.003060
    10  C   -0.000181  -0.000633   0.004097  -0.006424   0.463900  -0.034958
    11  C   -0.000034  -0.000029  -0.000489  -0.007763  -0.079685   0.329727
    12  C    0.000010   0.000001   0.000303   0.099333   0.008426  -0.070396
    13  C    0.000089   0.000126  -0.000507  -0.032649   0.014505   0.056078
    14  H   -0.000059  -0.000057  -0.000003  -0.000000  -0.000000  -0.000000
    15  H   -0.000323   0.002679  -0.000000   0.000000  -0.000000   0.000000
    16  H    0.002667  -0.000333  -0.000000   0.000000  -0.000000   0.000000
    17  H    0.003864  -0.005655   0.000471  -0.000000  -0.000000   0.000000
    18  H   -0.005702   0.003866   0.000467  -0.000000  -0.000000   0.000000
    19  H    0.518419  -0.042804   0.002155  -0.000000  -0.000000   0.000000
    20  H   -0.042804   0.518557   0.002151   0.000000  -0.000000   0.000000
    21  H    0.002155   0.002151   0.280991   0.000001   0.000003  -0.000000
    22  H   -0.000000   0.000000   0.000001   0.458384  -0.000117   0.000012
    23  H   -0.000000  -0.000000   0.000003  -0.000117   0.462816  -0.003849
    24  H    0.000000   0.000000  -0.000000   0.000012  -0.003849   0.444240
    25  C   -0.000003  -0.000009  -0.000029  -0.018960   0.001864  -0.000624
    26  Cl  -0.000000  -0.000000   0.000000   0.000155   0.000656  -0.002236
    27  H    0.000000   0.000000  -0.000000   0.000130  -0.000000  -0.000003
    28  H   -0.000000   0.000000  -0.000000   0.000685   0.000000   0.000002
    29  H    0.000000  -0.000000  -0.000000   0.000718   0.000000   0.000002
              25         26         27         28         29
     1  C   -0.000028  -0.000001  -0.000000  -0.000000  -0.000000
     2  C    0.000181   0.000007  -0.000000  -0.000000  -0.000000
     3  C   -0.007366  -0.000228   0.000002  -0.000027  -0.000037
     4  N   -0.000912   0.000004   0.000001  -0.000007  -0.000010
     5  C   -0.082396  -0.010518   0.000217  -0.000962  -0.001226
     6  O    0.007552   0.000109  -0.000004  -0.000020  -0.000055
     7  N    0.002208  -0.000951   0.000071  -0.000038  -0.000011
     8  C   -0.242954  -0.037568   0.000540  -0.004832  -0.007751
     9  C   -0.142116  -0.032174   0.029051  -0.034739  -0.039296
    10  C    0.244310   0.081913  -0.001011   0.004569   0.005554
    11  C    0.086081  -0.123903   0.013514  -0.005052  -0.006669
    12  C   -0.222360  -0.022633  -0.049397   0.024860   0.024453
    13  C   -0.336121  -0.152041  -0.116586  -0.053832  -0.047628
    14  H   -0.000000  -0.000000   0.000000  -0.000000  -0.000000
    15  H   -0.000000  -0.000000  -0.000000  -0.000000  -0.000000
    16  H   -0.000000  -0.000000  -0.000000  -0.000000   0.000000
    17  H   -0.000000  -0.000000  -0.000000  -0.000000   0.000000
    18  H   -0.000000  -0.000000  -0.000000   0.000000  -0.000000
    19  H   -0.000003  -0.000000   0.000000  -0.000000   0.000000
    20  H   -0.000009  -0.000000   0.000000   0.000000  -0.000000
    21  H   -0.000029   0.000000  -0.000000  -0.000000  -0.000000
    22  H   -0.018960   0.000155   0.000130   0.000685   0.000718
    23  H    0.001864   0.000656  -0.000000   0.000000   0.000000
    24  H   -0.000624  -0.002236  -0.000003   0.000002   0.000002
    25  C    6.266093   0.021017   0.457095   0.406309   0.408699
    26  Cl   0.021017  17.130849   0.010648  -0.000826  -0.000624
    27  H    0.457095   0.010648   0.475156  -0.023709  -0.023671
    28  H    0.406309  -0.000826  -0.023709   0.463253  -0.025521
    29  H    0.408699  -0.000624  -0.023671  -0.025521   0.463213
 Mulliken charges:
               1
     1  C   -0.724505
     2  C   -0.368355
     3  C   -0.190350
     4  N   -0.704489
     5  C    0.767621
     6  O   -0.842337
     7  N   -0.729198
     8  C    0.245324
     9  C    0.486041
    10  C   -0.947097
    11  C   -0.194269
    12  C   -0.585991
    13  C    0.027553
    14  H    0.218838
    15  H    0.217913
    16  H    0.217894
    17  H    0.226376
    18  H    0.226431
    19  H    0.216356
    20  H    0.216263
    21  H    0.463673
    22  H    0.253585
    23  H    0.235208
    24  H    0.248997
    25  C   -0.847530
    26  Cl   0.138344
    27  H    0.227958
    28  H    0.249888
    29  H    0.249860
 Sum of Mulliken charges =  -1.00000
 Mulliken charges with hydrogens summed into heavy atoms:
               1
     1  C   -0.069860
     2  C    0.084452
     3  C    0.242269
     4  N   -0.240816
     5  C    0.767621
     6  O   -0.842337
     7  N   -0.729198
     8  C    0.245324
     9  C    0.739626
    10  C   -0.711889
    11  C    0.054728
    12  C   -0.585991
    13  C    0.027553
    25  C   -0.119824
    26  Cl   0.138344
 Electronic spatial extent (au):  <R**2>=           6802.9397
 Charge=             -1.0000 electrons
 Dipole moment (field-independent basis, Debye):
    X=              1.9599    Y=             -0.3691    Z=             -0.0431  Tot=              1.9948
 Quadrupole moment (field-independent basis, Debye-Ang):
   XX=           -111.7037   YY=           -103.1614   ZZ=           -104.3624
   XY=             -7.6758   XZ=             -0.0935   YZ=             -0.2022
 Traceless Quadrupole moment (field-independent basis, Debye-Ang):
   XX=             -5.2945   YY=              3.2478   ZZ=              2.0467
   XY=             -7.6758   XZ=             -0.0935   YZ=             -0.2022
 Octapole moment (field-independent basis, Debye-Ang**2):
  XXX=            157.9036  YYY=             -4.1648  ZZZ=              0.2050  XYY=            -21.7348
  XXY=            -18.9159  XXZ=             -0.5600  XZZ=              7.9482  YZZ=              7.4557
  YYZ=             -0.1107  XYZ=             -0.0152
 Hexadecapole moment (field-independent basis, Debye-Ang**3):
 XXXX=          -8572.5412 YYYY=           -802.9972 ZZZZ=           -151.4417 XXXY=           -129.0323
 XXXZ=             -2.0323 YYYX=             -9.9173 YYYZ=             -0.6338 ZZZX=              0.2353
 ZZZY=             -0.1500 XXYY=          -1501.7371 XXZZ=          -1448.4390 YYZZ=           -167.5405
 XXYZ=             -0.7690 YYXZ=             -0.9920 ZZXY=             -2.9171
 N-N= 1.001398319310D+03 E-N=-4.536705510510D+03  KE= 1.065523024370D+03
 D1PCM: PCM CHGder 1st derivatives, ID1Alg=3 FixD1E=F DoIter=F DoCFld=F I1PDM=0.
 Calling FoFJK, ICntrl=      2127 FMM=F ISym2X=0 I1Cent= 0 IOpClX= 0 NMat=1 NMatS=1 NMatT=0.
 ***** Axes restored to original set *****
 -------------------------------------------------------------------
 Center     Atomic                   Forces (Hartrees/Bohr)
 Number     Number              X              Y              Z
 -------------------------------------------------------------------
      1        6          -0.005261378    0.001011834    0.000561181
      2        6           0.003907940   -0.003656484   -0.000635276
      3        6          -0.002198096    0.002327921    0.000306247
      4        7          -0.001039386   -0.030361167   -0.002043218
      5        6           0.057739469   -0.036112363   -0.008738582
      6        8          -0.019439501    0.074363427    0.007528521
      7        7           0.012138824   -0.027374496   -0.003466785
      8        6          -0.061305454    0.007003109    0.007100535
      9        6           0.021741917   -0.007186583   -0.002969427
     10        6           0.009548233    0.002201935   -0.000903281
     11        6          -0.006120322   -0.000850066    0.000657008
     12        6          -0.013272882    0.001537598    0.001633862
     13        6           0.009501416   -0.002304983   -0.001274334
     14        1           0.005772983    0.009092940    0.000102842
     15        1          -0.000009159   -0.005337101    0.008758504
     16        1          -0.001783783   -0.004045098   -0.009219464
     17        1           0.002262992    0.002969979    0.009214483
     18        1           0.000397358    0.004299645   -0.008959073
     19        1          -0.001729347   -0.002121333   -0.009638234
     20        1           0.000112649   -0.003477305    0.009382905
     21        1           0.000119070    0.017146113    0.001280176
     22        1          -0.006492655    0.000285866    0.000748011
     23        1          -0.002794088   -0.001647883    0.000146517
     24        1           0.002170335   -0.001438221   -0.000374190
     25        6           0.001710672    0.009400774    0.000784449
     26       17          -0.002068650    0.001019971    0.000319431
     27        1          -0.010168629   -0.003214265    0.000798240
     28        1           0.002222502   -0.000806616   -0.010026691
     29        1           0.004336973   -0.002727149    0.008925641
 -------------------------------------------------------------------
 Cartesian Forces:  Max     0.074363427 RMS     0.014735817

 GradGradGradGradGradGradGradGradGradGradGradGradGradGradGradGradGradGrad
 Berny optimization.
 FormGI is forming the generalized inverse of G from B-inverse, IUseBI=4.
 GSVD:  received Info=                   1 from GESDD.
 Internal  Forces:  Max     0.074911063 RMS     0.010130278
 Search for a local minimum.
 Step number   1 out of a maximum of  150
 All quantities printed in internal units (Hartrees-Bohrs-Radians)
 Mixed Optimization -- RFO/linear search
 Second derivative matrix not updated -- first step.
 ITU=  0
     Eigenvalues ---    0.00329   0.00423   0.00676   0.00994   0.01161
     Eigenvalues ---    0.01452   0.01468   0.01799   0.01927   0.01949
     Eigenvalues ---    0.01998   0.02046   0.02084   0.02098   0.02122
     Eigenvalues ---    0.02150   0.02160   0.02177   0.03756   0.04435
     Eigenvalues ---    0.04933   0.05553   0.05673   0.05783   0.07026
     Eigenvalues ---    0.07435   0.08033   0.09179   0.11975   0.12669
     Eigenvalues ---    0.16000   0.16000   0.16000   0.16000   0.16000
     Eigenvalues ---    0.16000   0.16000   0.16000   0.16000   0.16000
     Eigenvalues ---    0.21964   0.22000   0.22004   0.22367   0.23481
     Eigenvalues ---    0.24601   0.25000   0.25000   0.25000   0.25000
     Eigenvalues ---    0.25000   0.25000   0.29145   0.29411   0.29805
     Eigenvalues ---    0.31677   0.32337   0.32338   0.32404   0.32406
     Eigenvalues ---    0.32502   0.32508   0.32548   0.32552   0.32560
     Eigenvalues ---    0.32892   0.35628   0.35649   0.36666   0.37885
     Eigenvalues ---    0.39573   0.40653   0.40977   0.42441   0.43853
     Eigenvalues ---    0.44345   0.45563   0.46285   0.51106   0.52286
     Eigenvalues ---    0.95145
 RFO step:  Lambda=-3.22570367D-02 EMin= 3.28923124D-03
 Linear search not attempted -- first point.
 Iteration  1 RMS(Cart)=  0.08001602 RMS(Int)=  0.00133328
 Iteration  2 RMS(Cart)=  0.00276192 RMS(Int)=  0.00002767
 Iteration  3 RMS(Cart)=  0.00000258 RMS(Int)=  0.00002765
 Iteration  4 RMS(Cart)=  0.00000000 RMS(Int)=  0.00002765
 Variable       Old X    -DE/DX   Delta X   Delta X   Delta X     New X
                                 (Linear)    (Quad)   (Total)
    R1        2.88353   0.00146   0.00000   0.00443   0.00443   2.88797
    R2        2.09832  -0.01039   0.00000  -0.02904  -0.02904   2.06927
    R3        2.09934  -0.01001   0.00000  -0.02803  -0.02803   2.07132
    R4        2.09924  -0.00998   0.00000  -0.02792  -0.02792   2.07131
    R5        2.89702  -0.00681   0.00000  -0.02103  -0.02103   2.87599
    R6        2.10108  -0.00946   0.00000  -0.02656  -0.02656   2.07452
    R7        2.10110  -0.00948   0.00000  -0.02660  -0.02660   2.07451
    R8        2.74533  -0.00085   0.00000  -0.00207  -0.00207   2.74326
    R9        2.10229  -0.00939   0.00000  -0.02639  -0.02639   2.07590
   R10        2.10231  -0.00935   0.00000  -0.02629  -0.02629   2.07602
   R11        2.57626   0.00561   0.00000   0.01010   0.01010   2.58636
   R12        1.95066  -0.01719   0.00000  -0.03764  -0.03764   1.91302
   R13        2.30649   0.07491   0.00000   0.07615   0.07615   2.38264
   R14        2.58765  -0.02038   0.00000  -0.03751  -0.03751   2.55014
   R15        2.72137  -0.04720   0.00000  -0.11029  -0.11029   2.61108
   R16        2.67592  -0.00212   0.00000  -0.00453  -0.00454   2.67139
   R17        2.65745   0.00110   0.00000   0.00282   0.00282   2.66027
   R18        2.65879  -0.00438   0.00000  -0.00966  -0.00966   2.64913
   R19        2.03053   0.00479   0.00000   0.01201   0.01201   2.04253
   R20        2.63433  -0.00661   0.00000  -0.01280  -0.01281   2.62152
   R21        2.04667   0.00213   0.00000   0.00549   0.00549   2.05216
   R22        2.63643  -0.00002   0.00000  -0.00008  -0.00007   2.63635
   R23        2.04634   0.00259   0.00000   0.00667   0.00667   2.05300
   R24        2.66521  -0.01103   0.00000  -0.02390  -0.02390   2.64131
   R25        3.32854  -0.00175   0.00000  -0.00537  -0.00537   3.32317
   R26        2.84739   0.00231   0.00000   0.00663   0.00663   2.85401
   R27        2.09242  -0.01067   0.00000  -0.02954  -0.02954   2.06288
   R28        2.09852  -0.00989   0.00000  -0.02764  -0.02764   2.07087
   R29        2.09846  -0.00989   0.00000  -0.02764  -0.02764   2.07082
    A1        1.91260   0.00335   0.00000   0.01866   0.01854   1.93114
    A2        1.92554   0.00203   0.00000   0.00998   0.00991   1.93545
    A3        1.92603   0.00199   0.00000   0.00970   0.00963   1.93566
    A4        1.89657  -0.00247   0.00000  -0.01157  -0.01170   1.88488
    A5        1.89689  -0.00248   0.00000  -0.01176  -0.01187   1.88502
    A6        1.90570  -0.00259   0.00000  -0.01577  -0.01578   1.88992
    A7        1.94138  -0.00052   0.00000   0.00111   0.00111   1.94249
    A8        1.90069   0.00152   0.00000   0.01285   0.01285   1.91354
    A9        1.90149   0.00144   0.00000   0.01218   0.01218   1.91366
   A10        1.91085  -0.00053   0.00000  -0.00535  -0.00540   1.90546
   A11        1.91045  -0.00047   0.00000  -0.00502  -0.00507   1.90538
   A12        1.89845  -0.00145   0.00000  -0.01606  -0.01618   1.88227
   A13        1.93750  -0.00366   0.00000  -0.01114  -0.01110   1.92640
   A14        1.90561   0.00092   0.00000   0.00219   0.00222   1.90782
   A15        1.90559   0.00090   0.00000   0.00240   0.00243   1.90803
   A16        1.90677   0.00209   0.00000   0.01310   0.01310   1.91987
   A17        1.90562   0.00221   0.00000   0.01425   0.01425   1.91987
   A18        1.90243  -0.00248   0.00000  -0.02116  -0.02121   1.88122
   A19        2.12684   0.00105   0.00000   0.00415   0.00415   2.13099
   A20        2.07751  -0.00020   0.00000  -0.00040  -0.00040   2.07711
   A21        2.07883  -0.00085   0.00000  -0.00375  -0.00375   2.07509
   A22        2.08076  -0.00443   0.00000  -0.01570  -0.01570   2.06506
   A23        2.08448  -0.03445   0.00000  -0.12205  -0.12205   1.96242
   A24        2.11794   0.03888   0.00000   0.13776   0.13776   2.25570
   A25        2.23547  -0.03574   0.00000  -0.12661  -0.12661   2.10886
   A26        2.17491   0.01155   0.00000   0.04058   0.04059   2.21550
   A27        2.05165  -0.00755   0.00000  -0.02711  -0.02710   2.02455
   A28        2.05662  -0.00400   0.00000  -0.01348  -0.01349   2.04313
   A29        2.11524   0.00575   0.00000   0.02164   0.02165   2.13689
   A30        2.13826  -0.00741   0.00000  -0.03438  -0.03438   2.10388
   A31        2.02968   0.00165   0.00000   0.01273   0.01273   2.04241
   A32        2.11705  -0.00040   0.00000  -0.00003  -0.00004   2.11701
   A33        2.09912  -0.00230   0.00000  -0.01297  -0.01297   2.08615
   A34        2.06702   0.00270   0.00000   0.01300   0.01300   2.08002
   A35        2.10438  -0.00125   0.00000  -0.00448  -0.00449   2.09990
   A36        2.08301   0.00108   0.00000   0.00459   0.00459   2.08760
   A37        2.09579   0.00018   0.00000  -0.00010  -0.00010   2.09569
   A38        2.08804   0.00512   0.00000   0.01687   0.01687   2.10491
   A39        2.05552   0.00001   0.00000   0.00066   0.00066   2.05618
   A40        2.13962  -0.00513   0.00000  -0.01753  -0.01753   2.12209
   A41        2.08503  -0.00522   0.00000  -0.02052  -0.02051   2.06453
   A42        2.06171   0.00134   0.00000   0.00577   0.00577   2.06747
   A43        2.13645   0.00388   0.00000   0.01475   0.01474   2.15118
   A44        1.97683  -0.00191   0.00000  -0.00881  -0.00878   1.96804
   A45        1.91044   0.00285   0.00000   0.01430   0.01428   1.92473
   A46        1.91072   0.00285   0.00000   0.01426   0.01424   1.92496
   A47        1.88181  -0.00026   0.00000  -0.00027  -0.00024   1.88157
   A48        1.88202  -0.00026   0.00000  -0.00031  -0.00028   1.88174
   A49        1.90048  -0.00350   0.00000  -0.02048  -0.02054   1.87994
    D1       -3.14107   0.00000   0.00000   0.00009   0.00010  -3.14097
    D2        1.03467  -0.00001   0.00000  -0.00238  -0.00238   1.03229
    D3       -1.03359   0.00004   0.00000   0.00254   0.00254  -1.03106
    D4        1.05460  -0.00032   0.00000  -0.00354  -0.00356   1.05103
    D5       -1.05285  -0.00033   0.00000  -0.00601  -0.00604  -1.05889
    D6       -3.12111  -0.00029   0.00000  -0.00109  -0.00112  -3.12224
    D7       -1.05285   0.00029   0.00000   0.00334   0.00337  -1.04948
    D8        3.12289   0.00028   0.00000   0.00087   0.00090   3.12378
    D9        1.05463   0.00033   0.00000   0.00579   0.00581   1.06044
   D10       -3.13812  -0.00008   0.00000  -0.00108  -0.00108  -3.13920
   D11        1.04192  -0.00098   0.00000  -0.01177  -0.01177   1.03015
   D12       -1.03642   0.00095   0.00000   0.01118   0.01118  -1.02524
   D13       -1.03666   0.00114   0.00000   0.01215   0.01212  -1.02454
   D14       -3.13980   0.00025   0.00000   0.00146   0.00143  -3.13837
   D15        1.06505   0.00217   0.00000   0.02441   0.02438   1.08942
   D16        1.04287  -0.00123   0.00000  -0.01369  -0.01365   1.02922
   D17       -1.06027  -0.00213   0.00000  -0.02438  -0.02434  -1.08462
   D18       -3.13861  -0.00020   0.00000  -0.00142  -0.00139  -3.14000
   D19       -3.14118   0.00003   0.00000   0.00057   0.00057  -3.14060
   D20        0.00171   0.00000   0.00000   0.00001   0.00001   0.00171
   D21       -1.03872   0.00023   0.00000   0.00479   0.00476  -1.03396
   D22        2.10416   0.00020   0.00000   0.00423   0.00420   2.10836
   D23        1.04032  -0.00023   0.00000  -0.00467  -0.00464   1.03568
   D24       -2.09998  -0.00025   0.00000  -0.00523  -0.00520  -2.10519
   D25        0.00171  -0.00005   0.00000  -0.00107  -0.00108   0.00063
   D26       -3.13725  -0.00010   0.00000  -0.00177  -0.00177  -3.13902
   D27       -3.14117  -0.00002   0.00000  -0.00051  -0.00051   3.14150
   D28        0.00305  -0.00008   0.00000  -0.00121  -0.00120   0.00185
   D29        3.14158   0.00038   0.00000   0.00743   0.00743  -3.13417
   D30        0.00267   0.00039   0.00000   0.00696   0.00695   0.00962
   D31        0.02168   0.00033   0.00000   0.00727   0.00728   0.02895
   D32       -3.12088   0.00023   0.00000   0.00542   0.00542  -3.11546
   D33        3.14151  -0.00008   0.00000  -0.00149  -0.00151   3.13999
   D34        0.00180  -0.00007   0.00000  -0.00126  -0.00129   0.00051
   D35        0.00088   0.00002   0.00000   0.00037   0.00037   0.00125
   D36       -3.13883   0.00003   0.00000   0.00060   0.00060  -3.13823
   D37        3.14090   0.00006   0.00000   0.00128   0.00124  -3.14104
   D38        0.00053   0.00006   0.00000   0.00119   0.00115   0.00168
   D39       -0.00159  -0.00002   0.00000  -0.00040  -0.00040  -0.00198
   D40        3.14122  -0.00002   0.00000  -0.00050  -0.00048   3.14074
   D41        0.00039  -0.00000   0.00000  -0.00001  -0.00002   0.00038
   D42       -3.14085   0.00000   0.00000   0.00010   0.00010  -3.14075
   D43        3.14021  -0.00002   0.00000  -0.00027  -0.00028   3.13993
   D44       -0.00103  -0.00001   0.00000  -0.00016  -0.00017  -0.00120
   D45        0.00102   0.00001   0.00000   0.00008   0.00008   0.00109
   D46       -3.14057   0.00001   0.00000   0.00015   0.00015  -3.14042
   D47        3.14141   0.00001   0.00000   0.00016   0.00015   3.14156
   D48       -0.00018   0.00001   0.00000   0.00022   0.00022   0.00004
   D49        0.00031   0.00002   0.00000   0.00032   0.00033   0.00063
   D50        3.14145   0.00001   0.00000   0.00021   0.00021  -3.14152
   D51       -3.14129   0.00001   0.00000   0.00025   0.00025  -3.14104
   D52       -0.00015   0.00001   0.00000   0.00014   0.00014  -0.00001
   D53       -0.00100  -0.00002   0.00000  -0.00034  -0.00034  -0.00134
   D54        3.14023  -0.00003   0.00000  -0.00046  -0.00047   3.13977
   D55        3.14107  -0.00001   0.00000  -0.00023  -0.00023   3.14084
   D56       -0.00089  -0.00002   0.00000  -0.00035  -0.00035  -0.00124
   D57       -3.14152   0.00000   0.00000  -0.00001  -0.00001  -3.14153
   D58        1.04127  -0.00042   0.00000  -0.00393  -0.00390   1.03736
   D59       -1.04065   0.00041   0.00000   0.00383   0.00379  -1.03686
   D60        0.00044   0.00001   0.00000   0.00011   0.00011   0.00055
   D61       -2.09997  -0.00041   0.00000  -0.00381  -0.00377  -2.10374
   D62        2.10130   0.00042   0.00000   0.00395   0.00392   2.10522
         Item               Value     Threshold  Converged?
 Maximum Force            0.074911     0.000450     NO 
 RMS     Force            0.010130     0.000300     NO 
 Maximum Displacement     0.266173     0.001800     NO 
 RMS     Displacement     0.081641     0.001200     NO 
 Predicted change in Energy=-1.761384D-02
 GradGradGradGradGradGradGradGradGradGradGradGradGradGradGradGradGradGrad

                          Input orientation:                          
 ---------------------------------------------------------------------
 Center     Atomic      Atomic             Coordinates (Angstroms)
 Number     Number       Type             X           Y           Z
 ---------------------------------------------------------------------
      1          6           0       -1.660308    1.863755    0.312787
      2          6           0       -0.295944    1.199625    0.131195
      3          6           0        0.820157    2.233242    0.084750
      4          7           0        2.105398    1.581693   -0.091269
      5          6           0        3.275169    2.288486   -0.163843
      6          8           0        3.221475    3.544893   -0.072912
      7          7           0        4.349974    1.489855   -0.331382
      8          6           0        5.621746    2.023042   -0.417796
      9          6           0        5.979772    3.386895   -0.317333
     10          6           0        6.664829    1.100611   -0.624857
     11          6           0        7.984401    1.516096   -0.727652
     12          6           0        8.306473    2.869657   -0.625480
     13          6           0        7.307604    3.825046   -0.417830
     14          1           0       -2.454867    1.110984    0.345397
     15          1           0       -1.875595    2.547665   -0.516273
     16          1           0       -1.696015    2.434747    1.247727
     17          1           0       -0.289124    0.619484   -0.800755
     18          1           0       -0.110038    0.505387    0.961012
     19          1           0        0.817452    2.812957    1.017845
     20          1           0        0.635683    2.930409   -0.743991
     21          1           0        2.138409    0.572475   -0.163347
     22          1           0        5.224226    4.142632   -0.155245
     23          1           0        6.435034    0.042443   -0.707182
     24          1           0        8.767733    0.780727   -0.888556
     25          6           0        7.588603    5.303946   -0.296027
     26         17           0        9.999805    3.322942   -0.765619
     27          1           0        8.650173    5.541116   -0.388110
     28          1           0        7.244893    5.677122    0.675318
     29          1           0        7.052492    5.858048   -1.074742
 ---------------------------------------------------------------------
                    Distance matrix (angstroms):
                    1          2          3          4          5
     1  C    0.000000
     2  C    1.528246   0.000000
     3  C    2.518180   1.521908   0.000000
     4  N    3.797810   2.441702   1.451669   0.000000
     5  C    4.976595   3.745065   2.468184   1.368644   0.000000
     6  O    5.177528   4.232514   2.740732   2.258344   1.260837
     7  N    6.056256   4.677901   3.631170   2.259250   1.349476
     8  C    7.320344   5.999871   4.832390   3.558948   2.375158
     9  C    7.815870   6.661076   5.302283   4.280261   2.923173
    10  C    8.412459   7.002412   5.995547   4.615687   3.621240
    11  C    9.706893   8.330778   7.245735   5.913709   4.805344
    12  C   10.061257   8.795631   7.546812   6.355907   5.085754
    13  C    9.208903   8.062766   6.698760   5.674700   4.322738
    14  H    1.095012   2.171333   3.471769   4.605242   5.871894
    15  H    1.096094   2.175253   2.779779   4.118499   5.169308
    16  H    1.096093   2.175402   2.779253   4.119631   5.169777
    17  H    2.160632   1.097789   2.149149   2.676370   3.986904
    18  H    2.160717   1.097781   2.149088   2.678411   3.988027
    19  H    2.745429   2.151427   1.098518   2.098797   2.777018
    20  H    2.743374   2.151626   1.098583   2.098844   2.777683
    21  H    4.040341   2.531036   2.134827   1.012327   2.058376
    22  H    7.266990   6.262238   4.806162   4.036037   2.690123
    23  H    8.360149   6.880989   6.078948   4.636204   3.914675
    24  H   10.552735   9.130476   8.137634   6.757508   5.741673
    25  C    9.886755   8.899104   7.442182   6.630432   5.264617
    26  Cl  11.800441  10.550601   9.283130   8.112235   6.830298
    27  H   10.969059   9.957471   8.513211   7.655013   6.286539
    28  H    9.694111   8.786824   7.313433   6.616237   5.286375
    29  H    9.684652   8.783775   7.302440   6.612728   5.276332
                    6          7          8          9         10
     6  O    0.000000
     7  N    2.358707   0.000000
     8  C    2.862914   1.381723   0.000000
     9  C    2.773609   2.501040   1.413637   0.000000
    10  C    4.258620   2.365627   1.407755   2.406443   0.000000
    11  C    5.218253   3.656060   2.436215   2.772505   1.387250
    12  C    5.159310   4.200504   2.822702   2.403336   2.413404
    13  C    4.110219   3.769372   2.467658   1.401861   2.806878
    14  H    6.190295   6.848900   8.163699   8.761399   9.171169
    15  H    5.212596   6.317503   7.516318   7.902574   8.662828
    16  H    5.211356   6.319841   7.516189   7.891369   8.671229
    17  H    4.627319   4.743320   6.087283   6.869594   6.972796
    18  H    4.626724   4.746700   6.087506   6.857334   6.983415
    19  H    2.739491   4.006211   5.076049   5.362989   6.310501
    20  H    2.741215   4.005172   5.078439   5.380493   6.301822
    21  H    3.164882   2.400175   3.781868   4.764529   4.580436
    22  H    2.091670   2.798673   2.172468   1.080861   3.398494
    23  H    4.795458   2.565873   2.160545   3.397735   1.085957
    24  H    6.250349   4.508869   3.414996   3.858903   2.143378
    25  C    4.713369   5.003724   3.827230   2.502774   4.316192
    26  Cl   6.817247   5.955616   4.580188   4.045456   4.010067
    27  H    5.792669   5.908269   4.642100   3.431722   4.869879
    28  H    4.614557   5.189143   4.145094   2.798397   4.792847
    29  H    4.585961   5.190115   4.145586   2.798391   4.794359
                   11         12         13         14         15
    11  C    0.000000
    12  C    1.395098   0.000000
    13  C    2.425963   1.397721   0.000000
    14  H   10.502088  10.947235  10.161421   0.000000
    15  H    9.916064  10.187743   9.272137   1.772592   0.000000
    16  H    9.922525  10.185667   9.261327   1.772682   1.776709
    17  H    8.322287   8.886973   8.254243   2.499135   2.513106
    18  H    8.330249   8.885065   8.242739   2.498790   3.077412
    19  H    7.489577   7.667409   6.723657   3.749262   3.110691
    20  H    7.483596   7.671946   6.739532   3.748142   2.550463
    21  H    5.948485   6.598153   6.112655   4.652633   4.487556
    22  H    3.852908   3.367763   2.123740   8.271034   7.285720
    23  H    2.138366   3.391474   3.892710   9.015545   8.682116
    24  H    1.086401   2.155366   3.409023  11.295063  10.795420
    25  C    3.832853   2.559226   1.510279  10.902460   9.859849
    26  Cl   2.707026   1.758545   2.760618  12.698266  11.903291
    27  H    4.093816   2.703917   2.179053  11.978564  10.943900
    28  H    4.453014   3.271221   2.151532  10.725847   9.715795
    29  H    4.454376   3.271816   2.151676  10.721067   9.538410
                   16         17         18         19         20
    16  H    0.000000
    17  H    3.077467   0.000000
    18  H    2.513953   1.774518   0.000000
    19  H    2.552138   3.056655   2.487638   0.000000
    20  H    3.106354   2.489752   3.056773   1.775077   0.000000
    21  H    4.490211   2.510263   2.514795   2.856554   2.855729
    22  H    7.264637   6.574670   6.552095   4.750141   4.782347
    23  H    8.698204   6.749522   6.770167   6.496823   6.478749
    24  H   10.806920   9.058718   9.072570   8.424446   8.412626
    25  C    9.839696   9.179189   9.158350   7.333469   7.360533
    26  Cl  11.901036  10.638232  10.636202   9.367841   9.372371
    27  H   10.925617  10.212921  10.194115   8.412555   8.436498
    28  H    9.527880   9.193471   8.995747   7.045053   7.296611
    29  H    9.677254   9.023134   9.170447   7.247567   7.060872
                   21         22         23         24         25
    21  H    0.000000
    22  H    4.718936   0.000000
    23  H    4.363219   4.310713   0.000000
    24  H    6.672124   4.939291   2.453455   0.000000
    25  C    7.218658   2.637943   5.402146   4.711789   0.000000
    26  Cl   8.350410   4.883707   4.844861   2.827715   3.155755
    27  H    8.193959   3.707707   5.936670   4.788066   1.091632
    28  H    7.268903   2.669754   5.858053   5.360917   1.095859
    29  H    7.274347   2.670333   5.859831   5.362453   1.095829
                   26         27         28         29
    26  Cl   0.000000
    27  H    2.623798   0.000000
    28  H    3.899744   1.767537   0.000000
    29  H    3.899868   1.767623   1.769875   0.000000
 Stoichiometry    C11H14ClN2O(1-)
 Framework group  C1[X(C11H14ClN2O)]
 Deg. of freedom    81
 Full point group                 C1      NOp   1
 Largest Abelian subgroup         C1      NOp   1
 Largest concise Abelian subgroup C1      NOp   1
                         Standard orientation:                         
 ---------------------------------------------------------------------
 Center     Atomic      Atomic             Coordinates (Angstroms)
 Number     Number       Type             X           Y           Z
 ---------------------------------------------------------------------
      1          6           0        6.682693    0.400174    0.004896
      2          6           0        5.437649   -0.485736   -0.018872
      3          6           0        4.165050    0.348452    0.009874
      4          7           0        2.996105   -0.512079   -0.010062
      5          6           0        1.723027   -0.009954    0.008081
[...]
 85,-0.00083162,-0.00016189,0.08018823,0.31562679,0.00000248,0.00000450
 ,-0.00000437,0.00000151,-0.00000825,0.00000850,-0.00001957,0.00004744,
 0.00005256,0.00024832,0.00004678,0.00000129,-0.00087212,0.00059112,-0.
 00033748,0.00000491,-0.00014479,0.00001173,-0.00215896,0.00097644,-0.0
 0176710,-0.00361284,-0.01283676,0.00071154,0.00338683,-0.00298078,0.00
 318578,-0.01529839,-0.08200633,-0.06235041,0.00194378,0.00615152,0.004
 23929,0.00251995,-0.00143474,0.00561378,0.00046863,0.00026263,-0.00079
 396,0.00000295,-0.00000040,0.00000011,-0.00000035,-0.00000012,-0.00000
 022,0.00000029,-0.00000043,0.00000016,0.00000039,0.00000186,0.00000004
 ,0.00000063,0.00000054,-0.00000293,0.00000067,-0.00000192,-0.00000093,
 0.00002334,-0.00000659,0.00000493,-0.00000610,0.00000369,-0.00000565,-
 0.00031409,-0.00055199,-0.00038876,0.01507314,0.09000036,0.05532502,-0
 .00000743,-0.00001235,0.00001041,-0.00001807,0.00002477,-0.00002746,0.
 00004305,-0.00008907,0.00004163,-0.00043146,0.00007496,0.00004691,0.00
 045341,-0.00078074,0.00041397,-0.00016758,0.00042358,-0.00018028,-0.00
 165872,0.00116723,0.00039994,-0.00172743,-0.00400008,0.00155498,-0.000
 56992,-0.00063611,-0.00038563,-0.01344984,0.01840685,0.01345396,-0.180
 31476,0.11348883,0.09393928,0.00682961,-0.00727556,-0.00413946,0.00074
 195,-0.00246640,0.00064977,-0.00000786,0.00000112,-0.00000159,-0.00000
 051,0.00000011,-0.00000113,-0.00000020,0.00000124,-0.00000011,0.000000
 20,-0.00000306,0.00000060,0.00000101,-0.00000016,0.00000273,-0.0000093
 3,0.00000869,-0.00000492,-0.00002470,0.00000335,-0.00002232,0.00000794
 ,0.00002003,-0.00002952,0.00001130,0.00020674,-0.00009457,0.00087825,0
 .00044511,-0.00160482,0.18789574,-0.00000168,-0.00000140,0.00000199,-0
 .00000380,0.00000262,-0.00000391,-0.00000899,-0.00001808,0.00000558,-0
 .00005279,0.00002576,-0.00005048,-0.00015852,0.00001846,0.00022050,-0.
 00001200,-0.00003850,-0.00000090,-0.00004077,0.00049386,0.00011756,-0.
 00335966,0.00079759,-0.00156361,-0.00088971,-0.00035034,0.00049054,-0.
 00766605,0.01065143,0.00522254,0.11142593,-0.16000795,-0.08671205,0.01
 944735,-0.01249524,-0.01278308,-0.00357773,-0.00341033,-0.00247698,-0.
 00000087,0.00000032,-0.00000026,0.00000010,0.00000005,0.00000018,0.000
 00005,-0.00000001,-0.00000002,0.00000003,-0.00000014,0.00000003,0.0000
 0031,-0.00000003,0.00000030,0.00000067,0.00000101,0.00000043,-0.000000
 44,0.00000004,0.00000014,0.00000012,0.00000375,0.00000076,0.00016708,-
 0.00001761,0.00014823,0.00101872,0.00001606,0.00153839,-0.11834714,0.1
 6486813,0.00000328,0.00000492,-0.00000443,0.00000483,-0.00000859,0.000
 01126,-0.00002966,0.00004910,0.00000748,0.00018992,-0.00003047,-0.0000
 5545,-0.00033981,0.00028944,-0.00015016,0.00005711,-0.00014848,0.00004
 117,0.00048188,-0.00026902,-0.00038375,0.00180897,-0.00169472,0.006400
 41,-0.00024464,0.00075918,-0.00051352,0.00253734,-0.00354551,0.0019536
 0,0.09311600,-0.08742458,-0.10356849,0.00658475,-0.00379863,-0.0006295
 4,0.00018968,-0.00282094,0.00437570,0.00000310,-0.00000055,0.00000053,
 0.00000020,-0.00000006,0.00000019,0.00000018,-0.00000058,0.00000011,-0
 .00000001,0.00000141,-0.00000006,-0.00000008,0.00000004,-0.00000167,0.
 00000220,-0.00000202,0.00000084,0.00001549,-0.00000200,0.00000996,-0.0
 0000646,-0.00000967,0.00000906,-0.00008596,0.00016578,-0.00046068,-0.0
 0142651,0.00167607,-0.00347558,-0.10230661,0.09567121,0.09828856,-0.00
 000344,-0.00000794,0.00000406,-0.00000950,0.00001440,-0.00001501,0.000
 04578,-0.00004374,0.00004771,-0.00027356,0.00002621,0.00013328,0.00068
 631,-0.00044449,0.00013517,-0.00031196,0.00023956,-0.00018668,-0.00062
 555,-0.00094217,-0.00080898,-0.00238137,0.00074069,0.00445636,-0.00810
 303,-0.03005497,-0.00782154,0.00000011,-0.00131323,-0.00083500,-0.0040
 4840,0.00188395,0.00379883,0.00961563,0.01797832,0.00520343,-0.0945384
 3,-0.03277673,-0.00613765,-0.00000476,0.00000075,-0.00000119,-0.000000
 10,0.00000021,-0.00000043,-0.00000046,0.00000129,-0.00000018,-0.000000
 11,-0.00000082,0.00000032,-0.00000015,-0.00000011,0.00000232,-0.000012
 56,0.00000934,-0.00000615,-0.00001362,-0.00000017,-0.00001351,0.000000
 59,0.00003213,-0.00004684,0.00036932,-0.00081683,-0.00213663,0.0001460
 2,0.00001992,-0.00023786,0.00058517,0.00122178,0.00032109,0.58752648,-
 0.00000002,0.00000409,-0.00000039,0.00000231,-0.00000696,0.00000538,-0
 .00002916,0.00002161,-0.00000997,0.00012354,0.00001686,-0.00008022,-0.
 00025893,0.00025954,0.00006869,0.00013821,-0.00009014,0.00008978,0.000
 56280,-0.00010808,0.00010266,-0.00084605,0.00310164,-0.00216233,-0.009
 22538,-0.01241492,-0.00505087,0.00015714,-0.00074264,0.00009239,0.0011
 9102,0.00175150,-0.00180005,0.00071766,-0.02056916,-0.01002261,-0.0386
 4413,-0.20375497,-0.04302095,0.00000215,-0.00000015,0.00000027,0.00000
 014,-0.00000010,0.00000050,0.00000050,-0.00000116,0.00000005,0.0000000
 7,0.00000085,-0.00000013,0.00000018,-0.00000044,-0.00000123,0.00000374
 ,-0.00000345,0.00000137,0.00000902,-0.00000161,0.00000685,0.00000537,-
 0.00000606,0.00000986,0.00226015,0.00017229,0.00132601,0.00002668,-0.0
 0007581,0.00020806,-0.00029334,-0.00010964,-0.00003548,-0.02466206,0.5
 1508885,0.00000270,-0.00000078,-0.00000502,0.00000490,-0.00000162,0.00
 000779,-0.00000302,0.00001156,0.00000095,0.00005807,-0.00005141,0.0000
 0194,-0.00007846,-0.00001993,-0.00011401,-0.00005038,-0.00005958,0.000
 00362,-0.00032355,0.00055396,-0.00032533,0.00395039,-0.00218053,0.0067
 0983,0.00036567,0.00170537,0.00703615,-0.00008575,0.00063062,-0.000743
 44,0.00344849,-0.00230821,0.00294355,-0.00225233,-0.01534210,-0.003042
 88,-0.00784297,-0.04517873,-0.08769931,0.00000124,-0.00000002,0.000000
 06,0.00000034,0.00000021,0.00000018,-0.00000058,-0.00000076,-0.0000003
 2,-0.00000059,0.00000013,-0.00000044,-0.00000062,0.00000095,-0.0000007
 3,0.00000418,0.00000031,0.00000101,0.00000010,-0.00000007,0.00000592,-
 0.00002039,-0.00000659,0.00000222,-0.00063528,0.00242712,-0.00361230,-
 0.00023334,0.00018763,-0.00042989,-0.00025592,-0.00054832,0.00007281,-
 0.02101568,-0.00804772,0.55809873,-0.00002340,-0.00004173,0.00002871,-
 0.00004117,0.00007953,-0.00008821,0.00030623,-0.00030463,0.00003761,-0
 .00164663,0.00006692,0.00086942,0.00369000,-0.00319961,-0.00051407,-0.
 00095255,0.00197214,-0.00058690,-0.00648342,-0.00042100,0.00173086,0.0
 0400905,0.00208731,-0.00128881,-0.00064447,0.00330519,0.00362420,0.001
 88442,-0.00290075,-0.00052910,-0.02823986,-0.00827036,0.00655636,-0.13
 706126,-0.03554100,0.02545463,-0.03455718,-0.01328680,0.00696428,-0.00
 002717,0.00000377,-0.00000529,-0.00000279,0.00000084,-0.00000254,-0.00
 000101,0.00000505,-0.00000074,0.00000025,-0.00001013,0.00000294,0.0000
 0256,-0.00000090,0.00001003,-0.00004325,0.00002309,-0.00001987,-0.0001
 2691,0.00001818,-0.00010710,0.00004734,0.00006130,-0.00013894,-0.00165
 580,-0.00097678,0.00032447,-0.00136899,-0.00048293,0.00046349,0.000959
 34,0.00101663,-0.00078060,-0.00155414,-0.00234523,-0.00140393,0.202295
 44,-0.00000804,-0.00001311,0.00001079,-0.00001222,0.00002517,-0.000029
 17,0.00008809,-0.00010199,-0.00000237,-0.00052899,0.00001612,0.0002260
 8,0.00119666,-0.00107643,-0.00003087,-0.00034251,0.00069243,-0.0001944
 7,-0.00200492,0.00008608,0.00082161,0.00095434,0.00121406,0.00035576,-
 0.00050717,-0.00182848,-0.00226626,0.00174707,-0.00289230,-0.00374076,
 -0.03418440,-0.00744651,0.00772397,-0.03678927,-0.04784625,0.00018841,
 0.00866182,0.00422427,-0.00196394,-0.00000869,0.00000117,-0.00000169,-
 0.00000089,0.00000013,-0.00000076,-0.00000032,0.00000182,-0.00000028,-
 0.00000085,-0.00000316,0.00000118,0.00000092,-0.00000049,0.00000405,-0
 .00001098,0.00000923,-0.00000626,-0.00004520,0.00000607,-0.00003094,0.
 00001305,0.00001424,-0.00004350,0.00028297,0.00031424,-0.00012364,-0.0
 0137869,-0.00028802,0.00016725,-0.00038305,0.00004837,0.00131177,0.004
 26364,-0.00199293,-0.00137595,0.05745510,0.05626092,0.00000650,0.00000
 896,-0.00000875,0.00000708,-0.00001737,0.00002144,-0.00006031,0.000075
 26,0.00001705,0.00038288,0.00000537,-0.00015046,-0.00102307,0.00070923
 ,-0.00001025,0.00040419,-0.00045542,0.00024985,0.00118291,0.00011525,-
 0.00086548,-0.00126141,0.00006562,-0.00017060,0.00173744,-0.00349134,0
 .00210749,0.00146260,-0.00219610,0.00345210,-0.00378932,-0.00072320,0.
 00265659,0.02495438,-0.00039878,-0.02662332,0.01570065,0.00542689,-0.0
 0107229,0.00000626,-0.00000084,0.00000115,0.00000074,-0.00000017,0.000
 00061,-0.00000006,-0.00000130,0.00000017,0.00000102,0.00000270,-0.0000
 0124,-0.00000047,0.00000062,-0.00000344,0.00000796,-0.00000692,0.00000
 363,0.00003660,-0.00000494,0.00001936,-0.00000846,-0.00000628,0.000030
 18,0.00076681,0.00031997,0.00019802,0.00005637,-0.00014095,0.00037063,
 -0.00143584,0.00081748,-0.00179476,0.00156936,0.00098256,-0.00247715,-
 0.04093712,-0.00074765,0.02432668,-0.00000133,-0.00000285,0.00000210,-
 0.00000252,0.00000508,-0.00000573,0.00001714,-0.00001866,0.00000435,-0
 .00010108,0.00000136,0.00005458,0.00023472,-0.00014598,0.00000229,-0.0
 0010450,0.00008065,-0.00005881,-0.00032996,-0.00012465,-0.00001571,0.0
 0011865,-0.00028400,0.00058299,0.00034626,-0.00138818,-0.00094608,0.00
 011428,0.00016536,-0.00003339,-0.00005783,-0.00050080,-0.00024009,-0.0
 0122421,0.00100584,0.00147689,-0.00639986,-0.00268893,-0.00393954,-0.0
 0000202,0.00000004,-0.00000022,-0.00000015,0.00000009,-0.00000019,-0.0
 0000011,0.00000053,-0.00000010,0.00000007,-0.00000081,0.00000018,-0.00
 000011,0.00000003,0.00000125,-0.00000287,0.00000177,-0.00000155,-0.000
 00713,0.00000076,-0.00000534,0.00000028,0.00000645,-0.00001252,0.00004
 202,0.00000078,-0.00048204,-0.00001386,-0.00001380,-0.00008519,0.00000
 194,-0.00006013,-0.00000334,-0.20612738,0.01308903,-0.13456913,0.00078
 976,0.00057221,0.00023628,0.22182895,-0.00000304,-0.00000536,0.0000035
 7,-0.00000536,0.00001064,-0.00001150,0.00003422,-0.00003398,0.00001490
 ,-0.00020207,0.00000733,0.00010471,0.00046502,-0.00035454,0.00001783,-
 0.00020196,0.00018439,-0.00010854,-0.00064271,-0.00017083,-0.00014920,
 0.00030891,-0.00050490,0.00148189,0.00040818,-0.00285819,-0.00115701,-
 0.00019104,-0.00028507,-0.00024664,-0.00004163,-0.00025040,0.00084084,
 -0.00124545,0.00037518,0.00068125,-0.02494594,0.00073032,-0.02073639,-
 0.00000342,0.00000049,-0.00000072,-0.00000024,0.00000007,-0.00000038,-
 0.00000014,0.00000086,0.,-0.00000064,-0.00000148,0.00000050,0.00000029
 ,-0.00000021,0.00000150,-0.00000588,0.00000434,-0.00000293,-0.00001368
 ,0.00000123,-0.00001169,0.00000080,0.00001468,-0.00002406,-0.00022766,
 0.00023930,-0.00048793,0.00000157,-0.00002482,-0.00005273,0.00008850,-
 0.00000740,-0.00002370,0.01171441,-0.04607268,0.00721025,0.00079146,-0
 .00002167,-0.00072061,-0.01038640,0.05122943,-0.00000060,-0.00000150,0
 .00000108,-0.00000145,0.00000303,-0.00000374,0.00000813,-0.00000875,0.
 00000424,-0.00004859,0.00000332,0.00002169,0.00011499,-0.00006203,0.00
 001964,-0.00005007,0.00003244,-0.00002175,-0.00008864,-0.00006269,-0.0
 0002932,0.00000710,0.00001311,0.00009072,0.00063876,-0.00031807,-0.000
 62388,-0.00006007,-0.00012462,-0.00013086,0.00001731,-0.00010152,0.000
 15974,-0.00096619,-0.00081275,0.00096404,-0.00520343,-0.00016963,-0.00
 473659,-0.00000112,0.,-0.00000007,-0.00000004,0.00000007,-0.00000021,0
 .,0.00000049,0.,-0.00000038,-0.00000061,0.00000009,0.00000010,0.000000
 01,0.00000078,-0.00000133,0.00000127,-0.00000098,-0.00000300,0.0000004
 3,-0.00000281,0.00000095,0.00000429,-0.00000528,0.00000109,0.00007613,
 0.00009641,0.00001990,-0.00001338,0.00001902,0.00002570,-0.00003293,-0
 .00001493,-0.13405862,0.00711620,-0.15792624,0.00024526,0.00053237,-0.
 00026347,0.14737518,-0.00774792,0.16744860,0.00000029,0.00000222,-0.00
 000096,0.00000165,-0.00000304,0.00000399,-0.00000989,0.00001056,-0.000
 00535,0.00005786,-0.00000341,-0.00002739,-0.00013480,0.00010155,0.0000
 2183,0.00004541,-0.00005084,0.00002553,0.00016334,0.00006610,-0.000027
 39,0.00021116,-0.00002133,-0.00010579,0.00042727,-0.00177665,-0.000928
 25,0.00013982,-0.00004153,-0.00005073,0.00027459,-0.00031838,-0.000099
 07,-0.00068315,-0.00202386,-0.00019545,0.00710648,-0.00582030,-0.00540
 924,0.00000119,-0.00000005,0.00000011,0.00000015,-0.00000004,0.0000001
 8,0.00000024,-0.00000078,-0.00000007,0.00000036,0.00000049,-0.00000015
 ,-0.00000006,-0.00000014,-0.00000100,0.00000195,-0.00000154,0.00000084
 ,0.00000377,-0.00000067,0.00000350,-0.00000174,-0.00000387,0.00000530,
 -0.00002671,-0.00012813,0.00002072,0.00000154,0.00000315,0.00000258,-0
 .00002360,-0.00009072,-0.00007311,-0.21403194,0.09953075,0.09775703,-0
 .00009607,0.00058016,0.00033249,-0.01673532,0.00987679,0.01201847,0.22
 931832,-0.00000099,-0.00000241,0.00000158,-0.00000232,0.00000429,-0.00
 000524,0.00001543,-0.00001783,0.00000010,-0.00009020,0.00000369,0.0000
 4000,0.00019965,-0.00020308,-0.00002615,-0.00003961,0.00012908,-0.0000
 1200,-0.00037371,0.00003311,0.00013393,0.00046552,0.00005290,-0.000065
 38,0.00187853,0.00117841,-0.00003293,-0.00032102,0.00006821,0.00009307
 ,0.00160525,-0.00025724,-0.00079184,-0.00351336,-0.00477913,-0.0013296
 9,0.02402241,-0.01496959,-0.01370539,-0.00000156,0.00000016,-0.0000002
 2,-0.00000008,0.00000004,-0.00000011,-0.00000020,0.00000066,-0.0000000
 1,-0.00000006,-0.00000040,0.00000018,0.00000006,-0.00000017,0.00000112
 ,-0.00000268,0.00000192,-0.00000085,-0.00000679,0.00000121,-0.00000514
 ,0.00000337,0.00000221,-0.00000700,-0.00085548,0.00012583,0.00027293,-
 0.00006595,-0.00000784,0.00001887,-0.00014832,-0.00044142,-0.00006475,
 0.09485682,-0.10446362,-0.05589235,-0.00032774,0.00042612,0.00021960,0
 .00065535,-0.00120355,0.00021237,-0.10319107,0.11481367,-0.00000072,-0
 .00000169,0.00000149,-0.00000207,0.00000319,-0.00000372,0.00001204,-0.
 00001394,-0.00000166,-0.00006406,0.00000839,0.00003458,0.00014059,-0.0
 0017026,0.00000700,-0.00002598,0.00009557,-0.00002532,-0.00024802,0.00
 003476,0.00002446,0.00011301,0.00008875,-0.00011153,0.00062342,0.00112
 288,0.00018814,-0.00017355,0.00003046,0.00007247,0.00070431,-0.0001488
 1,0.00003475,-0.00087018,-0.00182492,0.00066054,0.00723169,-0.00364184
 ,-0.00565891,-0.00000104,0.00000021,-0.00000018,-0.00000029,-0.0000001
 2,-0.00000035,-0.00000026,0.00000068,0.00000020,0.00000033,0.00000002,
 0.00000011,0.00000028,-0.00000009,0.00000046,-0.00000227,0.00000131,-0
 .00000023,-0.00000537,0.00000020,-0.00000477,0.00000146,0.00000253,-0.
 00000607,-0.00027460,0.00008107,0.00027764,-0.00002605,-0.00000748,0.0
 0001110,-0.00009629,-0.00010862,-0.00012570,0.09579160,-0.05741967,-0.
 10499842,-0.00004615,-0.00007955,0.00015831,-0.01588478,0.01026823,0.0
 1137496,-0.10556064,0.06419259,0.10824754,-0.00000137,-0.00000269,0.00
 000169,-0.00000311,0.00000442,-0.00000510,0.00001470,-0.00001424,0.000
 00762,-0.00008794,0.00001058,0.00003602,0.00020395,-0.00015700,0.00001
 110,-0.00004346,0.00009994,-0.00004894,-0.00024466,-0.00015771,0.00006
 153,-0.00043951,0.00020319,-0.00074356,0.00008398,-0.00153754,-0.00070
 318,0.00008596,0.00011758,0.00001962,-0.00009406,-0.00034763,-0.000171
 27,-0.00076501,0.00129551,0.00078203,-0.00429591,-0.00667620,0.0059216
 9,-0.00000141,0.00000025,-0.00000032,-0.00000024,-0.00000007,-0.000000
 41,-0.00000024,0.00000041,0.00000014,-0.00000003,-0.00000046,0.0000002
 5,0.00000027,0.,0.00000023,-0.00000296,0.00000166,-0.00000090,-0.00000
 589,0.00000042,-0.00000620,0.00000452,0.00000662,-0.00000758,0.0002659
 9,-0.00034254,0.00035366,0.00002871,-0.00006868,0.00006641,0.00000249,
 -0.00002777,-0.00001922,-0.06693495,-0.04151615,0.06317879,0.00054167,
 0.00039014,-0.00033648,0.00761618,0.01442711,-0.01998943,-0.00601208,-
 0.01476124,0.01866359,0.07008442,-0.00000227,-0.00000505,0.00000361,-0
 .00000628,0.00000881,-0.00001114,0.00003068,-0.00003126,0.00002070,-0.
 00017926,0.00001238,0.00007644,0.00037993,-0.00022914,0.00002985,-0.00
 018843,0.00015172,-0.00009750,-0.00037334,-0.00019500,0.00003511,-0.00
 060902,0.00037554,-0.00107083,0.00106979,-0.00259712,-0.00124847,-0.00
 009212,-0.00042302,0.00007040,-0.00043382,0.00025985,-0.00061167,-0.00
 221368,0.00042289,0.00007425,-0.00922976,-0.01769671,0.02223712,-0.000
 00325,0.00000037,-0.00000057,-0.00000037,0.,-0.00000066,-0.00000025,0.
 00000098,0.00000005,0.00000021,-0.00000093,0.00000044,0.00000028,-0.00
 000010,0.00000116,-0.00000671,0.00000275,-0.00000255,-0.00001063,0.000
 00135,-0.00001146,0.00000556,0.00001164,-0.00001644,0.00009241,-0.0001
 5152,0.00042898,0.00002662,-0.00004888,0.00000637,0.00007429,-0.000029
 38,-0.00004916,-0.04194015,-0.13000271,0.11828657,0.00122307,0.0001709
 0,0.00016237,0.00002985,-0.00100316,0.00146090,0.00330458,0.00950478,-
 0.01251384,0.04905209,0.14149000,-0.00000100,-0.00000086,0.00000062,-0
 .00000138,0.00000200,-0.00000241,0.00000581,-0.00000646,0.00000315,-0.
 00004174,0.00000421,0.00001302,0.00008886,-0.00004533,0.00000208,-0.00
 003526,0.00003920,-0.00001011,-0.00007256,-0.00007684,0.00006177,-0.00
 028430,0.00021581,-0.00049982,-0.00040096,-0.00066526,-0.00056041,-0.0
 0015828,-0.00023904,-0.00003216,-0.00027102,0.00050711,-0.00020858,0.0
 0078296,-0.00033897,0.00033091,-0.00335580,-0.00667343,0.01151470,-0.0
 0000049,0.00000014,-0.00000018,0.00000008,0.00000006,0.00000027,0.0000
 0009,-0.00000017,-0.00000011,0.00000009,-0.00000007,0.00000013,-0.0000
 0006,-0.00000010,0.00000030,-0.00000144,0.00000043,-0.00000066,-0.0000
 0221,0.00000043,-0.00000181,0.00000224,0.00000232,-0.00000365,-0.00006
 207,-0.00005263,0.00023177,-0.00000158,-0.00000285,0.00000182,0.000046
 58,0.00004529,0.00000702,0.06185843,0.11764098,-0.21350930,0.00013710,
 -0.00070517,-0.00017206,0.00654763,0.01085650,-0.01644088,0.00229204,0
 .00675271,-0.01015690,-0.06707179,-0.12726001,0.22943148\\-0.00000107,
 0.00000585,0.00000254,0.00000177,0.00000050,0.00000358,-0.00000268,0.0
 0000867,0.00000020,0.00001250,0.00000285,-0.00001175,-0.00000954,-0.00
 000948,0.00001867,-0.00000433,0.00000648,-0.00000466,0.00000592,0.0000
 0179,-0.00000328,-0.00000980,-0.00000260,0.00000290,0.00000624,-0.0000
 0249,-0.00000258,-0.00000578,-0.00000288,-0.00000257,-0.00000210,0.000
 00191,-0.00000181,-0.00000073,-0.00000263,-0.00000353,0.00001112,-0.00
 000587,-0.00000479,-0.00000049,0.00000425,0.00000214,-0.00000061,0.000
 00556,0.00000269,0.00000043,0.00000431,0.00000448,-0.00000169,0.000003
 06,0.00000035,-0.00000108,0.00000165,0.00000107,0.00000434,0.00000024,
 0.00000227,-0.00000138,0.00000296,0.00000138,-0.00000310,0.00000207,-0
 .00000062,-0.00000106,-0.00000339,0.00000106,0.00000110,-0.00000129,-0
 .00000556,-0.00000278,-0.00000307,-0.00000525,0.00000148,-0.00000338,0
 .00000311,-0.00000109,-0.00000506,-0.00000298,0.00000014,-0.00000457,0
 .00000102,0.00000301,-0.00000302,0.00000028,0.00000125,-0.00000239,0.0
 0000165\\\@


     SCHOPENHAUER'S LAW OF ENTROPY
 IF YOU PUT A SPOONFUL OF WINE IN A BARREL FULL
 OF SEWAGE, YOU GET SEWAGE.
 IF YOU PUT A SPOONFUL OF SEWAGE IN A BARREL FULL
 OF WINE, YOU GET SEWAGE.
 Job cpu time:       0 days  2 hours 11 minutes 30.3 seconds.
 File lengths (MBytes):  RWF=    417 Int=      0 D2E=      0 Chk=     18 Scr=      1
 Normal termination of Gaussian 09 at Tue Oct 30 14:28:51 2018.
WARNING: pbs_rusage is deprecated and values produced may not be accurate


=============================================================================
                                     Resource usage:
                                       CPU time:              10:11:32
   JobId:    1828846.r-man2            Elapsed time:          02:33:38
   Project:             q95            Requested time:        30:00:00
   Service Units:     10.24 
                                       Max physical memory:      540MB
                                       Max virtual memory:      1104MB
                                       Requested memory:           0MB

                                       Number of cpus:               4

                                       Max jobfs disk use:       0.4GB
                                       Requested jobfs:         12.0GB
=============================================================================

