 Entering Gaussian System, Link 0=/apps/gaussian/g09e01/g09/g09
 AtFile(1): /home/507/hio507/Basis/6-31pGd.gbs
 Initial command:
 /apps/gaussian/g09e01/g09/l1.exe "/jobfs/local/6205178.r-man2/Gau-2532.inp" -scrdir="/jobfs/local/6205178.r-man2/"
 Entering Link 1 = /apps/gaussian/g09e01/g09/l1.exe PID=      2533.
  
 Copyright (c) 1988,1990,1992,1993,1995,1998,2003,2009,2015,
            Gaussian, Inc.  All Rights Reserved.
  
 This is part of the Gaussian(R) 09 program.  It is based on
 the Gaussian(R) 03 system (copyright 2003, Gaussian, Inc.),
 the Gaussian(R) 98 system (copyright 1998, Gaussian, Inc.),
 the Gaussian(R) 94 system (copyright 1995, Gaussian, Inc.),
 the Gaussian 92(TM) system (copyright 1992, Gaussian, Inc.),
 the Gaussian 90(TM) system (copyright 1990, Gaussian, Inc.),
 the Gaussian 88(TM) system (copyright 1988, Gaussian, Inc.),
 the Gaussian 86(TM) system (copyright 1986, Carnegie Mellon
 University), and the Gaussian 82(TM) system (copyright 1983,
 Carnegie Mellon University). Gaussian is a federally registered
 trademark of Gaussian, Inc.
  
 This software contains proprietary and confidential information,
 including trade secrets, belonging to Gaussian, Inc.
  
 This software is provided under written license and may be
 used, copied, transmitted, or stored only in accord with that
 written license.
  
 The following legend is applicable only to US Government
 contracts under FAR:
  
                    RESTRICTED RIGHTS LEGEND
  
 Use, reproduction and disclosure by the US Government is
 subject to restrictions as set forth in subparagraphs (a)
 and (c) of the Commercial Computer Software - Restricted
 Rights clause in FAR 52.227-19.
  
 Gaussian, Inc.
 340 Quinnipiac St., Bldg. 40, Wallingford CT 06492
  
  
 ---------------------------------------------------------------
 Warning -- This program may not be used in any manner that
 competes with the business of Gaussian, Inc. or will provide
 assistance to any competitor of Gaussian, Inc.  The licensee
 of this program is prohibited from giving any competitor of
 Gaussian, Inc. access to this program.  By using this program,
 the user acknowledges that Gaussian, Inc. is engaged in the
 business of creating and licensing software in the field of
 computational chemistry and represents and warrants to the
 licensee that it is not a competitor of Gaussian, Inc. and that
 it will not use this program in any manner prohibited above.
 ---------------------------------------------------------------
  

 Cite this work as:
 Gaussian 09, Revision E.01,
 M. J. Frisch, G. W. Trucks, H. B. Schlegel, G. E. Scuseria, 
 M. A. Robb, J. R. Cheeseman, G. Scalmani, V. Barone, B. Mennucci, 
 G. A. Petersson, H. Nakatsuji, M. Caricato, X. Li, H. P. Hratchian, 
 A. F. Izmaylov, J. Bloino, G. Zheng, J. L. Sonnenberg, M. Hada, 
 M. Ehara, K. Toyota, R. Fukuda, J. Hasegawa, M. Ishida, T. Nakajima, 
 Y. Honda, O. Kitao, H. Nakai, T. Vreven, J. A. Montgomery, Jr., 
 J. E. Peralta, F. Ogliaro, M. Bearpark, J. J. Heyd, E. Brothers, 
 K. N. Kudin, V. N. Staroverov, T. Keith, R. Kobayashi, J. Normand, 
 K. Raghavachari, A. Rendell, J. C. Burant, S. S. Iyengar, J. Tomasi, 
 M. Cossi, N. Rega, J. M. Millam, M. Klene, J. E. Knox, J. B. Cross, 
 V. Bakken, C. Adamo, J. Jaramillo, R. Gomperts, R. E. Stratmann, 
 O. Yazyev, A. J. Austin, R. Cammi, C. Pomelli, J. W. Ochterski, 
 R. L. Martin, K. Morokuma, V. G. Zakrzewski, G. A. Voth, 
 P. Salvador, J. J. Dannenberg, S. Dapprich, A. D. Daniels, 
 O. Farkas, J. B. Foresman, J. V. Ortiz, J. Cioslowski, 
 and D. J. Fox, Gaussian, Inc., Wallingford CT, 2013.
 
 ******************************************
 Gaussian 09:  ES64L-G09RevE.01 30-Nov-2015
                27-Feb-2019 
 ******************************************
 %chk=3SF5Chloro_EtO.M062X_6-31pGd_bsse.chk
 %mem=196608000
 %nproc=4
 Will use up to    4 processors via shared memory.
 ----------------------------------------------------------------------
 # M062X/Gen 6D SCF=Tight INT(grid=ultrafine) Counterpoise=2 maxdisk=67
 1088640
 ----------------------------------------------------------------------
 1/38=1,62=2/1;
 2/12=2,17=6,18=5,40=1/2;
 1/38=1,53=2,62=2,63=1/22;
 3/5=7,8=2,11=2,16=1,25=1,30=1,74=-55,75=-5/1,2,3;
 4//1;
 5/5=2,32=2,38=5/2;
 6/7=2,8=2,9=2,10=2,28=1/1;
 1/53=2,62=2,63=1/22;
 3/5=7,6=11,8=2,11=2,16=1,25=1,30=1,74=-55,75=-5,82=7/1,2,3;
 4//1;
 5/5=2,32=2,38=5/2;
 6/7=2,8=2,9=2,10=2,28=1/1;
 1/53=2,62=2,63=1/22(-4);
 99/5=1,9=1/99;
 ---------------------------------
 3SF5Chloro_EtO.M062X_6-31pGd_bsse
 ---------------------------------
 Symbolic Z-matrix:
 Charge = -1 Multiplicity = 1 in supermolecule
 Charge =  0 Multiplicity = 1 in fragment      1.
 Charge = -1 Multiplicity = 1 in fragment      2.
 C(Fragment=1)        -1.67617   3.00571   0.4889 
 C(Fragment=1)        -0.24215   2.51795   0.68382 
 C(Fragment=1)         0.39754   2.09774  -0.6412 
 N(Fragment=1)         1.75975   1.63975  -0.49828 
 C(Fragment=1)         2.76766   2.53574  -0.3825 
 O(Fragment=1)         2.60471   3.75825  -0.42898 
 N(Fragment=1)         4.00726   1.92954  -0.215 
 C(Fragment=1)         5.22186   2.55478  -0.05917 
 C(Fragment=1)         5.40683   3.95266  -0.05929 
 C(Fragment=1)         6.34447   1.71486   0.11056 
 C(Fragment=1)         7.59907   2.27184   0.2731 
 C(Fragment=1)         7.82026   3.64626   0.27946 
 C(Fragment=1)         6.69331   4.44022   0.11018 
 H(Fragment=1)        -2.13463   3.30149   1.4384 
 H(Fragment=1)        -2.30222   2.22179   0.0451 
 H(Fragment=1)        -1.70478   3.87329  -0.18078 
 H(Fragment=1)        -0.21832   1.66421   1.37198 
 H(Fragment=1)         0.3737    3.31051   1.12345 
 H(Fragment=1)         0.37971   2.94592  -1.33656 
 H(Fragment=1)        -0.17633   1.27829  -1.08958 
 H(Fragment=1)         1.94019   0.62282  -0.40686 
 H(Fragment=1)         4.04247   0.88472  -0.18846 
 H(Fragment=1)         4.55255   4.60243  -0.18974 
 H(Fragment=1)         6.20107   0.63679   0.11169 
 H(Fragment=1)         8.81207   4.05905   0.40923 
 S(Fragment=1)         6.92765   6.24058   0.11354 
 F(Fragment=1)         5.98167   6.46166  -1.17307 
 F(Fragment=1)         8.22308   6.1561   -0.85755 
 F(Fragment=1)         5.66911   6.49724   1.08779 
 Cl(Fragment=1)        8.97785   1.21219   0.48253 
 F(Fragment=1)         7.15262   7.84491   0.11955 
 F(Fragment=1)         7.91069   6.19157   1.40193 
 O(Fragment=2)         2.165    -1.1311   -0.26142 
 O(Fragment=2)         4.37699  -0.78817  -0.08991 
 C(Fragment=2)         3.3514   -1.52315  -0.13342 
 C(Fragment=2)         3.56007  -3.04136  -0.02187 
 C(Fragment=2)         5.01225  -3.4683    0.15282 
 H(Fragment=2)         3.12209  -3.49101  -0.92168 
 H(Fragment=2)         2.94191  -3.38937   0.81485 
 H(Fragment=2)         5.62001  -3.12431  -0.68894 
 H(Fragment=2)         5.09884  -4.55942   0.22484 
 H(Fragment=2)         5.43976  -3.02418   1.05642 
 
                          Input orientation:                          
 ---------------------------------------------------------------------
 Center     Atomic      Atomic             Coordinates (Angstroms)
 Number     Number       Type             X           Y           Z
 ---------------------------------------------------------------------
      1          6           0       -1.676174    3.005708    0.488902
      2          6           0       -0.242152    2.517947    0.683818
      3          6           0        0.397543    2.097739   -0.641202
      4          7           0        1.759750    1.639750   -0.498276
      5          6           0        2.767658    2.535738   -0.382502
      6          8           0        2.604710    3.758254   -0.428980
      7          7           0        4.007265    1.929541   -0.215003
      8          6           0        5.221859    2.554776   -0.059167
      9          6           0        5.406829    3.952663   -0.059289
     10          6           0        6.344468    1.714856    0.110559
     11          6           0        7.599073    2.271841    0.273104
     12          6           0        7.820256    3.646258    0.279463
     13          6           0        6.693312    4.440218    0.110182
     14          1           0       -2.134632    3.301485    1.438398
     15          1           0       -2.302219    2.221789    0.045102
     16          1           0       -1.704777    3.873294   -0.180781
     17          1           0       -0.218321    1.664215    1.371976
     18          1           0        0.373704    3.310507    1.123452
     19          1           0        0.379714    2.945924   -1.336565
     20          1           0       -0.176329    1.278293   -1.089584
     21          1           0        1.940186    0.622819   -0.406859
     22          1           0        4.042474    0.884724   -0.188463
     23          1           0        4.552545    4.602429   -0.189740
     24          1           0        6.201066    0.636791    0.111689
     25          1           0        8.812070    4.059051    0.409232
     26         16           0        6.927647    6.240582    0.113545
     27          9           0        5.981670    6.461660   -1.173074
     28          9           0        8.223083    6.156099   -0.857545
     29          9           0        5.669115    6.497236    1.087786
     30         17           0        8.977846    1.212192    0.482534
     31          9           0        7.152624    7.844915    0.119553
     32          9           0        7.910695    6.191566    1.401928
     33          8           0        2.164995   -1.131102   -0.261421
     34          8           0        4.376991   -0.788165   -0.089913
     35          6           0        3.351399   -1.523150   -0.133419
     36          6           0        3.560071   -3.041360   -0.021865
     37          6           0        5.012248   -3.468297    0.152822
     38          1           0        3.122092   -3.491014   -0.921684
     39          1           0        2.941909   -3.389371    0.814853
     40          1           0        5.620011   -3.124313   -0.688942
     41          1           0        5.098839   -4.559421    0.224837
     42          1           0        5.439757   -3.024182    1.056420
 ---------------------------------------------------------------------
                    Distance matrix (angstroms):
                    1          2          3          4          5
     1  C    0.000000
     2  C    1.527194   0.000000
     3  C    2.530187   1.530183   0.000000
     4  N    3.827001   2.485193   1.444227   0.000000
     5  C    4.552785   3.193166   2.424090   1.353542   0.000000
     6  O    4.442387   3.298682   2.770187   2.281845   1.234204
     7  N    5.827100   4.383109   3.638685   2.283757   1.390020
     8  C    6.934449   5.514417   4.880745   3.607809   2.475482
     9  C    7.167019   5.875508   5.373296   4.340905   3.012867
    10  C    8.132658   6.660115   6.006468   4.625576   3.702773
    11  C    9.306736   7.855829   7.261425   5.923872   4.882830
    12  C    9.520313   8.151013   7.638207   6.431227   5.215382
    13  C    8.499973   7.219753   6.759326   5.705512   4.390961
    14  H    1.095085   2.182843   3.490795   4.655994   5.285309
    15  H    1.097006   2.177050   2.788390   4.139278   5.097554
    16  H    1.096357   2.173423   2.790041   4.134304   4.672517
    17  H    2.169045   1.096808   2.149445   2.722353   3.571248
    18  H    2.167385   1.095769   2.141350   2.709715   2.932436
    19  H    2.750014   2.156810   1.096935   2.076853   2.603990
    20  H    2.779410   2.164723   1.096297   2.056380   3.278443
    21  H    4.422511   3.089285   2.147103   1.036852   2.084361
    22  H    6.136801   4.667581   3.868062   2.424227   2.094912
    23  H    6.465834   5.300687   4.872508   4.083180   2.737552
    24  H    8.234377   6.736552   6.031757   4.593830   3.954556
    25  H   10.541306   9.188543   8.703702   7.510779   6.283490
    26  S    9.199512   8.098718   7.770138   6.946159   5.592624
    27  F    8.564365   7.598479   7.106981   6.444438   5.134953
    28  F   10.475360   9.341956   8.817945   7.893107   6.564628
    29  F    8.154918   7.137297   7.080568   6.433808   5.125784
    30  Cl  10.803929   9.314176   8.698769   7.296965   6.408315
    31  F   10.074820   9.131138   8.901679   8.244323   6.904154
    32  F   10.143537   8.971068   8.796661   7.884410   6.557446
    33  O    5.694801   4.472515   3.700478   2.810328   3.718007
    34  O    7.167239   5.732845   4.946552   3.593255   3.704577
    35  C    6.795169   5.469181   4.700420   3.559551   4.108207
    36  C    8.015371   6.772058   6.065930   5.037947   5.644643
    37  C    9.314541   7.982843   7.273702   6.090552   6.432200
    38  H    8.198811   7.071307   6.223825   5.325410   6.061195
    39  H    7.894933   6.712065   6.221115   5.330465   6.047390
    40  H    9.602020   8.251334   7.385546   6.134677   6.345549
    41  H   10.158824   8.878399   8.195730   7.078285   7.492966
    42  H    9.344417   7.945950   7.385115   6.140993   6.334297
                    6          7          8          9         10
     6  O    0.000000
     7  N    2.314549   0.000000
     8  C    2.904237   1.374934   0.000000
     9  C    2.833079   2.464965   1.410072   0.000000
    10  C    4.295622   2.369514   1.412275   2.432241   0.000000
    11  C    5.257947   3.640948   2.416940   2.782370   1.382276
    12  C    5.264633   4.210762   2.838604   2.456271   2.436554
    13  C    4.180004   3.691083   2.397654   1.386171   2.747597
    14  H    5.114401   6.506832   7.544418   7.716264   8.727868
    15  H    5.163665   6.321602   7.532165   7.901661   8.661781
    16  H    4.318161   6.033802   7.052061   7.113086   8.338709
    17  H    3.949423   4.521557   5.695334   6.239217   6.683108
    18  H    2.754616   4.111118   5.047210   5.209950   6.262753
    19  H    2.536572   3.930656   5.023058   5.283638   6.260030
    20  H    3.784281   4.323363   5.641950   6.275780   6.644676
    21  H    3.205157   2.452987   3.823968   4.819365   4.567052
    22  H    3.222141   1.045747   2.048595   3.360120   2.465301
    23  H    2.136335   2.728058   2.158220   1.081209   3.411633
    24  H    4.792664   2.567235   2.160255   3.413950   1.087561
    25  H    6.270916   5.292507   3.920696   3.438967   3.416653
    26  S    5.014386   5.217437   4.065059   2.752695   4.563146
    27  F    4.389298   5.035502   4.133019   2.804643   4.930668
    28  F    6.123679   6.004146   4.755447   3.663827   4.918441
    29  F    4.381001   5.032180   4.130197   2.803466   4.927700
    30  Cl   6.923161   5.070288   4.025346   4.533864   2.706606
    31  F    6.138828   6.707970   5.634302   4.269591   6.183108
    32  F    6.117736   6.001340   4.752986   3.662947   4.915448
    33  O    4.911947   3.572624   4.792809   6.032828   5.070092
    34  O    4.891408   2.745591   3.448188   4.851490   3.190026
    35  C    5.342109   3.515379   4.487050   5.849344   4.416183
    36  C    6.878460   4.994711   5.837779   7.233828   5.512893
    37  C    7.639226   5.502903   6.030447   7.434470   5.351792
    38  H    7.284390   5.537630   6.457905   7.834034   6.208890
    39  H    7.262876   5.521450   6.426116   7.793935   6.174671
    40  H    7.518600   5.326069   5.727756   7.108129   4.957983
    41  H    8.708150   6.594817   7.120926   8.522392   6.397749
    42  H    7.499690   5.311113   5.693574   7.065569   4.916466
                   11         12         13         14         15
    11  C    0.000000
    12  C    1.392115   0.000000
    13  C    2.355590   1.388896   0.000000
    14  H    9.857134  10.028050   8.999637   0.000000
    15  H    9.904043  10.224898   9.265271   1.770623   0.000000
    16  H    9.451576   9.538848   8.422230   1.770164   1.770714
    17  H    7.917599   8.351096   7.554402   2.521371   2.532610
    18  H    7.349005   7.501745   6.499262   2.528047   3.083621
    19  H    7.427285   7.646154   6.647368   3.761486   3.102603
    20  H    7.956188   8.451445   7.656969   3.784039   2.587877
    21  H    5.933349   6.647364   6.118176   5.213863   4.556201
    22  H    3.845326   4.702836   4.444960   6.829645   6.488253
    23  H    3.863573   3.436910   2.167752   7.004400   7.260192
    24  H    2.157282   3.421522   3.835148   8.851249   8.650001
    25  H    2.164258   1.082096   2.173443  11.021042  11.271005
    26  S    4.028297   2.748599   1.815554   9.618650  10.067066
    27  F    4.718262   3.662888   2.497881   9.092901   9.385270
    28  F    4.093313   2.784664   2.494182  10.986466  11.272779
    29  F    4.716185   3.661812   2.497201   8.440036   9.105427
    30  Cl   1.751495   2.702949   3.972140  11.347510  11.333601
    31  F    5.593035   4.254412   3.435552  10.422822  11.000870
    32  F    4.090916   2.783289   2.493561  10.452869  11.041001
    33  O    6.433890   7.422782   7.189113   6.404998   5.593910
    34  O    4.458389   5.626422   5.722007   7.839784   7.327339
    35  C    5.710513   6.845724   6.840284   7.472901   6.783792
    36  C    6.680617   7.934999   8.112252   8.648335   7.878557
    37  C    6.297247   7.649696   8.085320   9.927767   9.267692
    38  H    7.394686   8.628798   8.759155   8.907366   7.936872
    39  H    7.350645   8.578169   8.710456   8.421854   7.718712
    40  H    5.827580   7.184672   7.681972  10.293248   9.585476
    41  H    7.274589   8.645361   9.140513  10.751264  10.039560
    42  H    5.772703   7.124971   7.627846   9.875796   9.406443
                   16         17         18         19         20
    16  H    0.000000
    17  H    3.082310   0.000000
    18  H    2.517506   1.767070   0.000000
    19  H    2.557529   3.055588   2.486894   0.000000
    20  H    3.145808   2.491982   3.054499   1.775156   0.000000
    21  H    4.889013   2.984613   3.466899   2.948939   2.318489
    22  H    6.477847   4.604015   4.589708   4.356890   4.331883
    23  H    6.299667   5.816633   4.566864   4.633760   5.849944
    24  H    8.547681   6.622119   6.490806   6.427882   6.521177
    25  H   10.535022   9.392022   8.501555   8.682826   9.527349
    26  S    8.955971   8.578557   7.249787   7.472149   8.748617
    27  F    8.171032   8.242127   6.830306   6.615817   8.049548
    28  F   10.209388   9.818609   8.581054   8.488410   9.715809
    29  F    7.928973   7.622385   6.180443   6.816674   8.133112
    30  Cl  11.029047   9.250131   8.879468   8.957836   9.288425
    31  F    9.711721   9.700538   8.217202   8.484850   9.914438
    32  F   10.016818   9.304768   8.073677   8.645761   9.785082
    33  O    6.326580   4.020196   4.985428   4.578788   3.460178
    34  O    7.663248   5.410008   5.856422   5.610329   5.099246
    35  C    7.395185   5.016813   5.814691   5.500099   4.605127
    36  C    8.692314   6.193664   7.197979   6.905844   5.810344
    37  C    9.956338   7.428854   8.271058   8.051142   7.141079
    38  H    8.836325   6.557105   7.615570   7.009061   5.801211
    39  H    8.679244   5.986332   7.181871   7.164454   5.927678
    40  H   10.142842   7.827101   8.497966   8.045366   7.289788
    41  H   10.842711   8.265698   9.223349   9.002128   7.977091
    42  H   10.007508   7.354896   8.111577   8.183678   7.393040
                   21         22         23         24         25
    21  H    0.000000
    22  H    2.129767   0.000000
    23  H    4.765381   3.752533   0.000000
    24  H    4.292341   2.193418   4.305201   0.000000
    25  H    7.726350   5.760438   4.335617   4.314827   0.000000
    26  S    7.530262   6.091030   2.901144   5.650698   2.897854
    27  F    7.142320   5.985997   2.542850   5.968906   4.035763
    28  F    8.384217   6.761106   4.041374   5.957409   2.519769
    29  F    7.116716   5.981226   2.543441   5.964943   4.035263
    30  Cl   7.118079   4.991530   5.615064   2.859916   2.852624
    31  F    8.922179   7.629690   4.167708   7.270665   4.143722
    32  F    8.362393   6.756852   4.041773   5.953408   2.519036
    33  O    1.774241   2.755685   6.211192   4.422050   8.459968
    34  O    2.833611   1.708851   5.394376   2.323445   6.588974
    35  C    2.582920   2.505688   6.242487   3.584136   7.827795
    36  C    4.024731   3.959116   7.709779   4.530065   8.842238
    37  C    5.146654   4.472776   8.091063   4.273960   8.435957
    38  H    4.311099   4.531203   8.251410   5.252307   9.547287
    39  H    4.312041   4.526121   8.214147   5.227478   9.492223
    40  H    5.259438   4.337220   7.816087   3.889028   7.936998
    41  H    6.101782   5.561064   9.187480   5.313034   9.386168
    42  H    5.262016   4.333784   7.778513   3.856791   7.871693
                   26         27         28         29         30
    26  S    0.000000
    27  F    1.612184   0.000000
    28  F    1.621206   2.284044   0.000000
    29  F    1.612116   2.282640   3.228535   0.000000
    30  Cl   5.442810   6.266979   5.177615   6.264641   0.000000
    31  F    1.620042   2.226075   2.225467   2.225873   6.888847
    32  F    1.621332   3.228734   2.281242   2.284031   5.174772
    33  O    8.784371   8.546821   9.495213   8.502396   7.242888
    34  O    7.480008   7.503879   7.975242   7.492237   5.049454
    35  C    8.551379   8.470915   9.122967   8.437401   6.286366
    36  C    9.874884   9.874047  10.345786   9.831795   6.906475
    37  C    9.896092  10.064881  10.196043  10.030826   6.143424
    38  H   10.500377  10.358384  10.912883  10.501925   7.640801
    39  H   10.445761  10.499276  11.036471  10.259490   7.597193
    40  H    9.489739   9.605001   9.640044   9.784343   5.608269
    41  H   10.954313  11.144405  11.214045  11.104933   6.958780
    42  H    9.430731   9.759381   9.782010   9.524232   5.549260
                   31         32         33         34         35
    31  F    0.000000
    32  F    2.225471   0.000000
    33  O   10.275721   9.455223   0.000000
    34  O    9.070727   7.964251   2.244983   0.000000
    35  C   10.113058   9.091827   1.256041   1.262512   0.000000
    36  C   11.464615  10.305437   2.377543   2.397681   1.536538
    37  C   11.513952  10.162392   3.706876   2.765064   2.573704
    38  H   12.076119  11.049083   2.630811   3.093866   2.132236
    39  H   12.017601  10.808692   2.619492   3.105532   2.132998
    40  H   11.105247   9.818582   4.011583   2.713212   2.831772
    41  H   12.573649  11.174783   4.538420   3.852596   3.521482
    42  H   11.043048   9.547509   4.005562   2.728245   2.833735
                   36         37         38         39         40
    36  C    0.000000
    37  C    1.523682   0.000000
    38  H    1.097127   2.174343   0.000000
    39  H    1.096965   2.175044   1.748815   0.000000
    40  H    2.166847   1.093740   2.535398   3.082837   0.000000
    41  H    2.175586   1.096920   2.522604   2.523783   1.779367
    42  H    2.167075   1.093843   3.082596   2.535934   1.757500
                   41         42
    41  H    0.000000
    42  H    1.778964   0.000000
 Stoichiometry    C13H17ClF5N2O3S(1-)
 Framework group  C1[X(C13H17ClF5N2O3S)]
 Deg. of freedom   120
 Full point group                 C1      NOp   1
 Largest Abelian subgroup         C1      NOp   1
 Largest concise Abelian subgroup C1      NOp   1
                         Standard orientation:                         
 ---------------------------------------------------------------------
 Center     Atomic      Atomic             Coordinates (Angstroms)
 Number     Number       Type             X           Y           Z
 ---------------------------------------------------------------------
      1          6           0       -4.123355    5.180239    0.675438
      2          6           0       -3.567152    3.765328    0.820303
      3          6           0       -3.508930    3.039749   -0.525656
      4          7           0       -2.977543    1.700228   -0.430260
      5          6           0       -1.640375    1.505222   -0.352624
      6          8           0       -0.812226    2.419295   -0.396199
      7          7           0       -1.300655    0.163133   -0.227947
      8          6           0       -0.036219   -0.365386   -0.116988
      9          6           0        1.151319    0.394848   -0.127055
     10          6           0        0.049534   -1.768896    0.014645
     11          6           0        1.287761   -2.372163    0.131045
     12          6           0        2.480860   -1.654894    0.126221
     13          6           0        2.357199   -0.277724   -0.004702
     14          1           0       -4.169196    5.696783    1.639954
     15          1           0       -5.136928    5.164269    0.256109
     16          1           0       -3.495349    5.778805    0.005120
     17          1           0       -4.187188    3.178868    1.509221
     18          1           0       -2.553645    3.794761    1.235812
     19          1           0       -2.889444    3.618233   -1.221976
     20          1           0       -4.516145    2.961133   -0.951338
     21          1           0       -3.636188    0.904227   -0.342892
     22          1           0       -2.075811   -0.538257   -0.200171
     23          1           0        1.094134    1.469763   -0.228543
     24          1           0       -0.866766   -2.354648    0.023470
     25          1           0        3.438722   -2.149584    0.219576
     26         16           0        3.884231    0.704275   -0.014011
     27          9           0        3.411643    1.602459   -1.266633
     28          9           0        4.630399   -0.314753   -1.030438
     29          9           0        3.293505    1.806069    1.003836
     30         17           0        1.371652   -4.114065    0.293756
     31          9           0        5.255480    1.566932   -0.019873
     32          9           0        4.512252   -0.111305    1.238640
     33          8           0       -4.828143   -0.402348   -0.201348
     34          8           0       -3.136300   -1.875168   -0.109589
     35          6           0       -4.360026   -1.564677   -0.114760
     36          6           0       -5.383078   -2.706044   -0.007070
     37          6           0       -4.769193   -4.095077    0.116787
     38          1           0       -6.031306   -2.638379   -0.889629
     39          1           0       -6.026653   -2.479804    0.851975
     40          1           0       -4.135521   -4.315841   -0.746921
     41          1           0       -5.545498   -4.866745    0.188289
     42          1           0       -4.131853   -4.158413    1.003510
 ---------------------------------------------------------------------
 Rotational constants (GHZ):      0.2090126      0.1020653      0.0712944
 Counterpoise: doing full dimer calculation.
 General basis read from cards:  (6D, 7F)
 There are   517 symmetry adapted cartesian basis functions of A   symmetry.
 There are   517 symmetry adapted basis functions of A   symmetry.
   517 basis functions,   916 primitive gaussians,   517 cartesian basis functions
   106 alpha electrons      106 beta electrons
       nuclear repulsion energy      2762.0137384743 Hartrees.
 NAtoms=   42 NActive=   42 NUniq=   42 SFac= 1.00D+00 NAtFMM=   60 NAOKFM=F Big=F
 Integral buffers will be    131072 words long.
 Raffenetti 2 integral format.
 Two-electron integral symmetry is turned on.
 One-electron integrals computed using PRISM.
 NBasis=   517 RedAO= T EigKep=  1.04D-06  NBF=   517
 NBsUse=   515 1.00D-06 EigRej=  5.54D-07 NBFU=   515
 ExpMin= 4.05D-02 ExpMax= 2.52D+04 ExpMxC= 3.78D+03 IAcc=3 IRadAn=         5 AccDes= 0.00D+00
 Harris functional with IExCor= 1009 and IRadAn=       5 diagonalized for initial guess.
 HarFok:  IExCor= 1009 AccDes= 0.00D+00 IRadAn=         5 IDoV= 1 UseB2=F ITyADJ=14
 ICtDFT=  3500011 ScaDFX=  1.000000  1.000000  1.000000  1.000000
 FoFCou: FMM=F IPFlag=           0 FMFlag=      100000 FMFlg1=           0
         NFxFlg=           0 DoJE=T BraDBF=F KetDBF=T FulRan=T
         wScrn=  0.000000 ICntrl=     500 IOpCl=  0 I1Cent=   200000004 NGrid=           0
         NMat0=    1 NMatS0=      1 NMatT0=    0 NMatD0=    1 NMtDS0=    0 NMtDT0=    0
 Petite list used in FoFCou.
 Requested convergence on RMS density matrix=1.00D-08 within 128 cycles.
 Requested convergence on MAX density matrix=1.00D-06.
 Requested convergence on             energy=1.00D-06.
 No special actions if energy rises.
 SCF Done:  E(RM062X) =  -2197.90826524     A.U. after   15 cycles
            NFock= 15  Conv=0.72D-08     -V/T= 2.0061

 **********************************************************************

            Population analysis using the SCF density.

 **********************************************************************

 Orbital symmetries:
       Occupied  (A) (A) (A) (A) (A) (A) (A) (A) (A) (A) (A) (A)
                 (A) (A) (A) (A) (A) (A) (A) (A) (A) (A) (A) (A)
                 (A) (A) (A) (A) (A) (A) (A) (A) (A) (A) (A) (A)
                 (A) (A) (A) (A) (A) (A) (A) (A) (A) (A) (A) (A)
                 (A) (A) (A) (A) (A) (A) (A) (A) (A) (A) (A) (A)
                 (A) (A) (A) (A) (A) (A) (A) (A) (A) (A) (A) (A)
                 (A) (A) (A) (A) (A) (A) (A) (A) (A) (A) (A) (A)
                 (A) (A) (A) (A) (A) (A) (A) (A) (A) (A) (A) (A)
                 (A) (A) (A) (A) (A) (A) (A) (A) (A) (A)
       Virtual   (A) (A) (A) (A) (A) (A) (A) (A) (A) (A) (A) (A)
                 (A) (A) (A) (A) (A) (A) (A) (A) (A) (A) (A) (A)
                 (A) (A) (A) (A) (A) (A) (A) (A) (A) (A) (A) (A)
                 (A) (A) (A) (A) (A) (A) (A) (A) (A) (A) (A) (A)
                 (A) (A) (A) (A) (A) (A) (A) (A) (A) (A) (A) (A)
                 (A) (A) (A) (A) (A) (A) (A) (A) (A) (A) (A) (A)
                 (A) (A) (A) (A) (A) (A) (A) (A) (A) (A) (A) (A)
                 (A) (A) (A) (A) (A) (A) (A) (A) (A) (A) (A) (A)
                 (A) (A) (A) (A) (A) (A) (A) (A) (A) (A) (A) (A)
                 (A) (A) (A) (A) (A) (A) (A) (A) (A) (A) (A) (A)
                 (A) (A) (A) (A) (A) (A) (A) (A) (A) (A) (A) (A)
                 (A) (A) (A) (A) (A) (A) (A) (A) (A) (A) (A) (A)
                 (A) (A) (A) (A) (A) (A) (A) (A) (A) (A) (A) (A)
                 (A) (A) (A) (A) (A) (A) (A) (A) (A) (A) (A) (A)
                 (A) (A) (A) (A) (A) (A) (A) (A) (A) (A) (A) (A)
                 (A) (A) (A) (A) (A) (A) (A) (A) (A) (A) (A) (A)
                 (A) (A) (A) (A) (A) (A) (A) (A) (A) (A) (A) (A)
                 (A) (A) (A) (A) (A) (A) (A) (A) (A) (A) (A) (A)
                 (A) (A) (A) (A) (A) (A) (A) (A) (A) (A) (A) (A)
                 (A) (A) (A) (A) (A) (A) (A) (A) (A) (A) (A) (A)
                 (A) (A) (A) (A) (A) (A) (A) (A) (A) (A) (A) (A)
                 (A) (A) (A) (A) (A) (A) (A) (A) (A) (A) (A) (A)
                 (A) (A) (A) (A) (A) (A) (A) (A) (A) (A) (A) (A)
                 (A) (A) (A) (A) (A) (A) (A) (A) (A) (A) (A) (A)
                 (A) (A) (A) (A) (A) (A) (A) (A) (A) (A) (A) (A)
                 (A) (A) (A) (A) (A) (A) (A) (A) (A) (A) (A) (A)
                 (A) (A) (A) (A) (A) (A) (A) (A) (A) (A) (A) (A)
                 (A) (A) (A) (A) (A) (A) (A) (A) (A) (A) (A) (A)
                 (A) (A) (A) (A) (A) (A) (A) (A) (A) (A) (A) (A)
                 (A) (A) (A) (A) (A) (A) (A) (A) (A) (A) (A) (A)
                 (A) (A) (A) (A) (A) (A) (A) (A) (A) (A) (A) (A)
                 (A) (A) (A) (A) (A) (A) (A) (A) (A) (A) (A) (A)
                 (A) (A) (A) (A) (A) (A) (A) (A) (A) (A) (A) (A)
                 (A) (A) (A) (A) (A) (A) (A) (A) (A) (A) (A) (A)
                 (A)
 The electronic state is 1-A.
 Alpha  occ. eigenvalues -- -102.58912 -90.23584 -25.21583 -25.21573 -25.21557
 Alpha  occ. eigenvalues --  -25.21553 -25.21443 -19.49752 -19.47723 -19.47139
 Alpha  occ. eigenvalues --  -14.67478 -14.65509 -10.56771 -10.53691 -10.52315
 Alpha  occ. eigenvalues --  -10.52154 -10.52107 -10.48705 -10.47582 -10.47345
 Alpha  occ. eigenvalues --  -10.47176 -10.45518 -10.44688 -10.43300 -10.43195
 Alpha  occ. eigenvalues --   -9.73575  -8.52258  -7.45973  -7.45322  -7.45308
 Alpha  occ. eigenvalues --   -6.44683  -6.44672  -6.44225  -1.40226  -1.30513
 Alpha  occ. eigenvalues --   -1.30449  -1.27407  -1.26086  -1.05955  -1.03788
 Alpha  occ. eigenvalues --   -0.94965  -0.94036  -0.91916  -0.90370  -0.87319
 Alpha  occ. eigenvalues --   -0.82598  -0.78667  -0.76046  -0.75358  -0.74832
 Alpha  occ. eigenvalues --   -0.68545  -0.65960  -0.64262  -0.64033  -0.62316
 Alpha  occ. eigenvalues --   -0.61671  -0.58696  -0.57654  -0.55323  -0.54445
 Alpha  occ. eigenvalues --   -0.53310  -0.52688  -0.51284  -0.50251  -0.49252
 Alpha  occ. eigenvalues --   -0.48821  -0.46663  -0.45871  -0.45764  -0.45610
 Alpha  occ. eigenvalues --   -0.45563  -0.44836  -0.43519  -0.43345  -0.43015
 Alpha  occ. eigenvalues --   -0.42526  -0.42158  -0.41908  -0.41851  -0.41329
 Alpha  occ. eigenvalues --   -0.40971  -0.39567  -0.39265  -0.38591  -0.38155
 Alpha  occ. eigenvalues --   -0.37572  -0.36262  -0.35126  -0.34507  -0.34099
 Alpha  occ. eigenvalues --   -0.33676  -0.33220  -0.32473  -0.31584  -0.31222
 Alpha  occ. eigenvalues --   -0.29965  -0.29669  -0.29191  -0.28004  -0.23448
 Alpha  occ. eigenvalues --   -0.22354  -0.20605  -0.20165  -0.19997  -0.19346
 Alpha  occ. eigenvalues --   -0.16662
 Alpha virt. eigenvalues --    0.07206   0.08585   0.09532   0.10114   0.10549
 Alpha virt. eigenvalues --    0.11251   0.11799   0.11975   0.12095   0.12534
 Alpha virt. eigenvalues --    0.12725   0.13085   0.13403   0.13832   0.14445
 Alpha virt. eigenvalues --    0.14505   0.15029   0.15711   0.16087   0.16345
 Alpha virt. eigenvalues --    0.16442   0.17094   0.17457   0.17896   0.18004
 Alpha virt. eigenvalues --    0.18372   0.19031   0.19565   0.19701   0.20166
 Alpha virt. eigenvalues --    0.20230   0.20604   0.21188   0.21383   0.21743
 Alpha virt. eigenvalues --    0.21833   0.21968   0.22348   0.22763   0.23386
 Alpha virt. eigenvalues --    0.23795   0.24493   0.24659   0.24874   0.25071
 Alpha virt. eigenvalues --    0.25626   0.25914   0.26581   0.26782   0.27428
 Alpha virt. eigenvalues --    0.27934   0.28098   0.28394   0.28834   0.29822
 Alpha virt. eigenvalues --    0.30315   0.30666   0.31406   0.31627   0.32150
 Alpha virt. eigenvalues --    0.32315   0.32761   0.32997   0.33568   0.34206
 Alpha virt. eigenvalues --    0.34359   0.34614   0.34922   0.35295   0.35716
 Alpha virt. eigenvalues --    0.35937   0.36042   0.36761   0.37121   0.37858
 Alpha virt. eigenvalues --    0.38054   0.38316   0.38366   0.38547   0.39034
 Alpha virt. eigenvalues --    0.39360   0.39434   0.39580   0.40216   0.40486
 Alpha virt. eigenvalues --    0.40795   0.41095   0.41372   0.41818   0.42197
 Alpha virt. eigenvalues --    0.42701   0.43003   0.43197   0.43287   0.43702
 Alpha virt. eigenvalues --    0.43796   0.43963   0.44542   0.44705   0.45361
 Alpha virt. eigenvalues --    0.45588   0.45969   0.46325   0.46736   0.47013
 Alpha virt. eigenvalues --    0.47541   0.48000   0.48345   0.48555   0.49283
 Alpha virt. eigenvalues --    0.49838   0.49894   0.50490   0.50844   0.51085
 Alpha virt. eigenvalues --    0.51498   0.52057   0.52234   0.53584   0.54385
 Alpha virt. eigenvalues --    0.54502   0.55235   0.56427   0.57243   0.58337
 Alpha virt. eigenvalues --    0.58615   0.59144   0.59457   0.59580   0.60894
 Alpha virt. eigenvalues --    0.61769   0.63141   0.63632   0.64406   0.66165
 Alpha virt. eigenvalues --    0.66368   0.66668   0.67219   0.68388   0.69443
 Alpha virt. eigenvalues --    0.69669   0.70599   0.71276   0.73127   0.73953
 Alpha virt. eigenvalues --    0.74246   0.76391   0.78680   0.79011   0.79899
 Alpha virt. eigenvalues --    0.80482   0.80673   0.81073   0.82459   0.82579
 Alpha virt. eigenvalues --    0.83730   0.85339   0.85877   0.86384   0.86884
 Alpha virt. eigenvalues --    0.87310   0.87985   0.89123   0.89688   0.90347
 Alpha virt. eigenvalues --    0.90723   0.91568   0.91888   0.92731   0.93243
 Alpha virt. eigenvalues --    0.94278   0.95858   0.97286   0.97779   0.98038
 Alpha virt. eigenvalues --    0.98822   1.00344   1.01776   1.02118   1.02934
 Alpha virt. eigenvalues --    1.04879   1.05426   1.06593   1.06863   1.07607
 Alpha virt. eigenvalues --    1.08391   1.08986   1.09422   1.09669   1.09860
 Alpha virt. eigenvalues --    1.10234   1.11221   1.11898   1.12200   1.13356
 Alpha virt. eigenvalues --    1.15610   1.16873   1.17041   1.18251   1.18514
 Alpha virt. eigenvalues --    1.18704   1.20882   1.21396   1.22783   1.23597
 Alpha virt. eigenvalues --    1.25872   1.26564   1.27336   1.28005   1.28780
 Alpha virt. eigenvalues --    1.29301   1.31529   1.31927   1.32116   1.34483
 Alpha virt. eigenvalues --    1.35227   1.36928   1.37421   1.38984   1.39613
 Alpha virt. eigenvalues --    1.42269   1.43455   1.43778   1.44585   1.45820
 Alpha virt. eigenvalues --    1.48030   1.49296   1.50649   1.50748   1.51454
 Alpha virt. eigenvalues --    1.51776   1.52909   1.53868   1.55234   1.55962
 Alpha virt. eigenvalues --    1.56531   1.57136   1.57543   1.59001   1.59660
 Alpha virt. eigenvalues --    1.60050   1.61109   1.61921   1.63180   1.63517
 Alpha virt. eigenvalues --    1.63649   1.65698   1.66480   1.66925   1.68131
 Alpha virt. eigenvalues --    1.68852   1.70285   1.70465   1.71702   1.72519
 Alpha virt. eigenvalues --    1.74812   1.75070   1.77339   1.78641   1.80225
 Alpha virt. eigenvalues --    1.81305   1.81713   1.82033   1.84090   1.85475
 Alpha virt. eigenvalues --    1.86489   1.87189   1.88461   1.89300   1.89641
 Alpha virt. eigenvalues --    1.90642   1.91293   1.92266   1.92350   1.93281
 Alpha virt. eigenvalues --    1.94372   1.95067   1.95640   1.97487   1.97866
 Alpha virt. eigenvalues --    1.98593   1.98744   1.99379   1.99748   2.00194
 Alpha virt. eigenvalues --    2.01713   2.02102   2.02887   2.03592   2.05120
 Alpha virt. eigenvalues --    2.05217   2.06083   2.06228   2.07168   2.07533
 Alpha virt. eigenvalues --    2.08210   2.08721   2.10328   2.11039   2.11757
 Alpha virt. eigenvalues --    2.11980   2.12729   2.13106   2.13122   2.14152
 Alpha virt. eigenvalues --    2.15086   2.15620   2.16026   2.16398   2.17019
 Alpha virt. eigenvalues --    2.17143   2.17887   2.18104   2.19453   2.20413
 Alpha virt. eigenvalues --    2.21263   2.21963   2.22382   2.23133   2.25332
 Alpha virt. eigenvalues --    2.25766   2.26297   2.27811   2.28542   2.30782
 Alpha virt. eigenvalues --    2.32288   2.32651   2.33956   2.35077   2.37329
 Alpha virt. eigenvalues --    2.37834   2.38284   2.39642   2.40213   2.41786
 Alpha virt. eigenvalues --    2.42449   2.43655   2.46689   2.48083   2.49236
 Alpha virt. eigenvalues --    2.49967   2.50652   2.50868   2.52172   2.53374
 Alpha virt. eigenvalues --    2.54454   2.55788   2.59975   2.62168   2.62937
 Alpha virt. eigenvalues --    2.65241   2.66021   2.67385   2.72393   2.72770
 Alpha virt. eigenvalues --    2.74432   2.75130   2.75678   2.78747   2.80225
 Alpha virt. eigenvalues --    2.83889   2.86485   2.88059   2.89207   2.90897
 Alpha virt. eigenvalues --    2.91431   2.93681   2.96330   2.98437   3.02405
 Alpha virt. eigenvalues --    3.05116   3.06264   3.08488   3.10823   3.15051
 Alpha virt. eigenvalues --    3.19737   3.23823   3.25303   3.28361   3.34969
 Alpha virt. eigenvalues --    3.39692   3.43820   3.49530   3.54654   4.33441
 Alpha virt. eigenvalues --    4.36749   4.38677   4.42179   4.43975   4.47172
 Alpha virt. eigenvalues --    4.49209   4.52768   4.55040   4.55897   4.58895
 Alpha virt. eigenvalues --    4.60873   4.61490   4.63847   4.70515   4.73196
 Alpha virt. eigenvalues --    4.79029   4.85749   4.88640   5.00660   6.04302
 Alpha virt. eigenvalues --    6.08591   6.26641   7.44247   9.04446
          Condensed to atoms (all electrons):
               1          2          3          4          5          6
     1  C    5.884199  -0.239507   0.092415   0.006811  -0.115507  -0.001924
     2  C   -0.239507   6.340484  -0.521237   0.008645   0.110060  -0.015656
     3  C    0.092415  -0.521237   6.822707   0.030475  -0.555996  -0.014757
     4  N    0.006811   0.008645   0.030475   7.794523   0.508419  -0.176359
     5  C   -0.115507   0.110060  -0.555996   0.508419   6.116336   0.643618
     6  O   -0.001924  -0.015656  -0.014757  -0.176359   0.643618   8.353211
     7  N   -0.004899   0.009355  -0.140427  -0.340418   0.124395  -0.058417
     8  C   -0.003434   0.007160  -0.067545  -0.057457  -0.889041  -0.534317
     9  C    0.001445   0.019622  -0.105959  -0.036930  -0.050685   0.449656
    10  C   -0.005761  -0.001144  -0.095733  -0.145165  -0.503250  -0.115391
    11  C   -0.000762   0.000301  -0.026088  -0.022892  -0.331842  -0.018376
    12  C    0.000007  -0.002633   0.026514   0.012967   0.696856   0.004189
    13  C    0.000296   0.002687  -0.010919   0.009888  -0.201190   0.102415
    14  H    0.433902  -0.105312   0.026144   0.000150  -0.001506   0.000073
    15  H    0.453493  -0.098936  -0.002539  -0.002299  -0.003233  -0.000030
    16  H    0.413180  -0.055524  -0.011897  -0.000151   0.000237   0.000037
    17  H   -0.061615   0.446368  -0.082182   0.009208   0.004211  -0.000515
    18  H   -0.016440   0.410782  -0.053730  -0.000067  -0.019715   0.000286
    19  H   -0.008427  -0.090480   0.515134  -0.047705  -0.040541  -0.006441
    20  H   -0.006270  -0.060104   0.428281  -0.059817   0.004625   0.000543
    21  H    0.001677  -0.009202   0.017234   0.137586  -0.017009   0.002868
    22  H    0.000083  -0.001795   0.009806   0.007291  -0.013257   0.002975
    23  H    0.000045  -0.000051   0.000872  -0.000549   0.025467  -0.004795
    24  H   -0.000002  -0.000033   0.000121   0.001342   0.000261   0.000045
    25  H    0.000000   0.000000   0.000000  -0.000003   0.000515   0.000005
    26  S   -0.000237   0.000027  -0.003738  -0.001954  -0.031041  -0.000989
    27  F   -0.000004   0.000008  -0.000228  -0.000070  -0.004478  -0.000981
    28  F   -0.000000  -0.000004   0.000024   0.000010   0.002219  -0.000003
    29  F    0.000007   0.000087  -0.000183  -0.000031  -0.001368  -0.001034
    30  Cl  -0.000003   0.000009  -0.000413  -0.000455  -0.012336  -0.000124
    31  F   -0.000000  -0.000001  -0.000007  -0.000006  -0.001079  -0.000045
    32  F   -0.000000   0.000001   0.000018   0.000007   0.002372  -0.000014
    33  O    0.000828  -0.008139   0.019311  -0.032506  -0.004722  -0.000019
    34  O   -0.000557  -0.000530  -0.009551  -0.003369   0.006165   0.000054
    35  C   -0.000417  -0.001995   0.008927  -0.006829  -0.006333  -0.001009
    36  C    0.002022  -0.002623   0.039175  -0.029597  -0.050806  -0.001242
    37  C   -0.000183   0.000994  -0.007249   0.003234   0.004987   0.000096
    38  H    0.000001   0.000018   0.000080  -0.000190  -0.000187  -0.000000
    39  H    0.000012   0.000048   0.000040  -0.000136  -0.000386  -0.000000
    40  H    0.000000  -0.000000   0.000010   0.000003   0.000002  -0.000000
    41  H    0.000000  -0.000001   0.000005  -0.000003   0.000009   0.000000
    42  H    0.000000   0.000002   0.000007   0.000002   0.000053  -0.000000
               7          8          9         10         11         12
     1  C   -0.004899  -0.003434   0.001445  -0.005761  -0.000762   0.000007
     2  C    0.009355   0.007160   0.019622  -0.001144   0.000301  -0.002633
     3  C   -0.140427  -0.067545  -0.105959  -0.095733  -0.026088   0.026514
     4  N   -0.340418  -0.057457  -0.036930  -0.145165  -0.022892   0.012967
     5  C    0.124395  -0.889041  -0.050685  -0.503250  -0.331842   0.696856
     6  O   -0.058417  -0.534317   0.449656  -0.115391  -0.018376   0.004189
     7  N    7.991479  -0.122526   0.045403  -0.074995   0.041711   0.083556
     8  C   -0.122526  25.974678  -6.453436   2.512653  -2.477523  -3.390874
     9  C    0.045403  -6.453436  19.116477  -8.298819  -3.462328  -0.161534
    10  C   -0.074995   2.512653  -8.298819  15.145764   3.642281  -4.166244
    11  C    0.041711  -2.477523  -3.462328   3.642281  13.822691  -6.213369
    12  C    0.083556  -3.390874  -0.161534  -4.166244  -6.213369  29.925997
    13  C    0.089743  -7.147391   4.571506  -1.797856   1.220747 -11.227202
    14  H    0.000029   0.000035  -0.000033   0.000005   0.000000  -0.000000
    15  H   -0.000013  -0.000059   0.000147  -0.000035  -0.000001  -0.000000
    16  H    0.000047  -0.000070  -0.000255   0.000032   0.000000   0.000003
    17  H    0.000983  -0.001342  -0.001699   0.000703   0.000015   0.000059
    18  H    0.000076  -0.005457   0.009179  -0.002303  -0.000087  -0.000114
    19  H    0.001053  -0.008154  -0.008933   0.002044  -0.000019   0.000378
    20  H   -0.003730   0.001212   0.002403  -0.001427  -0.000037  -0.000046
    21  H    0.007052  -0.001591  -0.014855   0.010265   0.000135   0.000197
    22  H    0.082194  -0.044695   0.089858  -0.066080  -0.007603   0.005828
    23  H   -0.013341  -0.151340   0.430366  -0.015755  -0.026775   0.050626
    24  H   -0.011771  -0.014280   0.011528   0.285917  -0.042963   0.026468
    25  H   -0.000077   0.002208  -0.001301   0.003707  -0.086462   0.469925
    26  S    0.006556  -0.797020   0.051460  -0.199359  -0.455620   0.918433
    27  F   -0.000665  -0.013783  -0.014532   0.005233   0.040415  -0.151257
    28  F    0.000776   0.005639   0.068950   0.001129  -0.003093  -0.001823
    29  F   -0.000576  -0.025300  -0.021426   0.002636   0.039642  -0.135218
    30  Cl  -0.003873  -0.058603   0.010366   0.033871  -0.290605  -0.000343
    31  F   -0.000032  -0.017526  -0.058572  -0.002955  -0.024510   0.122876
    32  F    0.000752   0.003276   0.064894   0.000673  -0.002200   0.002622
    33  O    0.023436  -0.020969  -0.016420   0.013741  -0.005386  -0.000445
    34  O    0.022735  -0.374894   0.002757   0.308403   0.059123   0.004474
    35  C   -0.017647   0.231473  -0.066321  -0.129907  -0.041793  -0.002652
    36  C   -0.023679  -0.118169  -0.063792   0.140912   0.024421  -0.004559
    37  C    0.003519  -0.018352   0.001558   0.001744   0.015538   0.002199
    38  H    0.000183  -0.001133  -0.000136   0.000956  -0.000001  -0.000002
    39  H    0.000222  -0.001289  -0.000198   0.001342   0.000016  -0.000007
    40  H   -0.000136   0.000546   0.000060  -0.001190   0.000232   0.000059
    41  H    0.000035   0.000070  -0.000005  -0.000159  -0.000049   0.000003
    42  H   -0.000127   0.000591   0.000085  -0.001718   0.000304   0.000118
              13         14         15         16         17         18
     1  C    0.000296   0.433902   0.453493   0.413180  -0.061615  -0.016440
     2  C    0.002687  -0.105312  -0.098936  -0.055524   0.446368   0.410782
     3  C   -0.010919   0.026144  -0.002539  -0.011897  -0.082182  -0.053730
     4  N    0.009888   0.000150  -0.002299  -0.000151   0.009208  -0.000067
     5  C   -0.201190  -0.001506  -0.003233   0.000237   0.004211  -0.019715
     6  O    0.102415   0.000073  -0.000030   0.000037  -0.000515   0.000286
     7  N    0.089743   0.000029  -0.000013   0.000047   0.000983   0.000076
     8  C   -7.147391   0.000035  -0.000059  -0.000070  -0.001342  -0.005457
     9  C    4.571506  -0.000033   0.000147  -0.000255  -0.001699   0.009179
    10  C   -1.797856   0.000005  -0.000035   0.000032   0.000703  -0.002303
    11  C    1.220747   0.000000  -0.000001   0.000000   0.000015  -0.000087
    12  C  -11.227202  -0.000000  -0.000000   0.000003   0.000059  -0.000114
    13  C   21.151597  -0.000005   0.000004   0.000006  -0.000027   0.000921
    14  H   -0.000005   0.511777  -0.028398  -0.026979  -0.002784  -0.002803
    15  H    0.000004  -0.028398   0.515064  -0.033355  -0.004502   0.003770
    16  H    0.000006  -0.026979  -0.033355   0.506052   0.004004  -0.004240
    17  H   -0.000027  -0.002784  -0.004502   0.004004   0.507804  -0.030701
    18  H    0.000921  -0.002803   0.003770  -0.004240  -0.030701   0.476623
    19  H    0.000075  -0.000116  -0.000356   0.003008   0.004057  -0.004873
    20  H    0.000107  -0.000118   0.002891  -0.000298  -0.005164   0.004003
    21  H   -0.001915   0.000002   0.000002  -0.000003   0.000138  -0.000147
    22  H    0.022054  -0.000000  -0.000000   0.000000   0.000000  -0.000003
    23  H   -0.024257  -0.000000  -0.000000   0.000000  -0.000000  -0.000002
    24  H    0.021931   0.000000  -0.000000   0.000000  -0.000000  -0.000000
    25  H   -0.110845  -0.000000   0.000000  -0.000000  -0.000000   0.000000
    26  S   -0.313179  -0.000000   0.000000  -0.000001  -0.000004   0.000039
    27  F    0.081541  -0.000000   0.000000  -0.000000  -0.000000   0.000000
    28  F   -0.155507  -0.000000  -0.000000   0.000000   0.000000  -0.000000
    29  F    0.081372   0.000000   0.000000  -0.000000  -0.000000   0.000000
    30  Cl   0.079987   0.000000  -0.000000   0.000000  -0.000000  -0.000000
    31  F   -0.082934  -0.000000  -0.000000   0.000000   0.000000  -0.000000
    32  F   -0.155009   0.000000  -0.000000   0.000000   0.000000   0.000000
    33  O   -0.002405  -0.000002   0.000018  -0.000003  -0.000273   0.000117
    34  O    0.011512  -0.000000  -0.000000   0.000000   0.000021  -0.000001
    35  C   -0.026056   0.000019  -0.000049  -0.000008   0.000648  -0.000150
    36  C   -0.007330   0.000004   0.000008  -0.000003   0.000067   0.000015
    37  C    0.000565   0.000000   0.000000   0.000000   0.000000  -0.000000
    38  H   -0.000013  -0.000000  -0.000000   0.000000  -0.000000  -0.000000
    39  H   -0.000013  -0.000000   0.000000  -0.000000   0.000000   0.000000
    40  H   -0.000024  -0.000000   0.000000  -0.000000   0.000000   0.000000
    41  H   -0.000001  -0.000000   0.000000   0.000000  -0.000000  -0.000000
    42  H   -0.000042   0.000000  -0.000000  -0.000000  -0.000000  -0.000000
              19         20         21         22         23         24
     1  C   -0.008427  -0.006270   0.001677   0.000083   0.000045  -0.000002
     2  C   -0.090480  -0.060104  -0.009202  -0.001795  -0.000051  -0.000033
     3  C    0.515134   0.428281   0.017234   0.009806   0.000872   0.000121
     4  N   -0.047705  -0.059817   0.137586   0.007291  -0.000549   0.001342
     5  C   -0.040541   0.004625  -0.017009  -0.013257   0.025467   0.000261
     6  O   -0.006441   0.000543   0.002868   0.002975  -0.004795   0.000045
     7  N    0.001053  -0.003730   0.007052   0.082194  -0.013341  -0.011771
     8  C   -0.008154   0.001212  -0.001591  -0.044695  -0.151340  -0.014280
     9  C   -0.008933   0.002403  -0.014855   0.089858   0.430366   0.011528
    10  C    0.002044  -0.001427   0.010265  -0.066080  -0.015755   0.285917
    11  C   -0.000019  -0.000037   0.000135  -0.007603  -0.026775  -0.042963
    12  C    0.000378  -0.000046   0.000197   0.005828   0.050626   0.026468
    13  C    0.000075   0.000107  -0.001915   0.022054  -0.024257   0.021931
    14  H   -0.000116  -0.000118   0.000002  -0.000000  -0.000000   0.000000
    15  H   -0.000356   0.002891   0.000002  -0.000000  -0.000000  -0.000000
    16  H    0.003008  -0.000298  -0.000003   0.000000   0.000000   0.000000
    17  H    0.004057  -0.005164   0.000138   0.000000  -0.000000  -0.000000
    18  H   -0.004873   0.004003  -0.000147  -0.000003  -0.000002  -0.000000
    19  H    0.493226  -0.032013   0.001631   0.000015  -0.000003   0.000000
    20  H   -0.032013   0.521112  -0.002647  -0.000016  -0.000000  -0.000000
    21  H    0.001631  -0.002647   0.239681   0.009135  -0.000000   0.000004
    22  H    0.000015  -0.000016   0.009135   0.273261  -0.000184   0.006432
    23  H   -0.000003  -0.000000  -0.000000  -0.000184   0.400608  -0.000075
    24  H    0.000000  -0.000000   0.000004   0.006432  -0.000075   0.403869
    25  H   -0.000000   0.000000  -0.000000  -0.000000  -0.000100  -0.000103
    26  S   -0.000024   0.000005  -0.000027   0.000829   0.015487   0.002885
    27  F   -0.000000   0.000000   0.000000   0.000000   0.002336   0.000002
    28  F    0.000000   0.000000  -0.000000   0.000000   0.000227   0.000003
    29  F   -0.000000   0.000000   0.000000  -0.000000   0.002362   0.000002
    30  Cl  -0.000000  -0.000000  -0.000005   0.000144   0.000267   0.002858
    31  F    0.000000  -0.000000   0.000000   0.000000   0.000063  -0.000000
    32  F    0.000000  -0.000000  -0.000000   0.000000   0.000229   0.000003
    33  O   -0.000351   0.001484   0.078424  -0.001381   0.000002   0.000012
    34  O    0.000008  -0.000068  -0.000951   0.102743  -0.000015   0.000633
    35  C    0.000442  -0.000764  -0.004587  -0.011650  -0.000019   0.001448
    36  C   -0.000043   0.000766   0.019553   0.022187  -0.000003   0.001040
    37  C    0.000004  -0.000035  -0.002945  -0.002943   0.000000  -0.000147
    38  H   -0.000000  -0.000000  -0.000007  -0.000032   0.000000   0.000000
    39  H   -0.000000   0.000000  -0.000005  -0.000033   0.000000   0.000001
    40  H    0.000000   0.000000  -0.000000  -0.000015   0.000000   0.000022
    41  H   -0.000000   0.000000   0.000000  -0.000000  -0.000000  -0.000000
    42  H   -0.000000  -0.000000  -0.000000  -0.000014   0.000000   0.000022
              25         26         27         28         29         30
     1  C    0.000000  -0.000237  -0.000004  -0.000000   0.000007  -0.000003
     2  C    0.000000   0.000027   0.000008  -0.000004   0.000087   0.000009
     3  C    0.000000  -0.003738  -0.000228   0.000024  -0.000183  -0.000413
     4  N   -0.000003  -0.001954  -0.000070   0.000010  -0.000031  -0.000455
     5  C    0.000515  -0.031041  -0.004478   0.002219  -0.001368  -0.012336
     6  O    0.000005  -0.000989  -0.000981  -0.000003  -0.001034  -0.000124
     7  N   -0.000077   0.006556  -0.000665   0.000776  -0.000576  -0.003873
     8  C    0.002208  -0.797020  -0.013783   0.005639  -0.025300  -0.058603
     9  C   -0.001301   0.051460  -0.014532   0.068950  -0.021426   0.010366
    10  C    0.003707  -0.199359   0.005233   0.001129   0.002636   0.033871
    11  C   -0.086462  -0.455620   0.040415  -0.003093   0.039642  -0.290605
    12  C    0.469925   0.918433  -0.151257  -0.001823  -0.135218  -0.000343
    13  C   -0.110845  -0.313179   0.081541  -0.155507   0.081372   0.079987
    14  H   -0.000000  -0.000000  -0.000000  -0.000000   0.000000   0.000000
    15  H    0.000000   0.000000   0.000000  -0.000000   0.000000  -0.000000
    16  H   -0.000000  -0.000001  -0.000000   0.000000  -0.000000   0.000000
    17  H   -0.000000  -0.000004  -0.000000   0.000000  -0.000000  -0.000000
    18  H    0.000000   0.000039   0.000000  -0.000000   0.000000  -0.000000
    19  H   -0.000000  -0.000024  -0.000000   0.000000  -0.000000  -0.000000
    20  H    0.000000   0.000005   0.000000   0.000000   0.000000  -0.000000
    21  H   -0.000000  -0.000027   0.000000  -0.000000   0.000000  -0.000005
    22  H   -0.000000   0.000829   0.000000   0.000000  -0.000000   0.000144
    23  H   -0.000100   0.015487   0.002336   0.000227   0.002362   0.000267
    24  H   -0.000103   0.002885   0.000002   0.000003   0.000002   0.002858
    25  H    0.453548   0.017786   0.000263   0.001921   0.000263   0.001835
    26  S    0.017786  14.583321  -0.061614  -0.037493  -0.059650   0.007125
    27  F    0.000263  -0.061614   9.736935  -0.012658  -0.018992  -0.000139
    28  F    0.001921  -0.037493  -0.012658   9.755962  -0.070047  -0.001464
    29  F    0.000263  -0.059650  -0.018992  -0.070047   9.737301  -0.000149
    30  Cl   0.001835   0.007125  -0.000139  -0.001464  -0.000149  17.089903
    31  F    0.000006   0.087907  -0.029868  -0.031676  -0.030020   0.000167
    32  F    0.001885  -0.037224  -0.070010  -0.025208  -0.012296  -0.001452
    33  O    0.000000  -0.000064  -0.000000   0.000000  -0.000000  -0.000085
    34  O    0.000004  -0.000264  -0.000003  -0.000001  -0.000002  -0.001983
    35  C   -0.000002  -0.001304  -0.000001  -0.000006  -0.000000  -0.002362
    36  C    0.000001  -0.000083   0.000000  -0.000000   0.000000   0.000664
    37  C   -0.000001   0.000019  -0.000000   0.000000  -0.000000   0.000410
    38  H   -0.000000  -0.000000   0.000000  -0.000000  -0.000000   0.000001
    39  H   -0.000000  -0.000000  -0.000000  -0.000000   0.000000   0.000002
    40  H    0.000000  -0.000000  -0.000000   0.000000  -0.000000  -0.000044
    41  H   -0.000000  -0.000000  -0.000000  -0.000000  -0.000000  -0.000006
    42  H    0.000000  -0.000000  -0.000000  -0.000000  -0.000000  -0.000057
              31         32         33         34         35         36
     1  C   -0.000000  -0.000000   0.000828  -0.000557  -0.000417   0.002022
     2  C   -0.000001   0.000001  -0.008139  -0.000530  -0.001995  -0.002623
     3  C   -0.000007   0.000018   0.019311  -0.009551   0.008927   0.039175
     4  N   -0.000006   0.000007  -0.032506  -0.003369  -0.006829  -0.029597
     5  C   -0.001079   0.002372  -0.004722   0.006165  -0.006333  -0.050806
     6  O   -0.000045  -0.000014  -0.000019   0.000054  -0.001009  -0.001242
     7  N   -0.000032   0.000752   0.023436   0.022735  -0.017647  -0.023679
     8  C   -0.017526   0.003276  -0.020969  -0.374894   0.231473  -0.118169
     9  C   -0.058572   0.064894  -0.016420   0.002757  -0.066321  -0.063792
    10  C   -0.002955   0.000673   0.013741   0.308403  -0.129907   0.140912
    11  C   -0.024510  -0.002200  -0.005386   0.059123  -0.041793   0.024421
    12  C    0.122876   0.002622  -0.000445   0.004474  -0.002652  -0.004559
    13  C   -0.082934  -0.155009  -0.002405   0.011512  -0.026056  -0.007330
    14  H   -0.000000   0.000000  -0.000002  -0.000000   0.000019   0.000004
    15  H   -0.000000  -0.000000   0.000018  -0.000000  -0.000049   0.000008
    16  H    0.000000   0.000000  -0.000003   0.000000  -0.000008  -0.000003
    17  H    0.000000   0.000000  -0.000273   0.000021   0.000648   0.000067
    18  H   -0.000000   0.000000   0.000117  -0.000001  -0.000150   0.000015
    19  H    0.000000   0.000000  -0.000351   0.000008   0.000442  -0.000043
    20  H   -0.000000  -0.000000   0.001484  -0.000068  -0.000764   0.000766
    21  H    0.000000  -0.000000   0.078424  -0.000951  -0.004587   0.019553
    22  H    0.000000   0.000000  -0.001381   0.102743  -0.011650   0.022187
    23  H    0.000063   0.000229   0.000002  -0.000015  -0.000019  -0.000003
    24  H   -0.000000   0.000003   0.000012   0.000633   0.001448   0.001040
    25  H    0.000006   0.001885   0.000000   0.000004  -0.000002   0.000001
    26  S    0.087907  -0.037224  -0.000064  -0.000264  -0.001304  -0.000083
    27  F   -0.029868  -0.070010  -0.000000  -0.000003  -0.000001   0.000000
    28  F   -0.031676  -0.025208   0.000000  -0.000001  -0.000006  -0.000000
    29  F   -0.030020  -0.012296  -0.000000  -0.000002  -0.000000   0.000000
    30  Cl   0.000167  -0.001452  -0.000085  -0.001983  -0.002362   0.000664
    31  F    9.610030  -0.031764   0.000000  -0.000000  -0.000001  -0.000000
    32  F   -0.031764   9.756277   0.000000  -0.000001  -0.000007  -0.000000
    33  O    0.000000   0.000000   8.440307  -0.171293   0.572306  -0.291439
    34  O   -0.000000  -0.000001  -0.171293   8.557706   0.193388  -0.086641
    35  C   -0.000001  -0.000007   0.572306   0.193388   5.849180  -1.141717
    36  C   -0.000000  -0.000000  -0.291439  -0.086641  -1.141717   7.794831
    37  C    0.000000   0.000000   0.036075   0.057355   0.043083  -0.399086
    38  H    0.000000  -0.000000  -0.002424   0.001371  -0.089283   0.459645
    39  H    0.000000  -0.000000  -0.002824   0.002321  -0.087819   0.459118
    40  H   -0.000000  -0.000000   0.000086  -0.004591  -0.006303  -0.055899
    41  H   -0.000000  -0.000000  -0.000150   0.001810   0.035328  -0.082186
    42  H   -0.000000  -0.000000   0.000115  -0.004702  -0.007968  -0.055125
              37         38         39         40         41         42
     1  C   -0.000183   0.000001   0.000012   0.000000   0.000000   0.000000
     2  C    0.000994   0.000018   0.000048  -0.000000  -0.000001   0.000002
     3  C   -0.007249   0.000080   0.000040   0.000010   0.000005   0.000007
     4  N    0.003234  -0.000190  -0.000136   0.000003  -0.000003   0.000002
     5  C    0.004987  -0.000187  -0.000386   0.000002   0.000009   0.000053
     6  O    0.000096  -0.000000  -0.000000  -0.000000   0.000000  -0.000000
     7  N    0.003519   0.000183   0.000222  -0.000136   0.000035  -0.000127
     8  C   -0.018352  -0.001133  -0.001289   0.000546   0.000070   0.000591
     9  C    0.001558  -0.000136  -0.000198   0.000060  -0.000005   0.000085
    10  C    0.001744   0.000956   0.001342  -0.001190  -0.000159  -0.001718
    11  C    0.015538  -0.000001   0.000016   0.000232  -0.000049   0.000304
    12  C    0.002199  -0.000002  -0.000007   0.000059   0.000003   0.000118
    13  C    0.000565  -0.000013  -0.000013  -0.000024  -0.000001  -0.000042
    14  H    0.000000  -0.000000  -0.000000  -0.000000  -0.000000   0.000000
    15  H    0.000000  -0.000000   0.000000   0.000000   0.000000  -0.000000
    16  H    0.000000   0.000000  -0.000000  -0.000000   0.000000  -0.000000
    17  H    0.000000  -0.000000   0.000000   0.000000  -0.000000  -0.000000
    18  H   -0.000000  -0.000000   0.000000   0.000000  -0.000000  -0.000000
    19  H    0.000004  -0.000000  -0.000000   0.000000  -0.000000  -0.000000
    20  H   -0.000035  -0.000000   0.000000   0.000000   0.000000  -0.000000
    21  H   -0.002945  -0.000007  -0.000005  -0.000000   0.000000  -0.000000
    22  H   -0.002943  -0.000032  -0.000033  -0.000015  -0.000000  -0.000014
    23  H    0.000000   0.000000   0.000000   0.000000  -0.000000   0.000000
    24  H   -0.000147   0.000000   0.000001   0.000022  -0.000000   0.000022
    25  H   -0.000001  -0.000000  -0.000000   0.000000  -0.000000   0.000000
    26  S    0.000019  -0.000000  -0.000000  -0.000000  -0.000000  -0.000000
    27  F   -0.000000   0.000000  -0.000000  -0.000000  -0.000000  -0.000000
    28  F    0.000000  -0.000000  -0.000000   0.000000  -0.000000  -0.000000
    29  F   -0.000000  -0.000000   0.000000  -0.000000  -0.000000  -0.000000
    30  Cl   0.000410   0.000001   0.000002  -0.000044  -0.000006  -0.000057
    31  F    0.000000   0.000000   0.000000  -0.000000  -0.000000  -0.000000
    32  F    0.000000  -0.000000  -0.000000  -0.000000  -0.000000  -0.000000
    33  O    0.036075  -0.002424  -0.002824   0.000086  -0.000150   0.000115
    34  O    0.057355   0.001371   0.002321  -0.004591   0.001810  -0.004702
    35  C    0.043083  -0.089283  -0.087819  -0.006303   0.035328  -0.007968
    36  C   -0.399086   0.459645   0.459118  -0.055899  -0.082186  -0.055125
    37  C    5.845232  -0.050410  -0.051885   0.419243   0.385749   0.420624
    38  H   -0.050410   0.503169  -0.029913  -0.003890  -0.002072   0.003684
    39  H   -0.051885  -0.029913   0.502897   0.003683  -0.002062  -0.003883
    40  H    0.419243  -0.003890   0.003683   0.487007  -0.029739  -0.026985
    41  H    0.385749  -0.002072  -0.002062  -0.029739   0.549559  -0.029775
    42  H    0.420624   0.003684  -0.003883  -0.026985  -0.029775   0.487765
 Mulliken charges:
               1
     1  C   -0.824475
     2  C   -0.141753
     3  C   -0.326922
     4  N   -0.565604
     5  C    0.604700
     6  O   -0.607630
     7  N   -0.717941
     8  C    0.078029
     9  C   -0.109552
    10  C   -0.488767
    11  C    0.632807
    12  C   -0.896029
    13  C   -0.184834
    14  H    0.195917
    15  H    0.198409
    16  H    0.206181
    17  H    0.212522
    18  H    0.235020
    19  H    0.227403
    20  H    0.205122
    21  H    0.530310
    22  H    0.514866
    23  H    0.308306
    24  H    0.302524
    25  H    0.245022
    26  S    2.309010
    27  F   -0.487451
    28  F   -0.497878
    29  F   -0.487378
    30  Cl   0.146893
    31  F   -0.510055
    32  F   -0.497824
    33  O   -0.624964
    34  O   -0.673164
    35  C    0.718717
    36  C   -0.550409
    37  C   -0.708992
    38  H    0.210586
    39  H    0.210750
    40  H    0.217862
    41  H    0.173642
    42  H    0.217024
 Sum of Mulliken charges =  -1.00000
 Mulliken charges with hydrogens summed into heavy atoms:
               1
     1  C   -0.223968
     2  C    0.305790
     3  C    0.105603
     4  N   -0.035294
     5  C    0.604700
     6  O   -0.607630
     7  N   -0.203075
     8  C    0.078029
     9  C    0.198755
    10  C   -0.186243
    11  C    0.632807
    12  C   -0.651007
    13  C   -0.184834
    26  S    2.309010
    27  F   -0.487451
    28  F   -0.497878
    29  F   -0.487378
    30  Cl   0.146893
    31  F   -0.510055
    32  F   -0.497824
    33  O   -0.624964
    34  O   -0.673164
    35  C    0.718717
    36  C   -0.129073
    37  C   -0.100464
         Mulliken charges condensed to fragments:
      1     -0.191051
      2     -0.808949
 Electronic spatial extent (au):  <R**2>=          14066.8066
 Charge=             -1.0000 electrons
 Dipole moment (field-independent basis, Debye):
    X=              4.2996    Y=              0.1441    Z=              0.6932  Tot=              4.3575
 Quadrupole moment (field-independent basis, Debye-Ang):
   XX=           -232.9913   YY=           -191.8648   ZZ=           -167.4812
   XY=            -10.2315   XZ=             -1.5209   YZ=              1.1847
 Traceless Quadrupole moment (field-independent basis, Debye-Ang):
   XX=            -35.5455   YY=              5.5809   ZZ=             29.9646
   XY=            -10.2315   XZ=             -1.5209   YZ=              1.1847
 Octapole moment (field-independent basis, Debye-Ang**2):
  XXX=            225.6227  YYY=             40.8593  ZZZ=             -1.5521  XYY=             66.0948
  XXY=             13.2470  XXZ=              5.6450  XZZ=             33.4991  YZZ=              8.6364
  YYZ=             -2.1506  XYZ=              1.8364
 Hexadecapole moment (field-independent basis, Debye-Ang**3):
 XXXX=         -13037.2917 YYYY=          -6627.0594 ZZZZ=           -460.2319 XXXY=           -106.2006
 XXXZ=            -13.7821 YYYX=            130.3841 YYYZ=             -7.2616 ZZZX=              1.5078
 ZZZY=             -2.7235 XXYY=          -3120.8195 XXZZ=          -2000.4569 YYZZ=          -1116.0072
 XXYZ=            -17.5159 YYXZ=             18.2893 ZZXY=             48.3724
 N-N= 2.762013738474D+03 E-N=-1.072983151246D+04  KE= 2.184566303135D+03
 CPIOFr:  IOpCl= 0 IRwI=-1 IRwCP=  731 ICalc= -1 LCPTot=      415431 Len1MO=     1078179 IndFrg=      415431
 CPIOFr:  IOpCl= 0 IRwI=-1 IRwCP=  731 ICalc=  0 LCPTot=      415431 Len1MO=     1078179 IndFrg=     1493610
 Counterpoise: doing DCBS calculation for fragment   1 NewBq=T
 Basis read from rwf:  (6D, 7F)
 There are   517 symmetry adapted cartesian basis functions of A   symmetry.
 There are   517 symmetry adapted basis functions of A   symmetry.
   517 basis functions,   916 primitive gaussians,   517 cartesian basis functions
    86 alpha electrons       86 beta electrons
       nuclear repulsion energy      2032.2078437492 Hartrees.
 NAtoms=   42 NActive=   42 NUniq=   42 SFac= 1.00D+00 NAtFMM=   60 NAOKFM=F Big=F
 Integral buffers will be    131072 words long.
 Raffenetti 2 integral format.
 Two-electron integral symmetry is turned on.
 One-electron integrals computed using PRISM.
 NBasis=   517 RedAO= T EigKep=  1.04D-06  NBF=   517
 NBsUse=   515 1.00D-06 EigRej=  5.54D-07 NBFU=   515
 ExpMin= 4.05D-02 ExpMax= 2.52D+04 ExpMxC= 3.78D+03 IAcc=3 IRadAn=         5 AccDes= 0.00D+00
 Harris functional with IExCor= 1009 and IRadAn=       5 diagonalized for initial guess.
 HarFok:  IExCor= 1009 AccDes= 0.00D+00 IRadAn=         5 IDoV= 1 UseB2=F ITyADJ=14
 ICtDFT=  3500011 ScaDFX=  1.000000  1.000000  1.000000  1.000000
 FoFCou: FMM=F IPFlag=           0 FMFlag=      100000 FMFlg1=           0
         NFxFlg=           0 DoJE=T BraDBF=F KetDBF=T FulRan=T
         wScrn=  0.000000 ICntrl=     500 IOpCl=  0 I1Cent=   200000004 NGrid=           0
         NMat0=    1 NMatS0=      1 NMatT0=    0 NMatD0=    1 NMtDS0=    0 NMtDT0=    0
 Petite list used in FoFCou.
 Requested convergence on RMS density matrix=1.00D-08 within 128 cycles.
 Requested convergence on MAX density matrix=1.00D-06.
 Requested convergence on             energy=1.00D-06.
 No special actions if energy rises.
 SCF Done:  E(RM062X) =  -1930.09420763     A.U. after   15 cycles
            NFock= 15  Conv=0.50D-08     -V/T= 2.0059

 **********************************************************************

            Population analysis using the SCF density.

 **********************************************************************

 Orbital symmetries:
       Occupied  (A) (A) (A) (A) (A) (A) (A) (A) (A) (A) (A) (A)
                 (A) (A) (A) (A) (A) (A) (A) (A) (A) (A) (A) (A)
                 (A) (A) (A) (A) (A) (A) (A) (A) (A) (A) (A) (A)
                 (A) (A) (A) (A) (A) (A) (A) (A) (A) (A) (A) (A)
                 (A) (A) (A) (A) (A) (A) (A) (A) (A) (A) (A) (A)
                 (A) (A) (A) (A) (A) (A) (A) (A) (A) (A) (A) (A)
                 (A) (A) (A) (A) (A) (A) (A) (A) (A) (A) (A) (A)
                 (A) (A)
       Virtual   (A) (A) (A) (A) (A) (A) (A) (A) (A) (A) (A) (A)
                 (A) (A) (A) (A) (A) (A) (A) (A) (A) (A) (A) (A)
                 (A) (A) (A) (A) (A) (A) (A) (A) (A) (A) (A) (A)
                 (A) (A) (A) (A) (A) (A) (A) (A) (A) (A) (A) (A)
                 (A) (A) (A) (A) (A) (A) (A) (A) (A) (A) (A) (A)
                 (A) (A) (A) (A) (A) (A) (A) (A) (A) (A) (A) (A)
                 (A) (A) (A) (A) (A) (A) (A) (A) (A) (A) (A) (A)
                 (A) (A) (A) (A) (A) (A) (A) (A) (A) (A) (A) (A)
                 (A) (A) (A) (A) (A) (A) (A) (A) (A) (A) (A) (A)
                 (A) (A) (A) (A) (A) (A) (A) (A) (A) (A) (A) (A)
                 (A) (A) (A) (A) (A) (A) (A) (A) (A) (A) (A) (A)
                 (A) (A) (A) (A) (A) (A) (A) (A) (A) (A) (A) (A)
                 (A) (A) (A) (A) (A) (A) (A) (A) (A) (A) (A) (A)
                 (A) (A) (A) (A) (A) (A) (A) (A) (A) (A) (A) (A)
                 (A) (A) (A) (A) (A) (A) (A) (A) (A) (A) (A) (A)
                 (A) (A) (A) (A) (A) (A) (A) (A) (A) (A) (A) (A)
                 (A) (A) (A) (A) (A) (A) (A) (A) (A) (A) (A) (A)
                 (A) (A) (A) (A) (A) (A) (A) (A) (A) (A) (A) (A)
                 (A) (A) (A) (A) (A) (A) (A) (A) (A) (A) (A) (A)
                 (A) (A) (A) (A) (A) (A) (A) (A) (A) (A) (A) (A)
                 (A) (A) (A) (A) (A) (A) (A) (A) (A) (A) (A) (A)
                 (A) (A) (A) (A) (A) (A) (A) (A) (A) (A) (A) (A)
                 (A) (A) (A) (A) (A) (A) (A) (A) (A) (A) (A) (A)
                 (A) (A) (A) (A) (A) (A) (A) (A) (A) (A) (A) (A)
                 (A) (A) (A) (A) (A) (A) (A) (A) (A) (A) (A) (A)
                 (A) (A) (A) (A) (A) (A) (A) (A) (A) (A) (A) (A)
                 (A) (A) (A) (A) (A) (A) (A) (A) (A) (A) (A) (A)
                 (A) (A) (A) (A) (A) (A) (A) (A) (A) (A) (A) (A)
                 (A) (A) (A) (A) (A) (A) (A) (A) (A) (A) (A) (A)
                 (A) (A) (A) (A) (A) (A) (A) (A) (A) (A) (A) (A)
                 (A) (A) (A) (A) (A) (A) (A) (A) (A) (A) (A) (A)
                 (A) (A) (A) (A) (A) (A) (A) (A) (A) (A) (A) (A)
                 (A) (A) (A) (A) (A) (A) (A) (A) (A) (A) (A) (A)
                 (A) (A) (A) (A) (A) (A) (A) (A) (A) (A) (A) (A)
                 (A) (A) (A) (A) (A) (A) (A) (A) (A) (A) (A) (A)
                 (A) (A) (A) (A) (A) (A) (A) (A) (A)
 The electronic state is 1-A.
 Alpha  occ. eigenvalues -- -102.68932 -90.32339 -25.30111 -25.30107 -25.29931
 Alpha  occ. eigenvalues --  -25.29927 -25.29070 -19.63392 -14.83697 -14.81647
 Alpha  occ. eigenvalues --  -10.71179 -10.64750 -10.64469 -10.62629 -10.59994
 Alpha  occ. eigenvalues --  -10.59713 -10.59457 -10.58777 -10.55549 -10.54782
 Alpha  occ. eigenvalues --   -9.83575  -8.60958  -7.55985  -7.55308  -7.55295
 Alpha  occ. eigenvalues --   -6.53391  -6.53382  -6.52961  -1.48478  -1.38924
 Alpha  occ. eigenvalues --   -1.38860  -1.35194  -1.34474  -1.19881  -1.09162
 Alpha  occ. eigenvalues --   -1.05973  -1.02170  -0.97328  -0.92856  -0.89759
 Alpha  occ. eigenvalues --   -0.87216  -0.85833  -0.80504  -0.76061  -0.74723
 Alpha  occ. eigenvalues --   -0.72417  -0.72368  -0.70144  -0.69267  -0.68553
 Alpha  occ. eigenvalues --   -0.66212  -0.63085  -0.61923  -0.60879  -0.60863
 Alpha  occ. eigenvalues --   -0.60380  -0.57122  -0.56374  -0.56146  -0.55396
 Alpha  occ. eigenvalues --   -0.54468  -0.54261  -0.54237  -0.54213  -0.53899
 Alpha  occ. eigenvalues --   -0.52594  -0.51543  -0.51305  -0.50331  -0.50266
 Alpha  occ. eigenvalues --   -0.50114  -0.50029  -0.48722  -0.47528  -0.46367
 Alpha  occ. eigenvalues --   -0.45011  -0.44585  -0.43352  -0.42338  -0.40823
 Alpha  occ. eigenvalues --   -0.39842  -0.39684  -0.36718  -0.34121  -0.33344
 Alpha  occ. eigenvalues --   -0.29757
 Alpha virt. eigenvalues --   -0.03231  -0.02619  -0.01119  -0.00684   0.00457
 Alpha virt. eigenvalues --    0.01468   0.01705   0.02457   0.02607   0.03918
 Alpha virt. eigenvalues --    0.04052   0.04567   0.04669   0.05055   0.05405
 Alpha virt. eigenvalues --    0.05634   0.05987   0.06634   0.06987   0.07266
 Alpha virt. eigenvalues --    0.07415   0.07595   0.08059   0.08451   0.08621
 Alpha virt. eigenvalues --    0.08836   0.09430   0.09817   0.10156   0.10959
 Alpha virt. eigenvalues --    0.11267   0.11596   0.11759   0.12033   0.12387
 Alpha virt. eigenvalues --    0.12670   0.13112   0.13139   0.13285   0.13501
 Alpha virt. eigenvalues --    0.14184   0.14542   0.14715   0.14980   0.15571
 Alpha virt. eigenvalues --    0.15829   0.16300   0.16615   0.17081   0.17507
 Alpha virt. eigenvalues --    0.17799   0.18496   0.18636   0.19067   0.19265
 Alpha virt. eigenvalues --    0.19497   0.20014   0.20330   0.20620   0.21125
 Alpha virt. eigenvalues --    0.21596   0.21841   0.22329   0.22637   0.23024
 Alpha virt. eigenvalues --    0.23445   0.23620   0.23897   0.24518   0.24935
 Alpha virt. eigenvalues --    0.25486   0.25757   0.26328   0.26830   0.27099
 Alpha virt. eigenvalues --    0.27497   0.27510   0.28020   0.28480   0.28812
 Alpha virt. eigenvalues --    0.29089   0.29443   0.29801   0.29984   0.30824
 Alpha virt. eigenvalues --    0.31071   0.31661   0.32000   0.32145   0.32420
 Alpha virt. eigenvalues --    0.33056   0.33609   0.33742   0.33877   0.34555
 Alpha virt. eigenvalues --    0.34798   0.35160   0.35546   0.35860   0.36189
 Alpha virt. eigenvalues --    0.36594   0.37132   0.37388   0.37548   0.37797
 Alpha virt. eigenvalues --    0.38148   0.38908   0.38993   0.39439   0.39676
 Alpha virt. eigenvalues --    0.40320   0.40754   0.40810   0.41864   0.42447
 Alpha virt. eigenvalues --    0.42797   0.42983   0.43498   0.44357   0.44867
 Alpha virt. eigenvalues --    0.45774   0.46715   0.47734   0.48000   0.48805
 Alpha virt. eigenvalues --    0.50830   0.51310   0.51620   0.51818   0.52950
 Alpha virt. eigenvalues --    0.53611   0.54084   0.54806   0.55849   0.57386
 Alpha virt. eigenvalues --    0.57430   0.58041   0.58614   0.59512   0.59919
 Alpha virt. eigenvalues --    0.60306   0.61183   0.61788   0.62952   0.63889
 Alpha virt. eigenvalues --    0.64590   0.64858   0.66603   0.68625   0.69099
 Alpha virt. eigenvalues --    0.69526   0.69859   0.70374   0.71355   0.71951
 Alpha virt. eigenvalues --    0.72377   0.72981   0.73778   0.74490   0.74844
 Alpha virt. eigenvalues --    0.75187   0.75962   0.76532   0.77182   0.78203
 Alpha virt. eigenvalues --    0.78648   0.79393   0.80610   0.81281   0.81862
 Alpha virt. eigenvalues --    0.82623   0.82841   0.83388   0.83769   0.84212
 Alpha virt. eigenvalues --    0.86599   0.87271   0.88002   0.88779   0.89237
 Alpha virt. eigenvalues --    0.90664   0.91570   0.92195   0.93119   0.93563
 Alpha virt. eigenvalues --    0.94551   0.96070   0.96932   0.97589   0.99251
 Alpha virt. eigenvalues --    0.99327   1.00498   1.00521   1.01212   1.01918
 Alpha virt. eigenvalues --    1.02350   1.02759   1.03482   1.04303   1.04685
 Alpha virt. eigenvalues --    1.06175   1.07531   1.08038   1.09111   1.10679
 Alpha virt. eigenvalues --    1.12619   1.15415   1.16176   1.17025   1.18548
 Alpha virt. eigenvalues --    1.18913   1.20339   1.20605   1.21674   1.22673
 Alpha virt. eigenvalues --    1.24236   1.25761   1.26211   1.27845   1.30009
 Alpha virt. eigenvalues --    1.31142   1.31664   1.34436   1.35217   1.36392
 Alpha virt. eigenvalues --    1.38111   1.39497   1.41049   1.43393   1.44059
 Alpha virt. eigenvalues --    1.45001   1.46300   1.46752   1.47847   1.48576
 Alpha virt. eigenvalues --    1.49453   1.50837   1.51218   1.53221   1.54457
 Alpha virt. eigenvalues --    1.54832   1.55721   1.56741   1.60732   1.62195
 Alpha virt. eigenvalues --    1.62692   1.64346   1.64523   1.66532   1.67985
 Alpha virt. eigenvalues --    1.70125   1.73410   1.73768   1.75927   1.76144
 Alpha virt. eigenvalues --    1.78867   1.79219   1.80404   1.81023   1.81189
 Alpha virt. eigenvalues --    1.81480   1.82830   1.83836   1.84215   1.85035
 Alpha virt. eigenvalues --    1.86361   1.86843   1.89426   1.89523   1.90240
 Alpha virt. eigenvalues --    1.91046   1.91217   1.91880   1.92244   1.92505
 Alpha virt. eigenvalues --    1.93331   1.94279   1.95011   1.95844   1.96078
 Alpha virt. eigenvalues --    1.98773   1.98952   2.00043   2.00486   2.01486
 Alpha virt. eigenvalues --    2.01663   2.02327   2.03467   2.04024   2.04481
 Alpha virt. eigenvalues --    2.04922   2.06208   2.07105   2.07251   2.07470
 Alpha virt. eigenvalues --    2.08117   2.08381   2.09058   2.10481   2.11885
 Alpha virt. eigenvalues --    2.12671   2.13977   2.14228   2.15061   2.15545
 Alpha virt. eigenvalues --    2.17723   2.19206   2.19592   2.19912   2.21640
 Alpha virt. eigenvalues --    2.22011   2.22579   2.23592   2.23980   2.26348
 Alpha virt. eigenvalues --    2.27724   2.28294   2.28888   2.30278   2.31140
 Alpha virt. eigenvalues --    2.34466   2.36784   2.37114   2.38662   2.39408
 Alpha virt. eigenvalues --    2.39748   2.39824   2.41466   2.42731   2.43602
 Alpha virt. eigenvalues --    2.44949   2.47064   2.48836   2.50341   2.53156
 Alpha virt. eigenvalues --    2.56176   2.58664   2.59927   2.60805   2.63256
 Alpha virt. eigenvalues --    2.63356   2.64006   2.65212   2.66708   2.67702
 Alpha virt. eigenvalues --    2.69057   2.70930   2.72299   2.73917   2.74683
 Alpha virt. eigenvalues --    2.77389   2.79255   2.79815   2.81216   2.82819
 Alpha virt. eigenvalues --    2.83279   2.84937   2.85888   2.86626   2.87884
 Alpha virt. eigenvalues --    2.91828   2.95205   2.95749   2.97292   2.98307
 Alpha virt. eigenvalues --    3.01613   3.03832   3.05302   3.06624   3.09400
 Alpha virt. eigenvalues --    3.11410   3.14250   3.16556   3.22262   3.24354
 Alpha virt. eigenvalues --    3.26792   3.31536   3.31650   3.35332   3.37721
 Alpha virt. eigenvalues --    3.44336   3.52490   3.55256   3.63547   3.69988
 Alpha virt. eigenvalues --    3.76253   3.77105   3.85002   3.86396   4.04354
 Alpha virt. eigenvalues --    4.15700   4.22154   4.26721   4.27714   4.30973
 Alpha virt. eigenvalues --    4.32693   4.36279   4.38761   4.41677   4.44585
 Alpha virt. eigenvalues --    4.44984   4.47811   4.48952   4.51685   4.55498
 Alpha virt. eigenvalues --    4.56443   4.61589   4.64697   4.72373   4.76012
 Alpha virt. eigenvalues --    4.79088   4.86218   5.20213   5.21439   5.25964
 Alpha virt. eigenvalues --    5.58048   5.68718   5.96191   6.00397   6.19367
 Alpha virt. eigenvalues --    6.44688   6.50310   7.36190   8.96291  23.87169
 Alpha virt. eigenvalues --   24.12111  24.30484  38.24478  38.82576
          Condensed to atoms (all electrons):
               1          2          3          4          5          6
     1  C    5.748154  -0.096786   0.028447   0.005826  -0.081821   0.000831
     2  C   -0.096786   6.105778  -0.321377  -0.019704   0.041066  -0.015937
     3  C    0.028447  -0.321377   6.501811   0.142604  -0.452950  -0.009854
     4  N    0.005826  -0.019704   0.142604   7.679725   0.398186  -0.158164
[...]
     4  N   -0.000002   0.001708   0.000001   0.000010   0.000038  -0.000359
     5  C    0.000155  -0.049658  -0.004144   0.000726  -0.000677  -0.009821
     6  O    0.000004  -0.003781  -0.000960   0.000022  -0.001109  -0.000083
     7  N    0.000116   0.011129  -0.000330   0.000596  -0.000213  -0.002816
     8  C   -0.030779  -0.920584  -0.034839   0.014248  -0.044704   0.102678
     9  C    0.006766   0.072440  -0.034852   0.086038  -0.039865   0.028806
    10  C    0.074091   0.508661   0.014424   0.027172   0.008179  -0.022301
    11  C   -0.079626  -0.700768   0.037087  -0.005613   0.035680  -0.206441
    12  C    0.389320   0.917585  -0.131874  -0.059906  -0.117233  -0.128398
    13  C   -0.096547  -0.842218   0.087720  -0.147274   0.092430   0.068218
    14  H   -0.000000  -0.000000   0.000000  -0.000000   0.000000  -0.000000
    15  H    0.000000   0.000000   0.000000  -0.000000   0.000000   0.000000
    16  H   -0.000000  -0.000001  -0.000000   0.000000  -0.000000  -0.000000
    17  H   -0.000000  -0.000002   0.000000   0.000000  -0.000000  -0.000000
    18  H    0.000000   0.000025  -0.000000   0.000000   0.000000   0.000000
    19  H   -0.000000  -0.000016   0.000000   0.000000   0.000000  -0.000000
    20  H    0.000000   0.000004   0.000000   0.000000   0.000000   0.000000
    21  H   -0.000000  -0.000027   0.000000  -0.000000   0.000000   0.000003
    22  H   -0.000000  -0.000022   0.000000  -0.000000   0.000000  -0.000318
    23  H   -0.000088   0.017526   0.002133   0.000235   0.002186   0.000263
    24  H   -0.000106   0.002411   0.000000   0.000003   0.000000  -0.005365
    25  H    0.426543   0.032153   0.000401   0.002513   0.000400   0.002178
    26  S    0.032153  14.661093  -0.037192  -0.007980  -0.037934  -0.000833
    27  F    0.000401  -0.037192   9.718457  -0.014969  -0.021043  -0.000187
    28  F    0.002513  -0.007980  -0.014969   9.721764  -0.068328  -0.001552
    29  F    0.000400  -0.037934  -0.021043  -0.068328   9.719357  -0.000185
    30  Cl   0.002178  -0.000833  -0.000187  -0.001552  -0.000185  16.961027
    31  F    0.000012   0.081021  -0.027714  -0.028596  -0.027788   0.000107
    32  F    0.002472  -0.008195  -0.068161  -0.027032  -0.014952  -0.001545
              31         32
     1  C   -0.000000  -0.000000
     2  C    0.000000   0.000002
     3  C   -0.000009   0.000016
     4  N   -0.000005   0.000011
     5  C   -0.001002   0.001484
     6  O   -0.000029   0.000009
     7  N   -0.000052   0.000612
     8  C   -0.004858   0.013304
     9  C   -0.015643   0.082050
    10  C    0.005724   0.024048
    11  C   -0.018636  -0.007835
    12  C    0.112551  -0.045684
    13  C   -0.140435  -0.152199
    14  H   -0.000000  -0.000000
    15  H   -0.000000  -0.000000
    16  H    0.000000   0.000000
    17  H   -0.000000   0.000000
    18  H   -0.000000  -0.000000
    19  H   -0.000000  -0.000000
    20  H   -0.000000   0.000000
    21  H    0.000000  -0.000000
    22  H    0.000000  -0.000000
    23  H    0.000073   0.000246
    24  H   -0.000000   0.000003
    25  H    0.000012   0.002472
    26  S    0.081021  -0.008195
    27  F   -0.027714  -0.068161
    28  F   -0.028596  -0.027032
    29  F   -0.027788  -0.014952
    30  Cl   0.000107  -0.001545
    31  F    9.588718  -0.028669
    32  F   -0.028669   9.722205
 Mulliken charges:
               1
     1  C   -0.767285
     2  C   -0.228139
     3  C   -0.160547
     4  N   -0.572471
     5  C    0.656233
     6  O   -0.565918
     7  N   -0.654542
     8  C   -0.019911
     9  C    0.465881
    10  C   -1.124113
    11  C    0.519609
    12  C   -0.679966
    13  C   -0.105435
    14  H    0.217506
    15  H    0.204479
    16  H    0.218868
    17  H    0.204653
    18  H    0.242920
    19  H    0.255655
    20  H    0.208351
    21  H    0.401079
    22  H    0.407397
    23  H    0.314609
    24  H    0.217056
    25  H    0.270023
    26  S    2.303981
    27  F   -0.483846
    28  F   -0.492087
    29  F   -0.484265
    30  Cl   0.217183
    31  F   -0.494770
    32  F   -0.492189
    33  O    0.000000
    34  O    0.000000
    35  C    0.000000
    36  C    0.000000
    37  C    0.000000
    38  H    0.000000
    39  H    0.000000
    40  H    0.000000
    41  H    0.000000
    42  H    0.000000
 Sum of Mulliken charges =  -0.00000
 Mulliken charges with hydrogens summed into heavy atoms:
               1
     1  C   -0.126433
     2  C    0.219435
     3  C    0.303459
     4  N   -0.171392
     5  C    0.656233
     6  O   -0.565918
     7  N   -0.247145
     8  C   -0.019911
     9  C    0.780490
    10  C   -0.907058
    11  C    0.519609
    12  C   -0.409943
    13  C   -0.105435
    26  S    2.303981
    27  F   -0.483846
    28  F   -0.492087
    29  F   -0.484265
    30  Cl   0.217183
    31  F   -0.494770
    32  F   -0.492189
    33  O    0.000000
    34  O    0.000000
    35  C    0.000000
    36  C    0.000000
    37  C    0.000000
         Mulliken charges condensed to fragments:
      1     -0.000000
      2      0.000000
 Electronic spatial extent (au):  <R**2>=          10020.7316
 Charge=             -0.0000 electrons
 Dipole moment (field-independent basis, Debye):
    X=             -8.4664    Y=             -1.8925    Z=              0.0636  Tot=              8.6756
 Quadrupole moment (field-independent basis, Debye-Ang):
   XX=           -128.0314   YY=           -134.4845   ZZ=           -134.1596
   XY=             -8.2531   XZ=              1.1937   YZ=              1.0758
 Traceless Quadrupole moment (field-independent basis, Debye-Ang):
   XX=              4.1937   YY=             -2.2594   ZZ=             -1.9344
   XY=             -8.2531   XZ=              1.1937   YZ=              1.0758
 Octapole moment (field-independent basis, Debye-Ang**2):
  XXX=           -459.5730  YYY=           -170.8100  ZZZ=             -5.6719  XYY=           -130.5266
  XXY=            -67.7979  XXZ=             -6.0217  XZZ=           -108.5398  YZZ=            -58.7306
  YYZ=              1.3283  XYZ=             -0.9819
 Hexadecapole moment (field-independent basis, Debye-Ang**3):
 XXXX=          -7309.4349 YYYY=          -4685.3534 ZZZZ=           -402.0372 XXXY=            891.5863
 XXXZ=             55.9006 YYYX=           1029.2058 YYYZ=              1.7400 ZZZX=             18.3768
 ZZZY=             -5.2324 XXYY=          -1911.8393 XXZZ=          -1290.6060 YYZZ=           -852.8328
 XXYZ=            -12.3183 YYXZ=              5.2157 ZZXY=            362.7667
 N-N= 2.032207843749D+03 E-N=-8.619153907569D+03  KE= 1.918832766117D+03
 CPIOFr:  IOpCl= 0 IRwI=-1 IRwCP=  731 ICalc=  3 LCPTot=      415431 Len1MO=     1078179 IndFrg=     4728147
 Counterpoise: doing MCBS calculation for fragment   2
 Basis read from rwf:  (6D, 7F)
 There are   105 symmetry adapted cartesian basis functions of A   symmetry.
 There are   105 symmetry adapted basis functions of A   symmetry.
   105 basis functions,   180 primitive gaussians,   105 cartesian basis functions
    20 alpha electrons       20 beta electrons
       nuclear repulsion energy       168.5569296596 Hartrees.
 NAtoms=   42 NActive=   10 NUniq=   10 SFac= 1.00D+00 NAtFMM=   60 NAOKFM=F Big=F
 Integral buffers will be    131072 words long.
 Raffenetti 2 integral format.
 Two-electron integral symmetry is turned on.
 One-electron integrals computed using PRISM.
 NBasis=   105 RedAO= T EigKep=  1.22D-04  NBF=   105
 NBsUse=   105 1.00D-06 EigRej= -1.00D+00 NBFU=   105
 ExpMin= 4.38D-02 ExpMax= 5.48D+03 ExpMxC= 8.25D+02 IAcc=3 IRadAn=         5 AccDes= 0.00D+00
 Harris functional with IExCor= 1009 and IRadAn=       5 diagonalized for initial guess.
 HarFok:  IExCor= 1009 AccDes= 0.00D+00 IRadAn=         5 IDoV= 1 UseB2=F ITyADJ=14
 ICtDFT=  3500011 ScaDFX=  1.000000  1.000000  1.000000  1.000000
 FoFCou: FMM=F IPFlag=           0 FMFlag=      100000 FMFlg1=           0
         NFxFlg=           0 DoJE=T BraDBF=F KetDBF=T FulRan=T
         wScrn=  0.000000 ICntrl=     500 IOpCl=  0 I1Cent=   200000004 NGrid=           0
         NMat0=    1 NMatS0=      1 NMatT0=    0 NMatD0=    1 NMtDS0=    0 NMtDT0=    0
 Petite list used in FoFCou.
 Keep R1 ints in memory in canonical form, NReq=16474548.
 Requested convergence on RMS density matrix=1.00D-08 within 128 cycles.
 Requested convergence on MAX density matrix=1.00D-06.
 Requested convergence on             energy=1.00D-06.
 No special actions if energy rises.
 SCF Done:  E(RM062X) =  -267.728425171     A.U. after   14 cycles
            NFock= 14  Conv=0.41D-08     -V/T= 2.0084

 **********************************************************************

            Population analysis using the SCF density.

 **********************************************************************

 Orbital symmetries:
       Occupied  (A) (A) (A) (A) (A) (A) (A) (A) (A) (A) (A) (A)
                 (A) (A) (A) (A) (A) (A) (A) (A)
       Virtual   (A) (A) (A) (A) (A) (A) (A) (A) (A) (A) (A) (A)
                 (A) (A) (A) (A) (A) (A) (A) (A) (A) (A) (A) (A)
                 (A) (A) (A) (A) (A) (A) (A) (A) (A) (A) (A) (A)
                 (A) (A) (A) (A) (A) (A) (A) (A) (A) (A) (A) (A)
                 (A) (A) (A) (A) (A) (A) (A) (A) (A) (A) (A) (A)
                 (A) (A) (A) (A) (A) (A) (A) (A) (A) (A) (A) (A)
                 (A) (A) (A) (A) (A) (A) (A) (A) (A) (A) (A) (A)
                 (A)
 The electronic state is 1-A.
 Alpha  occ. eigenvalues --  -19.38274 -19.38005 -10.43611 -10.38684 -10.37535
 Alpha  occ. eigenvalues --   -0.94222  -0.84503  -0.69919  -0.56032  -0.39486
 Alpha  occ. eigenvalues --   -0.36279  -0.33511  -0.30140  -0.27617  -0.27398
 Alpha  occ. eigenvalues --   -0.25010  -0.22634  -0.10878  -0.10842  -0.10168
 Alpha virt. eigenvalues --    0.14619   0.16482   0.18640   0.19570   0.21555
 Alpha virt. eigenvalues --    0.21833   0.22415   0.22879   0.23468   0.25911
 Alpha virt. eigenvalues --    0.28388   0.29730   0.30030   0.38011   0.38913
 Alpha virt. eigenvalues --    0.42273   0.42510   0.43637   0.45463   0.46252
 Alpha virt. eigenvalues --    0.46735   0.47998   0.49573   0.49795   0.50771
 Alpha virt. eigenvalues --    0.55112   0.56113   0.57223   0.71733   0.75140
 Alpha virt. eigenvalues --    0.84453   0.86646   0.89665   0.92075   0.94826
 Alpha virt. eigenvalues --    0.99488   1.01990   1.08480   1.10007   1.14578
 Alpha virt. eigenvalues --    1.20105   1.21329   1.31081   1.32755   1.33977
 Alpha virt. eigenvalues --    1.34584   1.49203   1.54765   1.57821   1.59202
 Alpha virt. eigenvalues --    1.61023   1.63141   1.63282   1.74402   1.78301
 Alpha virt. eigenvalues --    1.80824   1.86867   2.02570   2.02845   2.08631
 Alpha virt. eigenvalues --    2.10147   2.12101   2.14375   2.16372   2.22720
 Alpha virt. eigenvalues --    2.26474   2.28208   2.29476   2.45075   2.52350
 Alpha virt. eigenvalues --    2.54088   2.54372   2.73537   2.74161   2.78546
 Alpha virt. eigenvalues --    2.97666   3.13238   3.27169   3.32763   3.42429
 Alpha virt. eigenvalues --    4.36349   4.41524   4.58233   4.66879   4.82554
          Condensed to atoms (all electrons):
               1          2          3          4          5          6
     1  O    8.617287  -0.170123   0.529920  -0.393121   0.079109  -0.002715
     2  O   -0.170123   8.598780   0.463430  -0.324096   0.096051   0.001187
     3  C    0.529920   0.463430   4.838644  -0.364469   0.050597  -0.015330
     4  C   -0.393121  -0.324096  -0.364469   7.535594  -0.638221   0.388127
     5  C    0.079109   0.096051   0.050597  -0.638221   6.022436  -0.055416
     6  H   -0.002715   0.001187  -0.015330   0.388127  -0.055416   0.530720
     7  H   -0.002824   0.001440  -0.015248   0.388725  -0.056104  -0.032700
     8  H   -0.000127  -0.006707  -0.002377  -0.048524   0.411220  -0.004335
     9  H   -0.000307   0.002906   0.012586  -0.060625   0.378569  -0.002037
    10  H   -0.000090  -0.006622  -0.003422  -0.047427   0.410866   0.003855
               7          8          9         10
     1  O   -0.002824  -0.000127  -0.000307  -0.000090
     2  O    0.001440  -0.006707   0.002906  -0.006622
     3  C   -0.015248  -0.002377   0.012586  -0.003422
     4  C    0.388725  -0.048524  -0.060625  -0.047427
     5  C   -0.056104   0.411220   0.378569   0.410866
     6  H   -0.032700  -0.004335  -0.002037   0.003855
     7  H    0.530331   0.003856  -0.002034  -0.004325
     8  H    0.003856   0.498006  -0.033902  -0.025549
     9  H   -0.002034  -0.033902   0.589358  -0.034005
    10  H   -0.004325  -0.025549  -0.034005   0.499520
 Mulliken charges:
               1
     1  C    0.000000
     2  C    0.000000
     3  C    0.000000
     4  N    0.000000
     5  C    0.000000
     6  O    0.000000
     7  N    0.000000
     8  C    0.000000
     9  C    0.000000
    10  C    0.000000
    11  C    0.000000
    12  C    0.000000
    13  C    0.000000
    14  H    0.000000
    15  H    0.000000
    16  H    0.000000
    17  H    0.000000
    18  H    0.000000
    19  H    0.000000
    20  H    0.000000
    21  H    0.000000
    22  H    0.000000
    23  H    0.000000
    24  H    0.000000
    25  H    0.000000
    26  S    0.000000
    27  F    0.000000
    28  F    0.000000
    29  F    0.000000
    30  Cl   0.000000
    31  F    0.000000
    32  F    0.000000
    33  O   -0.657009
    34  O   -0.656247
    35  C    0.505668
    36  C   -0.435963
    37  C   -0.699106
    38  H    0.188643
    39  H    0.188885
    40  H    0.208439
    41  H    0.149491
    42  H    0.207199
 Sum of Mulliken charges =  -1.00000
 Mulliken charges with hydrogens summed into heavy atoms:
               1
     1  C    0.000000
     2  C    0.000000
     3  C    0.000000
     4  N    0.000000
     5  C    0.000000
     6  O    0.000000
     7  N    0.000000
     8  C    0.000000
     9  C    0.000000
    10  C    0.000000
    11  C    0.000000
    12  C    0.000000
    13  C    0.000000
    26  S    0.000000
    27  F    0.000000
    28  F    0.000000
    29  F    0.000000
    30  Cl   0.000000
    31  F    0.000000
    32  F    0.000000
    33  O   -0.657009
    34  O   -0.656247
    35  C    0.505668
    36  C   -0.058435
    37  C   -0.133977
         Mulliken charges condensed to fragments:
      1      0.000000
      2     -1.000000
 Electronic spatial extent (au):  <R**2>=           4045.7109
 Charge=             -1.0000 electrons
 Dipole moment (field-independent basis, Debye):
    X=             18.9195    Y=              5.5285    Z=              0.7389  Tot=             19.7245
 Quadrupole moment (field-independent basis, Debye-Ang):
   XX=           -114.4534   YY=            -48.1867   ZZ=            -32.5319
   XY=            -18.7705   XZ=             -3.0300   YZ=             -0.0972
 Traceless Quadrupole moment (field-independent basis, Debye-Ang):
   XX=            -49.3961   YY=             16.8707   ZZ=             32.5254
   XY=            -18.7705   XZ=             -3.0300   YZ=             -0.0972
 Octapole moment (field-independent basis, Debye-Ang**2):
  XXX=            830.4804  YYY=            281.3018  ZZZ=              4.9325  XYY=            209.6254
  XXY=            147.3631  XXZ=             14.8607  XZZ=            147.9639  YZZ=             73.4715
  YYZ=              0.3585  XYZ=             -0.5923
 Hexadecapole moment (field-independent basis, Debye-Ang**3):
 XXXX=          -6164.1837 YYYY=          -1654.0837 ZZZZ=            -53.3084 XXXY=          -1370.6124
 XXXZ=            -80.4144 YYYX=          -1295.7309 YYYZ=             11.8294 ZZZX=            -19.4529
 ZZZY=              4.2282 XXYY=          -1208.0535 XXZZ=           -711.2396 YYZZ=           -241.6191
 XXYZ=              7.2948 YYXZ=              1.6771 ZZXY=           -341.7886
 N-N= 1.685569296596D+02 E-N=-9.724580409856D+02  KE= 2.654894779489D+02
 CPIOFr:  IOpCl= 0 IRwI=-1 IRwCP=  731 ICalc=  4 LCPTot=      415431 Len1MO=     1078179 IndFrg=     5806326
 CPIOFr:  IOpCl= 0 IRwI=-2 IRwCP=  731 ICalc=  0 LCPTot=      415431 Len1MO=     1078179 IndFrg=     1493610
 Counterpoise corrected energy =   -2197.906485602222
                   BSSE energy =       0.001779641343
               sum of monomers =   -2197.821835187905
           complexation energy =     -54.24 kcal/mole (raw)
           complexation energy =     -53.12 kcal/mole (corrected)
 1\1\GINC-R3711\SP\RM062X\Gen\C13H17Cl1F5N2O3S1(1-)\ROOT\27-Feb-2019\0\
 \# M062X/Gen 6D SCF=Tight INT(grid=ultrafine) Counterpoise=2 maxdisk=6
 71088640\\3SF5Chloro_EtO.M062X_6-31pGd_bsse\\-1,1\C,0,-1.6761737953,3.
 0057081687,0.4889021821\C,0,-0.2421517185,2.5179465304,0.6838177214\C,
 0,0.3975428859,2.0977390265,-0.641201788\N,0,1.7597502553,1.639750027,
 -0.4982758092\C,0,2.7676576721,2.5357376075,-0.3825018747\O,0,2.604709
 9744,3.7582540765,-0.4289795585\N,0,4.0072648525,1.9295408245,-0.21500
 29589\C,0,5.2218592942,2.5547757621,-0.0591671272\C,0,5.4068287071,3.9
 526632811,-0.0592890766\C,0,6.344467644,1.714855843,0.1105594448\C,0,7
 .5990728357,2.2718411579,0.2731037807\C,0,7.8202562795,3.6462578638,0.
 2794626753\C,0,6.6933118863,4.4402177143,0.1101819807\H,0,-2.134631804
 4,3.3014851187,1.4383981651\H,0,-2.3022191544,2.221788609,0.0451018796
 \H,0,-1.7047769933,3.873293755,-0.1807808727\H,0,-0.2183213818,1.66421
 48751,1.3719756751\H,0,0.3737044453,3.3105073907,1.1234524744\H,0,0.37
 97143786,2.9459243794,-1.3365646282\H,0,-0.1763285415,1.2782925396,-1.
 0895836004\H,0,1.9401857105,0.6228191928,-0.4068594987\H,0,4.042473872
 7,0.8847235573,-0.1884632855\H,0,4.5525451301,4.6024286513,-0.18973996
 52\H,0,6.2010662226,0.6367914527,0.1116889923\H,0,8.8120698433,4.05905
 13519,0.4092315785\S,0,6.9276468643,6.2405816729,0.1135448784\F,0,5.98
 16704419,6.4616596264,-1.1730743133\F,0,8.2230827665,6.1560985224,-0.8
 575452338\F,0,5.6691147665,6.497235513,1.0877856058\Cl,0,8.9778460252,
 1.2121915149,0.4825340593\F,0,7.152623841,7.8449146658,0.1195530037\F,
 0,7.9106945268,6.1915656365,1.4019279953\O,0,2.1649952286,-1.131101751
 ,-0.2614213499\O,0,4.3769913133,-0.7881653018,-0.0899131208\C,0,3.3513
 986549,-1.5231502017,-0.1334190673\C,0,3.5600712161,-3.0413599158,-0.0
 21865284\C,0,5.0122477793,-3.4682974714,0.1528219366\H,0,3.1220915705,
 -3.4910144266,-0.9216835495\H,0,2.9419092592,-3.3893708082,0.814852555
 5\H,0,5.6200114674,-3.1243128035,-0.6889416607\H,0,5.0988387029,-4.559
 4207457,0.2248371801\H,0,5.4397570747,-3.0241824829,1.0564198582\\Vers
 ion=ES64L-G09RevE.01\State=1-A\HF=-267.7284252\RMSD=4.146e-09\Dipole=1
 .039879,1.3007982,0.3152966\Quadrupole=-1.0392127,-20.9478892,21.98710
 19,-13.6962321,-2.2619466,-0.8964817\PG=C01 [X(C13H17Cl1F5N2O3S1)]\\@


 WE STILL HAVE JUDGEMENT HERE,
 THAT WE TEACH BUT BLOODY INSTRUCTIONS,
 WHICH, BEING TAUGHT,
 RETURN TO PLAGUE THE INVENTOR.
           MACBETH ACT I, SCENE VII
 Job cpu time:       0 days  2 hours 19 minutes 17.9 seconds.
 File lengths (MBytes):  RWF=    219 Int=      0 D2E=      0 Chk=     60 Scr=      1
 Normal termination of Gaussian 09 at Wed Feb 27 08:55:14 2019.
WARNING: pbs_rusage is deprecated and values produced may not be accurate


=============================================================================
                                     Resource usage:
                                       CPU time:              02:12:02
   JobId:    6205178.r-man2            Elapsed time:          00:34:51
   Project:             q95            Requested time:        48:00:00
   Service Units:      2.32 
                                       Max physical memory:      159MB
                                       Max virtual memory:       447MB
                                       Requested memory:           0MB

                                       Number of cpus:               4

                                       Max jobfs disk use:       0.2GB
                                       Requested jobfs:          5.0GB
=============================================================================

