 Entering Gaussian System, Link 0=/apps/gaussian/g09e01/g09/g09
 AtFile(1): /home/507/hio507/Basis/6-31pGd.gbs
 Initial command:
 /apps/gaussian/g09e01/g09/l1.exe "/jobfs/local/1827386.r-man2/Gau-25352.inp" -scrdir="/jobfs/local/1827386.r-man2/"
 Entering Link 1 = /apps/gaussian/g09e01/g09/l1.exe PID=     25359.
  
 Copyright (c) 1988,1990,1992,1993,1995,1998,2003,2009,2015,
            Gaussian, Inc.  All Rights Reserved.
  
 This is part of the Gaussian(R) 09 program.  It is based on
 the Gaussian(R) 03 system (copyright 2003, Gaussian, Inc.),
 the Gaussian(R) 98 system (copyright 1998, Gaussian, Inc.),
 the Gaussian(R) 94 system (copyright 1995, Gaussian, Inc.),
 the Gaussian 92(TM) system (copyright 1992, Gaussian, Inc.),
 the Gaussian 90(TM) system (copyright 1990, Gaussian, Inc.),
 the Gaussian 88(TM) system (copyright 1988, Gaussian, Inc.),
 the Gaussian 86(TM) system (copyright 1986, Carnegie Mellon
 University), and the Gaussian 82(TM) system (copyright 1983,
 Carnegie Mellon University). Gaussian is a federally registered
 trademark of Gaussian, Inc.
  
 This software contains proprietary and confidential information,
 including trade secrets, belonging to Gaussian, Inc.
  
 This software is provided under written license and may be
 used, copied, transmitted, or stored only in accord with that
 written license.
  
 The following legend is applicable only to US Government
 contracts under FAR:
  
                    RESTRICTED RIGHTS LEGEND
  
 Use, reproduction and disclosure by the US Government is
 subject to restrictions as set forth in subparagraphs (a)
 and (c) of the Commercial Computer Software - Restricted
 Rights clause in FAR 52.227-19.
  
 Gaussian, Inc.
 340 Quinnipiac St., Bldg. 40, Wallingford CT 06492
  
  
 ---------------------------------------------------------------
 Warning -- This program may not be used in any manner that
 competes with the business of Gaussian, Inc. or will provide
 assistance to any competitor of Gaussian, Inc.  The licensee
 of this program is prohibited from giving any competitor of
 Gaussian, Inc. access to this program.  By using this program,
 the user acknowledges that Gaussian, Inc. is engaged in the
 business of creating and licensing software in the field of
 computational chemistry and represents and warrants to the
 licensee that it is not a competitor of Gaussian, Inc. and that
 it will not use this program in any manner prohibited above.
 ---------------------------------------------------------------
  

 Cite this work as:
 Gaussian 09, Revision E.01,
 M. J. Frisch, G. W. Trucks, H. B. Schlegel, G. E. Scuseria, 
 M. A. Robb, J. R. Cheeseman, G. Scalmani, V. Barone, B. Mennucci, 
 G. A. Petersson, H. Nakatsuji, M. Caricato, X. Li, H. P. Hratchian, 
 A. F. Izmaylov, J. Bloino, G. Zheng, J. L. Sonnenberg, M. Hada, 
 M. Ehara, K. Toyota, R. Fukuda, J. Hasegawa, M. Ishida, T. Nakajima, 
 Y. Honda, O. Kitao, H. Nakai, T. Vreven, J. A. Montgomery, Jr., 
 J. E. Peralta, F. Ogliaro, M. Bearpark, J. J. Heyd, E. Brothers, 
 K. N. Kudin, V. N. Staroverov, T. Keith, R. Kobayashi, J. Normand, 
 K. Raghavachari, A. Rendell, J. C. Burant, S. S. Iyengar, J. Tomasi, 
 M. Cossi, N. Rega, J. M. Millam, M. Klene, J. E. Knox, J. B. Cross, 
 V. Bakken, C. Adamo, J. Jaramillo, R. Gomperts, R. E. Stratmann, 
 O. Yazyev, A. J. Austin, R. Cammi, C. Pomelli, J. W. Ochterski, 
 R. L. Martin, K. Morokuma, V. G. Zakrzewski, G. A. Voth, 
 P. Salvador, J. J. Dannenberg, S. Dapprich, A. D. Daniels, 
 O. Farkas, J. B. Foresman, J. V. Ortiz, J. Cioslowski, 
 and D. J. Fox, Gaussian, Inc., Wallingford CT, 2013.
 
 ******************************************
 Gaussian 09:  ES64L-G09RevE.01 30-Nov-2015
                30-Oct-2018 
 ******************************************
 %chk=3SF55Chloro_a1.M062X_6-31pGd_opt.chk
 %mem=196608000
 %nproc=4
 Will use up to    4 processors via shared memory.
 ----------------------------------------------------------------------
 # M062X/Gen 6D SCF=Tight INT(grid=ultrafine) OPT IOP(2/17=4) maxdisk=2
 684354560
 ----------------------------------------------------------------------
 1/14=-1,18=20,19=15,26=4,38=1/1,3;
 2/9=110,12=2,17=4,18=5,40=1/2;
 3/5=7,8=2,11=2,16=1,25=1,30=1,71=1,74=-55,75=-5/1,2,3;
 4//1;
 5/5=2,32=2,38=5/2;
 6/7=2,8=2,9=2,10=2,28=1/1;
 7//1,2,3,16;
 1/14=-1,18=20,19=15,26=4/3(2);
 2/9=110,17=4/2;
 99//99;
 2/9=110,17=4/2;
 3/5=7,6=1,8=2,11=2,16=1,25=1,30=1,71=1,74=-55,75=-5,82=7/1,2,3;
 4/5=5,16=3,69=1/1;
 5/5=2,32=2,38=5/2;
 7//1,2,3,16;
 1/14=-1,18=20,19=15,26=4/3(-5);
 2/9=110,17=4/2;
 6/7=2,8=2,9=2,10=2,19=2,28=1/1;
 99/9=1/99;
 --------------------------------
 3SF55Chloro_a1.M062X_6-31pGd_opt
 --------------------------------
 Symbolic Z-matrix:
 Charge = -1 Multiplicity = 1
 C                    -1.88082   1.54918  -0.05691 
 C                    -0.46324   0.9966   -0.01106 
 C                     0.56611   2.12808  -0.03556 
 N                     1.90912   1.59345   0.02031 
 C                     3.00314   2.40145   0.00608 
 O                     2.85403   3.61279  -0.04435 
 N                     4.24269   1.83297   0.04736 
 C                     5.52791   2.47375   0.03146 
 C                     5.73659   3.87336  -0.04977 
 C                     6.64805   1.63627   0.10643 
 C                     7.93351   2.15599   0.10625 
 C                     8.13287   3.53014   0.02668 
 C                     7.04424   4.42878  -0.0517 
 H                    -2.60422   0.70809  -0.03896 
 H                    -2.03193   2.13637  -0.98763 
 H                    -2.06667   2.20072   0.82351 
 H                    -0.30146   0.33326  -0.88905 
 H                    -0.33681   0.39799   0.91763 
 H                     0.4064    2.79995   0.83624 
 H                     0.44808   2.71353  -0.97419 
 H                     2.0411    0.56987   0.06725 
 H                     4.89669   4.52826  -0.1095 
 H                     6.51892   0.56241   0.17098 
 H                     9.15787   3.85875   0.03209 
 S                     7.33219   6.26132  -0.14918 
 F                     5.65677   6.59451  -0.2319 
 F                     7.40151   6.15695  -1.85459 
 F                     7.27141   6.37243   1.5576 
 Cl                    9.31152   1.07568   0.21966 
 F                     7.59739   7.94775  -0.24628 
 F                     9.02871   6.07043  -0.06888 
 

 GradGradGradGradGradGradGradGradGradGradGradGradGradGradGradGradGradGrad
 Berny optimization.
 Initialization pass.
                           ----------------------------
                           !    Initial Parameters    !
                           ! (Angstroms and Degrees)  !
 --------------------------                            --------------------------
 ! Name  Definition              Value          Derivative Info.                !
 --------------------------------------------------------------------------------
 ! R1    R(1,2)                  1.5222         estimate D2E/DX2                !
 ! R2    R(1,14)                 1.1095         estimate D2E/DX2                !
 ! R3    R(1,15)                 1.1108         estimate D2E/DX2                !
 ! R4    R(1,16)                 1.1109         estimate D2E/DX2                !
 ! R5    R(2,3)                  1.5298         estimate D2E/DX2                !
 ! R6    R(2,17)                 1.1122         estimate D2E/DX2                !
 ! R7    R(2,18)                 1.1121         estimate D2E/DX2                !
 ! R8    R(3,4)                  1.4466         estimate D2E/DX2                !
 ! R9    R(3,19)                 1.1122         estimate D2E/DX2                !
 ! R10   R(3,20)                 1.1125         estimate D2E/DX2                !
 ! R11   R(4,5)                  1.3601         estimate D2E/DX2                !
 ! R12   R(4,21)                 1.0331         estimate D2E/DX2                !
 ! R13   R(5,6)                  1.2215         estimate D2E/DX2                !
 ! R14   R(5,7)                  1.3643         estimate D2E/DX2                !
 ! R15   R(7,8)                  1.4362         estimate D2E/DX2                !
 ! R16   R(8,9)                  1.4174         estimate D2E/DX2                !
 ! R17   R(8,10)                 1.4006         estimate D2E/DX2                !
 ! R18   R(9,13)                 1.4207         estimate D2E/DX2                !
 ! R19   R(9,22)                 1.0667         estimate D2E/DX2                !
 ! R20   R(10,11)                1.3865         estimate D2E/DX2                !
 ! R21   R(10,23)                1.0835         estimate D2E/DX2                !
 ! R22   R(11,12)                1.3908         estimate D2E/DX2                !
 ! R23   R(11,29)                1.7547         estimate D2E/DX2                !
 ! R24   R(12,13)                1.4138         estimate D2E/DX2                !
 ! R25   R(12,24)                1.0764         estimate D2E/DX2                !
 ! R26   R(13,25)                1.8576         estimate D2E/DX2                !
 ! R27   R(25,26)                1.7102         estimate D2E/DX2                !
 ! R28   R(25,27)                1.71           estimate D2E/DX2                !
 ! R29   R(25,28)                1.7115         estimate D2E/DX2                !
 ! R30   R(25,30)                1.7099         estimate D2E/DX2                !
 ! R31   R(25,31)                1.7091         estimate D2E/DX2                !
 ! A1    A(2,1,14)             109.3605         estimate D2E/DX2                !
 ! A2    A(2,1,15)             110.1105         estimate D2E/DX2                !
 ! A3    A(2,1,16)             110.1714         estimate D2E/DX2                !
 ! A4    A(14,1,15)            109.0011         estimate D2E/DX2                !
 ! A5    A(14,1,16)            108.8258         estimate D2E/DX2                !
 ! A6    A(15,1,16)            109.3443         estimate D2E/DX2                !
 ! A7    A(1,2,3)              110.9555         estimate D2E/DX2                !
 ! A8    A(1,2,17)             109.1591         estimate D2E/DX2                !
 ! A9    A(1,2,18)             109.0523         estimate D2E/DX2                !
 ! A10   A(3,2,17)             109.3048         estimate D2E/DX2                !
 ! A11   A(3,2,18)             109.5717         estimate D2E/DX2                !
 ! A12   A(17,2,18)            108.7622         estimate D2E/DX2                !
 ! A13   A(2,3,4)              110.5306         estimate D2E/DX2                !
 ! A14   A(2,3,19)             109.7321         estimate D2E/DX2                !
 ! A15   A(2,3,20)             109.3499         estimate D2E/DX2                !
 ! A16   A(4,3,19)             109.0448         estimate D2E/DX2                !
 ! A17   A(4,3,20)             108.9999         estimate D2E/DX2                !
 ! A18   A(19,3,20)            109.16           estimate D2E/DX2                !
 ! A19   A(3,4,5)              121.7895         estimate D2E/DX2                !
 ! A20   A(3,4,21)             119.1123         estimate D2E/DX2                !
 ! A21   A(5,4,21)             119.0974         estimate D2E/DX2                !
 ! A22   A(4,5,6)              119.4297         estimate D2E/DX2                !
 ! A23   A(4,5,7)              118.8779         estimate D2E/DX2                !
 ! A24   A(6,5,7)              121.6924         estimate D2E/DX2                !
 ! A25   A(5,7,8)              128.8146         estimate D2E/DX2                !
 ! A26   A(7,8,9)              124.956          estimate D2E/DX2                !
 ! A27   A(7,8,10)             116.6353         estimate D2E/DX2                !
 ! A28   A(9,8,10)             118.4084         estimate D2E/DX2                !
 ! A29   A(8,9,13)             121.441          estimate D2E/DX2                !
 ! A30   A(8,9,22)             119.5719         estimate D2E/DX2                !
 ! A31   A(13,9,22)            118.9871         estimate D2E/DX2                !
 ! A32   A(8,10,11)            121.1521         estimate D2E/DX2                !
 ! A33   A(8,10,23)            120.0322         estimate D2E/DX2                !
 ! A34   A(11,10,23)           118.815          estimate D2E/DX2                !
 ! A35   A(10,11,12)           120.2144         estimate D2E/DX2                !
 ! A36   A(10,11,29)           119.8216         estimate D2E/DX2                !
 ! A37   A(12,11,29)           119.9622         estimate D2E/DX2                !
 ! A38   A(11,12,13)           121.3863         estimate D2E/DX2                !
 ! A39   A(11,12,24)           115.9659         estimate D2E/DX2                !
 ! A40   A(13,12,24)           122.6475         estimate D2E/DX2                !
 ! A41   A(9,13,12)            117.3972         estimate D2E/DX2                !
 ! A42   A(9,13,25)            121.8987         estimate D2E/DX2                !
 ! A43   A(12,13,25)           120.7039         estimate D2E/DX2                !
 ! A44   A(13,25,26)            92.4573         estimate D2E/DX2                !
 ! A45   A(13,25,27)            89.9088         estimate D2E/DX2                !
 ! A46   A(13,25,28)            90.3557         estimate D2E/DX2                !
 ! A47   A(13,25,31)            92.3625         estimate D2E/DX2                !
 ! A48   A(26,25,27)            90.1929         estimate D2E/DX2                !
 ! A49   A(26,25,28)            90.0456         estimate D2E/DX2                !
 ! A50   A(26,25,30)            87.5382         estimate D2E/DX2                !
 ! A51   A(27,25,30)            89.8439         estimate D2E/DX2                !
 ! A52   A(27,25,31)            89.9886         estimate D2E/DX2                !
 ! A53   A(28,25,30)            89.8917         estimate D2E/DX2                !
 ! A54   A(28,25,31)            89.7506         estimate D2E/DX2                !
 ! A55   A(30,25,31)            87.6428         estimate D2E/DX2                !
 ! A56   L(13,25,30,26,-1)     179.9955         estimate D2E/DX2                !
 ! A57   L(26,25,31,13,-1)     184.8198         estimate D2E/DX2                !
 ! A58   L(27,25,28,13,-1)     180.2644         estimate D2E/DX2                !
 ! A59   L(13,25,30,26,-2)     180.2476         estimate D2E/DX2                !
 ! A60   L(26,25,31,13,-2)     180.1739         estimate D2E/DX2                !
 ! A61   L(27,25,28,13,-2)     179.7499         estimate D2E/DX2                !
 ! D1    D(14,1,2,3)           179.9454         estimate D2E/DX2                !
 ! D2    D(14,1,2,17)           59.4263         estimate D2E/DX2                !
 ! D3    D(14,1,2,18)          -59.2735         estimate D2E/DX2                !
 ! D4    D(15,1,2,3)            60.1986         estimate D2E/DX2                !
 ! D5    D(15,1,2,17)          -60.3205         estimate D2E/DX2                !
 ! D6    D(15,1,2,18)         -179.0203         estimate D2E/DX2                !
 ! D7    D(16,1,2,3)           -60.486          estimate D2E/DX2                !
 ! D8    D(16,1,2,17)          178.995          estimate D2E/DX2                !
 ! D9    D(16,1,2,18)           60.2951         estimate D2E/DX2                !
 ! D10   D(1,2,3,4)            179.4924         estimate D2E/DX2                !
 ! D11   D(1,2,3,19)            59.1943         estimate D2E/DX2                !
 ! D12   D(1,2,3,20)           -60.5095         estimate D2E/DX2                !
 ! D13   D(17,2,3,4)           -60.075          estimate D2E/DX2                !
 ! D14   D(17,2,3,19)          179.627          estimate D2E/DX2                !
 ! D15   D(17,2,3,20)           59.9232         estimate D2E/DX2                !
 ! D16   D(18,2,3,4)            59.0187         estimate D2E/DX2                !
 ! D17   D(18,2,3,19)          -61.2794         estimate D2E/DX2                !
 ! D18   D(18,2,3,20)          179.0169         estimate D2E/DX2                !
 ! D19   D(2,3,4,5)            179.7315         estimate D2E/DX2                !
 ! D20   D(2,3,4,21)             0.0612         estimate D2E/DX2                !
 ! D21   D(19,3,4,5)           -59.5599         estimate D2E/DX2                !
 ! D22   D(19,3,4,21)          120.7698         estimate D2E/DX2                !
 ! D23   D(20,3,4,5)            59.5234         estimate D2E/DX2                !
 ! D24   D(20,3,4,21)         -120.1469         estimate D2E/DX2                !
 ! D25   D(3,4,5,6)              0.5979         estimate D2E/DX2                !
 ! D26   D(3,4,5,7)           -179.3347         estimate D2E/DX2                !
 ! D27   D(21,4,5,6)          -179.7318         estimate D2E/DX2                !
 ! D28   D(21,4,5,7)             0.3356         estimate D2E/DX2                !
 ! D29   D(4,5,7,8)            179.4314         estimate D2E/DX2                !
 ! D30   D(6,5,7,8)             -0.4996         estimate D2E/DX2                !
 ! D31   D(5,7,8,9)             -0.829          estimate D2E/DX2                !
 ! D32   D(5,7,8,10)           178.9844         estimate D2E/DX2                !
 ! D33   D(7,8,9,13)           179.6044         estimate D2E/DX2                !
 ! D34   D(7,8,9,22)            -0.3047         estimate D2E/DX2                !
 ! D35   D(10,8,9,13)           -0.206          estimate D2E/DX2                !
 ! D36   D(10,8,9,22)          179.8849         estimate D2E/DX2                !
 ! D37   D(7,8,10,11)         -179.614          estimate D2E/DX2                !
 ! D38   D(7,8,10,23)            0.0782         estimate D2E/DX2                !
 ! D39   D(9,8,10,11)            0.2122         estimate D2E/DX2                !
 ! D40   D(9,8,10,23)          179.9043         estimate D2E/DX2                !
 ! D41   D(8,9,13,12)            0.1833         estimate D2E/DX2                !
 ! D42   D(8,9,13,25)         -179.6914         estimate D2E/DX2                !
 ! D43   D(22,9,13,12)        -179.9071         estimate D2E/DX2                !
 ! D44   D(22,9,13,25)           0.2181         estimate D2E/DX2                !
 ! D45   D(8,10,11,12)          -0.2012         estimate D2E/DX2                !
 ! D46   D(8,10,11,29)         179.3138         estimate D2E/DX2                !
 ! D47   D(23,10,11,12)       -179.8971         estimate D2E/DX2                !
 ! D48   D(23,10,11,29)         -0.3821         estimate D2E/DX2                !
 ! D49   D(10,11,12,13)          0.1796         estimate D2E/DX2                !
 ! D50   D(10,11,12,24)        179.9836         estimate D2E/DX2                !
 ! D51   D(29,11,12,13)       -179.3347         estimate D2E/DX2                !
 ! D52   D(29,11,12,24)          0.4693         estimate D2E/DX2                !
 ! D53   D(11,12,13,9)          -0.1683         estimate D2E/DX2                !
 ! D54   D(11,12,13,25)        179.708          estimate D2E/DX2                !
 ! D55   D(24,12,13,9)        -179.9591         estimate D2E/DX2                !
 ! D56   D(24,12,13,25)         -0.0827         estimate D2E/DX2                !
 ! D57   D(9,13,25,26)          -0.8669         estimate D2E/DX2                !
 ! D58   D(9,13,25,27)         -91.056          estimate D2E/DX2                !
 ! D59   D(9,13,25,28)          89.1941         estimate D2E/DX2                !
 ! D60   D(9,13,25,31)         178.9592         estimate D2E/DX2                !
 ! D61   D(12,13,25,26)        179.2624         estimate D2E/DX2                !
 ! D62   D(12,13,25,27)         89.0733         estimate D2E/DX2                !
 ! D63   D(12,13,25,28)        -90.6766         estimate D2E/DX2                !
 ! D64   D(12,13,25,31)         -0.9115         estimate D2E/DX2                !
 --------------------------------------------------------------------------------
 Trust Radius=3.00D-01 FncErr=1.00D-07 GrdErr=1.00D-06
 Number of steps in this run=    166 maximum allowed number of steps=    186.
 GradGradGradGradGradGradGradGradGradGradGradGradGradGradGradGradGradGrad

                          Input orientation:                          
 ---------------------------------------------------------------------
 Center     Atomic      Atomic             Coordinates (Angstroms)
 Number     Number       Type             X           Y           Z
 ---------------------------------------------------------------------
      1          6           0       -1.880820    1.549180   -0.056910
      2          6           0       -0.463240    0.996600   -0.011060
      3          6           0        0.566110    2.128080   -0.035560
      4          7           0        1.909120    1.593450    0.020310
      5          6           0        3.003140    2.401450    0.006080
      6          8           0        2.854030    3.612790   -0.044350
      7          7           0        4.242690    1.832970    0.047360
      8          6           0        5.527910    2.473750    0.031460
      9          6           0        5.736590    3.873360   -0.049770
     10          6           0        6.648050    1.636270    0.106430
     11          6           0        7.933510    2.155990    0.106250
     12          6           0        8.132870    3.530140    0.026680
     13          6           0        7.044240    4.428780   -0.051700
     14          1           0       -2.604220    0.708090   -0.038960
     15          1           0       -2.031930    2.136370   -0.987630
     16          1           0       -2.066670    2.200720    0.823510
     17          1           0       -0.301460    0.333260   -0.889050
     18          1           0       -0.336810    0.397990    0.917630
     19          1           0        0.406400    2.799950    0.836240
     20          1           0        0.448080    2.713530   -0.974190
     21          1           0        2.041100    0.569870    0.067250
     22          1           0        4.896690    4.528260   -0.109500
     23          1           0        6.518920    0.562410    0.170980
     24          1           0        9.157870    3.858750    0.032090
     25         16           0        7.332190    6.261320   -0.149180
     26          9           0        5.656770    6.594510   -0.231900
     27          9           0        7.401510    6.156950   -1.854590
     28          9           0        7.271410    6.372430    1.557600
     29         17           0        9.311520    1.075680    0.219660
     30          9           0        7.597390    7.947750   -0.246280
     31          9           0        9.028710    6.070430   -0.068880
 ---------------------------------------------------------------------
                    Distance matrix (angstroms):
                    1          2          3          4          5
     1  C    0.000000
     2  C    1.522163   0.000000
     3  C    2.514567   1.529839   0.000000
     4  N    3.790985   2.446488   1.446591   0.000000
     5  C    4.958165   3.740279   2.452668   1.360127   0.000000
     6  O    5.165022   4.224907   2.727457   2.230419   1.221524
     7  N    6.130969   4.780032   3.689337   2.345986   1.364316
     8  C    7.466721   6.170710   4.974278   3.724338   2.525932
     9  C    7.964094   6.834847   5.457112   4.455606   3.105058
    10  C    8.530879   7.140968   6.103444   4.739906   3.725713
    11  C    9.834425   8.477226   7.368818   6.051207   4.937493
    12  C   10.208094   8.961772   7.695811   6.518119   5.252475
    13  C    9.378103   8.254924   6.874565   5.866322   4.521493
    14  H    1.109532   2.160512   3.473813   4.599741   5.857643
    15  H    1.110795   2.171072   2.767005   4.103971   5.139033
    16  H    1.110938   2.171958   2.770344   4.101318   5.139208
    17  H    2.159930   1.112232   2.168525   2.702162   3.999881
    18  H    2.158456   1.112108   2.171876   2.697871   4.000005
    19  H    2.755634   2.173997   1.112183   2.092738   2.755182
    20  H    2.760596   2.169325   1.112524   2.092426   2.754388
    21  H    4.044245   2.541643   2.148065   1.033121   2.069770
    22  H    7.403535   6.419592   4.951793   4.189933   2.849949
    23  H    8.460572   6.998015   6.158728   4.726098   3.971142
    24  H   11.278063  10.037904   8.764596   7.594478   6.324959
    25  S   10.348542   9.407714   7.929465   7.157334   5.802015
    26  F    9.072003   8.296981   6.775128   6.254526   4.967911
    27  F   10.517835   9.585516   8.140231   7.382894   6.075486
    28  F   10.470611   9.549087   8.094054   7.345479   6.032746
    29  Cl  11.205765   9.777802   8.812201   7.423163   6.449724
    30  F   11.437396  10.646482   9.129724   8.532562   7.206404
    31  F   11.809305  10.763095   9.335889   8.410700   7.055106
                    6          7          8          9         10
     6  O    0.000000
     7  N    2.259324   0.000000
     8  C    2.907369   1.436190   0.000000
     9  C    2.894318   2.530684   1.417411   0.000000
    10  C    4.280649   2.414112   1.400609   2.420688   0.000000
    11  C    5.286404   3.705396   2.427648   2.792877   1.386548
    12  C    5.279965   4.244327   2.811014   2.421942   2.407861
    13  C    4.268929   3.820566   2.475543   1.420719   2.824904
    14  H    6.183025   6.939235   8.321902   8.921220   9.299847
    15  H    5.190587   6.366641   7.635676   8.015399   8.762940
    16  H    5.192342   6.367548   7.640650   8.028151   8.762371
    17  H    4.628818   4.875991   6.277785   7.049450   7.140343
    18  H    4.630530   4.877331   6.284029   7.064011   7.140004
    19  H    2.725260   4.034167   5.194607   5.508915   6.391007
    20  H    2.731642   4.027160   5.183966   5.492549   6.384971
    21  H    3.151614   2.538270   3.972894   4.958164   4.728925
    22  H    2.239373   2.777933   2.153908   1.066721   3.387845
    23  H    4.773113   2.609756   2.157496   3.409276   1.083520
    24  H    6.309100   5.316297   3.885207   3.422290   3.353228
    25  S    5.203808   5.403140   4.199255   2.873704   4.682357
    26  F    4.096484   4.974924   4.131177   2.728406   5.067667
    27  F    5.516275   5.682637   4.542414   3.353225   4.984962
    28  F    5.449321   5.662214   4.535262   3.344348   4.992563
    29  Cl   6.943040   5.127983   4.038035   4.547497   2.724180
    30  F    6.429006   6.980743   5.858717   4.483508   6.392216
    31  F    6.645846   6.393400   5.020137   3.957971   5.035876
                   11         12         13         14         15
    11  C    0.000000
    12  C    1.390814   0.000000
    13  C    2.445674   1.413794   0.000000
    14  H   10.637728  11.101954  10.341009   0.000000
    15  H   10.025316  10.309926   9.407867   1.807616   0.000000
    16  H   10.025969  10.316633   9.420134   1.805757   1.812616
    17  H    8.492803   9.066230   8.451849   2.483114   2.501090
    18  H    8.493945   9.074119   8.465623   2.480398   3.086327
    19  H    7.589793   7.803006   6.892202   3.769043   3.116455
    20  H    7.583526   7.792598   6.877674   3.770011   2.546320
    21  H    6.102278   6.773072   6.319553   4.648589   4.489573
    22  H    3.859597   3.389344   2.150630   8.417976   7.382278
    23  H    2.131842   3.381284   3.908243   9.126718   8.771360
    24  H    2.098559   1.076401   2.190750  12.176965  11.367412
    25  S    4.156990   2.851554   1.857585  11.383442  10.266691
    26  F    4.999835   3.948202   2.578358  10.145498   8.919767
    27  F    4.487271   3.312732   2.522821  11.536950  10.291087
    28  F    4.508122   3.341323   2.533620  11.496165  10.534445
    29  Cl   1.754663   2.729621   4.056781  11.924213  11.456722
    30  F    5.812206   4.458310   3.567490  12.511135  11.271448
    31  F    4.068535   2.695317   2.575545  12.809397  11.775342
                   16         17         18         19         20
    16  H    0.000000
    17  H    3.088079   0.000000
    18  H    2.500222   1.808185   0.000000
    19  H    2.544664   3.092289   2.515631   0.000000
    20  H    3.133475   2.496947   3.091401   1.812971   0.000000
    21  H    4.483902   2.541276   2.531234   2.869991   2.866634
    22  H    7.401103   6.725064   6.745639   4.903487   4.881707
    23  H    8.764828   6.906067   6.898228   6.543092   6.541699
    24  H   11.373905  10.136888  10.144456   8.851889   8.842204
    25  S   10.284608   9.693395   9.712378   7.805043   7.788352
    26  F    8.948229   8.668080   8.697200   6.565516   6.537848
    27  F   10.605207   9.704812  10.036554   8.212282   7.809125
    28  F   10.253867   9.990297   9.694767   7.772473   8.145879
    29  Cl  11.449609   9.705143   9.697252   9.091449   9.092216
    30  F   11.294550  10.990243  11.013859   8.909659   8.890419
    31  F   11.784671  10.983618  10.993759   9.266041   9.258271
                   21         22         23         24         25
    21  H    0.000000
    22  H    4.884105   0.000000
    23  H    4.479028   4.293980   0.000000
    24  H    7.840050   4.315779   4.224832   0.000000
    25  S    7.774000   2.989437   5.765543   3.022964   0.000000
    26  F    7.032698   2.205015   6.106705   4.451042   1.710231
    27  F    7.977652   3.460071   6.015046   3.453416   1.710006
    28  F    7.952798   3.437947   6.020406   3.493494   1.711472
    29  Cl   7.289587   5.614212   2.839794   2.793612   5.562792
    30  F    9.241416   4.359518   7.475323   4.385488   1.709914
    31  F    8.893896   4.410615   6.057628   2.217748   1.709113
                   26         27         28         29         30
    26  F    0.000000
    27  F    2.422540   0.000000
    28  F    2.420474   3.421461   0.000000
    29  Cl   6.634651   5.811192   5.831612   0.000000
    30  F    2.365898   2.414952   2.416998   7.097935   0.000000
    31  F    3.416316   2.417442   2.413451   5.011064   2.367378
                   31
    31  F    0.000000
 Stoichiometry    C10H11ClF5N2OS(1-)
 Framework group  C1[X(C10H11ClF5N2OS)]
 Deg. of freedom    87
 Full point group                 C1      NOp   1
 Largest Abelian subgroup         C1      NOp   1
 Largest concise Abelian subgroup C1      NOp   1
                         Standard orientation:                         
 ---------------------------------------------------------------------
 Center     Atomic      Atomic             Coordinates (Angstroms)
 Number     Number       Type             X           Y           Z
 ---------------------------------------------------------------------
      1          6           0       -7.638718   -1.120489   -0.000646
      2          6           0       -6.585905   -0.021283    0.016951
      3          6           0       -5.175704   -0.613945   -0.005225
      4          7           0       -4.183032    0.438293   -0.000288
      5          6           0       -2.850440    0.166240   -0.011797
      6          8           0       -2.475331   -0.995973   -0.037827
      7          7           0       -1.965769    1.204671    0.007559
      8          6           0       -0.530154    1.164262    0.011864
      9          6           0        0.248941   -0.019826    0.012754
     10          6           0        0.132735    2.398070    0.011332
     11          6           0        1.517497    2.468325    0.007270
     12          6           0        2.277408    1.303465    0.007845
     13          6           0        1.668872    0.027340    0.008750
     14          1           0       -8.649108   -0.662380    0.016982
     15          1           0       -7.522685   -1.774759    0.889485
     16          1           0       -7.538492   -1.732216   -0.922563
     17          1           0       -6.712946    0.591155    0.936646
     18          1           0       -6.729118    0.632814   -0.870986
     19          1           0       -5.043154   -1.233626   -0.919215
     20          1           0       -5.030350   -1.253231    0.893604
     21          1           0       -4.494600    1.423152    0.017516
     22          1           0       -0.236738   -0.969565    0.015033
     23          1           0       -0.436944    3.319741    0.009082
     24          1           0        3.345426    1.437493    0.004249
     25         16           0        2.702254   -1.516255    0.001368
     26          9           0        1.323434   -2.527698    0.028375
     27          9           0        2.731910   -1.501300    1.711052
     28          9           0        2.683173   -1.533632   -1.709909
     29         17           0        2.311792    4.032801   -0.011499
     30          9           0        3.653479   -2.937162    0.001957
     31          9           0        4.160143   -0.624878   -0.031377
 ---------------------------------------------------------------------
 Rotational constants (GHZ):      0.3604872      0.1280345      0.0987699
 General basis read from cards:  (6D, 7F)
 There are   410 symmetry adapted cartesian basis functions of A   symmetry.
 There are   410 symmetry adapted basis functions of A   symmetry.
   410 basis functions,   732 primitive gaussians,   410 cartesian basis functions
    86 alpha electrons       86 beta electrons
       nuclear repulsion energy      1943.3910304366 Hartrees.
 NAtoms=   31 NActive=   31 NUniq=   31 SFac= 1.00D+00 NAtFMM=   60 NAOKFM=F Big=F
 Integral buffers will be    131072 words long.
 Raffenetti 2 integral format.
 Two-electron integral symmetry is turned on.
 One-electron integrals computed using PRISM.
 NBasis=   410 RedAO= T EigKep=  1.06D-06  NBF=   410
 NBsUse=   409 1.00D-06 EigRej=  5.95D-07 NBFU=   409
 ExpMin= 4.05D-02 ExpMax= 2.52D+04 ExpMxC= 3.78D+03 IAcc=3 IRadAn=         5 AccDes= 0.00D+00
 Harris functional with IExCor= 1009 and IRadAn=       5 diagonalized for initial guess.
 HarFok:  IExCor= 1009 AccDes= 0.00D+00 IRadAn=         5 IDoV= 1 UseB2=F ITyADJ=14
 ICtDFT=  3500011 ScaDFX=  1.000000  1.000000  1.000000  1.000000
 FoFCou: FMM=F IPFlag=           0 FMFlag=      100000 FMFlg1=           0
         NFxFlg=           0 DoJE=T BraDBF=F KetDBF=T FulRan=T
         wScrn=  0.000000 ICntrl=     500 IOpCl=  0 I1Cent=   200000004 NGrid=           0
         NMat0=    1 NMatS0=      1 NMatT0=    0 NMatD0=    1 NMtDS0=    0 NMtDT0=    0
 Petite list used in FoFCou.
 Requested convergence on RMS density matrix=1.00D-08 within 128 cycles.
 Requested convergence on MAX density matrix=1.00D-06.
 Requested convergence on             energy=1.00D-06.
 No special actions if energy rises.
 EnCoef did     2 forward-backward iterations
 SCF Done:  E(RM062X) =  -1929.50707483     A.U. after   19 cycles
            NFock= 19  Conv=0.33D-08     -V/T= 2.0064

 **********************************************************************

            Population analysis using the SCF density.

 **********************************************************************

 Orbital symmetries:
       Occupied  (A) (A) (A) (A) (A) (A) (A) (A) (A) (A) (A) (A)
                 (A) (A) (A) (A) (A) (A) (A) (A) (A) (A) (A) (A)
                 (A) (A) (A) (A) (A) (A) (A) (A) (A) (A) (A) (A)
                 (A) (A) (A) (A) (A) (A) (A) (A) (A) (A) (A) (A)
                 (A) (A) (A) (A) (A) (A) (A) (A) (A) (A) (A) (A)
                 (A) (A) (A) (A) (A) (A) (A) (A) (A) (A) (A) (A)
                 (A) (A) (A) (A) (A) (A) (A) (A) (A) (A) (A) (A)
                 (A) (A)
       Virtual   (A) (A) (A) (A) (A) (A) (A) (A) (A) (A) (A) (A)
                 (A) (A) (A) (A) (A) (A) (A) (A) (A) (A) (A) (A)
                 (A) (A) (A) (A) (A) (A) (A) (A) (A) (A) (A) (A)
                 (A) (A) (A) (A) (A) (A) (A) (A) (A) (A) (A) (A)
                 (A) (A) (A) (A) (A) (A) (A) (A) (A) (A) (A) (A)
                 (A) (A) (A) (A) (A) (A) (A) (A) (A) (A) (A) (A)
                 (A) (A) (A) (A) (A) (A) (A) (A) (A) (A) (A) (A)
                 (A) (A) (A) (A) (A) (A) (A) (A) (A) (A) (A) (A)
                 (A) (A) (A) (A) (A) (A) (A) (A) (A) (A) (A) (A)
                 (A) (A) (A) (A) (A) (A) (A) (A) (A) (A) (A) (A)
                 (A) (A) (A) (A) (A) (A) (A) (A) (A) (A) (A) (A)
                 (A) (A) (A) (A) (A) (A) (A) (A) (A) (A) (A) (A)
                 (A) (A) (A) (A) (A) (A) (A) (A) (A) (A) (A) (A)
                 (A) (A) (A) (A) (A) (A) (A) (A) (A) (A) (A) (A)
                 (A) (A) (A) (A) (A) (A) (A) (A) (A) (A) (A) (A)
                 (A) (A) (A) (A) (A) (A) (A) (A) (A) (A) (A) (A)
                 (A) (A) (A) (A) (A) (A) (A) (A) (A) (A) (A) (A)
                 (A) (A) (A) (A) (A) (A) (A) (A) (A) (A) (A) (A)
                 (A) (A) (A) (A) (A) (A) (A) (A) (A) (A) (A) (A)
                 (A) (A) (A) (A) (A) (A) (A) (A) (A) (A) (A) (A)
                 (A) (A) (A) (A) (A) (A) (A) (A) (A) (A) (A) (A)
                 (A) (A) (A) (A) (A) (A) (A) (A) (A) (A) (A) (A)
                 (A) (A) (A) (A) (A) (A) (A) (A) (A) (A) (A) (A)
                 (A) (A) (A) (A) (A) (A) (A) (A) (A) (A) (A) (A)
                 (A) (A) (A) (A) (A) (A) (A) (A) (A) (A) (A) (A)
                 (A) (A) (A) (A) (A) (A) (A) (A) (A) (A) (A) (A)
                 (A) (A) (A) (A) (A) (A) (A) (A) (A) (A) (A)
 The electronic state is 1-A.
 Alpha  occ. eigenvalues -- -102.57540 -90.22398 -25.21775 -25.20211 -25.19646
 Alpha  occ. eigenvalues --  -25.19595 -25.19556 -19.44181 -14.64548 -14.57058
 Alpha  occ. eigenvalues --  -10.50968 -10.50881 -10.50850 -10.47754 -10.47621
 Alpha  occ. eigenvalues --  -10.46977 -10.46781 -10.45843 -10.44118 -10.44101
 Alpha  occ. eigenvalues --   -9.72187  -8.51060  -7.44582  -7.43937  -7.43933
 Alpha  occ. eigenvalues --   -6.43384  -6.43370  -6.42978  -1.33191  -1.25915
 Alpha  occ. eigenvalues --   -1.25419  -1.24896  -1.22657  -1.01375  -0.89345
 Alpha  occ. eigenvalues --   -0.89203  -0.85293  -0.83205  -0.79736  -0.78377
 Alpha  occ. eigenvalues --   -0.72653  -0.71005  -0.66890  -0.61986  -0.59974
 Alpha  occ. eigenvalues --   -0.59515  -0.59023  -0.57084  -0.54528  -0.51514
 Alpha  occ. eigenvalues --   -0.49392  -0.48997  -0.48552  -0.47665  -0.46107
 Alpha  occ. eigenvalues --   -0.45391  -0.44909  -0.43565  -0.43295  -0.42986
 Alpha  occ. eigenvalues --   -0.42768  -0.42657  -0.41899  -0.41649  -0.40719
 Alpha  occ. eigenvalues --   -0.40029  -0.39095  -0.38952  -0.38596  -0.36754
 Alpha  occ. eigenvalues --   -0.36178  -0.34906  -0.33850  -0.33573  -0.32462
 Alpha  occ. eigenvalues --   -0.31270  -0.31046  -0.30669  -0.29381  -0.28183
 Alpha  occ. eigenvalues --   -0.22729  -0.21025  -0.19574  -0.17795  -0.13712
 Alpha  occ. eigenvalues --   -0.10455
 Alpha virt. eigenvalues --    0.01288   0.09342   0.10457   0.10488   0.10703
 Alpha virt. eigenvalues --    0.12615   0.12800   0.13029   0.13390   0.13455
 Alpha virt. eigenvalues --    0.14122   0.14169   0.14250   0.15257   0.15561
 Alpha virt. eigenvalues --    0.15771   0.16198   0.16755   0.17114   0.17625
 Alpha virt. eigenvalues --    0.17793   0.18351   0.18902   0.19265   0.19735
 Alpha virt. eigenvalues --    0.20275   0.21332   0.21965   0.22593   0.22748
 Alpha virt. eigenvalues --    0.23301   0.24122   0.24389   0.25086   0.25204
 Alpha virt. eigenvalues --    0.25843   0.26359   0.26971   0.27072   0.27709
 Alpha virt. eigenvalues --    0.28761   0.29012   0.29552   0.30190   0.30265
 Alpha virt. eigenvalues --    0.30598   0.31660   0.31835   0.32377   0.32894
 Alpha virt. eigenvalues --    0.33060   0.33764   0.34301   0.34506   0.34786
 Alpha virt. eigenvalues --    0.35754   0.36263   0.36453   0.36487   0.37511
 Alpha virt. eigenvalues --    0.38310   0.38660   0.39332   0.39414   0.39603
 Alpha virt. eigenvalues --    0.39988   0.40576   0.40859   0.41222   0.41266
 Alpha virt. eigenvalues --    0.41794   0.42062   0.42728   0.43263   0.43648
 Alpha virt. eigenvalues --    0.43810   0.44207   0.45030   0.45536   0.46189
 Alpha virt. eigenvalues --    0.46386   0.47469   0.47626   0.47876   0.48467
 Alpha virt. eigenvalues --    0.48505   0.49672   0.49802   0.50580   0.51275
 Alpha virt. eigenvalues --    0.51658   0.51948   0.53027   0.54040   0.54363
 Alpha virt. eigenvalues --    0.54620   0.55887   0.56318   0.58502   0.59466
 Alpha virt. eigenvalues --    0.59902   0.60918   0.62685   0.63605   0.65796
 Alpha virt. eigenvalues --    0.66443   0.66707   0.68158   0.68527   0.69151
 Alpha virt. eigenvalues --    0.70314   0.71068   0.73159   0.74672   0.75149
 Alpha virt. eigenvalues --    0.76468   0.77272   0.79080   0.80604   0.82391
 Alpha virt. eigenvalues --    0.82568   0.83016   0.83357   0.84584   0.84777
 Alpha virt. eigenvalues --    0.85467   0.87113   0.87251   0.88597   0.89305
 Alpha virt. eigenvalues --    0.89555   0.90632   0.91139   0.92301   0.94838
 Alpha virt. eigenvalues --    0.97358   0.97564   0.97856   0.99056   0.99895
 Alpha virt. eigenvalues --    1.00324   1.00482   1.01311   1.03337   1.03999
 Alpha virt. eigenvalues --    1.06148   1.07422   1.09342   1.10007   1.10352
 Alpha virt. eigenvalues --    1.10912   1.11380   1.12170   1.13425   1.13995
 Alpha virt. eigenvalues --    1.16344   1.16613   1.16807   1.20325   1.20948
 Alpha virt. eigenvalues --    1.22277   1.22998   1.23984   1.24473   1.26023
 Alpha virt. eigenvalues --    1.26136   1.26344   1.29134   1.30106   1.32325
 Alpha virt. eigenvalues --    1.33258   1.35649   1.36992   1.39745   1.39857
 Alpha virt. eigenvalues --    1.42096   1.43322   1.47939   1.48593   1.50891
 Alpha virt. eigenvalues --    1.51760   1.53346   1.53517   1.54884   1.56663
 Alpha virt. eigenvalues --    1.57142   1.59127   1.59721   1.61162   1.61585
 Alpha virt. eigenvalues --    1.63176   1.63988   1.64662   1.66702   1.67666
 Alpha virt. eigenvalues --    1.68264   1.69541   1.69988   1.70741   1.72186
 Alpha virt. eigenvalues --    1.72872   1.76016   1.78170   1.81437   1.83459
 Alpha virt. eigenvalues --    1.83592   1.85311   1.86284   1.87342   1.87921
 Alpha virt. eigenvalues --    1.89233   1.91076   1.91785   1.93306   1.94062
 Alpha virt. eigenvalues --    1.94698   1.95329   1.95719   1.96254   1.96789
 Alpha virt. eigenvalues --    1.97696   1.97900   1.98290   1.98821   1.99370
 Alpha virt. eigenvalues --    2.01142   2.01797   2.02818   2.04203   2.04823
 Alpha virt. eigenvalues --    2.06911   2.07302   2.07406   2.08147   2.08655
 Alpha virt. eigenvalues --    2.08735   2.08946   2.08986   2.10973   2.11005
 Alpha virt. eigenvalues --    2.11987   2.13328   2.13504   2.13642   2.14713
 Alpha virt. eigenvalues --    2.14781   2.15623   2.16179   2.17058   2.19475
 Alpha virt. eigenvalues --    2.19900   2.20363   2.22621   2.25580   2.27028
 Alpha virt. eigenvalues --    2.29620   2.30178   2.31083   2.31407   2.32076
 Alpha virt. eigenvalues --    2.35394   2.35829   2.35958   2.37942   2.38308
 Alpha virt. eigenvalues --    2.40366   2.41929   2.42068   2.43008   2.43428
 Alpha virt. eigenvalues --    2.45821   2.48800   2.50226   2.52093   2.54693
 Alpha virt. eigenvalues --    2.56659   2.60277   2.66146   2.71322   2.74668
 Alpha virt. eigenvalues --    2.75364   2.78355   2.78799   2.81391   2.83434
 Alpha virt. eigenvalues --    2.84110   2.86952   2.90273   2.92000   2.93005
 Alpha virt. eigenvalues --    2.93395   2.94374   2.95979   2.97177   2.98088
 Alpha virt. eigenvalues --    3.07184   3.14703   3.21511   3.29243   3.30920
 Alpha virt. eigenvalues --    3.42682   3.48968   3.53473   4.29663   4.31843
 Alpha virt. eigenvalues --    4.35592   4.40380   4.48998   4.50380   4.50840
 Alpha virt. eigenvalues --    4.56148   4.57963   4.61398   4.64259   4.65873
 Alpha virt. eigenvalues --    4.71644   4.81520   4.90249   5.96650   5.97220
 Alpha virt. eigenvalues --    6.18070   6.49149   8.19732
          Condensed to atoms (all electrons):
               1          2          3          4          5          6
     1  C    5.650698  -0.113351   0.098819  -0.010984  -0.094977  -0.004018
     2  C   -0.113351   6.610561  -1.058627  -0.091917   0.369563   0.037322
     3  C    0.098819  -1.058627   8.339154   0.431502  -1.143535  -0.116775
     4  N   -0.010984  -0.091917   0.431502   8.007334   0.369143  -0.264896
     5  C   -0.094977   0.369563  -1.143535   0.369143   7.214184   0.647370
     6  O   -0.004018   0.037322  -0.116775  -0.264896   0.647370   8.516198
     7  N   -0.005656   0.037904  -0.206971  -0.424617   0.311812  -0.087721
     8  C   -0.020778   0.093371  -0.994848  -0.489927  -1.948097  -0.526474
     9  C    0.008576  -0.040774   0.337277   0.241322   1.067849   0.547429
    10  C   -0.005282   0.039959  -0.384609  -0.329198  -2.969015  -0.210344
    11  C    0.000231  -0.005783   0.032572   0.031442   0.037281   0.035232
    12  C    0.000534  -0.002511   0.082663   0.057536   1.478684  -0.014571
    13  C    0.001278  -0.002905   0.064563   0.053341   0.105327   0.088603
    14  H    0.417998  -0.108570   0.039039   0.000702  -0.001518   0.000008
    15  H    0.421417  -0.063454  -0.012325   0.000075  -0.000576  -0.000069
    16  H    0.423583  -0.063418  -0.012706  -0.000024  -0.002074  -0.000070
    17  H   -0.033170   0.420441  -0.065398   0.003335  -0.012547  -0.000311
    18  H   -0.036721   0.420785  -0.070049   0.003266  -0.005778  -0.000301
    19  H    0.005470  -0.059740   0.448272  -0.062541  -0.021812  -0.000427
    20  H   -0.004106  -0.054445   0.414952  -0.065736   0.009835  -0.000093
    21  H   -0.005314   0.016820  -0.159302   0.221051   0.094044   0.012291
    22  H    0.000000  -0.000192   0.004646   0.001534   0.028889   0.006527
    23  H   -0.000000   0.000028  -0.001097  -0.000996  -0.025116   0.000097
    24  H    0.000000   0.000000   0.000007   0.000002   0.001119   0.000009
    25  S   -0.000010   0.000151  -0.004326  -0.001472  -0.068163   0.002202
    26  F    0.000001   0.000009  -0.000243  -0.000089  -0.010739  -0.000588
    27  F   -0.000000   0.000001  -0.000087  -0.000038  -0.003388   0.000020
    28  F   -0.000000   0.000001  -0.000037  -0.000033  -0.001500   0.000011
    29  Cl  -0.000004   0.000081  -0.001037  -0.000607  -0.024360  -0.000431
    30  F   -0.000000   0.000000  -0.000009  -0.000003  -0.000863  -0.000013
    31  F    0.000000   0.000000   0.000018   0.000002   0.001269  -0.000012
               7          8          9         10         11         12
     1  C   -0.005656  -0.020778   0.008576  -0.005282   0.000231   0.000534
     2  C    0.037904   0.093371  -0.040774   0.039959  -0.005783  -0.002511
     3  C   -0.206971  -0.994848   0.337277  -0.384609   0.032572   0.082663
     4  N   -0.424617  -0.489927   0.241322  -0.329198   0.031442   0.057536
     5  C    0.311812  -1.948097   1.067849  -2.969015   0.037281   1.478684
     6  O   -0.087721  -0.526474   0.547429  -0.210344   0.035232  -0.014571
     7  N    7.578850   0.558655  -0.129102  -0.419942   0.187714   0.121635
     8  C    0.558655  21.543097  -4.434036  -0.910494   3.007310  -5.748057
     9  C   -0.129102  -4.434036  17.042844  -9.899576   1.305732  -4.013308
    10  C   -0.419942  -0.910494  -9.899576  35.437062  -3.970108  -9.996914
    11  C    0.187714   3.007310   1.305732  -3.970108  12.414515  -9.913471
    12  C    0.121635  -5.748057  -4.013308  -9.996914  -9.913471  52.604540
    13  C   -0.039866  -3.713342   3.514035  -0.024711   2.826056 -19.279275
    14  H    0.000013  -0.000047   0.000011  -0.000004  -0.000000   0.000000
    15  H    0.000015   0.000020  -0.000024   0.000002   0.000000   0.000000
    16  H    0.000006  -0.000032  -0.000017   0.000000   0.000000   0.000000
    17  H   -0.000542  -0.001212   0.000066  -0.000028   0.000003   0.000005
    18  H   -0.000281  -0.000520  -0.000049   0.000077   0.000002   0.000003
    19  H   -0.001959  -0.007356   0.002832  -0.001445   0.000028   0.000041
    20  H    0.000478  -0.003074   0.003089  -0.000542  -0.000005   0.000029
    21  H    0.038426   0.038014  -0.014301   0.009744   0.000428  -0.000520
    22  H   -0.011020   0.035463   0.339946   0.019517  -0.004987  -0.036470
    23  H   -0.010013   0.032709   0.044634   0.291536  -0.113284   0.076640
    24  H    0.000290  -0.016663   0.022541   0.091951   0.098467   0.122150
    25  S   -0.000147  -0.641439  -0.615827   0.200889  -0.404572   1.341765
    26  F   -0.000564   0.090347   0.217929   0.021809   0.041401  -0.420166
    27  F    0.000056   0.059229   0.100518   0.045007   0.051251  -0.210233
    28  F    0.000056   0.059688   0.097139   0.040133   0.058489  -0.218192
    29  Cl  -0.005946  -0.061905  -0.025919   0.363222  -0.271501  -0.298136
    30  F   -0.000015   0.008440   0.055491   0.008746   0.011900  -0.006221
    31  F    0.000141  -0.060049  -0.173919   0.034730  -0.070222   0.626051
              13         14         15         16         17         18
     1  C    0.001278   0.417998   0.421417   0.423583  -0.033170  -0.036721
     2  C   -0.002905  -0.108570  -0.063454  -0.063418   0.420441   0.420785
     3  C    0.064563   0.039039  -0.012325  -0.012706  -0.065398  -0.070049
     4  N    0.053341   0.000702   0.000075  -0.000024   0.003335   0.003266
     5  C    0.105327  -0.001518  -0.000576  -0.002074  -0.012547  -0.005778
     6  O    0.088603   0.000008  -0.000069  -0.000070  -0.000311  -0.000301
     7  N   -0.039866   0.000013   0.000015   0.000006  -0.000542  -0.000281
     8  C   -3.713342  -0.000047   0.000020  -0.000032  -0.001212  -0.000520
     9  C    3.514035   0.000011  -0.000024  -0.000017   0.000066  -0.000049
    10  C   -0.024711  -0.000004   0.000002   0.000000  -0.000028   0.000077
    11  C    2.826056  -0.000000   0.000000   0.000000   0.000003   0.000002
    12  C  -19.279275   0.000000   0.000000   0.000000   0.000005   0.000003
    13  C   23.964295   0.000000   0.000000   0.000001   0.000006   0.000004
    14  H    0.000000   0.521025  -0.026216  -0.026434  -0.003165  -0.003201
    15  H    0.000000  -0.026216   0.503577  -0.028453  -0.004997   0.004176
    16  H    0.000001  -0.026434  -0.028453   0.503532   0.004147  -0.004982
    17  H    0.000006  -0.003165  -0.004997   0.004147   0.523295  -0.034763
    18  H    0.000004  -0.003201   0.004176  -0.004982  -0.034763   0.523630
    19  H    0.000179  -0.000069  -0.000357   0.002802   0.004246  -0.006074
    20  H    0.000214  -0.000081   0.002860  -0.000318  -0.006433   0.004273
    21  H   -0.000911  -0.000002   0.000000  -0.000000   0.000378   0.000450
    22  H   -0.093140   0.000000  -0.000000  -0.000000  -0.000000   0.000000
    23  H   -0.001321  -0.000000  -0.000000  -0.000000  -0.000000  -0.000000
    24  H   -0.023342   0.000000  -0.000000  -0.000000   0.000000   0.000000
    25  S   -0.383414  -0.000000  -0.000000  -0.000000  -0.000000  -0.000000
    26  F    0.078717  -0.000000   0.000000   0.000000   0.000000   0.000000
    27  F   -0.078375  -0.000000  -0.000000  -0.000000  -0.000000  -0.000000
    28  F   -0.061312  -0.000000  -0.000000  -0.000000  -0.000000  -0.000000
    29  Cl   0.073912  -0.000000   0.000000  -0.000000  -0.000000  -0.000000
    30  F   -0.220381  -0.000000   0.000000  -0.000000  -0.000000  -0.000000
    31  F   -0.418868  -0.000000   0.000000   0.000000   0.000000   0.000000
              19         20         21         22         23         24
     1  C    0.005470  -0.004106  -0.005314   0.000000  -0.000000   0.000000
     2  C   -0.059740  -0.054445   0.016820  -0.000192   0.000028   0.000000
     3  C    0.448272   0.414952  -0.159302   0.004646  -0.001097   0.000007
     4  N   -0.062541  -0.065736   0.221051   0.001534  -0.000996   0.000002
     5  C   -0.021812   0.009835   0.094044   0.028889  -0.025116   0.001119
     6  O   -0.000427  -0.000093   0.012291   0.006527   0.000097   0.000009
     7  N   -0.001959   0.000478   0.038426  -0.011020  -0.010013   0.000290
     8  C   -0.007356  -0.003074   0.038014   0.035463   0.032709  -0.016663
     9  C    0.002832   0.003089  -0.014301   0.339946   0.044634   0.022541
    10  C   -0.001445  -0.000542   0.009744   0.019517   0.291536   0.091951
    11  C    0.000028  -0.000005   0.000428  -0.004987  -0.113284   0.098467
    12  C    0.000041   0.000029  -0.000520  -0.036470   0.076640   0.122150
    13  C    0.000179   0.000214  -0.000911  -0.093140  -0.001321  -0.023342
    14  H   -0.000069  -0.000081  -0.000002   0.000000  -0.000000   0.000000
    15  H   -0.000357   0.002860   0.000000  -0.000000  -0.000000  -0.000000
    16  H    0.002802  -0.000318  -0.000000  -0.000000  -0.000000  -0.000000
    17  H    0.004246  -0.006433   0.000378  -0.000000  -0.000000   0.000000
    18  H   -0.006074   0.004273   0.000450   0.000000  -0.000000   0.000000
    19  H    0.531836  -0.042338   0.002696  -0.000001  -0.000000   0.000000
    20  H   -0.042338   0.533639   0.002717  -0.000000  -0.000000   0.000000
    21  H    0.002696   0.002717   0.333512  -0.000003   0.000005  -0.000000
    22  H   -0.000001  -0.000000  -0.000003   0.398823  -0.000093  -0.000131
    23  H   -0.000000  -0.000000   0.000005  -0.000093   0.480444  -0.000162
    24  H    0.000000   0.000000  -0.000000  -0.000131  -0.000162   0.471890
    25  S   -0.000013   0.000005   0.000006  -0.003549   0.002119  -0.000753
    26  F   -0.000000   0.000000   0.000000   0.002326  -0.000000   0.000153
    27  F   -0.000000   0.000000  -0.000000   0.000074   0.000001   0.000177
    28  F    0.000000  -0.000000  -0.000000   0.000066   0.000001   0.000178
    29  Cl  -0.000000   0.000000  -0.000001  -0.000059   0.004381   0.001357
    30  F   -0.000000  -0.000000   0.000000   0.000162   0.000000   0.000162
    31  F    0.000000  -0.000000  -0.000000   0.000074   0.000001  -0.000006
              25         26         27         28         29         30
     1  C   -0.000010   0.000001  -0.000000  -0.000000  -0.000004  -0.000000
     2  C    0.000151   0.000009   0.000001   0.000001   0.000081   0.000000
     3  C   -0.004326  -0.000243  -0.000087  -0.000037  -0.001037  -0.000009
     4  N   -0.001472  -0.000089  -0.000038  -0.000033  -0.000607  -0.000003
     5  C   -0.068163  -0.010739  -0.003388  -0.001500  -0.024360  -0.000863
     6  O    0.002202  -0.000588   0.000020   0.000011  -0.000431  -0.000013
     7  N   -0.000147  -0.000564   0.000056   0.000056  -0.005946  -0.000015
     8  C   -0.641439   0.090347   0.059229   0.059688  -0.061905   0.008440
     9  C   -0.615827   0.217929   0.100518   0.097139  -0.025919   0.055491
    10  C    0.200889   0.021809   0.045007   0.040133   0.363222   0.008746
    11  C   -0.404572   0.041401   0.051251   0.058489  -0.271501   0.011900
    12  C    1.341765  -0.420166  -0.210233  -0.218192  -0.298136  -0.006221
    13  C   -0.383414   0.078717  -0.078375  -0.061312   0.073912  -0.220381
    14  H   -0.000000  -0.000000  -0.000000  -0.000000  -0.000000  -0.000000
    15  H   -0.000000   0.000000  -0.000000  -0.000000   0.000000   0.000000
    16  H   -0.000000   0.000000  -0.000000  -0.000000  -0.000000  -0.000000
    17  H   -0.000000   0.000000  -0.000000  -0.000000  -0.000000  -0.000000
    18  H   -0.000000   0.000000  -0.000000  -0.000000  -0.000000  -0.000000
    19  H   -0.000013  -0.000000  -0.000000   0.000000  -0.000000  -0.000000
    20  H    0.000005   0.000000   0.000000  -0.000000   0.000000  -0.000000
    21  H    0.000006   0.000000  -0.000000  -0.000000  -0.000001   0.000000
    22  H   -0.003549   0.002326   0.000074   0.000066  -0.000059   0.000162
    23  H    0.002119  -0.000000   0.000001   0.000001   0.004381   0.000000
    24  H   -0.000753   0.000153   0.000177   0.000178   0.001357   0.000162
    25  S   14.235478  -0.024587  -0.005826  -0.008154  -0.003642   0.202725
    26  F   -0.024587   9.583615  -0.013911  -0.015802  -0.000291  -0.027437
    27  F   -0.005826  -0.013911   9.525363  -0.014658  -0.000301  -0.013177
    28  F   -0.008154  -0.015802  -0.014658   9.518906  -0.000449  -0.013591
    29  Cl  -0.003642  -0.000291  -0.000301  -0.000449  17.136672  -0.000003
    30  F    0.202725  -0.027437  -0.013177  -0.013591  -0.000003   9.467809
    31  F    0.029613  -0.041445  -0.013086  -0.012712   0.000270  -0.031011
              31
     1  C    0.000000
     2  C    0.000000
     3  C    0.000018
     4  N    0.000002
     5  C    0.001269
     6  O   -0.000012
     7  N    0.000141
     8  C   -0.060049
     9  C   -0.173919
    10  C    0.034730
    11  C   -0.070222
    12  C    0.626051
    13  C   -0.418868
    14  H   -0.000000
    15  H    0.000000
    16  H    0.000000
    17  H    0.000000
    18  H    0.000000
    19  H    0.000000
    20  H   -0.000000
    21  H   -0.000000
    22  H    0.000074
    23  H    0.000001
    24  H   -0.000006
    25  S    0.029613
    26  F   -0.041445
    27  F   -0.013086
    28  F   -0.012712
    29  Cl   0.000270
    30  F   -0.031011
    31  F    9.630996
 Mulliken charges:
               1
     1  C   -0.694234
     2  C   -0.381310
     3  C   -0.061503
     4  N   -0.678510
     5  C    0.597687
     6  O   -0.666204
     7  N   -0.491688
     8  C    0.052007
     9  C    0.397594
    10  C   -1.482173
    11  C    0.613878
    12  C   -0.354233
    13  C   -0.429370
    14  H    0.190512
    15  H    0.204329
    16  H    0.204456
    17  H    0.206645
    18  H    0.206053
    19  H    0.205729
    20  H    0.205081
    21  H    0.409769
    22  H    0.311596
    23  H    0.219487
    24  H    0.230604
    25  S    2.150940
    26  F   -0.480446
    27  F   -0.428620
    28  F   -0.428228
    29  Cl   0.114697
    30  F   -0.442712
    31  F   -0.501834
 Sum of Mulliken charges =  -1.00000
 Mulliken charges with hydrogens summed into heavy atoms:
               1
     1  C   -0.094937
     2  C    0.031387
     3  C    0.349308
     4  N   -0.268741
     5  C    0.597687
     6  O   -0.666204
     7  N   -0.491688
     8  C    0.052007
     9  C    0.709190
    10  C   -1.262686
    11  C    0.613878
    12  C   -0.123629
    13  C   -0.429370
    25  S    2.150940
    26  F   -0.480446
    27  F   -0.428620
    28  F   -0.428228
    29  Cl   0.114697
    30  F   -0.442712
    31  F   -0.501834
 Electronic spatial extent (au):  <R**2>=          10234.1634
 Charge=             -1.0000 electrons
 Dipole moment (field-independent basis, Debye):
    X=             -0.4914    Y=              0.3752    Z=              0.0779  Tot=              0.6231
 Quadrupole moment (field-independent basis, Debye-Ang):
   XX=           -162.1411   YY=           -156.0074   ZZ=           -138.7944
   XY=             -0.7574   XZ=             -0.1942   YZ=             -0.1612
 Traceless Quadrupole moment (field-independent basis, Debye-Ang):
   XX=             -9.8268   YY=             -3.6931   ZZ=             13.5199
   XY=             -0.7574   XZ=             -0.1942   YZ=             -0.1612
 Octapole moment (field-independent basis, Debye-Ang**2):
  XXX=             65.4511  YYY=            -79.6042  ZZZ=             -0.3563  XYY=              5.4614
  XXY=             14.7665  XXZ=              0.4717  XZZ=             22.1647  YZZ=            -21.2682
  YYZ=              0.0979  XYZ=              0.3201
 Hexadecapole moment (field-independent basis, Debye-Ang**3):
 XXXX=         -10430.7524 YYYY=          -3161.1332 ZZZZ=           -354.5293 XXXY=           -232.7323
 XXXZ=             -0.9311 YYYX=           -206.3782 YYYZ=             -0.8889 ZZZX=              0.0413
 ZZZY=             -0.4261 XXYY=          -2299.7883 XXZZ=          -1739.6856 YYZZ=           -573.1308
 XXYZ=             -0.7781 YYXZ=             -0.7818 ZZXY=            -32.3578
 N-N= 1.943391030437D+03 E-N=-8.462535424462D+03  KE= 1.917293878523D+03
 Calling FoFJK, ICntrl=      2127 FMM=F ISym2X=0 I1Cent= 0 IOpClX= 0 NMat=1 NMatS=1 NMatT=0.
 ***** Axes restored to original set *****
 -------------------------------------------------------------------
 Center     Atomic                   Forces (Hartrees/Bohr)
 Number     Number              X              Y              Z
 -------------------------------------------------------------------
      1        6          -0.007213771   -0.001055413   -0.000005451
      2        6           0.005187804   -0.002368320    0.000292281
      3        6           0.004851603    0.001051647   -0.000239376
      4        7          -0.009662697   -0.041332391    0.001814892
      5        6           0.066491021    0.011348542   -0.000057248
      6        8          -0.026726499    0.048123280   -0.002423999
      7        7           0.037704530   -0.025157778    0.001258876
      8        6          -0.076736478   -0.011797030   -0.000127112
      9        6           0.025673648    0.030252458   -0.001125827
     10        6           0.015784490   -0.012361597    0.001257346
     11        6          -0.024578744    0.007950560   -0.000950006
     12        6           0.019209257    0.022024507   -0.000593825
     13        6          -0.014587987   -0.047446285    0.002788591
     14        1           0.002612013    0.009711802   -0.000486697
     15        1          -0.001087204   -0.004206196    0.009585359
     16        1          -0.000459303   -0.004849429   -0.009380125
     17        1           0.000262639    0.003459413    0.008837141
     18        1           0.000892475    0.002945447   -0.008873459
     19        1          -0.000622149   -0.002062732   -0.009545978
     20        1          -0.000912816   -0.000841464    0.009888037
     21        1           0.000880170    0.020117531   -0.000992355
     22        1          -0.012340405    0.001105688   -0.000077231
     23        1          -0.004894294   -0.000545606   -0.000027446
     24        1           0.002991674    0.005825006   -0.000200134
     25       16          -0.009207277   -0.006595621    0.000751393
     26        9           0.054165429    0.000832123    0.001748571
     27        9           0.001265876    0.018581318    0.044411940
     28        9           0.004480602    0.012198978   -0.047068470
     29       17          -0.001110381    0.003163812   -0.000572895
     30        9          -0.007798034   -0.055535843    0.003273074
     31        9          -0.044515190    0.017463592   -0.003159865
 -------------------------------------------------------------------
 Cartesian Forces:  Max     0.076736478 RMS     0.020245043

 GradGradGradGradGradGradGradGradGradGradGradGradGradGradGradGradGradGrad
 Berny optimization.
 FormGI is forming the generalized inverse of G from B-inverse, IUseBI=4.
 GSVD:  received Info=                   1 from GESDD.
 Internal  Forces:  Max     0.071255100 RMS     0.014558512
 Search for a local minimum.
 Step number   1 out of a maximum of  166
 All quantities printed in internal units (Hartrees-Bohrs-Radians)
 Mixed Optimization -- RFO/linear search
 Second derivative matrix not updated -- first step.
 ITU=  0
     Eigenvalues ---    0.00230   0.00371   0.00473   0.01075   0.01075
     Eigenvalues ---    0.01213   0.01533   0.01815   0.01837   0.01874
     Eigenvalues ---    0.01999   0.02044   0.02164   0.02167   0.02189
     Eigenvalues ---    0.02200   0.02219   0.02240   0.03816   0.04528
     Eigenvalues ---    0.04973   0.05568   0.05744   0.05852   0.08012
     Eigenvalues ---    0.08676   0.08693   0.09170   0.11954   0.12632
     Eigenvalues ---    0.12937   0.12948   0.12963   0.12968   0.16000
     Eigenvalues ---    0.16000   0.16000   0.16000   0.16000   0.16000
     Eigenvalues ---    0.16000   0.16733   0.21957   0.21998   0.22000
     Eigenvalues ---    0.22059   0.23435   0.23478   0.23501   0.24999
     Eigenvalues ---    0.25000   0.25000   0.25000   0.25000   0.25000
     Eigenvalues ---    0.25000   0.25000   0.29438   0.30040   0.30159
     Eigenvalues ---    0.32334   0.32365   0.32370   0.32378   0.32501
     Eigenvalues ---    0.32516   0.32650   0.34544   0.34687   0.34712
     Eigenvalues ---    0.34723   0.34815   0.35572   0.36433   0.37648
     Eigenvalues ---    0.38695   0.40113   0.40184   0.40524   0.42309
     Eigenvalues ---    0.42905   0.44813   0.46040   0.47320   0.52085
     Eigenvalues ---    0.52922   0.94711
 RFO step:  Lambda=-8.26912437D-02 EMin= 2.30000000D-03
 Linear search not attempted -- first point.
 Maximum step size (   0.300) exceeded in Quadratic search.
    -- Step size scaled by   0.629
 Iteration  1 RMS(Cart)=  0.07519340 RMS(Int)=  0.00092008
 Iteration  2 RMS(Cart)=  0.00169708 RMS(Int)=  0.00017721
 Iteration  3 RMS(Cart)=  0.00000071 RMS(Int)=  0.00017721
 Variable       Old X    -DE/DX   Delta X   Delta X   Delta X     New X
                                 (Linear)    (Quad)   (Total)
    R1        2.87647   0.00559   0.00000   0.00916   0.00916   2.88563
    R2        2.09671  -0.00907   0.00000  -0.01395  -0.01395   2.08276
    R3        2.09910  -0.01011   0.00000  -0.01559  -0.01559   2.08351
    R4        2.09937  -0.01020   0.00000  -0.01574  -0.01574   2.08363
    R5        2.89098  -0.00283   0.00000  -0.00472  -0.00472   2.88626
    R6        2.10181  -0.00900   0.00000  -0.01393  -0.01393   2.08788
    R7        2.10158  -0.00890   0.00000  -0.01376  -0.01376   2.08781
    R8        2.73366  -0.00259   0.00000  -0.00347  -0.00347   2.73019
    R9        2.10172  -0.00864   0.00000  -0.01337  -0.01337   2.08835
   R10        2.10237  -0.00869   0.00000  -0.01346  -0.01346   2.08891
   R11        2.57027   0.01579   0.00000   0.01623   0.01623   2.58650
   R12        1.95231  -0.01987   0.00000  -0.02470  -0.02470   1.92761
   R13        2.30835   0.05108   0.00000   0.03120   0.03120   2.33955
   R14        2.57818  -0.01459   0.00000  -0.01521  -0.01521   2.56298
   R15        2.71401  -0.07126   0.00000  -0.09264  -0.09264   2.62137
   R16        2.67852   0.00121   0.00000   0.00136   0.00133   2.67985
   R17        2.64677   0.00689   0.00000   0.00874   0.00862   2.65539
   R18        2.68477  -0.02467   0.00000  -0.03149  -0.03141   2.65336
   R19        2.01581   0.01040   0.00000   0.01424   0.01424   2.03006
   R20        2.62020  -0.00204   0.00000  -0.00152  -0.00161   2.61859
   R21        2.04756   0.00112   0.00000   0.00161   0.00161   2.04917
   R22        2.62826   0.00022   0.00000   0.00037   0.00040   2.62866
   R23        3.31583  -0.00286   0.00000  -0.00469  -0.00469   3.31114
   R24        2.67168  -0.01782   0.00000  -0.02238  -0.02226   2.64942
   R25        2.03410   0.00463   0.00000   0.00651   0.00651   2.04061
   R26        3.51033  -0.01313   0.00000  -0.02724  -0.02724   3.48309
   R27        3.23187  -0.05299   0.00000  -0.07759  -0.07759   3.15428
   R28        3.23144  -0.04538   0.00000  -0.06640  -0.06640   3.16504
   R29        3.23421  -0.04631   0.00000  -0.06803  -0.06803   3.16618
   R30        3.23127  -0.05617   0.00000  -0.08218  -0.08218   3.14909
   R31        3.22976  -0.04628   0.00000  -0.06757  -0.06757   3.16218
    A1        1.90870   0.00560   0.00000   0.01525   0.01518   1.92388
    A2        1.92179   0.00245   0.00000   0.00594   0.00591   1.92770
    A3        1.92285   0.00213   0.00000   0.00519   0.00515   1.92801
    A4        1.90243  -0.00363   0.00000  -0.00878  -0.00884   1.89359
    A5        1.89937  -0.00337   0.00000  -0.00795  -0.00801   1.89135
    A6        1.90842  -0.00331   0.00000  -0.00996  -0.00997   1.89845
    A7        1.93654   0.00255   0.00000   0.00666   0.00665   1.94319
    A8        1.90519   0.00023   0.00000   0.00244   0.00245   1.90763
    A9        1.90332   0.00050   0.00000   0.00323   0.00324   1.90656
   A10        1.90773  -0.00095   0.00000  -0.00238  -0.00240   1.90533
   A11        1.91239  -0.00128   0.00000  -0.00346  -0.00348   1.90891
   A12        1.89826  -0.00111   0.00000  -0.00674  -0.00675   1.89151
   A13        1.92912  -0.00147   0.00000  -0.00125  -0.00125   1.92787
   A14        1.91519   0.00042   0.00000   0.00051   0.00051   1.91569
   A15        1.90851   0.00085   0.00000   0.00202   0.00201   1.91053
   A16        1.90319   0.00164   0.00000   0.00543   0.00543   1.90862
   A17        1.90241   0.00153   0.00000   0.00541   0.00540   1.90781
   A18        1.90520  -0.00300   0.00000  -0.01226  -0.01226   1.89294
   A19        2.12563  -0.00182   0.00000  -0.00377  -0.00377   2.12185
   A20        2.07890   0.00427   0.00000   0.01060   0.01060   2.08950
   A21        2.07864  -0.00245   0.00000  -0.00682  -0.00682   2.07182
   A22        2.08444  -0.00497   0.00000  -0.00939  -0.00939   2.07505
   A23        2.07481  -0.03773   0.00000  -0.07133  -0.07133   2.00348
   A24        2.12393   0.04270   0.00000   0.08072   0.08072   2.20466
   A25        2.24824  -0.05062   0.00000  -0.09571  -0.09571   2.15253
   A26        2.18089   0.00141   0.00000   0.00168   0.00176   2.18266
   A27        2.03567   0.00083   0.00000   0.00058   0.00065   2.03632
   A28        2.06662  -0.00224   0.00000  -0.00226  -0.00241   2.06420
   A29        2.11954  -0.00858   0.00000  -0.01833  -0.01827   2.10127
   A30        2.08692  -0.00249   0.00000  -0.00841  -0.00844   2.07848
   A31        2.07672   0.01107   0.00000   0.02674   0.02672   2.10343
   A32        2.11450  -0.00603   0.00000  -0.00876  -0.00897   2.10554
   A33        2.09496  -0.00189   0.00000  -0.00834  -0.00824   2.08672
   A34        2.07371   0.00793   0.00000   0.01711   0.01721   2.09092
   A35        2.09814   0.01014   0.00000   0.02171   0.02165   2.11979
   A36        2.09128  -0.00206   0.00000  -0.00516  -0.00513   2.08615
   A37        2.09374  -0.00808   0.00000  -0.01654  -0.01651   2.07723
   A38        2.11859  -0.02020   0.00000  -0.04182  -0.04166   2.07693
   A39        2.02399   0.01482   0.00000   0.03313   0.03305   2.05704
   A40        2.14060   0.00538   0.00000   0.00869   0.00861   2.14921
   A41        2.04897   0.02691   0.00000   0.04946   0.04967   2.09864
   A42        2.12753  -0.01294   0.00000  -0.02376  -0.02387   2.10367
   A43        2.10668  -0.01397   0.00000  -0.02569  -0.02580   2.08088
   A44        1.61368   0.00915   0.00000   0.02795   0.02793   1.64162
   A45        1.56920   0.01354   0.00000   0.03956   0.03951   1.60872
   A46        1.57700   0.01199   0.00000   0.03610   0.03606   1.61306
   A47        1.61203   0.01009   0.00000   0.02905   0.02903   1.64106
   A48        1.57416  -0.00036   0.00000  -0.00094  -0.00204   1.57212
   A49        1.57159  -0.00021   0.00000  -0.00029  -0.00131   1.57028
   A50        1.52783  -0.00848   0.00000  -0.02602  -0.02600   1.50183
   A51        1.56807  -0.01299   0.00000  -0.03797  -0.03793   1.53014
   A52        1.57060  -0.00104   0.00000  -0.00335  -0.00447   1.56613
   A53        1.56891  -0.01254   0.00000  -0.03769  -0.03765   1.53125
   A54        1.56644  -0.00063   0.00000  -0.00204  -0.00309   1.56335
   A55        1.52966  -0.01076   0.00000  -0.03099  -0.03097   1.49868
   A56        3.14151   0.00067   0.00000   0.00193   0.00194   3.14345
   A57        3.22571   0.01924   0.00000   0.05700   0.05696   3.28268
   A58        3.14621   0.02552   0.00000   0.07565   0.07557   3.22178
   A59        3.14591  -0.00055   0.00000  -0.00159  -0.00159   3.14433
   A60        3.14463  -0.00028   0.00000  -0.00106  -0.00103   3.14360
   A61        3.13723  -0.00057   0.00000  -0.00215  -0.00214   3.13509
    D1        3.14064   0.00003   0.00000   0.00006   0.00006   3.14069
    D2        1.03718  -0.00054   0.00000  -0.00277  -0.00277   1.03441
    D3       -1.03452   0.00038   0.00000   0.00206   0.00207  -1.03245
    D4        1.05066  -0.00049   0.00000  -0.00230  -0.00231   1.04835
    D5       -1.05279  -0.00107   0.00000  -0.00512  -0.00514  -1.05794
    D6       -3.12449  -0.00015   0.00000  -0.00029  -0.00030  -3.12479
    D7       -1.05568   0.00068   0.00000   0.00294   0.00295  -1.05273
    D8        3.12405   0.00010   0.00000   0.00011   0.00012   3.12417
    D9        1.05235   0.00102   0.00000   0.00494   0.00497   1.05731
   D10        3.13273   0.00002   0.00000   0.00001   0.00000   3.13274
   D11        1.03314  -0.00135   0.00000  -0.00628  -0.00628   1.02686
   D12       -1.05609   0.00154   0.00000   0.00719   0.00719  -1.04890
   D13       -1.04851   0.00130   0.00000   0.00570   0.00569  -1.04281
   D14        3.13508  -0.00007   0.00000  -0.00058  -0.00059   3.13449
   D15        1.04586   0.00282   0.00000   0.01289   0.01288   1.05873
   D16        1.03007  -0.00139   0.00000  -0.00601  -0.00600   1.02407
   D17       -1.06953  -0.00276   0.00000  -0.01229  -0.01228  -1.08181
   D18        3.12443   0.00013   0.00000   0.00118   0.00119   3.12562
   D19        3.13691   0.00014   0.00000   0.00057   0.00057   3.13747
   D20        0.00107   0.00015   0.00000   0.00057   0.00057   0.00164
   D21       -1.03952   0.00080   0.00000   0.00390   0.00390  -1.03562
   D22        2.10783   0.00080   0.00000   0.00390   0.00391   2.11174
   D23        1.03888  -0.00097   0.00000  -0.00458  -0.00458   1.03430
   D24       -2.09696  -0.00096   0.00000  -0.00457  -0.00457  -2.10153
   D25        0.01044  -0.00004   0.00000  -0.00025  -0.00026   0.01017
   D26       -3.12998  -0.00025   0.00000  -0.00145  -0.00144  -3.13142
   D27       -3.13691  -0.00003   0.00000  -0.00020  -0.00021  -3.13713
   D28        0.00586  -0.00023   0.00000  -0.00140  -0.00139   0.00447
   D29        3.13167   0.00031   0.00000   0.00194   0.00197   3.13364
   D30       -0.00872   0.00014   0.00000   0.00078   0.00076  -0.00796
   D31       -0.01447   0.00017   0.00000   0.00112   0.00112  -0.01335
   D32        3.12387   0.00033   0.00000   0.00220   0.00221   3.12608
   D33        3.13469   0.00029   0.00000   0.00172   0.00171   3.13640
   D34       -0.00532   0.00024   0.00000   0.00146   0.00146  -0.00386
   D35       -0.00360   0.00012   0.00000   0.00062   0.00060  -0.00299
   D36        3.13958   0.00007   0.00000   0.00036   0.00035   3.13993
   D37       -3.13486  -0.00022   0.00000  -0.00137  -0.00138  -3.13623
   D38        0.00136  -0.00008   0.00000  -0.00053  -0.00053   0.00083
   D39        0.00370  -0.00006   0.00000  -0.00036  -0.00036   0.00335
   D40        3.13992   0.00007   0.00000   0.00048   0.00049   3.14041
   D41        0.00320  -0.00012   0.00000  -0.00074  -0.00075   0.00245
   D42       -3.13621  -0.00014   0.00000  -0.00101  -0.00101  -3.13722
   D43       -3.13997  -0.00008   0.00000  -0.00052  -0.00052  -3.14049
   D44        0.00381  -0.00011   0.00000  -0.00078  -0.00079   0.00302
   D45       -0.00351   0.00004   0.00000   0.00031   0.00032  -0.00319
   D46        3.12962   0.00026   0.00000   0.00171   0.00173   3.13134
   D47       -3.13980  -0.00007   0.00000  -0.00045  -0.00045  -3.14025
   D48       -0.00667   0.00015   0.00000   0.00096   0.00096  -0.00571
   D49        0.00313  -0.00011   0.00000  -0.00060  -0.00059   0.00254
   D50        3.14131   0.00003   0.00000   0.00023   0.00024   3.14154
   D51       -3.12998  -0.00036   0.00000  -0.00206  -0.00205  -3.13203
   D52        0.00819  -0.00022   0.00000  -0.00123  -0.00122   0.00697
   D53       -0.00294   0.00014   0.00000   0.00078   0.00077  -0.00216
   D54        3.13650   0.00016   0.00000   0.00104   0.00104   3.13753
   D55       -3.14088  -0.00003   0.00000  -0.00015  -0.00014  -3.14102
   D56       -0.00144   0.00000   0.00000   0.00011   0.00012  -0.00132
   D57       -0.01513  -0.00011   0.00000  -0.00058  -0.00057  -0.01570
   D58       -1.58923  -0.00032   0.00000  -0.00129  -0.00129  -1.59052
   D59        1.55673   0.00025   0.00000   0.00086   0.00085   1.55758
   D60        3.12343   0.00017   0.00000   0.00048   0.00046   3.12388
   D61        3.12872  -0.00019   0.00000  -0.00095  -0.00092   3.12780
   D62        1.55462  -0.00040   0.00000  -0.00166  -0.00165   1.55298
   D63       -1.58261   0.00017   0.00000   0.00049   0.00049  -1.58211
   D64       -0.01591   0.00009   0.00000   0.00011   0.00010  -0.01581
         Item               Value     Threshold  Converged?
 Maximum Force            0.071255     0.000450     NO 
 RMS     Force            0.014559     0.000300     NO 
 Maximum Displacement     0.286154     0.001800     NO 
 RMS     Displacement     0.076159     0.001200     NO 
 Predicted change in Energy=-3.940041D-02
 GradGradGradGradGradGradGradGradGradGradGradGradGradGradGradGradGradGrad

                          Input orientation:                          
 ---------------------------------------------------------------------
 Center     Atomic      Atomic             Coordinates (Angstroms)
 Number     Number       Type             X           Y           Z
 ---------------------------------------------------------------------
      1          6           0       -1.815588    1.602544   -0.058646
      2          6           0       -0.394363    1.046087   -0.011414
      3          6           0        0.642549    2.167196   -0.037928
      4          7           0        1.978725    1.620698    0.019409
      5          6           0        3.084249    2.427521    0.004180
      6          8           0        2.928567    3.654562   -0.049366
      7          7           0        4.269243    1.769456    0.051117
      8          6           0        5.498787    2.411499    0.035553
      9          6           0        5.683779    3.815147   -0.045706
     10          6           0        6.638689    1.593141    0.109202
     11          6           0        7.908175    2.148613    0.106231
     12          6           0        8.098372    3.524301    0.027101
     13          6           0        6.976879    4.362306   -0.048042
     14          1           0       -2.548065    0.779227   -0.039593
     15          1           0       -1.970052    2.186820   -0.980802
     16          1           0       -2.003335    2.254776    0.810317
     17          1           0       -0.233103    0.382203   -0.879726
     18          1           0       -0.266960    0.450791    0.910555
     19          1           0        0.485495    2.841844    0.823146
     20          1           0        0.527134    2.753783   -0.967717
     21          1           0        2.110192    0.610304    0.067556
     22          1           0        4.821407    4.453061   -0.104127
     23          1           0        6.521445    0.517022    0.173136
     24          1           0        9.112804    3.894420    0.029266
     25         16           0        7.221534    6.186508   -0.146590
     26          9           0        5.588158    6.520499   -0.228278
     27          9           0        7.299948    6.149790   -1.819218
     28          9           0        7.171716    6.354740    1.519670
     29         17           0        9.309073    1.101788    0.214778
     30          9           0        7.445964    7.835104   -0.240085
     31          9           0        8.890249    6.085329   -0.073961
 ---------------------------------------------------------------------
                    Distance matrix (angstroms):
                    1          2          3          4          5
     1  C    0.000000
     2  C    1.527009   0.000000
     3  C    2.522240   1.527343   0.000000
     4  N    3.795159   2.441859   1.444754   0.000000
     5  C    4.969198   3.742906   2.455899   1.368714   0.000000
     6  O    5.168933   4.224624   2.727319   2.245781   1.238036
     7  N    6.088109   4.719787   3.649525   2.295562   1.356268
     8  C    7.359576   6.049444   4.862934   3.607833   2.414795
     9  C    7.818969   6.679272   5.303754   4.306654   2.947126
    10  C    8.455948   7.055326   6.025353   4.660910   3.652569
    11  C    9.740479   8.376249   7.267080   5.953538   4.833060
    12  C   10.098866   8.847009   7.578605   6.408887   5.132726
    13  C    9.215415   8.082936   6.703905   5.701097   4.347262
    14  H    1.102151   2.170355   3.479437   4.604713   5.868709
    15  H    1.102548   2.173427   2.777604   4.112635   5.155006
    16  H    1.102612   2.173698   2.779908   4.109062   5.153950
    17  H    2.160477   1.104858   2.159072   2.689702   3.996178
    18  H    2.159660   1.104824   2.161683   2.684386   3.994944
    19  H    2.758334   2.166884   1.105108   2.089720   2.756064
    20  H    2.764075   2.163308   1.105402   2.089358   2.754971
    21  H    4.051199   2.543411   2.142199   1.020048   2.062785
[...]
 7,-0.00001112,-0.00000863,-0.00002751,-0.00000120,-0.00001207,0.000004
 15,0.00001369,0.00003466,-0.00000501,-0.00003022,0.00008322,0.00001245
 ,0.00007933,-0.00008899,-0.00006153,-0.00004489,0.00103267,-0.00005977
 ,-0.00119575,0.00012201,0.00000862,-0.00009059,0.00031262,-0.00063845,
 -0.00019775,-0.13714610,0.03286499,-0.07027484,0.19231232,-0.00002014,
 -0.00006221,0.00003775,-0.00005524,0.00005085,-0.00007864,0.00052075,-
 0.00025657,0.00005534,-0.00147491,-0.00033388,0.00031445,0.00369920,-0
 .00165861,-0.00018902,-0.00135889,0.00150696,-0.00003936,-0.00407678,-
 0.00075928,-0.00006107,0.00306097,0.00347868,0.00011347,-0.00055928,-0
 .00609395,0.00193083,0.00047103,-0.00051313,0.00008403,-0.00012920,-0.
 00047970,-0.00129938,-0.00495822,-0.00373135,0.00227379,0.02241648,-0.
 00656781,0.01650057,-0.00006041,-0.00000648,0.00001107,-0.00000249,0.0
 0000157,-0.00002179,0.00000104,0.00003269,0.00000122,-0.00000078,-0.00
 000041,0.00000592,0.00002010,0.00000189,-0.00000225,0.00003603,0.00004
 297,0.00001794,-0.00017938,0.00000059,-0.00014800,0.00009690,0.0000971
 2,-0.00006017,0.00096424,-0.00206016,0.00046140,0.00003494,-0.00012574
 ,-0.00000257,0.00018105,0.00011647,0.00048408,0.03099431,-0.08627714,0
 .03136518,-0.02228869,0.09618471,0.00000372,0.00002433,-0.00001437,0.0
 0003854,-0.00002296,0.00002031,-0.00022963,0.00011950,-0.00009153,0.00
 061966,-0.00001025,-0.00005198,-0.00189621,0.00142213,0.00004578,0.000
 67572,-0.00127644,0.00049036,0.00212177,0.00046497,0.00008214,-0.00097
 292,-0.00139446,0.00024770,0.00107147,0.00302772,0.00125948,0.00024621
 ,0.00019652,-0.00001289,-0.00102354,-0.00041292,0.00031062,0.00376050,
 0.00453188,-0.00057274,-0.01454715,-0.00703003,-0.00279012,0.00001327,
 -0.00000660,0.00000227,0.00000853,0.00000817,0.00001866,0.00000378,-0.
 00001372,-0.00001202,-0.00000424,-0.00001091,0.00000020,-0.00001332,-0
 .00000345,0.00002469,0.00000193,-0.00001155,-0.00003790,0.00009636,0.0
 0001961,0.00010496,-0.00006054,-0.00004059,-0.00004227,-0.00031722,0.0
 0100050,-0.00134160,0.00002983,0.00006536,-0.00005646,0.00003464,-0.00
 027687,-0.00037993,-0.06735163,0.03310572,-0.13187561,0.10720016,-0.02
 455403,0.18018631,-0.00001352,-0.00002070,0.00003036,-0.00001947,0.000
 03200,-0.00004248,0.00029816,-0.00009649,0.00007850,-0.00075733,-0.000
 38633,0.00010794,0.00110787,0.00093606,0.00000572,-0.00070177,-0.00053
 306,-0.00005339,-0.00031579,-0.00120574,-0.00012280,-0.00094317,0.0012
 9531,-0.00102868,0.00282065,-0.00503938,0.00102036,0.00053365,-0.00049
 956,0.00013353,0.00008392,-0.00005489,-0.00109947,-0.00230794,-0.00159
 573,-0.00056818,-0.01109959,0.00731736,0.01365853,-0.00004647,-0.00001
 270,0.00001479,0.00000017,0.00000270,-0.00002094,0.00001021,0.00000803
 ,-0.00000442,-0.00000589,-0.00002551,0.00000272,0.00000934,0.00000853,
 -0.00000312,0.00005333,0.00003308,0.00000131,-0.00008835,-0.00000265,-
 0.00008341,0.00004430,0.00004914,-0.00003038,0.00087874,0.00063775,0.0
 0041428,0.00014839,-0.00009753,0.00013716,0.00145068,-0.00050097,0.001
 02972,-0.13127373,-0.01673706,0.06673642,-0.04098845,0.00140529,0.0122
 3425,0.17388454,-0.00001921,-0.00004995,0.00003483,-0.00004508,0.00004
 643,-0.00006882,0.00044980,-0.00020386,0.00005171,-0.00126987,-0.00030
 899,0.00028495,0.00301348,-0.00117879,-0.00018996,-0.00103781,0.001095
 47,0.00000544,-0.00325095,-0.00078302,-0.00006844,0.00146155,0.0005541
 2,-0.00126910,0.00307123,-0.00412796,0.00139407,-0.00151744,-0.0007056
 9,0.00007383,-0.00080664,0.00223066,0.00073738,-0.00044668,-0.00576287
 ,0.00234262,-0.01987628,-0.00306642,0.01523606,-0.00005711,-0.00000945
 ,0.00001281,-0.00000065,0.00000291,-0.00001961,0.00000412,0.00002565,-
 0.00000180,-0.00000136,-0.00000736,0.00000486,0.00001546,0.00000313,0.
 00000073,0.00003754,0.00004075,0.00000907,-0.00014928,0.00000047,-0.00
 012331,0.00009122,0.00008785,-0.00005241,0.00019779,-0.00003005,0.0005
 3221,-0.00005966,-0.00005577,-0.00008448,-0.00100069,-0.00172678,0.000
 14701,-0.01524902,-0.07447657,0.01531924,0.01067333,0.00752243,-0.0023
 1573,-0.00177740,0.09167621,0.00000930,0.00001916,-0.00002559,0.000026
 66,-0.00002806,0.00003158,-0.00026279,0.00009575,-0.00009767,0.0006808
 3,0.00022971,-0.00006846,-0.00132709,-0.00015324,-0.00001668,0.0006294
 4,-0.00006650,0.00019636,0.00080210,0.00122649,0.00025461,0.00130311,-
 0.00168990,0.00021636,-0.00206436,0.00618450,-0.00018783,-0.00036170,0
 .00038523,-0.00004229,0.00035969,-0.00008631,0.00043672,0.00036393,0.0
 0274387,0.00131479,0.01229409,-0.01118270,-0.00479707,0.00003244,0.000
 00500,-0.00000815,0.00000368,0.00000188,0.00002187,-0.00000522,-0.0000
 0818,-0.00000204,0.00000184,0.00001378,-0.00000160,-0.00001018,-0.0000
 0682,0.00001383,-0.00003382,-0.00002523,-0.00001340,0.00008848,0.00000
 970,0.00009262,-0.00005169,-0.00004880,-0.00000087,-0.00061960,-0.0003
 5713,-0.00041494,-0.00004808,0.00009513,-0.00007119,-0.00015620,0.0009
 6902,-0.00153295,0.06578970,0.01752999,-0.13192737,-0.00873015,0.00069
 246,0.00873013,-0.10161558,0.00144276,0.18583114,0.00000937,0.00003594
 ,-0.00000817,0.00003204,-0.00000945,0.00004810,-0.00012446,0.00012675,
 0.00004042,0.00053531,-0.00016191,-0.00015231,-0.00224619,0.00243718,0
 .00023952,0.00052676,-0.00200447,-0.00050979,0.00249174,0.00041633,0.0
 0005188,0.00009414,-0.00173086,-0.00130231,-0.00125294,0.00206970,-0.0
 0124901,0.00001578,-0.00000719,0.00021307,-0.00029378,-0.00002114,-0.0
 0060738,0.00360820,0.00255911,0.00133617,-0.00837404,-0.00711739,0.008
 26571,0.00001017,-0.00000393,0.00000386,-0.00000284,-0.00000468,-0.000
 01155,0.00001081,-0.00002067,0.00000340,-0.00000632,-0.00002504,-0.000
 00762,-0.00000248,0.00001298,-0.00002039,0.00003213,-0.00001196,0.0000
 1410,0.00004834,-0.00001663,0.00001357,-0.00008373,-0.00007094,0.00003
 385,0.00112484,-0.00030950,0.00102484,0.00012654,-0.00000871,0.0000761
 5,0.00031975,-0.00063953,0.00005409,-0.12967302,0.02041292,0.07389960,
 0.00821213,0.00035749,-0.01206233,-0.00009418,-0.00081129,0.00504971,0
 .18097169,-0.00002058,-0.00005860,0.00003482,-0.00004838,0.00004897,-0
 .00008000,0.00047344,-0.00023489,0.00002432,-0.00136181,-0.00034430,0.
 00033991,0.00335541,-0.00139842,-0.00032907,-0.00123041,0.00126873,0.0
 0016720,-0.00369703,-0.00069413,0.00004925,0.00288135,0.00321639,0.000
 14776,-0.00058456,-0.00521282,-0.00291996,0.00048245,-0.00045305,-0.00
 018807,-0.00019159,-0.00070700,0.00115184,-0.00444686,-0.00268174,-0.0
 0234022,0.01904999,-0.00494748,-0.01780941,-0.00005911,-0.00000892,0.0
 0001200,0.00000044,0.00000500,-0.00001529,0.00000158,0.00003070,-0.000
 00352,-0.00000146,-0.00000203,0.00000695,0.00001709,-0.00000035,0.0000
 0765,0.00003549,0.00004068,0.00000550,-0.00015760,0.00000604,-0.000121
 59,0.00008765,0.00009160,-0.00006845,0.00090619,-0.00183921,-0.0005729
 0,0.00004005,-0.00011530,-0.00000623,0.00015900,0.00013691,-0.00041269
 ,0.01909014,-0.07732781,-0.02373815,-0.00106829,0.00870825,0.00826714,
 0.00245552,0.00899488,-0.00172617,-0.00489773,0.09063820,-0.00001771,-
 0.00004445,0.00002109,-0.00003351,0.00002193,-0.00007955,0.00023867,-0
 .00016150,-0.00005664,-0.00086737,-0.00012399,0.00028306,0.00254130,-0
 .00164581,-0.00033655,-0.00086615,0.00142951,0.00071147,-0.00281120,-0
 .00061967,0.00007276,0.00142126,0.00193202,0.00049294,-0.00104956,-0.0
 0415025,0.00047106,-0.00017596,-0.00026219,-0.00007551,0.00104503,0.00
 026775,0.00051435,-0.00473317,-0.00501784,-0.00147907,0.01797856,0.007
 17156,-0.00566346,-0.00003491,-0.00000634,0.00000472,0.00000757,0.0000
 1044,0.00001066,-0.00000412,0.00002362,-0.00001193,0.00000135,0.000009
 22,0.00001031,0.00000325,-0.00000989,0.00003463,0.00000435,0.00002862,
 -0.00002742,-0.00007656,0.00002362,-0.00002554,0.00007987,0.00007705,-
 0.00008388,0.00031408,-0.00106573,-0.00166087,-0.00003533,-0.00007379,
 -0.00006749,-0.00005091,0.00039269,-0.00039617,0.07077620,-0.02556164,
 -0.14781157,0.00936393,-0.00029062,-0.04305255,0.00571124,0.00165584,-
 0.00074598,-0.10905799,0.01074964,0.19683067,-0.00002885,-0.00005084,0
 .00005135,-0.00006126,0.00008171,-0.00008988,0.00048751,-0.00026425,0.
 00009296,-0.00157648,-0.00034421,0.00028113,0.00254345,-0.00084639,-0.
 00017927,-0.00109370,0.00071309,0.00005615,-0.00480602,0.00118598,0.00
 019266,0.00351950,-0.00789235,-0.00053386,-0.00006668,0.00203891,0.000
 13924,-0.03801627,0.03149905,0.00363302,-0.11054612,0.05463114,0.00676
 481,-0.01025620,0.00855184,0.00105444,0.00084735,0.00121268,0.00018395
 ,-0.00007554,-0.00001432,0.00001974,0.00000154,0.00000682,-0.00002498,
 0.00001157,0.00001513,-0.00000725,-0.00000430,-0.00003702,0.00000114,0
 .00001744,0.00001070,0.00000441,0.00006524,0.00005314,0.00000332,-0.00
 016475,0.00000466,-0.00013250,0.00009530,0.00011009,-0.00008517,0.0002
 8561,0.00020876,-0.00000429,0.00094241,0.00019115,-0.00010789,0.001299
 45,-0.00054333,-0.00015177,-0.00222444,-0.00322859,-0.00017957,-0.0002
 7080,0.00101916,-0.00049202,0.00091837,0.00070015,-0.00068403,-0.00024
 789,0.00094450,0.00066318,0.15718935,0.00001709,0.00002820,-0.00002845
 ,0.00002773,-0.00005345,0.00004708,-0.00029432,0.00013542,-0.00003968,
 0.00091393,0.00037882,-0.00020763,-0.00159260,-0.00006874,0.00012604,0
 .00067811,-0.00000699,-0.00002033,0.00207874,0.00025693,-0.00001149,-0
 .00282856,0.00049989,-0.00033900,0.00126084,-0.00006724,0.00002761,0.0
 0330147,0.00035322,-0.00034881,0.05405701,-0.08186675,-0.00617055,0.03
 672490,-0.02364843,-0.00315443,-0.00424444,-0.00310943,-0.00043486,0.0
 0004422,0.00000881,-0.00001258,-0.00000101,-0.00000511,0.00001520,-0.0
 0000919,-0.00000439,0.00000496,0.00000536,0.00003112,0.00000065,-0.000
 01018,-0.00000816,-0.00000196,-0.00004790,-0.00002727,-0.00000110,0.00
 009898,-0.00000629,0.00008019,-0.00002254,-0.00006799,0.00006370,-0.00
 016380,0.00013393,0.00005260,-0.00081342,0.00146426,0.00039129,0.00056
 193,0.00115173,0.00028227,0.00183316,0.00246407,0.00012518,0.00065763,
 -0.00119491,0.00082923,-0.00075970,-0.00058524,0.00058888,0.00063099,-
 0.00108804,-0.00106293,-0.09112732,0.10596668,-0.00000004,0.00000176,-
 0.00000283,0.00000018,-0.00000318,0.00000337,-0.00003999,0.00001843,0.
 00000402,0.00011699,0.00003045,0.00000507,-0.00020544,0.00004371,-0.00
 043531,0.00008749,-0.00002687,0.00010481,0.00028313,-0.00002063,0.0000
 1550,-0.00013256,-0.00018582,0.00593601,0.00008117,0.00001775,-0.00101
 355,0.00148255,-0.00116937,0.00354905,0.00670354,-0.00615874,-0.021426
 66,0.00324203,-0.00236533,0.00309577,-0.00024514,-0.00059196,0.0041000
 0,0.00000432,0.00000087,-0.00000175,0.00000056,-0.00000040,0.00000334,
 -0.00000042,-0.00000072,0.00000030,0.00000084,0.00000388,-0.00000094,-
 0.00000127,0.00000042,0.00000181,-0.00000592,-0.00000440,-0.00000074,0
 .00001808,-0.00000150,0.00001584,-0.00000086,-0.00000422,-0.00000585,-
 0.00003202,0.00004099,-0.00045911,-0.00018221,0.00035212,-0.00321201,-
 0.00007139,0.00031876,-0.00270260,0.00020959,0.00027743,0.00012181,0.0
 0019318,-0.00034874,0.00022505,-0.00020391,-0.00008836,0.00016298,-0.0
 0007040,0.00008834,0.00008364,-0.01124601,0.00988584,0.01180706,-0.000
 00318,0.00000154,0.00000720,0.00000508,0.00000748,-0.00000399,0.000061
 94,0.00000170,0.00001378,-0.00011709,-0.00019549,0.00002629,-0.0002242
 9,0.00090380,0.00004178,-0.00003597,-0.00071830,-0.00003837,0.00042931
 ,-0.00010931,-0.00001488,0.00014273,0.00011342,0.00000454,-0.00010398,
 0.00084268,0.00007796,0.00027528,-0.00006824,-0.00001367,0.00002287,-0
 .00026953,-0.00002396,-0.00027358,-0.00073928,-0.00003413,0.00258647,-
 0.00072328,-0.00005368,-0.00001439,-0.00000687,0.00000695,0.00000103,0
 .00000158,-0.00000686,0.00000657,-0.00000222,-0.00000294,-0.00000410,-
 0.00001565,-0.00000073,0.00000123,0.00000525,-0.00000052,0.00002621,0.
 00000804,-0.00000209,-0.00001273,0.00000021,-0.00001344,-0.00001462,-0
 .00000268,-0.00002027,0.00035704,0.00025942,0.00000280,0.00004824,-0.0
 0002515,-0.00000410,0.00027725,-0.00023570,-0.00003545,-0.06800585,-0.
 01460462,-0.00104279,-0.01708930,-0.03353125,-0.02392968,-0.00243793,0
 .02785244,0.01882759,-0.01476163,-0.03521943,0.01905116,0.00025210,-0.
 00016425,-0.00001988,0.10264724,-0.00001940,-0.00005274,0.00003446,-0.
 00003240,0.00004673,-0.00006319,0.00047593,-0.00019858,0.00004014,-0.0
 0125219,-0.00047482,0.00028838,0.00256689,-0.00033464,-0.00016143,-0.0
 0093736,0.00038906,0.00002928,-0.00278134,-0.00055361,-0.00001134,0.00
 211301,0.00112661,0.00002198,0.00009184,-0.00088629,-0.00010917,-0.000
 74158,-0.00024671,0.00000717,-0.00028600,0.00116649,0.00009604,-0.0003
 4955,-0.00052482,-0.00006878,-0.00069146,-0.00257817,-0.00037345,-0.00
 006478,-0.00001399,0.00001729,0.00000021,0.00000464,-0.00002255,0.0000
 0794,0.00002784,-0.00000333,-0.00000636,-0.00001364,0.00000486,0.00001
 665,0.00000447,0.00000150,0.00005902,0.00004341,0.00000772,-0.00014745
 ,0.00000381,-0.00012167,0.00005600,0.00007228,-0.00007436,0.00050162,0
 .00016282,0.00002463,-0.00001429,-0.00008166,-0.00000311,-0.00029194,0
 .00029225,0.00005891,-0.01585032,-0.18038399,-0.00838845,-0.01759445,-
 0.01639705,-0.01549471,0.01359901,-0.02766168,-0.02238299,-0.02034123,
 -0.02341610,0.01479560,0.00057783,-0.00057101,-0.00006190,0.02437907,0
 .28712648,-0.00000369,-0.00000604,0.00000226,0.00000048,0.00000168,-0.
 00001415,0.00001915,-0.00001444,-0.00003135,-0.00009447,-0.00004894,0.
 00005520,0.00020206,-0.00002285,-0.00006444,-0.00006329,0.00001768,0.0
 0021316,-0.00021733,-0.00004695,0.00007918,0.00015314,0.00008746,-0.00
 004894,0.00002293,-0.00012743,0.00042016,-0.00006572,-0.00001024,-0.00
 009198,-0.00002403,0.00009082,0.00008045,-0.00000330,-0.00005520,0.000
 44901,-0.00004993,-0.00037848,0.00261485,-0.00000728,-0.00000353,0.000
 00230,0.00000340,0.00000407,0.00000545,0.00000053,0.00000302,-0.000005
 13,-0.00000118,-0.00000125,0.00000201,-0.00000108,-0.00000205,0.000012
 42,0.00000410,0.00000496,-0.00001224,-0.00000092,0.00000873,0.00001247
 ,0.00000543,0.00000902,-0.00002929,0.00001549,0.00003147,-0.00032166,-
 0.00000348,-0.00000364,-0.00002497,-0.00004231,0.00005885,-0.00036151,
 -0.00114913,-0.00844236,-0.06632435,-0.02441963,-0.03024508,-0.0114456
 1,0.01585511,-0.03738715,-0.01431478,0.02191793,0.03036594,-0.00683924
 ,0.00003741,-0.00003955,0.00000227,0.00170388,0.01386402,0.10011594,-0
 .00001598,-0.00002326,0.00002976,-0.00002046,0.00003363,-0.00005111,0.
 00030136,-0.00010201,0.00005252,-0.00079567,-0.00041650,0.00015880,0.0
 0119811,0.00095217,-0.00002570,-0.00073614,-0.00053064,-0.00001041,-0.
 00037282,-0.00128163,-0.00007859,-0.00093981,0.00121503,0.00131285,0.0
 0283088,-0.00512125,-0.00199807,0.00054267,-0.00049176,-0.00025262,0.0
 0011833,-0.00022058,0.00109021,-0.00227389,-0.00185726,0.00048291,-0.0
 1247254,0.00982527,-0.01194870,-0.00005155,-0.00001535,0.00001619,0.00
 000309,0.00000519,-0.00001526,0.00001116,0.00000909,-0.00000750,-0.000
 00642,-0.00002688,0.00000183,0.00000849,0.00000980,0.00000686,0.000054
 29,0.00003468,-0.00000101,-0.00008433,0.00000005,-0.00006991,0.0000476
 4,0.00005871,-0.00006161,0.00089313,0.00072096,-0.00037442,0.00013950,
 -0.00008051,-0.00016010,0.00136548,-0.00039405,-0.00128856,-0.13827826
 ,-0.00703539,-0.06851798,-0.00063831,0.00341668,-0.00525988,0.00885122
 ,-0.00019170,0.00970789,-0.04100623,0.00300454,-0.00938655,0.00096309,
 -0.00081285,0.00003379,-0.00404195,0.01695710,-0.01379427,0.18440590,-
 0.00001787,-0.00004674,0.00003111,-0.00003961,0.00004087,-0.00006419,0
 .00039936,-0.00018767,0.00003449,-0.00114663,-0.00027794,0.00025717,0.
 00277449,-0.00117010,-0.00024246,-0.00093337,0.00105883,0.00013201,-0.
 00308059,-0.00059801,0.00002181,0.00170262,0.00010848,0.00117786,0.002
 63918,-0.00287367,-0.00197893,-0.00154712,-0.00062750,-0.00008718,-0.0
 0076831,0.00227605,-0.00039112,-0.00060351,-0.00477619,-0.00324728,-0.
 01856090,-0.00254779,-0.01400072,-0.00005200,-0.00000901,0.00001170,0.
 00000035,0.00000382,-0.00001558,0.00000328,0.00002432,-0.00000302,-0.0
 0000170,-0.00000553,0.00000525,0.00001376,0.00000138,0.00000427,0.0000
 3230,0.00003707,0.00000499,-0.00013351,0.00000385,-0.00010515,0.000079
 14,0.00008025,-0.00005827,0.00008374,-0.00000929,-0.00047496,-0.000059
 51,-0.00005389,0.00009288,-0.00098363,-0.00146389,-0.00004811,-0.00564
 726,-0.07096608,-0.00586738,-0.00007871,0.00877320,-0.00020755,0.00156
 561,0.00845950,0.00552871,0.00915485,0.00734385,0.00150751,0.00059217,
 -0.00049365,-0.00004860,0.03225464,-0.03607739,0.03228749,-0.01764127,
 0.09397287,-0.00001695,-0.00002975,0.00002597,-0.00002493,0.00003011,-
 0.00006239,0.00027312,-0.00011799,0.00000606,-0.00082814,-0.00030107,0
 .00021053,0.00172492,-0.00001749,-0.00014981,-0.00073017,0.00020578,0.
 00021854,-0.00126231,-0.00129945,0.00007491,-0.00098753,0.00160146,0.0
 0065884,0.00230202,-0.00632251,-0.00146980,0.00008807,-0.00044642,-0.0
 0012135,-0.00045805,0.00038867,0.00034692,-0.00028054,-0.00360117,0.00
 036205,-0.01485724,0.01093426,-0.00393475,-0.00004608,-0.00001265,0.00
 001226,0.00000529,0.00000737,-0.00000453,0.00000614,0.00001350,-0.0000
 0956,-0.00000358,-0.00001525,0.00000376,0.00000648,0.00000377,0.000018
 90,0.00003561,0.00003277,-0.00001036,-0.00008009,0.00000808,-0.0000514
 2,0.00006517,0.00006966,-0.00007088,0.00056757,0.00038656,-0.00043971,
 0.00002528,-0.00008843,-0.00006429,-0.00016418,-0.00089157,-0.00161319
 ,-0.06736698,-0.00797103,-0.12863541,-0.00511667,0.00299122,0.00002891
 ,-0.01229522,0.00238375,-0.04303412,0.01277326,-0.00108654,0.00887204,
 0.00073959,-0.00064736,0.00002366,-0.01450248,0.01804844,-0.00413748,0
 .10040864,-0.01425674,0.17294572\\-0.00000319,0.00000402,0.00000328,0.
 00000349,0.00000167,-0.00000360,-0.00001161,0.00000374,0.00000188,0.00
 000100,-0.00000545,0.00000080,0.00001122,0.00001342,0.00000104,0.00000
 148,-0.00000407,0.00000081,-0.00001081,0.00000049,-0.00000421,0.000006
 27,-0.00000065,0.00000637,-0.00000707,-0.00000247,-0.00000474,-0.00000
 274,-0.00000663,-0.00000304,-0.00000897,0.00000572,-0.00000338,0.00000
 462,-0.00000536,-0.00000330,0.00000213,-0.00000110,-0.00000008,-0.0000
 0071,0.00000406,0.00000070,-0.00000090,0.00000564,0.00000145,-0.000000
 66,0.00000409,0.00000240,-0.00000175,0.00000307,0.00000195,-0.00000024
 ,0.00000266,0.00000066,0.00000486,-0.00000042,0.00000020,-0.00000237,0
 .00000471,-0.00000228,-0.00000536,0.00000083,0.00000165,0.00000317,-0.
 00000253,0.00000127,-0.00000232,-0.00000096,-0.00000228,0.00000009,-0.
 00000461,-0.00000134,0.00000631,-0.00000384,-0.00000090,0.00000419,-0.
 00000082,-0.00000076,-0.00000274,-0.00000348,0.00000357,0.00000034,-0.
 00000144,0.00000380,0.00000327,-0.00000695,-0.00000283,0.00000507,-0.0
 0000113,0.00000126,0.00000393,-0.00000221,-0.00000037\\\@


 THE 2ND LAW OF THERMODYNAMICS HAS THE SAME
 DEGREE OF TRUTH AS THE STATEMENT THAT IF YOU THROW
 A TUMBLERFULL OF WATER INTO THE SEA, YOU CANNOT GET
 THE SAME TUMBLERFULL OF WATER OUT AGAIN.
          - J.C. MAXWELL, LETTER TO LORD RAYLEIGH, DECEMBER 6,1870
 Job cpu time:       0 days  4 hours  4 minutes 56.3 seconds.
 File lengths (MBytes):  RWF=    616 Int=      0 D2E=      0 Chk=     16 Scr=      1
 Normal termination of Gaussian 09 at Tue Oct 30 15:11:33 2018.
WARNING: pbs_rusage is deprecated and values produced may not be accurate


=============================================================================
                                     Resource usage:
                                       CPU time:              21:41:15
   JobId:    1827386.r-man2            Elapsed time:          05:26:46
   Project:             q95            Requested time:        40:00:00
   Service Units:     21.78 
                                       Max physical memory:      803MB
                                       Max virtual memory:      1774MB
                                       Requested memory:           0MB

                                       Number of cpus:               4

                                       Max jobfs disk use:       0.6GB
                                       Requested jobfs:         20.0GB
=============================================================================

