 Entering Gaussian System, Link 0=/apps/gaussian/g09e01/g09/g09
 AtFile(1): /home/507/hio507/Basis/6-31pGd.gbs
 Initial command:
 /apps/gaussian/g09e01/g09/l1.exe "/jobfs/local/6135396.r-man2/Gau-42562.inp" -scrdir="/jobfs/local/6135396.r-man2/"
 Entering Link 1 = /apps/gaussian/g09e01/g09/l1.exe PID=     42563.
  
 Copyright (c) 1988,1990,1992,1993,1995,1998,2003,2009,2015,
            Gaussian, Inc.  All Rights Reserved.
  
 This is part of the Gaussian(R) 09 program.  It is based on
 the Gaussian(R) 03 system (copyright 2003, Gaussian, Inc.),
 the Gaussian(R) 98 system (copyright 1998, Gaussian, Inc.),
 the Gaussian(R) 94 system (copyright 1995, Gaussian, Inc.),
 the Gaussian 92(TM) system (copyright 1992, Gaussian, Inc.),
 the Gaussian 90(TM) system (copyright 1990, Gaussian, Inc.),
 the Gaussian 88(TM) system (copyright 1988, Gaussian, Inc.),
 the Gaussian 86(TM) system (copyright 1986, Carnegie Mellon
 University), and the Gaussian 82(TM) system (copyright 1983,
 Carnegie Mellon University). Gaussian is a federally registered
 trademark of Gaussian, Inc.
  
 This software contains proprietary and confidential information,
 including trade secrets, belonging to Gaussian, Inc.
  
 This software is provided under written license and may be
 used, copied, transmitted, or stored only in accord with that
 written license.
  
 The following legend is applicable only to US Government
 contracts under FAR:
  
                    RESTRICTED RIGHTS LEGEND
  
 Use, reproduction and disclosure by the US Government is
 subject to restrictions as set forth in subparagraphs (a)
 and (c) of the Commercial Computer Software - Restricted
 Rights clause in FAR 52.227-19.
  
 Gaussian, Inc.
 340 Quinnipiac St., Bldg. 40, Wallingford CT 06492
  
  
 ---------------------------------------------------------------
 Warning -- This program may not be used in any manner that
 competes with the business of Gaussian, Inc. or will provide
 assistance to any competitor of Gaussian, Inc.  The licensee
 of this program is prohibited from giving any competitor of
 Gaussian, Inc. access to this program.  By using this program,
 the user acknowledges that Gaussian, Inc. is engaged in the
 business of creating and licensing software in the field of
 computational chemistry and represents and warrants to the
 licensee that it is not a competitor of Gaussian, Inc. and that
 it will not use this program in any manner prohibited above.
 ---------------------------------------------------------------
  

 Cite this work as:
 Gaussian 09, Revision E.01,
 M. J. Frisch, G. W. Trucks, H. B. Schlegel, G. E. Scuseria, 
 M. A. Robb, J. R. Cheeseman, G. Scalmani, V. Barone, B. Mennucci, 
 G. A. Petersson, H. Nakatsuji, M. Caricato, X. Li, H. P. Hratchian, 
 A. F. Izmaylov, J. Bloino, G. Zheng, J. L. Sonnenberg, M. Hada, 
 M. Ehara, K. Toyota, R. Fukuda, J. Hasegawa, M. Ishida, T. Nakajima, 
 Y. Honda, O. Kitao, H. Nakai, T. Vreven, J. A. Montgomery, Jr., 
 J. E. Peralta, F. Ogliaro, M. Bearpark, J. J. Heyd, E. Brothers, 
 K. N. Kudin, V. N. Staroverov, T. Keith, R. Kobayashi, J. Normand, 
 K. Raghavachari, A. Rendell, J. C. Burant, S. S. Iyengar, J. Tomasi, 
 M. Cossi, N. Rega, J. M. Millam, M. Klene, J. E. Knox, J. B. Cross, 
 V. Bakken, C. Adamo, J. Jaramillo, R. Gomperts, R. E. Stratmann, 
 O. Yazyev, A. J. Austin, R. Cammi, C. Pomelli, J. W. Ochterski, 
 R. L. Martin, K. Morokuma, V. G. Zakrzewski, G. A. Voth, 
 P. Salvador, J. J. Dannenberg, S. Dapprich, A. D. Daniels, 
 O. Farkas, J. B. Foresman, J. V. Ortiz, J. Cioslowski, 
 and D. J. Fox, Gaussian, Inc., Wallingford CT, 2013.
 
 ******************************************
 Gaussian 09:  ES64L-G09RevE.01 30-Nov-2015
                25-Feb-2019 
 ******************************************
 %chk=3SF5Chloro.M062X_6-31pGd_opt_Pentadecane.chk
 %mem=196608000
 %nproc=4
 Will use up to    4 processors via shared memory.
 ----------------------------------------------------------------------
 # M062X/Gen 6D SCF=Tight INT(grid=ultrafine) OPT IOP(2/17=4) SCRF=(SMD
 ,Solvent=n-Pentadecane) maxdisk=2684354560
 ----------------------------------------------------------------------
 1/14=-1,18=20,19=15,26=4,38=1/1,3;
 2/9=110,12=2,17=4,18=5,40=1/2;
 3/5=7,8=2,11=2,16=1,25=1,30=1,70=32201,71=1,72=151,74=-55,75=-5/1,2,3;
 4//1;
 5/5=2,32=2,38=5,53=151/2;
 6/7=2,8=2,9=2,10=2,28=1/1;
 7//1,2,3,16;
 1/14=-1,18=20,19=15,26=4/3(2);
 2/9=110,17=4/2;
 99//99;
 2/9=110,17=4/2;
 3/5=7,6=1,8=2,11=2,16=1,25=1,30=1,70=32205,71=1,72=151,74=-55,75=-5,82=7/1,2,3;
 4/5=5,16=3,69=1/1;
 5/5=2,32=2,38=5,53=151/2;
 7//1,2,3,16;
 1/14=-1,18=20,19=15,26=4/3(-5);
 2/9=110,17=4/2;
 6/7=2,8=2,9=2,10=2,19=2,28=1/1;
 99/9=1/99;
 ----------------------------------------
 3SF5Chloro.M062X_6-31pGd_opt_Pentadecane
 ----------------------------------------
 Symbolic Z-matrix:
 Charge =  0 Multiplicity = 1
 C                    -1.87356   1.52032  -0.07671 
 C                    -0.46256   1.02027   0.19898 
 C                     0.56611   2.12808  -0.03556 
 N                     1.90912   1.59345   0.02031 
 C                     2.99858   2.40176   0.11862 
 O                     2.84376   3.59429   0.33314 
 N                     4.24      1.85499  -0.02729 
 C                     5.52071   2.50291   0.02388 
 C                     5.72094   3.89104   0.22898 
 C                     6.64545   1.68442  -0.13959 
 C                     7.92759   2.2107   -0.09865 
 C                     8.11867   3.57346   0.1032 
 C                     7.02504   4.4529    0.27456 
 H                    -2.60168   0.88782   0.47178 
 H                    -2.09296   1.46427  -1.16418 
 H                    -1.98148   2.57129   0.26678 
 H                    -0.24064   0.16375  -0.47496 
 H                    -0.40053   0.67139   1.25312 
 H                     0.4557    2.91409   0.74351 
 H                     0.39799   2.58107  -1.03768 
 H                     2.04485   0.5701   -0.02061 
 H                     4.26277   0.83736  -0.19604 
 H                     4.87732   4.53183   0.3538 
 H                     6.52288   0.61934  -0.29644 
 H                     9.14155   3.90807   0.12314 
 S                     7.3024    6.26874   0.55099 
 F                     5.6241    6.58807   0.63005 
 F                     7.27778   6.52702  -1.13922 
 F                     7.3356    6.01689   2.2435 
 Cl                    9.31257   1.15042  -0.28963 
 F                     7.55744   7.94137   0.79815 
 F                     9.00126   6.08932   0.49848 
 

 GradGradGradGradGradGradGradGradGradGradGradGradGradGradGradGradGradGrad
 Berny optimization.
 Initialization pass.
                           ----------------------------
                           !    Initial Parameters    !
                           ! (Angstroms and Degrees)  !
 --------------------------                            --------------------------
 ! Name  Definition              Value          Derivative Info.                !
 --------------------------------------------------------------------------------
 ! R1    R(1,2)                  1.5222         estimate D2E/DX2                !
 ! R2    R(1,14)                 1.1095         estimate D2E/DX2                !
 ! R3    R(1,15)                 1.1108         estimate D2E/DX2                !
 ! R4    R(1,16)                 1.1109         estimate D2E/DX2                !
 ! R5    R(2,3)                  1.5298         estimate D2E/DX2                !
 ! R6    R(2,17)                 1.1122         estimate D2E/DX2                !
 ! R7    R(2,18)                 1.1121         estimate D2E/DX2                !
 ! R8    R(3,4)                  1.4466         estimate D2E/DX2                !
 ! R9    R(3,19)                 1.1122         estimate D2E/DX2                !
 ! R10   R(3,20)                 1.1125         estimate D2E/DX2                !
 ! R11   R(4,5)                  1.3601         estimate D2E/DX2                !
 ! R12   R(4,21)                 1.0331         estimate D2E/DX2                !
 ! R13   R(5,6)                  1.2215         estimate D2E/DX2                !
 ! R14   R(5,7)                  1.3643         estimate D2E/DX2                !
 ! R15   R(7,8)                  1.4362         estimate D2E/DX2                !
 ! R16   R(7,22)                 1.0318         estimate D2E/DX2                !
 ! R17   R(8,9)                  1.4174         estimate D2E/DX2                !
 ! R18   R(8,10)                 1.4006         estimate D2E/DX2                !
 ! R19   R(9,13)                 1.4207         estimate D2E/DX2                !
 ! R20   R(9,23)                 1.0667         estimate D2E/DX2                !
 ! R21   R(10,11)                1.3866         estimate D2E/DX2                !
 ! R22   R(10,24)                1.0835         estimate D2E/DX2                !
 ! R23   R(11,12)                1.3908         estimate D2E/DX2                !
 ! R24   R(11,30)                1.7547         estimate D2E/DX2                !
 ! R25   R(12,13)                1.4138         estimate D2E/DX2                !
 ! R26   R(12,25)                1.0764         estimate D2E/DX2                !
 ! R27   R(13,26)                1.8576         estimate D2E/DX2                !
 ! R28   R(26,27)                1.7102         estimate D2E/DX2                !
 ! R29   R(26,28)                1.71           estimate D2E/DX2                !
 ! R30   R(26,29)                1.7115         estimate D2E/DX2                !
 ! R31   R(26,31)                1.7099         estimate D2E/DX2                !
 ! R32   R(26,32)                1.7091         estimate D2E/DX2                !
 ! A1    A(2,1,14)             109.3605         estimate D2E/DX2                !
 ! A2    A(2,1,15)             110.1103         estimate D2E/DX2                !
 ! A3    A(2,1,16)             110.1715         estimate D2E/DX2                !
 ! A4    A(14,1,15)            109.0007         estimate D2E/DX2                !
 ! A5    A(14,1,16)            108.826          estimate D2E/DX2                !
 ! A6    A(15,1,16)            109.3444         estimate D2E/DX2                !
 ! A7    A(1,2,3)              110.9556         estimate D2E/DX2                !
 ! A8    A(1,2,17)             109.1592         estimate D2E/DX2                !
 ! A9    A(1,2,18)             109.0528         estimate D2E/DX2                !
 ! A10   A(3,2,17)             109.3046         estimate D2E/DX2                !
 ! A11   A(3,2,18)             109.5716         estimate D2E/DX2                !
 ! A12   A(17,2,18)            108.7619         estimate D2E/DX2                !
 ! A13   A(2,3,4)              110.5308         estimate D2E/DX2                !
 ! A14   A(2,3,19)             109.732          estimate D2E/DX2                !
 ! A15   A(2,3,20)             109.3497         estimate D2E/DX2                !
 ! A16   A(4,3,19)             109.0445         estimate D2E/DX2                !
 ! A17   A(4,3,20)             109.0            estimate D2E/DX2                !
 ! A18   A(19,3,20)            109.1602         estimate D2E/DX2                !
 ! A19   A(3,4,5)              121.7893         estimate D2E/DX2                !
 ! A20   A(3,4,21)             119.1124         estimate D2E/DX2                !
 ! A21   A(5,4,21)             119.0974         estimate D2E/DX2                !
 ! A22   A(4,5,6)              119.4298         estimate D2E/DX2                !
 ! A23   A(4,5,7)              118.8777         estimate D2E/DX2                !
 ! A24   A(6,5,7)              121.6925         estimate D2E/DX2                !
 ! A25   A(5,7,8)              128.8146         estimate D2E/DX2                !
 ! A26   A(5,7,22)             115.648          estimate D2E/DX2                !
 ! A27   A(8,7,22)             115.5374         estimate D2E/DX2                !
 ! A28   A(7,8,9)              124.9558         estimate D2E/DX2                !
 ! A29   A(7,8,10)             116.6352         estimate D2E/DX2                !
 ! A30   A(9,8,10)             118.4087         estimate D2E/DX2                !
 ! A31   A(8,9,13)             121.4407         estimate D2E/DX2                !
 ! A32   A(8,9,23)             119.5718         estimate D2E/DX2                !
 ! A33   A(13,9,23)            118.9874         estimate D2E/DX2                !
 ! A34   A(8,10,11)            121.1522         estimate D2E/DX2                !
 ! A35   A(8,10,24)            120.0325         estimate D2E/DX2                !
 ! A36   A(11,10,24)           118.8146         estimate D2E/DX2                !
 ! A37   A(10,11,12)           120.2139         estimate D2E/DX2                !
 ! A38   A(10,11,30)           119.822          estimate D2E/DX2                !
 ! A39   A(12,11,30)           119.9623         estimate D2E/DX2                !
 ! A40   A(11,12,13)           121.3867         estimate D2E/DX2                !
 ! A41   A(11,12,25)           115.9657         estimate D2E/DX2                !
 ! A42   A(13,12,25)           122.6473         estimate D2E/DX2                !
 ! A43   A(9,13,12)            117.3972         estimate D2E/DX2                !
 ! A44   A(9,13,26)            121.8987         estimate D2E/DX2                !
 ! A45   A(12,13,26)           120.704          estimate D2E/DX2                !
 ! A46   A(13,26,27)            92.4574         estimate D2E/DX2                !
 ! A47   A(13,26,28)            89.9088         estimate D2E/DX2                !
 ! A48   A(13,26,29)            90.3559         estimate D2E/DX2                !
 ! A49   A(13,26,32)            92.3627         estimate D2E/DX2                !
 ! A50   A(27,26,28)            90.1926         estimate D2E/DX2                !
 ! A51   A(27,26,29)            90.0457         estimate D2E/DX2                !
 ! A52   A(27,26,31)            87.5379         estimate D2E/DX2                !
 ! A53   A(28,26,31)            89.8437         estimate D2E/DX2                !
 ! A54   A(28,26,32)            89.9885         estimate D2E/DX2                !
 ! A55   A(29,26,31)            89.8916         estimate D2E/DX2                !
 ! A56   A(29,26,32)            89.7509         estimate D2E/DX2                !
 ! A57   A(31,26,32)            87.6429         estimate D2E/DX2                !
 ! A58   L(13,26,31,27,-1)     179.9952         estimate D2E/DX2                !
 ! A59   L(27,26,32,13,-1)     184.8201         estimate D2E/DX2                !
 ! A60   L(28,26,29,13,-1)     180.2647         estimate D2E/DX2                !
 ! A61   L(13,26,31,27,-2)     180.2478         estimate D2E/DX2                !
 ! A62   L(27,26,32,13,-2)     180.1736         estimate D2E/DX2                !
 ! A63   L(28,26,29,13,-2)     179.7501         estimate D2E/DX2                !
 ! D1    D(14,1,2,3)          -157.0457         estimate D2E/DX2                !
 ! D2    D(14,1,2,17)           82.4354         estimate D2E/DX2                !
 ! D3    D(14,1,2,18)          -36.2644         estimate D2E/DX2                !
 ! D4    D(15,1,2,3)            83.208          estimate D2E/DX2                !
 ! D5    D(15,1,2,17)          -37.3108         estimate D2E/DX2                !
 ! D6    D(15,1,2,18)         -156.0107         estimate D2E/DX2                !
 ! D7    D(16,1,2,3)           -37.4767         estimate D2E/DX2                !
 ! D8    D(16,1,2,17)         -157.9956         estimate D2E/DX2                !
 ! D9    D(16,1,2,18)           83.3046         estimate D2E/DX2                !
 ! D10   D(1,2,3,4)           -170.9157         estimate D2E/DX2                !
 ! D11   D(1,2,3,19)            68.7865         estimate D2E/DX2                !
 ! D12   D(1,2,3,20)           -50.9175         estimate D2E/DX2                !
 ! D13   D(17,2,3,4)           -50.483          estimate D2E/DX2                !
 ! D14   D(17,2,3,19)         -170.7809         estimate D2E/DX2                !
 ! D15   D(17,2,3,20)           69.5152         estimate D2E/DX2                !
 ! D16   D(18,2,3,4)            68.61           estimate D2E/DX2                !
 ! D17   D(18,2,3,19)          -51.6878         estimate D2E/DX2                !
 ! D18   D(18,2,3,20)         -171.3917         estimate D2E/DX2                !
 ! D19   D(2,3,4,5)           -166.2234         estimate D2E/DX2                !
 ! D20   D(2,3,4,21)            14.1066         estimate D2E/DX2                !
 ! D21   D(19,3,4,5)           -45.5149         estimate D2E/DX2                !
 ! D22   D(19,3,4,21)          134.8151         estimate D2E/DX2                !
 ! D23   D(20,3,4,5)            73.5685         estimate D2E/DX2                !
 ! D24   D(20,3,4,21)         -106.1015         estimate D2E/DX2                !
 ! D25   D(3,4,5,6)              9.3181         estimate D2E/DX2                !
 ! D26   D(3,4,5,7)           -170.6156         estimate D2E/DX2                !
 ! D27   D(21,4,5,6)          -171.0119         estimate D2E/DX2                !
 ! D28   D(21,4,5,7)             9.0544         estimate D2E/DX2                !
 ! D29   D(4,5,7,8)            179.4317         estimate D2E/DX2                !
 ! D30   D(4,5,7,22)            -0.666          estimate D2E/DX2                !
 ! D31   D(6,5,7,8)             -0.5005         estimate D2E/DX2                !
 ! D32   D(6,5,7,22)           179.4018         estimate D2E/DX2                !
 ! D33   D(5,7,8,9)             -0.8289         estimate D2E/DX2                !
 ! D34   D(5,7,8,10)           178.9853         estimate D2E/DX2                !
 ! D35   D(22,7,8,9)           179.2688         estimate D2E/DX2                !
 ! D36   D(22,7,8,10)           -0.9171         estimate D2E/DX2                !
 ! D37   D(7,8,9,13)           179.6045         estimate D2E/DX2                !
 ! D38   D(7,8,9,23)            -0.3045         estimate D2E/DX2                !
 ! D39   D(10,8,9,13)           -0.2066         estimate D2E/DX2                !
 ! D40   D(10,8,9,23)          179.8843         estimate D2E/DX2                !
 ! D41   D(7,8,10,11)         -179.6138         estimate D2E/DX2                !
 ! D42   D(7,8,10,24)            0.0777         estimate D2E/DX2                !
 ! D43   D(9,8,10,11)            0.213          estimate D2E/DX2                !
 ! D44   D(9,8,10,24)          179.9046         estimate D2E/DX2                !
 ! D45   D(8,9,13,12)            0.1833         estimate D2E/DX2                !
 ! D46   D(8,9,13,26)         -179.691          estimate D2E/DX2                !
 ! D47   D(23,9,13,12)        -179.9072         estimate D2E/DX2                !
 ! D48   D(23,9,13,26)           0.2186         estimate D2E/DX2                !
 ! D49   D(8,10,11,12)          -0.2017         estimate D2E/DX2                !
 ! D50   D(8,10,11,30)         179.3132         estimate D2E/DX2                !
 ! D51   D(24,10,11,12)       -179.8969         estimate D2E/DX2                !
 ! D52   D(24,10,11,30)         -0.382          estimate D2E/DX2                !
 ! D53   D(10,11,12,13)          0.1794         estimate D2E/DX2                !
 ! D54   D(10,11,12,25)        179.9841         estimate D2E/DX2                !
 ! D55   D(30,11,12,13)       -179.3349         estimate D2E/DX2                !
 ! D56   D(30,11,12,25)          0.4699         estimate D2E/DX2                !
 ! D57   D(11,12,13,9)          -0.1678         estimate D2E/DX2                !
 ! D58   D(11,12,13,26)        179.708          estimate D2E/DX2                !
 ! D59   D(25,12,13,9)        -179.9593         estimate D2E/DX2                !
 ! D60   D(25,12,13,26)         -0.0835         estimate D2E/DX2                !
 ! D61   D(9,13,26,27)          -0.8672         estimate D2E/DX2                !
 ! D62   D(9,13,26,28)         -91.0561         estimate D2E/DX2                !
 ! D63   D(9,13,26,29)          89.1938         estimate D2E/DX2                !
 ! D64   D(9,13,26,32)         178.9592         estimate D2E/DX2                !
 ! D65   D(12,13,26,27)        179.2627         estimate D2E/DX2                !
 ! D66   D(12,13,26,28)         89.0738         estimate D2E/DX2                !
 ! D67   D(12,13,26,29)        -90.6764         estimate D2E/DX2                !
 ! D68   D(12,13,26,32)         -0.911          estimate D2E/DX2                !
 --------------------------------------------------------------------------------
 Trust Radius=3.00D-01 FncErr=1.00D-07 GrdErr=1.00D-06
 Number of steps in this run=    173 maximum allowed number of steps=    192.
 GradGradGradGradGradGradGradGradGradGradGradGradGradGradGradGradGradGrad

                          Input orientation:                          
 ---------------------------------------------------------------------
 Center     Atomic      Atomic             Coordinates (Angstroms)
 Number     Number       Type             X           Y           Z
 ---------------------------------------------------------------------
      1          6           0       -1.873560    1.520320   -0.076710
      2          6           0       -0.462560    1.020270    0.198980
      3          6           0        0.566110    2.128080   -0.035560
      4          7           0        1.909120    1.593450    0.020310
      5          6           0        2.998580    2.401760    0.118620
      6          8           0        2.843760    3.594290    0.333140
      7          7           0        4.240000    1.854990   -0.027290
      8          6           0        5.520710    2.502910    0.023880
      9          6           0        5.720940    3.891040    0.228980
     10          6           0        6.645450    1.684420   -0.139590
     11          6           0        7.927590    2.210700   -0.098650
     12          6           0        8.118670    3.573460    0.103200
     13          6           0        7.025040    4.452900    0.274560
     14          1           0       -2.601680    0.887820    0.471780
     15          1           0       -2.092960    1.464270   -1.164180
     16          1           0       -1.981480    2.571290    0.266780
     17          1           0       -0.240640    0.163750   -0.474960
     18          1           0       -0.400530    0.671390    1.253120
     19          1           0        0.455700    2.914090    0.743510
     20          1           0        0.397990    2.581070   -1.037680
     21          1           0        2.044850    0.570100   -0.020610
     22          1           0        4.262770    0.837360   -0.196040
     23          1           0        4.877320    4.531830    0.353800
     24          1           0        6.522880    0.619340   -0.296440
     25          1           0        9.141550    3.908070    0.123140
     26         16           0        7.302400    6.268740    0.550990
     27          9           0        5.624100    6.588070    0.630050
     28          9           0        7.277780    6.527020   -1.139220
     29          9           0        7.335600    6.016890    2.243500
     30         17           0        9.312570    1.150420   -0.289630
     31          9           0        7.557440    7.941370    0.798150
     32          9           0        9.001260    6.089320    0.498480
 ---------------------------------------------------------------------
                    Distance matrix (angstroms):
                    1          2          3          4          5
     1  C    0.000000
     2  C    1.522162   0.000000
     3  C    2.514569   1.529841   0.000000
     4  N    3.784631   2.446492   1.446591   0.000000
     5  C    4.955082   3.727528   2.452668   1.360130   0.000000
     6  O    5.169375   4.192294   2.733752   2.230420   1.221522
     7  N    6.122913   4.781425   3.684035   2.345990   1.364321
     8  C    7.459948   6.166717   4.969114   3.724341   2.525935
     9  C    7.961796   6.817470   5.454382   4.455607   3.105057
    10  C    8.520822   7.146995   6.096395   4.739901   3.725709
    11  C    9.825459   8.479406   7.362214   6.051209   4.937494
    12  C   10.202569   8.953517   7.690874   6.518115   5.252470
    13  C    9.375953   8.237282   6.871589   5.866322   4.521490
    14  H    1.109530   2.160509   3.439554   4.587925   5.812026
    15  H    1.110797   2.171070   2.963964   4.175685   5.333689
    16  H    1.110932   2.171953   2.603471   4.019165   4.985147
    17  H    2.159934   1.112237   2.168527   2.628841   3.981654
    18  H    2.158459   1.112104   2.171874   2.775698   3.979349
    19  H    2.835632   2.173998   1.112184   2.092735   2.668184
    20  H    2.684882   2.169325   1.112524   2.092427   2.851710
    21  H    4.032369   2.556947   2.148068   1.033123   2.069774
    22  H    6.175372   4.745339   3.918802   2.481562   2.035813
    23  H    7.404655   6.392913   4.951378   4.189929   2.849942
    24  H    8.447500   7.014453   6.150404   4.726098   3.971144
    25  H   11.272708  10.029161   8.759664   7.594477   6.324956
    26  S   10.350833   9.378963   7.928853   7.157334   5.802012
    27  F    9.077252   8.260366   6.776268   6.254525   4.967908
    28  F   10.485371   9.593119   8.100324   7.382895   6.075482
    29  F   10.507671   9.484597   8.132832   7.345480   6.032746
    30  Cl  11.194269   9.788199   8.804597   7.423167   6.449728
    31  F   11.442859  10.610421   9.130614   8.532564   7.206403
    32  F   11.809670  10.740059   9.334258   8.410704   7.055109
                    6          7          8          9         10
     6  O    0.000000
     7  N    2.259327   0.000000
     8  C    2.907372   1.436188   0.000000
     9  C    2.894318   2.530683   1.417414   0.000000
    10  C    4.280645   2.414103   1.400603   2.420689   0.000000
    11  C    5.286406   3.705394   2.427647   2.792882   1.386553
    12  C    5.279960   4.244319   2.811008   2.421939   2.407861
    13  C    4.268928   3.820562   2.475542   1.420718   2.824905
    14  H    6.082517   6.927703   8.293512   8.851231   9.301492
    15  H    5.581233   6.446050   7.775489   8.299828   8.801026
    16  H    4.932938   6.269480   7.506433   7.814758   8.681912
    17  H    4.683498   4.810077   6.238082   7.066021   7.059968
    18  H    4.462637   4.957305   6.318748   6.991953   7.253393
    19  H    2.516725   4.004591   5.132374   5.379770   6.372202
    20  H    2.981200   4.038455   5.232139   5.626211   6.375053
    21  H    3.147876   2.543555   3.977353   4.960300   4.735123
    22  H    3.145518   1.031778   2.098770   3.410552   2.529399
    23  H    2.239369   2.777927   2.153907   1.066718   3.387840
    24  H    4.773115   2.609754   2.157495   3.409281   1.083522
    25  H    6.309098   5.316292   3.885204   3.422289   3.353232
    26  S    5.203807   5.403137   4.199255   2.873702   4.682358
    27  F    4.096482   4.974925   4.131182   2.728407   5.067671
    28  F    5.516274   5.682637   4.542418   3.353224   4.984965
    29  F    5.449320   5.662211   4.535261   3.344347   4.992567
    30  Cl   6.943043   5.127983   4.038034   4.547500   2.724187
    31  F    6.429006   6.980744   5.858721   4.483510   6.392222
    32  F    6.645850   6.393401   5.020140   3.957975   5.035883
                   11         12         13         14         15
    11  C    0.000000
    12  C    1.390816   0.000000
    13  C    2.445678   1.413791   0.000000
    14  H   10.627367  11.057776  10.267543   0.000000
    15  H   10.104649  10.503919   9.702567   1.807611   0.000000
    16  H    9.922360  10.151066   9.200974   1.805753   1.812613
    17  H    8.429211   9.046461   8.470460   2.644826   2.365896
    18  H    8.576383   9.073097   8.390261   2.345719   3.055539
    19  H    7.552028   7.717893   6.763437   3.677931   3.498132
    20  H    7.596962   7.867359   7.010243   3.760796   2.732778
    21  H    6.107724   6.776931   6.321832   4.683336   4.385061
    22  H    3.914901   4.737484   4.574246   6.897043   6.459537
    23  H    3.859599   3.389340   2.150630   8.320347   7.765242
    24  H    2.131844   3.381284   3.908246   9.160777   8.700550
    25  H    2.098560   1.076404   2.190749  12.130413  11.569078
    26  S    4.156992   2.851552   1.857584  11.271707  10.691002
    27  F    4.999844   3.948205   2.578363  10.009064   9.435338
    28  F    4.487277   3.312736   2.522821  11.489109  10.650954
    29  F    4.508126   3.341322   2.533621  11.322362  11.010739
    30  Cl   1.754661   2.729622   4.056782  11.941443  11.443315
    31  F    5.812215   4.458315   3.567495  12.372017  11.787018
    32  F    4.068541   2.695322   2.575550  12.715523  12.134135
                   16         17         18         19         20
    16  H    0.000000
    17  H    3.062181   0.000000
    18  H    2.661182   1.808182   0.000000
    19  H    2.506916   3.087706   2.454085   0.000000
    20  H    2.713593   2.562799   3.087439   1.812973   0.000000
    21  H    4.505406   2.365379   2.759082   2.933184   2.791161
    22  H    6.497028   4.562044   4.886100   4.437268   4.322662
    23  H    7.134033   6.779416   6.600566   4.724371   5.079968
    24  H    8.743653   6.781197   7.094889   6.569478   6.473955
    25  H   11.203991  10.119444  10.139243   8.764522   8.919544
    26  S    9.997117   9.758121   9.547693   7.626798   7.987093
    27  F    8.608794   8.768587   8.467082   6.342189   6.793350
    28  F   10.166540   9.872137   9.948273   7.945987   7.931730
    29  F   10.128552   9.952321   9.455312   7.694827   8.408414
    30  Cl  11.396667   9.605815   9.846515   9.089668   9.059585
    31  F   10.959521  11.087030  10.788368   8.701221   9.130214
    32  F   11.534765  11.021465  10.877367   9.119689   9.417211
                   21         22         23         24         25
    21  H    0.000000
    22  H    2.240842   0.000000
    23  H    4.884503   3.785380   0.000000
    24  H    4.486787   2.272820   4.293979   0.000000
    25  H    7.843842   5.773528   4.315778   4.224834   0.000000
    26  S    7.774513   6.268755   2.989440   5.765545   3.022961
    27  F    7.032094   5.967102   2.205021   6.106712   4.451046
    28  F    8.007480   6.507849   3.460072   6.015051   3.453417
    29  F    7.923746   6.497782   3.437951   6.020412   3.493494
    30  Cl   7.295814   5.060360   5.614212   2.839800   2.793611
    31  F    9.240922   7.893682   4.359524   7.475330   4.385493
    32  F    8.895104   7.107653   4.410622   6.057635   2.217750
                   26         27         28         29         30
    26  S    0.000000
    27  F    1.710238   0.000000
    28  F    1.710007   2.422540   0.000000
    29  F    1.711467   2.420475   3.421457   0.000000
    30  Cl   5.562789   6.634656   5.811196   5.831611   0.000000
    31  F    1.709919   2.365900   2.414953   2.416997   7.097940
    32  F    1.709115   3.416324   2.417442   2.413455   5.011064
                   31         32
    31  F    0.000000
    32  F    2.367384   0.000000
 Stoichiometry    C10H12ClF5N2OS
 Framework group  C1[X(C10H12ClF5N2OS)]
 Deg. of freedom    90
 Full point group                 C1      NOp   1
 Largest Abelian subgroup         C1      NOp   1
 Largest concise Abelian subgroup C1      NOp   1
                         Standard orientation:                         
 ---------------------------------------------------------------------
 Center     Atomic      Atomic             Coordinates (Angstroms)
 Number     Number       Type             X           Y           Z
 ---------------------------------------------------------------------
      1          6           0       -7.623006   -1.126232    0.150306
      2          6           0       -6.551154   -0.115786   -0.233242
      3          6           0       -5.158170   -0.628787    0.136675
      4          7           0       -4.171423    0.415332   -0.032951
      5          6           0       -2.838024    0.147053   -0.038195
      6          8           0       -2.459500   -1.013936   -0.068856
      7          7           0       -1.956406    1.187812   -0.007522
      8          6           0       -0.520735    1.151369    0.005011
      9          6           0        0.261669   -0.030538    0.003536
     10          6           0        0.138665    2.386994    0.015656
     11          6           0        1.523227    2.461125    0.020172
     12          6           0        2.286393    1.298394    0.018374
     13          6           0        1.681459    0.020600    0.008187
     14          1           0       -8.528672   -0.953966   -0.467068
     15          1           0       -7.889244   -1.012105    1.222668
     16          1           0       -7.257388   -2.159644   -0.030121
     17          1           0       -6.744119    0.841132    0.299808
     18          1           0       -6.601454    0.068600   -1.328800
     19          1           0       -4.890360   -1.490334   -0.513683
     20          1           0       -5.157083   -0.959040    1.199050
     21          1           0       -4.487842    1.392025   -0.148240
     22          1           0       -2.377590    2.129592    0.007338
     23          1           0       -0.221343   -0.981614   -0.002634
     24          1           0       -0.433581    3.307078    0.015469
     25          1           0        3.354035    1.435409    0.021871
     26         16           0        2.719209   -1.520045   -0.002185
     27          9           0        1.343102   -2.535464    0.010740
     28          9           0        2.738765   -1.515100    1.707703
     29          9           0        2.710243   -1.527382   -1.713613
     30         17           0        2.313218    4.027882    0.015290
     31          9           0        3.674408   -2.938288   -0.004344
     32          9           0        4.174754   -0.624442   -0.021079
 ---------------------------------------------------------------------
 Rotational constants (GHZ):      0.3592043      0.1279121      0.0986626
 General basis read from cards:  (6D, 7F)
 There are   412 symmetry adapted cartesian basis functions of A   symmetry.
 There are   412 symmetry adapted basis functions of A   symmetry.
   412 basis functions,   736 primitive gaussians,   412 cartesian basis functions
    86 alpha electrons       86 beta electrons
       nuclear repulsion energy      1967.5603164186 Hartrees.
 NAtoms=   32 NActive=   32 NUniq=   32 SFac= 1.00D+00 NAtFMM=   60 NAOKFM=F Big=F
 Integral buffers will be    131072 words long.
 Raffenetti 2 integral format.
 Two-electron integral symmetry is turned on.
 ------------------------------------------------------------------------------
 Polarizable Continuum Model (PCM)
 =================================
 Model                : PCM (using non-symmetric T matrix).
 Atomic radii         : SMD-Coulomb.
 Polarization charges : Total charges.
 Charge compensation  : None.
 Solution method      : On-the-fly selection.
 Cavity type          : VdW (van der Waals Surface) (Alpha=1.000).
 Cavity algorithm     : GePol (No added spheres)
                        Default sphere list used, NSphG=   32.
                        Lebedev-Laikov grids with approx.  5.0 points / Ang**2.
                        Smoothing algorithm: York/Karplus (Gamma=1.0000).
                        Polarization charges: spherical gaussians, with
                                              point-specific exponents (IZeta= 3).
                        Self-potential: point-specific (ISelfS= 7).
                        Self-field    : sphere-specific E.n sum rule (ISelfD= 2).
 1st derivatives      : Analytical E(r).r(x)/FMM algorithm (CHGder, D1EAlg=3).
                        Cavity 1st derivative terms included.
 Solvent              : n-Pentadecane, Eps=   2.033300 Eps(inf)=   2.049192
 ------------------------------------------------------------------------------
 ------------------------------------------------------------------------------
 Atomic radii for non-electrostatic terms: SMD-CDS.
 ------------------------------------------------------------------------------
 Nuclear repulsion after PCM non-electrostatic terms =     1967.5542375079 Hartrees.
 One-electron integrals computed using PRISM.
 NBasis=   412 RedAO= T EigKep=  1.07D-06  NBF=   412
 NBsUse=   411 1.00D-06 EigRej=  6.09D-07 NBFU=   411
 ExpMin= 4.05D-02 ExpMax= 2.52D+04 ExpMxC= 3.78D+03 IAcc=3 IRadAn=         5 AccDes= 0.00D+00
 Harris functional with IExCor= 1009 and IRadAn=       5 diagonalized for initial guess.
 HarFok:  IExCor= 1009 AccDes= 0.00D+00 IRadAn=         5 IDoV= 1 UseB2=F ITyADJ=14
 ICtDFT=  3500011 ScaDFX=  1.000000  1.000000  1.000000  1.000000
 FoFCou: FMM=F IPFlag=           0 FMFlag=      100000 FMFlg1=           0
         NFxFlg=           0 DoJE=T BraDBF=F KetDBF=T FulRan=T
         wScrn=  0.000000 ICntrl=     500 IOpCl=  0 I1Cent=   200000004 NGrid=           0
         NMat0=    1 NMatS0=      1 NMatT0=    0 NMatD0=    1 NMtDS0=    0 NMtDT0=    0
 Petite list used in FoFCou.
 Requested convergence on RMS density matrix=1.00D-08 within 128 cycles.
 Requested convergence on MAX density matrix=1.00D-06.
 Requested convergence on             energy=1.00D-06.
 No special actions if energy rises.
 Inv3:  Mode=1 IEnd=    21450828.
 Iteration    1 A*A^-1 deviation from unit magnitude is 6.44D-15 for   2674.
 Iteration    1 A*A^-1 deviation from orthogonality  is 3.92D-15 for   2670    799.
 Iteration    1 A^-1*A deviation from unit magnitude is 6.44D-15 for   2674.
 Iteration    1 A^-1*A deviation from orthogonality  is 8.31D-15 for   1141   1067.
 Error on total polarization charges =  0.01908
 SCF Done:  E(RM062X) =  -1930.06288287     A.U. after   17 cycles
            NFock= 17  Conv=0.72D-08     -V/T= 2.0065
 SMD-CDS (non-electrostatic) energy       (kcal/mol) =      -3.81
 (included in total energy above)

 **********************************************************************

            Population analysis using the SCF density.

 **********************************************************************

 Orbital symmetries:
       Occupied  (A) (A) (A) (A) (A) (A) (A) (A) (A) (A) (A) (A)
                 (A) (A) (A) (A) (A) (A) (A) (A) (A) (A) (A) (A)
                 (A) (A) (A) (A) (A) (A) (A) (A) (A) (A) (A) (A)
                 (A) (A) (A) (A) (A) (A) (A) (A) (A) (A) (A) (A)
                 (A) (A) (A) (A) (A) (A) (A) (A) (A) (A) (A) (A)
                 (A) (A) (A) (A) (A) (A) (A) (A) (A) (A) (A) (A)
                 (A) (A) (A) (A) (A) (A) (A) (A) (A) (A) (A) (A)
                 (A) (A)
       Virtual   (A) (A) (A) (A) (A) (A) (A) (A) (A) (A) (A) (A)
                 (A) (A) (A) (A) (A) (A) (A) (A) (A) (A) (A) (A)
                 (A) (A) (A) (A) (A) (A) (A) (A) (A) (A) (A) (A)
                 (A) (A) (A) (A) (A) (A) (A) (A) (A) (A) (A) (A)
                 (A) (A) (A) (A) (A) (A) (A) (A) (A) (A) (A) (A)
                 (A) (A) (A) (A) (A) (A) (A) (A) (A) (A) (A) (A)
                 (A) (A) (A) (A) (A) (A) (A) (A) (A) (A) (A) (A)
                 (A) (A) (A) (A) (A) (A) (A) (A) (A) (A) (A) (A)
                 (A) (A) (A) (A) (A) (A) (A) (A) (A) (A) (A) (A)
                 (A) (A) (A) (A) (A) (A) (A) (A) (A) (A) (A) (A)
                 (A) (A) (A) (A) (A) (A) (A) (A) (A) (A) (A) (A)
                 (A) (A) (A) (A) (A) (A) (A) (A) (A) (A) (A) (A)
                 (A) (A) (A) (A) (A) (A) (A) (A) (A) (A) (A) (A)
                 (A) (A) (A) (A) (A) (A) (A) (A) (A) (A) (A) (A)
                 (A) (A) (A) (A) (A) (A) (A) (A) (A) (A) (A) (A)
                 (A) (A) (A) (A) (A) (A) (A) (A) (A) (A) (A) (A)
                 (A) (A) (A) (A) (A) (A) (A) (A) (A) (A) (A) (A)
                 (A) (A) (A) (A) (A) (A) (A) (A) (A) (A) (A) (A)
                 (A) (A) (A) (A) (A) (A) (A) (A) (A) (A) (A) (A)
                 (A) (A) (A) (A) (A) (A) (A) (A) (A) (A) (A) (A)
                 (A) (A) (A) (A) (A) (A) (A) (A) (A) (A) (A) (A)
                 (A) (A) (A) (A) (A) (A) (A) (A) (A) (A) (A) (A)
                 (A) (A) (A) (A) (A) (A) (A) (A) (A) (A) (A) (A)
                 (A) (A) (A) (A) (A) (A) (A) (A) (A) (A) (A) (A)
                 (A) (A) (A) (A) (A) (A) (A) (A) (A) (A) (A) (A)
                 (A) (A) (A) (A) (A) (A) (A) (A) (A) (A) (A) (A)
                 (A) (A) (A) (A) (A) (A) (A) (A) (A) (A) (A) (A)
                 (A)
 The electronic state is 1-A.
 Alpha  occ. eigenvalues -- -102.69415 -90.34250 -25.32233 -25.31469 -25.31223
 Alpha  occ. eigenvalues --  -25.30999 -25.30967 -19.61257 -14.82597 -14.79606
 Alpha  occ. eigenvalues --  -10.69269 -10.64886 -10.64770 -10.64628 -10.59831
 Alpha  occ. eigenvalues --  -10.59615 -10.59516 -10.58890 -10.55823 -10.54558
 Alpha  occ. eigenvalues --   -9.84028  -8.62808  -7.56445  -7.55757  -7.55746
 Alpha  occ. eigenvalues --   -6.55159  -6.55143  -6.54782  -1.44268  -1.37221
 Alpha  occ. eigenvalues --   -1.36731  -1.35556  -1.33984  -1.18950  -1.06982
 Alpha  occ. eigenvalues --   -1.03950  -1.01807  -0.97506  -0.93737  -0.89206
 Alpha  occ. eigenvalues --   -0.87333  -0.85648  -0.78903  -0.75278  -0.73758
 Alpha  occ. eigenvalues --   -0.71010  -0.70733  -0.68801  -0.68294  -0.67485
 Alpha  occ. eigenvalues --   -0.64527  -0.61508  -0.60647  -0.60334  -0.59642
 Alpha  occ. eigenvalues --   -0.59456  -0.56449  -0.56075  -0.55792  -0.54901
 Alpha  occ. eigenvalues --   -0.54605  -0.54229  -0.54134  -0.53903  -0.53373
 Alpha  occ. eigenvalues --   -0.53109  -0.52692  -0.51471  -0.51318  -0.50559
 Alpha  occ. eigenvalues --   -0.49646  -0.49511  -0.47443  -0.46595  -0.46361
 Alpha  occ. eigenvalues --   -0.45249  -0.43051  -0.42801  -0.40746  -0.40358
 Alpha  occ. eigenvalues --   -0.40094  -0.39101  -0.35052  -0.33382  -0.32620
 Alpha  occ. eigenvalues --   -0.29812
 Alpha virt. eigenvalues --   -0.10013  -0.03324  -0.00854  -0.00508   0.01527
 Alpha virt. eigenvalues --    0.02719   0.02772   0.03267   0.03487   0.03552
 Alpha virt. eigenvalues --    0.04273   0.04423   0.04724   0.05465   0.05539
 Alpha virt. eigenvalues --    0.06132   0.06946   0.07228   0.07543   0.07966
 Alpha virt. eigenvalues --    0.08174   0.08518   0.08860   0.09241   0.09763
 Alpha virt. eigenvalues --    0.10237   0.10568   0.11047   0.11786   0.11869
 Alpha virt. eigenvalues --    0.12214   0.12484   0.12957   0.13374   0.13821
 Alpha virt. eigenvalues --    0.14323   0.14686   0.14873   0.15923   0.16324
 Alpha virt. eigenvalues --    0.17359   0.17700   0.18111   0.18753   0.19077
 Alpha virt. eigenvalues --    0.19541   0.19795   0.20027   0.21085   0.21469
 Alpha virt. eigenvalues --    0.21877   0.22137   0.22845   0.23002   0.23416
 Alpha virt. eigenvalues --    0.23890   0.24559   0.24980   0.25215   0.25832
 Alpha virt. eigenvalues --    0.25965   0.27045   0.27588   0.27956   0.28462
 Alpha virt. eigenvalues --    0.28631   0.28956   0.29586   0.29853   0.30000
 Alpha virt. eigenvalues --    0.30358   0.30454   0.30763   0.31024   0.32512
 Alpha virt. eigenvalues --    0.32671   0.33052   0.33440   0.33768   0.34147
 Alpha virt. eigenvalues --    0.34482   0.34785   0.35317   0.35818   0.36159
 Alpha virt. eigenvalues --    0.36635   0.37136   0.37853   0.37905   0.38616
 Alpha virt. eigenvalues --    0.39622   0.39907   0.40704   0.41011   0.41553
 Alpha virt. eigenvalues --    0.42007   0.43446   0.44108   0.45119   0.45580
 Alpha virt. eigenvalues --    0.47466   0.48877   0.49520   0.49891   0.51047
 Alpha virt. eigenvalues --    0.53369   0.53669   0.54765   0.55065   0.57448
 Alpha virt. eigenvalues --    0.57580   0.57713   0.58046   0.59963   0.62056
 Alpha virt. eigenvalues --    0.64137   0.64471   0.66954   0.68569   0.68853
 Alpha virt. eigenvalues --    0.69437   0.69634   0.71099   0.71803   0.72289
 Alpha virt. eigenvalues --    0.73828   0.74286   0.74986   0.75882   0.76147
 Alpha virt. eigenvalues --    0.76646   0.77489   0.78039   0.78410   0.79830
 Alpha virt. eigenvalues --    0.80862   0.82191   0.84148   0.84901   0.85832
 Alpha virt. eigenvalues --    0.87575   0.88159   0.88679   0.90447   0.91182
 Alpha virt. eigenvalues --    0.91673   0.92418   0.94113   0.96603   0.98051
 Alpha virt. eigenvalues --    0.98640   0.98898   0.99742   1.00094   1.01211
 Alpha virt. eigenvalues --    1.01973   1.02924   1.03532   1.04316   1.05279
 Alpha virt. eigenvalues --    1.06745   1.08351   1.08874   1.10566   1.12175
 Alpha virt. eigenvalues --    1.13269   1.13870   1.14221   1.14748   1.16214
 Alpha virt. eigenvalues --    1.18107   1.19399   1.20085   1.22501   1.23075
 Alpha virt. eigenvalues --    1.24864   1.27267   1.29343   1.29855   1.31486
 Alpha virt. eigenvalues --    1.34071   1.35282   1.36965   1.38421   1.40966
 Alpha virt. eigenvalues --    1.41898   1.42758   1.44722   1.45538   1.47344
 Alpha virt. eigenvalues --    1.47894   1.48189   1.49168   1.49749   1.50633
 Alpha virt. eigenvalues --    1.54892   1.55670   1.55975   1.57143   1.58344
 Alpha virt. eigenvalues --    1.59288   1.60209   1.60449   1.60989   1.66758
 Alpha virt. eigenvalues --    1.69962   1.70469   1.72483   1.74692   1.75232
 Alpha virt. eigenvalues --    1.76119   1.76503   1.77319   1.79253   1.79906
 Alpha virt. eigenvalues --    1.80358   1.81233   1.82580   1.83277   1.84335
 Alpha virt. eigenvalues --    1.84804   1.85271   1.85566   1.86154   1.86968
 Alpha virt. eigenvalues --    1.87943   1.88038   1.88321   1.88610   1.90012
 Alpha virt. eigenvalues --    1.91062   1.91277   1.91563   1.93052   1.93795
 Alpha virt. eigenvalues --    1.96569   1.97359   1.97635   1.97707   1.97852
 Alpha virt. eigenvalues --    1.98280   1.98853   1.99888   2.00457   2.00918
 Alpha virt. eigenvalues --    2.01929   2.03171   2.03524   2.03981   2.04385
 Alpha virt. eigenvalues --    2.04967   2.05277   2.07602   2.08822   2.11944
 Alpha virt. eigenvalues --    2.12989   2.14797   2.15268   2.16118   2.17386
 Alpha virt. eigenvalues --    2.18114   2.21216   2.22223   2.22519   2.24127
 Alpha virt. eigenvalues --    2.24805   2.26363   2.26986   2.28383   2.30795
 Alpha virt. eigenvalues --    2.31390   2.32376   2.35559   2.38112   2.39138
 Alpha virt. eigenvalues --    2.39883   2.41824   2.44358   2.47060   2.51784
 Alpha virt. eigenvalues --    2.54351   2.60224   2.61642   2.63802   2.65863
 Alpha virt. eigenvalues --    2.66983   2.70175   2.71578   2.72614   2.74954
 Alpha virt. eigenvalues --    2.78723   2.79122   2.80107   2.80968   2.82359
 Alpha virt. eigenvalues --    2.84203   2.84835   2.92129   2.97301   3.04855
 Alpha virt. eigenvalues --    3.11920   3.19081   3.26551   3.31979   3.37113
 Alpha virt. eigenvalues --    4.14923   4.20041   4.24217   4.26332   4.33774
 Alpha virt. eigenvalues --    4.35144   4.36621   4.40230   4.42774   4.46769
 Alpha virt. eigenvalues --    4.49129   4.52080   4.57997   4.67421   4.74863
 Alpha virt. eigenvalues --    5.86140   5.86784   6.07112   6.38723   8.08794
          Condensed to atoms (all electrons):
               1          2          3          4          5          6
     1  C    5.659922  -0.072848   0.021778  -0.000561  -0.044734  -0.001762
     2  C   -0.072848   6.095338  -0.330880  -0.049809   0.137251   0.005809
     3  C    0.021778  -0.330880   6.630664   0.353644  -0.501981  -0.086233
     4  N   -0.000561  -0.049809   0.353644   7.773554   0.359523  -0.214505
     5  C   -0.044734   0.137251  -0.501981   0.359523   6.260635   0.721382
     6  O   -0.001762   0.005809  -0.086233  -0.214505   0.721382   8.303282
     7  N   -0.002235   0.015649  -0.153527  -0.458912  -0.077789  -0.064853
     8  C   -0.007483   0.028708  -0.482657  -0.270729  -1.685744  -0.532905
     9  C    0.001554  -0.000097   0.086442   0.076545   0.971648   0.517729
    10  C   -0.001276   0.005202  -0.105066  -0.151516  -1.975676  -0.125584
    11  C   -0.000027   0.000233   0.000568   0.030703  -0.099324   0.008226
    12  C    0.000365  -0.001440   0.049102   0.028145   1.037421  -0.017035
    13  C    0.000566  -0.000006   0.018773   0.020897   0.071314   0.085100
    14  H    0.406400  -0.082867   0.026802   0.000786   0.000523   0.000007
    15  H    0.408657  -0.050185  -0.011037  -0.000207   0.001959  -0.000026
    16  H    0.438875  -0.089023  -0.000149   0.002005  -0.009326  -0.000065
    17  H   -0.044521   0.409199  -0.067166   0.008143   0.003588  -0.000088
    18  H   -0.029809   0.425395  -0.073907   0.005193  -0.006415  -0.000310
    19  H   -0.009344  -0.042672   0.458111  -0.054784  -0.029093   0.002156
    20  H    0.020560  -0.072765   0.422482  -0.061061  -0.006467   0.001160
    21  H   -0.001989  -0.004899  -0.051177   0.241598   0.020753   0.008598
    22  H   -0.000131   0.000237   0.002435   0.020727  -0.001614   0.006779
    23  H   -0.000001  -0.000026   0.000820  -0.000285  -0.001686   0.006139
    24  H   -0.000001   0.000022  -0.000297   0.000942  -0.001643   0.000010
    25  H    0.000000   0.000000   0.000004   0.000000   0.000623   0.000005
    26  S   -0.000011   0.000227  -0.002960   0.000464  -0.043969   0.000536
    27  F    0.000000   0.000009  -0.000190   0.000012  -0.006273  -0.000655
    28  F   -0.000000   0.000001   0.000014  -0.000005  -0.000323   0.000080
    29  F   -0.000000  -0.000001  -0.000043  -0.000017  -0.001645   0.000075
    30  Cl  -0.000001   0.000015  -0.000360  -0.000167  -0.013976  -0.000035
    31  F   -0.000000   0.000000  -0.000003  -0.000001  -0.000560  -0.000006
    32  F    0.000000  -0.000000   0.000011   0.000001   0.000685   0.000002
               7          8          9         10         11         12
     1  C   -0.002235  -0.007483   0.001554  -0.001276  -0.000027   0.000365
     2  C    0.015649   0.028708  -0.000097   0.005202   0.000233  -0.001440
     3  C   -0.153527  -0.482657   0.086442  -0.105066   0.000568   0.049102
     4  N   -0.458912  -0.270729   0.076545  -0.151516   0.030703   0.028145
     5  C   -0.077789  -1.685744   0.971648  -1.975676  -0.099324   1.037421
     6  O   -0.064853  -0.532905   0.517729  -0.125584   0.008226  -0.017035
     7  N    7.888334  -0.057356  -0.192531   0.337980   0.022990   0.073514
     8  C   -0.057356  22.698776  -5.941909   1.271221   2.138069  -6.652926
     9  C   -0.192531  -5.941909  18.818090 -10.193335   0.461711  -3.590681
    10  C    0.337980   1.271221 -10.193335  27.555736  -0.808262  -7.686645
    11  C    0.022990   2.138069   0.461711  -0.808262  11.278348 -10.374662
    12  C    0.073514  -6.652926  -3.590681  -7.686645 -10.374662  51.784747
    13  C    0.069891  -4.065911   4.172603  -0.802295   3.150391 -19.701133
    14  H    0.000020   0.000002  -0.000002  -0.000000  -0.000000  -0.000000
    15  H    0.000032   0.000041  -0.000001   0.000001   0.000000   0.000000
    16  H   -0.000033  -0.000275   0.000006  -0.000006  -0.000000   0.000000
    17  H    0.000435  -0.001095  -0.000111   0.000127  -0.000010   0.000003
    18  H    0.000095  -0.000231   0.000162  -0.000017   0.000005   0.000005
    19  H    0.001492  -0.013624   0.005403  -0.001075  -0.000047   0.000112
    20  H   -0.000608  -0.000812   0.003286  -0.001037   0.000042   0.000011
    21  H    0.025659   0.012014   0.000618  -0.002865  -0.000082  -0.000004
    22  H    0.233896  -0.027590   0.083653  -0.155762   0.056201   0.011468
    23  H   -0.018394   0.187241   0.247579   0.079112  -0.010639  -0.056492
    24  H   -0.012484   0.060881   0.057079   0.033053   0.052435   0.096251
    25  H    0.000172  -0.021091   0.013710   0.109682   0.101776   0.129498
    26  S    0.004213  -0.782604  -0.624646   0.208849  -0.445698   1.619499
    27  F   -0.001088   0.099970   0.190970   0.016799   0.041148  -0.406114
    28  F    0.000035   0.055054   0.095759   0.029039   0.048754  -0.212475
    29  F   -0.000066   0.053792   0.096985   0.030674   0.057211  -0.237351
    30  Cl  -0.000935   0.047542   0.018505   0.035616  -0.143422  -0.173783
    31  F   -0.000041   0.009708   0.056854   0.007634   0.011854  -0.012554
    32  F    0.000126  -0.059894  -0.159560   0.026956  -0.073058   0.614487
              13         14         15         16         17         18
     1  C    0.000566   0.406400   0.408657   0.438875  -0.044521  -0.029809
     2  C   -0.000006  -0.082867  -0.050185  -0.089023   0.409199   0.425395
     3  C    0.018773   0.026802  -0.011037  -0.000149  -0.067166  -0.073907
     4  N    0.020897   0.000786  -0.000207   0.002005   0.008143   0.005193
     5  C    0.071314   0.000523   0.001959  -0.009326   0.003588  -0.006415
     6  O    0.085100   0.000007  -0.000026  -0.000065  -0.000088  -0.000310
     7  N    0.069891   0.000020   0.000032  -0.000033   0.000435   0.000095
     8  C   -4.065911   0.000002   0.000041  -0.000275  -0.001095  -0.000231
     9  C    4.172603  -0.000002  -0.000001   0.000006  -0.000111   0.000162
    10  C   -0.802295  -0.000000   0.000001  -0.000006   0.000127  -0.000017
    11  C    3.150391  -0.000000   0.000000  -0.000000  -0.000010   0.000005
    12  C  -19.701133  -0.000000   0.000000   0.000000   0.000003   0.000005
    13  C   24.511625  -0.000000   0.000000   0.000002  -0.000002   0.000008
    14  H   -0.000000   0.486581  -0.023409  -0.024789  -0.000469  -0.005536
    15  H    0.000000  -0.023409   0.482473  -0.025974  -0.007479   0.003496
    16  H    0.000002  -0.024789  -0.025974   0.489369   0.003955  -0.001410
    17  H   -0.000002  -0.000469  -0.007479   0.003955   0.515862  -0.031834
    18  H    0.000008  -0.005536   0.003496  -0.001410  -0.031834   0.490191
    19  H    0.000427  -0.000076   0.000048   0.002258   0.003595  -0.005747
    20  H    0.000211   0.000047   0.001138  -0.001421  -0.004286   0.003640
    21  H   -0.000278  -0.000003  -0.000011   0.000013   0.002835   0.000003
    22  H    0.006195  -0.000000  -0.000000   0.000000   0.000010  -0.000002
    23  H   -0.146585  -0.000000   0.000000  -0.000000  -0.000000   0.000000
    24  H    0.007226  -0.000000   0.000000   0.000000   0.000000  -0.000000
    25  H   -0.036142   0.000000  -0.000000  -0.000000  -0.000000  -0.000000
    26  S   -0.521463  -0.000000  -0.000000  -0.000000  -0.000000  -0.000000
    27  F    0.090223  -0.000000   0.000000  -0.000000  -0.000000   0.000000
    28  F   -0.039173   0.000000  -0.000000  -0.000000  -0.000000  -0.000000
    29  F   -0.019208  -0.000000  -0.000000  -0.000000  -0.000000  -0.000000
    30  Cl   0.062225   0.000000   0.000000  -0.000000  -0.000000   0.000000
    31  F   -0.203681   0.000000  -0.000000   0.000000   0.000000  -0.000000
    32  F   -0.429826  -0.000000   0.000000   0.000000   0.000000   0.000000
              19         20         21         22         23         24
     1  C   -0.009344   0.020560  -0.001989  -0.000131  -0.000001  -0.000001
     2  C   -0.042672  -0.072765  -0.004899   0.000237  -0.000026   0.000022
     3  C    0.458111   0.422482  -0.051177   0.002435   0.000820  -0.000297
     4  N   -0.054784  -0.061061   0.241598   0.020727  -0.000285   0.000942
     5  C   -0.029093  -0.006467   0.020753  -0.001614  -0.001686  -0.001643
     6  O    0.002156   0.001160   0.008598   0.006779   0.006139   0.000010
     7  N    0.001492  -0.000608   0.025659   0.233896  -0.018394  -0.012484
     8  C   -0.013624  -0.000812   0.012014  -0.027590   0.187241   0.060881
     9  C    0.005403   0.003286   0.000618   0.083653   0.247579   0.057079
    10  C   -0.001075  -0.001037  -0.002865  -0.155762   0.079112   0.033053
    11  C   -0.000047   0.000042  -0.000082   0.056201  -0.010639   0.052435
    12  C    0.000112   0.000011  -0.000004   0.011468  -0.056492   0.096251
    13  C    0.000427   0.000211  -0.000278   0.006195  -0.146585   0.007226
    14  H   -0.000076   0.000047  -0.000003  -0.000000  -0.000000  -0.000000
    15  H    0.000048   0.001138  -0.000011  -0.000000   0.000000   0.000000
    16  H    0.002258  -0.001421   0.000013   0.000000  -0.000000   0.000000
    17  H    0.003595  -0.004286   0.002835   0.000010  -0.000000   0.000000
    18  H   -0.005747   0.003640   0.000003  -0.000002   0.000000  -0.000000
    19  H    0.467084  -0.033738   0.002781   0.000011  -0.000001   0.000000
    20  H   -0.033738   0.501215   0.002019  -0.000011   0.000000  -0.000000
    21  H    0.002781   0.002019   0.318597   0.002736  -0.000002   0.000006
    22  H    0.000011  -0.000011   0.002736   0.311806  -0.000101   0.006319
    23  H   -0.000001   0.000000  -0.000002  -0.000101   0.383807  -0.000088
    24  H    0.000000  -0.000000   0.000006   0.006319  -0.000088   0.456646
    25  H    0.000000   0.000000  -0.000000  -0.000000  -0.000110  -0.000147
    26  S   -0.000024   0.000005  -0.000011   0.000360  -0.000262   0.002172
    27  F    0.000000   0.000000   0.000000  -0.000000   0.003404  -0.000001
    28  F   -0.000000   0.000000  -0.000000   0.000000   0.000233   0.000001
    29  F   -0.000000  -0.000000  -0.000000   0.000000   0.000245   0.000001
    30  Cl  -0.000000   0.000000   0.000002  -0.000508   0.000081  -0.002196
    31  F   -0.000000  -0.000000   0.000000   0.000000   0.000186   0.000000
    32  F   -0.000000  -0.000000  -0.000000  -0.000000   0.000074   0.000003
              25         26         27         28         29         30
     1  C    0.000000  -0.000011   0.000000  -0.000000  -0.000000  -0.000001
     2  C    0.000000   0.000227   0.000009   0.000001  -0.000001   0.000015
     3  C    0.000004  -0.002960  -0.000190   0.000014  -0.000043  -0.000360
     4  N    0.000000   0.000464   0.000012  -0.000005  -0.000017  -0.000167
     5  C    0.000623  -0.043969  -0.006273  -0.000323  -0.001645  -0.013976
     6  O    0.000005   0.000536  -0.000655   0.000080   0.000075  -0.000035
     7  N    0.000172   0.004213  -0.001088   0.000035  -0.000066  -0.000935
     8  C   -0.021091  -0.782604   0.099970   0.055054   0.053792   0.047542
     9  C    0.013710  -0.624646   0.190970   0.095759   0.096985   0.018505
    10  C    0.109682   0.208849   0.016799   0.029039   0.030674   0.035616
    11  C    0.101776  -0.445698   0.041148   0.048754   0.057211  -0.143422
    12  C    0.129498   1.619499  -0.406114  -0.212475  -0.237351  -0.173783
    13  C   -0.036142  -0.521463   0.090223  -0.039173  -0.019208   0.062225
    14  H    0.000000  -0.000000  -0.000000   0.000000  -0.000000   0.000000
    15  H   -0.000000  -0.000000   0.000000  -0.000000  -0.000000   0.000000
    16  H   -0.000000  -0.000000  -0.000000  -0.000000  -0.000000  -0.000000
    17  H   -0.000000  -0.000000  -0.000000  -0.000000  -0.000000  -0.000000
    18  H   -0.000000  -0.000000   0.000000  -0.000000  -0.000000   0.000000
    19  H    0.000000  -0.000024   0.000000  -0.000000  -0.000000  -0.000000
    20  H    0.000000   0.000005   0.000000   0.000000  -0.000000   0.000000
    21  H   -0.000000  -0.000011   0.000000  -0.000000  -0.000000   0.000002
    22  H   -0.000000   0.000360  -0.000000   0.000000   0.000000  -0.000508
    23  H   -0.000110  -0.000262   0.003404   0.000233   0.000245   0.000081
    24  H   -0.000147   0.002172  -0.000001   0.000001   0.000001  -0.002196
    25  H    0.415839   0.001906   0.000188   0.000208   0.000208   0.001285
    26  S    0.001906  14.107197  -0.014344   0.018222   0.019294  -0.003046
    27  F    0.000188  -0.014344   9.565116  -0.016758  -0.018134  -0.000359
    28  F    0.000208   0.018222  -0.016758   9.481025  -0.014983  -0.000520
    29  F    0.000208   0.019294  -0.018134  -0.014983   9.476956  -0.000520
    30  Cl   0.001285  -0.003046  -0.000359  -0.000520  -0.000520  16.943889
    31  F    0.000159   0.200475  -0.025765  -0.011385  -0.011700  -0.000023
    32  F    0.001158   0.081226  -0.042532  -0.015286  -0.015058   0.000291
              31         32
     1  C   -0.000000   0.000000
     2  C    0.000000  -0.000000
     3  C   -0.000003   0.000011
     4  N   -0.000001   0.000001
     5  C   -0.000560   0.000685
     6  O   -0.000006   0.000002
     7  N   -0.000041   0.000126
     8  C    0.009708  -0.059894
     9  C    0.056854  -0.159560
    10  C    0.007634   0.026956
    11  C    0.011854  -0.073058
    12  C   -0.012554   0.614487
    13  C   -0.203681  -0.429826
    14  H    0.000000  -0.000000
    15  H   -0.000000   0.000000
    16  H    0.000000   0.000000
    17  H    0.000000   0.000000
    18  H   -0.000000   0.000000
    19  H   -0.000000  -0.000000
    20  H   -0.000000  -0.000000
    21  H    0.000000  -0.000000
    22  H    0.000000  -0.000000
    23  H    0.000186   0.000074
    24  H    0.000000   0.000003
    25  H    0.000159   0.001158
    26  S    0.200475   0.081226
    27  F   -0.025765  -0.042532
    28  F   -0.011385  -0.015286
    29  F   -0.011700  -0.015058
    30  Cl  -0.000023   0.000291
    31  F    9.428425  -0.029213
    32  F   -0.029213   9.586495
 Mulliken charges:
               1
     1  C   -0.741941
     2  C   -0.325777
     3  C   -0.204017
     4  N   -0.660322
     5  C    0.920932
     6  O   -0.623014
     7  N   -0.633683
     8  C   -0.058180
     9  C    0.725983
    10  C   -1.737262
    11  C    0.494568
    12  C   -0.321331
    13  C   -0.301975
    14  H    0.215983
    15  H    0.220484
    16  H    0.215989
    17  H    0.209307
    18  H    0.227027
    19  H    0.246748
    20  H    0.226389
    21  H    0.423086
    22  H    0.442887
    23  H    0.325753
    24  H    0.243808
    25  H    0.281071
    26  S    2.174393
    27  F   -0.475625
    28  F   -0.417517
    29  F   -0.416715
    30  Cl   0.230400
    31  F   -0.420360
    32  F   -0.487087
 Sum of Mulliken charges =  -0.00000
 Mulliken charges with hydrogens summed into heavy atoms:
               1
     1  C   -0.089485
     2  C    0.110556
     3  C    0.269119
     4  N   -0.237236
     5  C    0.920932
     6  O   -0.623014
     7  N   -0.190796
     8  C   -0.058180
     9  C    1.051736
    10  C   -1.493454
    11  C    0.494568
    12  C   -0.040260
    13  C   -0.301975
    26  S    2.174393
    27  F   -0.475625
    28  F   -0.417517
    29  F   -0.416715
    30  Cl   0.230400
    31  F   -0.420360
    32  F   -0.487087
 Electronic spatial extent (au):  <R**2>=          10203.1054
 Charge=             -0.0000 electrons
 Dipole moment (field-independent basis, Debye):
    X=             -7.3151    Y=              6.4246    Z=              0.0362  Tot=              9.7359
 Quadrupole moment (field-independent basis, Debye-Ang):
   XX=           -110.7177   YY=           -131.0617   ZZ=           -135.4370
   XY=             -6.6718   XZ=              0.3563   YZ=             -0.1307
 Traceless Quadrupole moment (field-independent basis, Debye-Ang):
   XX=             15.0211   YY=             -5.3229   ZZ=             -9.6982
   XY=             -6.6718   XZ=              0.3563   YZ=             -0.1307
 Octapole moment (field-independent basis, Debye-Ang**2):
  XXX=           -112.2333  YYY=            -21.9931  ZZZ=              0.0047  XYY=             -9.4302
  XXY=             34.6141  XXZ=             -3.8161  XZZ=             18.9168  YZZ=            -17.8720
  YYZ=             -1.1063  XYZ=             -0.4376
 Hexadecapole moment (field-independent basis, Debye-Ang**3):
 XXXX=          -8832.0269 YYYY=          -2889.9774 ZZZZ=           -344.0248 XXXY=           -146.8452
 XXXZ=             40.9971 YYYX=           -192.3254 YYYZ=              2.0490 ZZZX=             -2.3268
 ZZZY=             -0.3018 XXYY=          -2081.9802 XXZZ=          -1682.4706 YYZZ=           -560.3459
 XXYZ=              7.8127 YYXZ=              5.0431 ZZXY=            -37.8805
 N-N= 1.967554237508D+03 E-N=-8.488862277948D+03  KE= 1.917634475444D+03
 D1PCM: PCM CHGder 1st derivatives, ID1Alg=3 FixD1E=F DoIter=F DoCFld=F I1PDM=0.
 Calling FoFJK, ICntrl=      2127 FMM=F ISym2X=0 I1Cent= 0 IOpClX= 0 NMat=1 NMatS=1 NMatT=0.
 ***** Axes restored to original set *****
 -------------------------------------------------------------------
 Center     Atomic                   Forces (Hartrees/Bohr)
 Number     Number              X              Y              Z
 -------------------------------------------------------------------
      1        6          -0.007660279    0.000192577   -0.001549918
      2        6           0.006171405   -0.005452689    0.004001076
      3        6          -0.007180023    0.005446357    0.000442902
      4        7           0.018932701   -0.034360926   -0.000804738
      5        6          -0.018352980    0.023632614    0.006651005
      6        8           0.003596673    0.016281234   -0.001050640
      7        7           0.030144568   -0.021731908   -0.004233790
      8        6          -0.007938607    0.002891092    0.002020545
      9        6           0.010217515    0.011241338    0.001547518
     10        6          -0.001219512   -0.007041887   -0.000794536
     11        6          -0.011748367    0.005294880    0.001268502
     12        6           0.008506787    0.019315110    0.002966288
     13        6          -0.006993932   -0.045265211   -0.006411639
     14        1           0.003425763    0.007661777   -0.007643676
     15        1          -0.000672247    0.003625475    0.010935336
     16        1          -0.002288820   -0.009731252   -0.003462102
     17        1          -0.001090898    0.004973598    0.008107558
     18        1           0.003217796    0.001561268   -0.010197114
     19        1           0.001453350   -0.006614453   -0.010213848
     20        1           0.000176796   -0.000428527    0.009399799
     21        1          -0.005368961    0.016736674   -0.001634377
     22        1           0.004855516    0.015138306    0.001401110
     23        1          -0.010971067    0.003042423    0.001042305
     24        1          -0.001284900   -0.002646093   -0.000295834
     25        1           0.003260465    0.006013004    0.000878502
     26       16          -0.001781452    0.011734472    0.002347585
     27        9           0.055380748   -0.003321750   -0.001694042
     28        9           0.002590318    0.003651269    0.052042505
     29        9           0.000586377    0.018389779   -0.049579220
     30       17          -0.007407756    0.006575647    0.000821556
     31        9          -0.008759055   -0.059951635   -0.008814282
     32        9          -0.051797921    0.013147436    0.002505663
 -------------------------------------------------------------------
 Cartesian Forces:  Max     0.059951635 RMS     0.015988717

 GradGradGradGradGradGradGradGradGradGradGradGradGradGradGradGradGradGrad
 Berny optimization.
 FormGI is forming the generalized inverse of G from B-inverse, IUseBI=4.
 GSVD:  received Info=                   1 from GESDD.
 Internal  Forces:  Max     0.061223839 RMS     0.012203842
 Search for a local minimum.
 Step number   1 out of a maximum of  173
 All quantities printed in internal units (Hartrees-Bohrs-Radians)
 Mixed Optimization -- RFO/linear search
 Second derivative matrix not updated -- first step.
 ITU=  0
     Eigenvalues ---    0.00230   0.00371   0.00473   0.01075   0.01075
     Eigenvalues ---    0.01213   0.01533   0.01689   0.01725   0.01836
     Eigenvalues ---    0.01870   0.01998   0.02044   0.02164   0.02167
     Eigenvalues ---    0.02189   0.02191   0.02219   0.02240   0.03816
     Eigenvalues ---    0.04528   0.04973   0.05568   0.05744   0.05852
     Eigenvalues ---    0.08012   0.08676   0.08693   0.09170   0.11954
     Eigenvalues ---    0.12632   0.12937   0.12948   0.12963   0.12968
     Eigenvalues ---    0.16000   0.16000   0.16000   0.16000   0.16000
     Eigenvalues ---    0.16000   0.16000   0.16000   0.16733   0.21957
     Eigenvalues ---    0.21998   0.22000   0.22000   0.22059   0.23435
     Eigenvalues ---    0.23478   0.23501   0.24999   0.25000   0.25000
     Eigenvalues ---    0.25000   0.25000   0.25000   0.25000   0.29438
     Eigenvalues ---    0.30040   0.30159   0.32334   0.32364   0.32370
     Eigenvalues ---    0.32378   0.32502   0.32516   0.32650   0.34545
     Eigenvalues ---    0.34686   0.34712   0.34722   0.34815   0.35572
     Eigenvalues ---    0.36432   0.37648   0.38695   0.40113   0.40184
     Eigenvalues ---    0.40524   0.42309   0.42511   0.42905   0.44814
     Eigenvalues ---    0.46039   0.47319   0.52084   0.52921   0.94712
 RFO step:  Lambda=-6.41532091D-02 EMin= 2.30000000D-03
 Linear search not attempted -- first point.
 Maximum step size (   0.300) exceeded in Quadratic search.
    -- Step size scaled by   0.711
 Iteration  1 RMS(Cart)=  0.05232523 RMS(Int)=  0.00055152
 Iteration  2 RMS(Cart)=  0.00102987 RMS(Int)=  0.00012599
 Iteration  3 RMS(Cart)=  0.00000048 RMS(Int)=  0.00012599
 Variable       Old X    -DE/DX   Delta X   Delta X   Delta X     New X
                                 (Linear)    (Quad)   (Total)
    R1        2.87647   0.00755   0.00000   0.01468   0.01468   2.89115
    R2        2.09671  -0.01040   0.00000  -0.01891  -0.01891   2.07780
    R3        2.09910  -0.01075   0.00000  -0.01962  -0.01962   2.07948
    R4        2.09936  -0.01006   0.00000  -0.01836  -0.01836   2.08100
    R5        2.89098  -0.00276   0.00000  -0.00547  -0.00547   2.88551
    R6        2.10182  -0.00896   0.00000  -0.01641  -0.01641   2.08541
    R7        2.10157  -0.00998   0.00000  -0.01827  -0.01827   2.08330
    R8        2.73366   0.00458   0.00000   0.00722   0.00722   2.74088
    R9        2.10172  -0.01198   0.00000  -0.02194  -0.02194   2.07978
   R10        2.10236  -0.00867   0.00000  -0.01589  -0.01589   2.08647
   R11        2.57027   0.00263   0.00000   0.00315   0.00315   2.57343
   R12        1.95232  -0.01722   0.00000  -0.02511  -0.02511   1.92721
   R13        2.30834   0.01525   0.00000   0.01072   0.01072   2.31906
   R14        2.57819   0.01487   0.00000   0.01806   0.01806   2.59625
   R15        2.71400  -0.03382   0.00000  -0.05165  -0.05165   2.66235
   R16        1.94978  -0.01505   0.00000  -0.02186  -0.02186   1.92792
   R17        2.67852  -0.01908   0.00000  -0.02822  -0.02824   2.65029
   R18        2.64676  -0.00375   0.00000  -0.00464  -0.00477   2.64198
   R19        2.68477  -0.02538   0.00000  -0.03819  -0.03806   2.64670
   R20        2.01580   0.01063   0.00000   0.01714   0.01714   2.03294
   R21        2.62021  -0.00121   0.00000  -0.00050  -0.00062   2.61959
   R22        2.04756   0.00279   0.00000   0.00472   0.00472   2.05228
   R23        2.62826  -0.00295   0.00000  -0.00326  -0.00325   2.62501
   R24        3.31583  -0.00991   0.00000  -0.01932  -0.01932   3.29651
   R25        2.67168  -0.02191   0.00000  -0.03170  -0.03157   2.64011
   R26        2.03411   0.00498   0.00000   0.00826   0.00826   2.04237
   R27        3.51032  -0.01702   0.00000  -0.04246  -0.04246   3.46786
   R28        3.23188  -0.05504   0.00000  -0.09516  -0.09516   3.13672
   R29        3.23145  -0.05093   0.00000  -0.08798  -0.08798   3.14346
   R30        3.23420  -0.05172   0.00000  -0.08973  -0.08973   3.14448
   R31        3.23128  -0.06122   0.00000  -0.10575  -0.10575   3.12553
   R32        3.22976  -0.05295   0.00000  -0.09124  -0.09124   3.13852
    A1        1.90870   0.00524   0.00000   0.01729   0.01718   1.92588
    A2        1.92179   0.00378   0.00000   0.01179   0.01171   1.93350
    A3        1.92286   0.00276   0.00000   0.00827   0.00821   1.93107
    A4        1.90242  -0.00409   0.00000  -0.01201  -0.01214   1.89029
    A5        1.89937  -0.00386   0.00000  -0.01190  -0.01198   1.88739
    A6        1.90842  -0.00399   0.00000  -0.01395  -0.01397   1.89445
    A7        1.93654   0.00009   0.00000   0.00198   0.00198   1.93852
    A8        1.90519   0.00066   0.00000   0.00370   0.00371   1.90889
    A9        1.90333   0.00216   0.00000   0.01033   0.01034   1.91367
   A10        1.90772  -0.00017   0.00000  -0.00172  -0.00174   1.90598
   A11        1.91238  -0.00116   0.00000  -0.00477  -0.00480   1.90758
   A12        1.89825  -0.00161   0.00000  -0.00974  -0.00977   1.88848
   A13        1.92913  -0.00090   0.00000  -0.00064  -0.00065   1.92848
   A14        1.91519   0.00140   0.00000   0.00400   0.00400   1.91919
   A15        1.90851   0.00047   0.00000   0.00278   0.00276   1.91128
   A16        1.90319  -0.00070   0.00000  -0.00377  -0.00377   1.89942
   A17        1.90241   0.00177   0.00000   0.00816   0.00816   1.91056
   A18        1.90520  -0.00206   0.00000  -0.01068  -0.01067   1.89453
   A19        2.12562  -0.00191   0.00000  -0.00477  -0.00477   2.12086
   A20        2.07890  -0.00222   0.00000  -0.00768  -0.00768   2.07122
   A21        2.07864   0.00413   0.00000   0.01246   0.01246   2.09110
   A22        2.08444   0.01848   0.00000   0.04180   0.04180   2.12624
   A23        2.07481  -0.02375   0.00000  -0.05371  -0.05372   2.02109
   A24        2.12393   0.00527   0.00000   0.01191   0.01191   2.13584
   A25        2.24824  -0.01033   0.00000  -0.02584  -0.02584   2.22240
   A26        2.01844   0.01027   0.00000   0.02909   0.02909   2.04753
   A27        2.01651   0.00006   0.00000  -0.00325  -0.00325   2.01325
   A28        2.18089  -0.01126   0.00000  -0.02605  -0.02598   2.15491
   A29        2.03567   0.00359   0.00000   0.00754   0.00761   2.04328
   A30        2.06662   0.00767   0.00000   0.01852   0.01837   2.08499
   A31        2.11954  -0.01195   0.00000  -0.03159  -0.03148   2.08806
   A32        2.08692   0.00173   0.00000   0.00234   0.00228   2.08920
   A33        2.07672   0.01022   0.00000   0.02925   0.02920   2.10592
   A34        2.11450  -0.00885   0.00000  -0.01755  -0.01781   2.09670
   A35        2.09496   0.00343   0.00000   0.00561   0.00573   2.10070
   A36        2.07371   0.00543   0.00000   0.01195   0.01208   2.08578
   A37        2.09813   0.00532   0.00000   0.01652   0.01641   2.11454
   A38        2.09129  -0.00152   0.00000  -0.00567  -0.00561   2.08568
   A39        2.09374  -0.00380   0.00000  -0.01084  -0.01079   2.08295
   A40        2.11860  -0.01789   0.00000  -0.04272  -0.04258   2.07602
   A41        2.02398   0.01379   0.00000   0.03673   0.03666   2.06064
   A42        2.14060   0.00409   0.00000   0.00599   0.00592   2.14652
   A43        2.04897   0.02569   0.00000   0.05683   0.05709   2.10606
   A44        2.12753  -0.01538   0.00000  -0.03415  -0.03428   2.09325
   A45        2.10668  -0.01031   0.00000  -0.02268  -0.02281   2.08387
   A46        1.61369   0.00562   0.00000   0.02121   0.02120   1.63488
   A47        1.56920   0.00989   0.00000   0.03558   0.03555   1.60476
   A48        1.57701   0.00838   0.00000   0.03146   0.03144   1.60845
   A49        1.61203   0.00635   0.00000   0.02268   0.02267   1.63470
   A50        1.57416  -0.00045   0.00000  -0.00175  -0.00249   1.57167
   A51        1.57159  -0.00032   0.00000  -0.00102  -0.00170   1.56989
   A52        1.52782  -0.00547   0.00000  -0.02072  -0.02070   1.50712
   A53        1.56807  -0.00934   0.00000  -0.03361  -0.03358   1.53449
   A54        1.57060  -0.00061   0.00000  -0.00232  -0.00310   1.56750
   A55        1.56890  -0.00893   0.00000  -0.03343  -0.03341   1.53549
   A56        1.56645  -0.00021   0.00000  -0.00076  -0.00147   1.56497
   A57        1.52966  -0.00650   0.00000  -0.02319  -0.02318   1.50648
   A58        3.14151   0.00015   0.00000   0.00050   0.00050   3.14201
   A59        3.22572   0.01197   0.00000   0.04390   0.04387   3.26959
   A60        3.14621   0.01827   0.00000   0.06704   0.06699   3.21320
   A61        3.14592  -0.00055   0.00000  -0.00197  -0.00197   3.14394
   A62        3.14462  -0.00024   0.00000  -0.00114  -0.00111   3.14351
   A63        3.13723  -0.00004   0.00000  -0.00021  -0.00020   3.13703
    D1       -2.74097  -0.00060   0.00000  -0.00777  -0.00776  -2.74873
    D2        1.43877  -0.00088   0.00000  -0.00928  -0.00927   1.42950
    D3       -0.63293  -0.00058   0.00000  -0.00571  -0.00570  -0.63863
    D4        1.45225  -0.00116   0.00000  -0.01101  -0.01104   1.44121
    D5       -0.65120  -0.00143   0.00000  -0.01252  -0.01255  -0.66375
    D6       -2.72290  -0.00113   0.00000  -0.00896  -0.00898  -2.73188
    D7       -0.65409  -0.00040   0.00000  -0.00657  -0.00656  -0.66066
    D8       -2.75754  -0.00067   0.00000  -0.00808  -0.00807  -2.76561
    D9        1.45394  -0.00037   0.00000  -0.00452  -0.00450   1.44944
   D10       -2.98304  -0.00070   0.00000  -0.00557  -0.00558  -2.98862
   D11        1.20055  -0.00016   0.00000  -0.00305  -0.00306   1.19749
   D12       -0.88868   0.00122   0.00000   0.00589   0.00589  -0.88279
   D13       -0.88110   0.00007   0.00000  -0.00083  -0.00085  -0.88194
   D14       -2.98069   0.00061   0.00000   0.00168   0.00167  -2.97902
   D15        1.21327   0.00199   0.00000   0.01062   0.01061   1.22388
   D16        1.19747  -0.00269   0.00000  -0.01659  -0.01658   1.18089
   D17       -0.90212  -0.00215   0.00000  -0.01408  -0.01406  -0.91619
   D18       -2.99135  -0.00077   0.00000  -0.00514  -0.00512  -2.99647
   D19       -2.90115   0.00004   0.00000   0.00095   0.00095  -2.90020
   D20        0.24621  -0.00012   0.00000  -0.00042  -0.00041   0.24580
   D21       -0.79438   0.00076   0.00000   0.00308   0.00308  -0.79130
   D22        2.35297   0.00060   0.00000   0.00171   0.00172   2.35469
   D23        1.28401  -0.00111   0.00000  -0.00726  -0.00728   1.27674
   D24       -1.85182  -0.00127   0.00000  -0.00863  -0.00863  -1.86045
   D25        0.16263  -0.00262   0.00000  -0.02166  -0.02168   0.14095
   D26       -2.97780  -0.00206   0.00000  -0.01703  -0.01701  -2.99481
   D27       -2.98472  -0.00249   0.00000  -0.02036  -0.02037  -3.00509
   D28        0.15803  -0.00192   0.00000  -0.01573  -0.01570   0.14233
   D29        3.13167   0.00058   0.00000   0.00482   0.00484   3.13652
   D30       -0.01162   0.00055   0.00000   0.00460   0.00462  -0.00701
   D31       -0.00874   0.00115   0.00000   0.00954   0.00953   0.00079
   D32        3.13115   0.00112   0.00000   0.00932   0.00930   3.14045
   D33       -0.01447  -0.00004   0.00000  -0.00028  -0.00027  -0.01474
   D34        3.12388   0.00016   0.00000   0.00141   0.00140   3.12528
   D35        3.12883  -0.00002   0.00000  -0.00008  -0.00007   3.12876
   D36       -0.01601   0.00018   0.00000   0.00161   0.00160  -0.01441
   D37        3.13469   0.00033   0.00000   0.00265   0.00263   3.13732
   D38       -0.00531   0.00024   0.00000   0.00201   0.00200  -0.00332
   D39       -0.00361   0.00013   0.00000   0.00096   0.00094  -0.00266
   D40        3.13957   0.00005   0.00000   0.00032   0.00031   3.13989
   D41       -3.13485  -0.00025   0.00000  -0.00232  -0.00235  -3.13720
   D42        0.00136  -0.00010   0.00000  -0.00094  -0.00096   0.00040
   D43        0.00372  -0.00010   0.00000  -0.00083  -0.00083   0.00288
   D44        3.13993   0.00005   0.00000   0.00055   0.00056   3.14048
   D45        0.00320  -0.00011   0.00000  -0.00094  -0.00094   0.00226
   D46       -3.13620  -0.00016   0.00000  -0.00145  -0.00145  -3.13765
   D47       -3.13997  -0.00004   0.00000  -0.00032  -0.00032  -3.14029
   D48        0.00382  -0.00008   0.00000  -0.00083  -0.00083   0.00298
   D49       -0.00352   0.00010   0.00000   0.00081   0.00081  -0.00271
   D50        3.12961   0.00029   0.00000   0.00254   0.00256   3.13216
   D51       -3.13979  -0.00005   0.00000  -0.00054  -0.00055  -3.14034
   D52       -0.00667   0.00014   0.00000   0.00120   0.00120  -0.00547
   D53        0.00313  -0.00012   0.00000  -0.00089  -0.00088   0.00225
   D54        3.14132   0.00001   0.00000   0.00025   0.00027   3.14158
   D55       -3.12998  -0.00033   0.00000  -0.00265  -0.00265  -3.13263
   D56        0.00820  -0.00019   0.00000  -0.00151  -0.00150   0.00670
   D57       -0.00293   0.00011   0.00000   0.00090   0.00090  -0.00203
   D58        3.13650   0.00015   0.00000   0.00139   0.00140   3.13789
   D59       -3.14088  -0.00004   0.00000  -0.00037  -0.00036  -3.14124
   D60       -0.00146  -0.00001   0.00000   0.00012   0.00014  -0.00132
   D61       -0.01514  -0.00009   0.00000  -0.00061  -0.00061  -0.01574
   D62       -1.58923  -0.00005   0.00000  -0.00036  -0.00036  -1.58959
[...]
 0008206,-0.00251892,-0.00048018,-0.00005521,0.00197097,0.00279583,0.00
 034256,-0.00073319,-0.00601809,0.00163614,0.00099133,-0.00103076,0.000
 02743,-0.00055309,-0.00047750,-0.00149987,-0.00486004,-0.00385027,0.00
 168780,0.02307282,-0.00902336,0.01835153,-0.00002986,-0.00000037,0.000
 00254,-0.00000688,0.00000852,-0.00001392,-0.00000078,0.00000631,0.0000
 1155,0.00000123,-0.00000580,0.00000941,0.00001090,0.00000679,-0.000012
 65,-0.00001693,0.00000888,0.00000914,-0.00010118,0.00003935,-0.0000383
 5,0.00003050,0.00009099,0.00001358,-0.00006906,0.00007792,0.00002011,0
 .00096100,-0.00181649,0.00030178,0.00000481,-0.00007692,-0.00003072,-0
 .00004145,0.00011900,0.00051781,0.03261460,-0.08697479,0.03446536,-0.0
 2850982,0.09971926,-0.00000282,0.00001359,-0.00000930,0.00002667,-0.00
 002441,-0.00000159,-0.00013457,0.00009466,-0.00006377,0.00038735,0.000
 02062,0.00006048,-0.00099996,0.00065304,-0.00002905,0.00039522,-0.0004
 7248,0.00026538,0.00108848,0.00024376,0.00019327,-0.00046419,-0.000408
 82,0.00016908,0.00029491,0.00210267,0.00101178,0.00028580,0.00028340,-
 0.00001137,-0.00096758,-0.00052586,0.00020789,0.00303434,0.00447232,-0
 .00005894,-0.01278695,-0.00506937,-0.00383703,0.00000518,-0.00000467,-
 0.00000077,0.00001110,-0.00000580,0.00001348,-0.00000181,0.00000577,-0
 .00000138,-0.00000228,0.00001039,0.00000127,-0.00000614,-0.00002025,0.
 00001511,0.00000359,0.00000473,-0.00000106,0.00006039,-0.00002192,0.00
 003997,-0.00001891,0.00000462,-0.00006913,0.00005416,0.00000383,-0.000
 09747,-0.00019134,0.00082869,-0.00102474,0.00005366,0.00004918,-0.0000
 5427,0.00012628,-0.00025430,-0.00032152,-0.06559549,0.03455773,-0.1301
 9943,0.10639508,-0.03189882,0.18773004,-0.00000593,-0.00003706,0.00000
 313,-0.00001167,0.00006335,-0.00000166,0.00022922,-0.00009815,-0.00004
 391,-0.00069653,-0.00044406,0.00000597,0.00115772,0.00061168,0.0001416
 0,-0.00056871,-0.00044937,-0.00006108,-0.00048211,-0.00072596,-0.00025
 607,-0.00041673,0.00057847,-0.00082767,0.00241047,-0.00477433,0.000714
 83,-0.00010873,-0.00055307,0.00012242,0.00034798,0.00070164,-0.0008608
 5,-0.00263537,-0.00186712,-0.00057077,-0.01238087,0.00466818,0.0146881
 4,-0.00002868,-0.00001085,0.00000283,0.00000173,0.00001093,-0.00000160
 ,0.00000555,0.00000744,-0.00000326,-0.00000270,-0.00001525,-0.00000545
 ,0.00000487,-0.00000215,0.00000086,0.00000145,0.00001586,-0.00000980,-
 0.00005208,0.00003347,-0.00000422,-0.00000443,0.00007562,-0.00000339,-
 0.00017032,0.00001365,0.00001755,0.00077277,0.00049560,0.00039503,0.00
 010704,-0.00006072,0.00009435,0.00105137,-0.00070519,0.00073502,-0.139
 56008,-0.01773531,0.07179123,-0.04385778,0.00187284,0.01013436,0.19076
 426,-0.00000184,-0.00004451,-0.00000094,-0.00003244,0.00007154,-0.0000
 0581,0.00029700,-0.00015534,-0.00005078,-0.00090379,-0.00030046,0.0000
 6174,0.00208542,-0.00061071,-0.00015939,-0.00072034,0.00040466,0.00009
 151,-0.00205816,-0.00058145,-0.00022867,0.00084118,-0.00043736,-0.0011
 1096,0.00307754,-0.00379232,0.00126516,-0.00167406,-0.00071135,0.00003
 864,-0.00071439,0.00241281,0.00064009,-0.00033870,-0.00608264,0.001792
 71,-0.02213691,-0.00376914,0.01525350,-0.00002832,-0.00000351,0.000002
 35,-0.00000333,0.00000819,-0.00000910,0.00000061,0.00000734,0.00000779
 ,0.00000020,-0.00000648,0.00000619,0.00000870,0.00000199,-0.00000758,-
 0.00001429,0.00001101,0.00000422,-0.00008145,0.00003470,-0.00002504,0.
 00002689,0.00008666,0.00000550,-0.00013019,0.00006066,-0.00001427,0.00
 027396,-0.00008230,0.00044465,-0.00007820,-0.00003806,-0.00008259,-0.0
 0131048,-0.00208676,0.00045563,-0.01747153,-0.07356712,0.01560563,0.01
 223145,0.00700155,-0.00179782,0.00275276,0.09236843,0.00000249,0.00002
 185,-0.00000619,0.00001236,-0.00003796,-0.00000383,-0.00014930,0.00007
 275,-0.00000699,0.00046045,0.00023466,0.00003921,-0.00081956,-0.000209
 86,-0.00014192,0.00038199,0.00014784,0.00014116,0.00041671,0.00064405,
 0.00027952,0.00097349,-0.00080539,0.00005059,-0.00154423,0.00495020,0.
 00012401,-0.00021041,0.00035038,-0.00001103,0.00022179,-0.00019558,0.0
 0028851,0.00061441,0.00215127,0.00098371,0.01099048,-0.00848157,-0.004
 23112,0.00001566,0.00000433,-0.00000229,0.00000295,-0.00000876,0.00000
 536,-0.00000443,-0.00000030,0.00000360,0.00000075,0.00001413,0.0000064
 6,-0.00000394,-0.00000750,0.00000490,-0.00000236,-0.00000618,0.0000072
 5,0.00004471,-0.00002535,0.00001463,-0.00000067,-0.00003335,-0.0000275
 3,0.00015437,0.00000775,-0.00004866,-0.00045256,-0.00020336,-0.0003167
 4,-0.00003077,0.00005824,-0.00005623,0.00006079,0.00106936,-0.00111080
 ,0.07033902,0.01630632,-0.12868720,-0.01006470,0.00101729,0.00791533,-
 0.10855985,-0.00306631,0.18744100,-0.00000437,0.00000967,0.00001076,0.
 00002879,-0.00000841,0.00000432,-0.00005357,0.00007051,0.00006207,0.00
 022175,-0.00027661,-0.00009866,-0.00122439,0.00178501,0.00057182,0.000
 25766,-0.00118575,-0.00055943,0.00136862,0.00016228,-0.00019651,0.0005
 1537,-0.00054175,-0.00092397,-0.00189753,0.00108214,-0.00110630,0.0001
 8476,0.00020354,0.00019984,-0.00040224,-0.00029992,-0.00075204,0.00273
 553,0.00306026,0.00137270,-0.00820055,-0.00626744,0.00850556,-0.000002
 26,-0.00001077,-0.00000005,0.00000360,0.00000619,0.00000388,0.00001076
 ,-0.00000243,-0.00001599,-0.00000571,-0.00001855,-0.00001906,-0.000004
 13,0.00000466,0.00000725,0.00003002,0.00000450,-0.00002249,0.00002293,
 0.00000349,0.00000971,-0.00004801,-0.00002726,0.00000020,0.00006829,-0
 .00001181,0.00007850,0.00101087,-0.00041465,0.00065986,0.00014047,-0.0
 0001890,0.00010082,0.00031203,-0.00065849,0.00008745,-0.13365652,0.015
 17306,0.07498392,0.00772046,0.00109371,-0.00958408,-0.00093122,-0.0012
 0363,0.00518452,0.19309636,-0.00000060,-0.00004432,-0.00000339,-0.0000
 3541,0.00006951,-0.00000777,0.00029840,-0.00016077,-0.00006323,-0.0008
 8979,-0.00028429,0.00008019,0.00212337,-0.00065016,-0.00022197,-0.0007
 9858,0.00047309,0.00017094,-0.00216331,-0.00037338,-0.00002107,0.00186
 913,0.00254615,0.00031851,-0.00071440,-0.00472812,-0.00332128,0.000969
 79,-0.00086904,-0.00024754,-0.00068674,-0.00089561,0.00116950,-0.00389
 958,-0.00221015,-0.00224831,0.01939475,-0.00508233,-0.01820668,-0.0000
 2690,-0.00000129,0.00000220,-0.00000376,0.00000638,-0.00000963,-0.0000
 0141,0.00000767,0.00001114,0.00000086,-0.00000202,0.00000990,0.0000087
 3,0.00000078,-0.00000827,-0.00001748,0.00000725,0.00000865,-0.00008015
 ,0.00003245,-0.00002701,0.00002868,0.00008558,-0.00000108,-0.00005058,
 0.00006929,0.00002787,0.00076909,-0.00191424,-0.00076521,0.00002008,-0
 .00007300,0.00001960,-0.00001234,0.00016293,-0.00037722,0.01529681,-0.
 07235298,-0.01877145,-0.00181717,0.00767656,0.01148176,0.00234238,0.00
 853784,-0.00124837,-0.00005355,0.08996995,-0.00000043,-0.00002892,-0.0
 0001518,-0.00002880,0.00004166,-0.00001139,0.00015306,-0.00010438,-0.0
 0011675,-0.00054589,-0.00002626,0.00015193,0.00168516,-0.00119544,-0.0
 0055067,-0.00055604,0.00080370,0.00066523,-0.00176962,-0.00030087,0.00
 018242,0.00098270,0.00102358,0.00034032,-0.00053713,-0.00352789,-0.000
 47471,-0.00005530,-0.00050607,-0.00013367,0.00082672,0.00024005,0.0006
 5267,-0.00413973,-0.00498095,-0.00182875,0.01833775,0.00460695,-0.0068
 8804,-0.00001323,0.00000366,0.00000055,0.00000203,-0.00000338,0.000001
 11,-0.00000953,0.00001088,0.00001557,0.00000285,0.00001553,0.00002006,
 0.00000429,-0.00001701,-0.00000024,-0.00003004,0.00000876,0.00001503,-
 0.00003639,0.00000916,0.00000315,0.00003583,0.00007422,-0.00004019,-0.
 00008090,0.00004978,-0.00008998,0.00030128,-0.00136900,-0.00156481,-0.
 00004831,-0.00005090,-0.00006531,-0.00013516,0.00037509,-0.00034575,0.
 07304631,-0.01908068,-0.14088921,0.01104171,0.00283839,-0.04514538,0.0
 0613854,0.00220465,-0.00075247,-0.11066812,0.00631455,0.19228079,-0.00
 001126,-0.00006395,0.00000074,-0.00004635,0.00011697,-0.00000528,0.000
 32828,-0.00021953,-0.00008653,-0.00123474,-0.00034910,0.00012748,0.002
 11192,-0.00072460,-0.00030680,-0.00076683,0.00020568,0.00009953,-0.003
 04150,0.00188230,0.00041963,0.00068024,-0.00652614,-0.00086695,-0.0006
 8840,0.00243491,0.00032250,-0.03674702,0.02962213,0.00406279,-0.123709
 68,0.06478024,0.00942736,-0.00784248,0.00973726,0.00133412,0.00104379,
 0.00016000,-0.00002769,-0.00004215,-0.00000825,0.00000330,0.00000216,0
 .00001066,-0.00000193,0.00000449,0.00001043,0.00000024,-0.00000112,-0.
 00001475,-0.00000581,0.00000877,-0.00000576,0.00000474,-0.00000996,0.0
 0002076,-0.00000422,-0.00008781,0.00004102,-0.00001199,0.00002182,0.00
 013371,-0.00001502,0.00010513,0.00017576,0.00003706,0.00037704,0.00002
 823,0.00001332,0.00073971,0.00048011,0.00000397,0.00094184,-0.00067950
 ,-0.00006904,-0.00178722,-0.00330579,-0.00045044,-0.00018189,0.0009474
 7,-0.00037901,0.00075280,0.00067659,-0.00047840,-0.00019505,0.00081326
 ,0.00059903,0.16833725,0.00000791,0.00003663,-0.00000032,0.00001867,-0
 .00006846,0.00000243,-0.00020457,0.00010434,0.00005854,0.00071048,0.00
 038367,-0.00006109,-0.00132778,-0.00017049,0.00002155,0.00054328,0.000
 15529,0.00000586,0.00116101,-0.00000410,-0.00003375,-0.00193479,-0.000
 42429,-0.00081993,0.00223313,0.00009053,0.00017626,0.00314256,0.001540
 52,-0.00022052,0.06538250,-0.09050636,-0.00900575,0.03585407,-0.026369
 61,-0.00425882,-0.00517723,-0.00279233,-0.00097591,0.00002602,0.000006
 15,-0.00000207,-0.00000265,-0.00000626,-0.00000071,-0.00000396,-0.0000
 0587,0.00000184,0.00000198,0.00001064,0.00000692,-0.00000408,0.0000040
 4,-0.00000586,0.00000388,-0.00001107,0.00000579,0.00005096,-0.00002520
 ,0.00000439,0.00000511,-0.00009004,0.00002445,0.00003151,-0.00011333,-
 0.00002240,-0.00020600,0.00017976,0.00008008,-0.00110954,0.00102645,0.
 00062091,0.00094820,0.00114752,0.00053720,0.00187606,0.00306778,0.0004
 1304,0.00053583,-0.00119550,0.00071829,-0.00078681,-0.00065014,0.00049
 490,0.00058044,-0.00101343,-0.00102454,-0.10140857,0.11671941,-0.00000
 027,0.00000455,0.00000098,0.00000295,-0.00000825,-0.00000082,-0.000035
 05,0.00001448,0.00001028,0.00010832,0.00005592,-0.00002102,-0.00021646
 ,0.00002996,-0.00015407,0.00008297,0.00000076,0.00005827,0.00018671,-0
 .00002733,0.00011791,-0.00023578,-0.00076798,0.00503448,0.00029645,0.0
 0013749,-0.00104387,0.00039686,-0.00019622,0.00422765,0.00951578,-0.00
 899482,-0.02427973,0.00494687,-0.00426313,0.00376317,-0.00072527,-0.00
 100603,0.00445463,0.00000351,0.00000125,-0.00000070,0.00000020,-0.0000
 0198,0.00000061,-0.00000057,-0.00000056,0.00000039,0.00000073,0.000002
 76,0.00000191,-0.00000138,-0.00000066,0.00000037,-0.00000059,-0.000001
 80,0.00000025,0.00001003,-0.00000456,0.00000137,0.00000126,-0.00000629
 ,-0.00000414,-0.00000036,-0.00001223,0.00000541,-0.00004104,0.00008656
 ,-0.00044937,-0.00012669,0.00057966,-0.00268726,0.00013998,0.00051432,
 -0.00261539,0.00025640,0.00044617,0.00006590,0.00013654,-0.00032555,0.
 00020042,-0.00016163,-0.00009723,0.00011372,0.00001948,-0.00002224,-0.
 00001932,-0.01447567,0.01402187,0.01327825,-0.00000329,-0.00000910,0.0
 0000123,0.00000567,0.00001686,-0.00000080,0.00005276,-0.00000586,-0.00
 001305,-0.00014772,-0.00021151,-0.00000185,0.00003097,0.00062897,0.000
 14807,-0.00008111,-0.00044386,-0.00010109,0.00013702,-0.00008495,-0.00
 002287,0.00026866,0.00035479,0.00003716,-0.00030099,0.00060096,0.00009
 002,0.00026161,-0.00008182,-0.00000903,-0.00001397,-0.00026520,-0.0000
 4865,-0.00055659,-0.00064040,-0.00008576,0.00295665,-0.00072555,-0.000
 09331,-0.00000984,-0.00000667,0.00000074,0.00000312,0.00000394,0.00000
 203,0.00000370,0.00000331,-0.00000389,-0.00000251,-0.00000662,-0.00000
 470,-0.00000003,-0.00000307,0.00000401,0.00000646,0.00000680,-0.000007
 06,-0.00000534,0.00000846,0.00000575,-0.00001423,0.00002221,-0.0000157
 1,0.00000270,0.00001287,0.00000473,0.00032790,0.00025037,0.00004331,0.
 00004372,-0.00001391,-0.00000146,0.00018475,-0.00022156,-0.00002790,-0
 .06552663,-0.01849245,-0.00239155,-0.01606107,-0.03076418,-0.02587169,
 -0.00374309,0.02775540,0.02066685,-0.01722147,-0.03739243,0.01662200,0
 .00020464,-0.00016433,-0.00002141,0.10191645,-0.00000165,-0.00004258,-
 0.00000207,-0.00002140,0.00006519,-0.00000520,0.00029174,-0.00013423,-
 0.00005417,-0.00081271,-0.00039597,0.00004703,0.00163755,0.00001434,-0
 .00001494,-0.00061964,-0.00001107,-0.00001029,-0.00162123,-0.00032553,
 -0.00004074,0.00127225,0.00061346,0.00008780,0.00019218,-0.00066449,-0
 .00012456,-0.00034975,-0.00034906,-0.00001867,-0.00050063,0.00080569,0
 .00011102,-0.00021361,-0.00046110,-0.00008158,-0.00076165,-0.00207518,
 -0.00063630,-0.00002947,-0.00000622,0.00000250,-0.00000129,0.00000861,
 -0.00000935,0.00000241,0.00000815,0.00000821,-0.00000213,-0.00000630,0
 .00000508,0.00000664,0.00000108,-0.00000540,-0.00000406,0.00000988,0.0
 0000441,-0.00006805,0.00003244,-0.00002179,0.00000810,0.00008234,-0.00
 001128,-0.00004006,0.00006839,0.00001354,0.00049948,0.00015163,0.00005
 631,-0.00001985,-0.00005327,-0.00000614,-0.00032625,0.00032713,0.00007
 691,-0.01887132,-0.19709250,-0.01814151,-0.01500083,-0.01395600,-0.015
 28950,0.01224252,-0.02556986,-0.02188933,-0.02165217,-0.02580709,0.011
 94146,0.00050824,-0.00053587,-0.00008020,0.02871820,0.30505762,-0.0000
 0098,-0.00000671,-0.00000520,-0.00000129,0.00000902,-0.00000416,0.0000
 2771,-0.00001065,-0.00004284,-0.00009588,-0.00004531,0.00004293,0.0002
 4254,-0.00005967,-0.00010477,-0.00007674,0.00003123,0.00016574,-0.0002
 3714,-0.00004139,0.00007474,0.00016622,0.00010205,-0.00002589,0.000025
 30,-0.00011931,0.00024397,-0.00004229,-0.00003589,-0.00008948,-0.00007
 532,0.00010311,0.00002081,-0.00002742,-0.00008872,0.00020075,-0.000100
 38,-0.00063620,0.00249742,-0.00000438,-0.00000111,-0.00000005,0.000002
 94,-0.00000136,0.00000263,-0.00000193,0.00000456,0.00000352,-0.0000004
 5,0.00000490,0.00000492,0.00000021,-0.00000798,0.00000333,-0.00000471,
 0.00000426,0.00000295,-0.00000002,-0.00000034,0.00000773,0.00000265,0.
 00002319,-0.00002620,-0.00000853,0.00001614,-0.00003816,0.00006738,0.0
 0003807,-0.00025204,-0.00000305,-0.00000348,-0.00002858,-0.00005320,0.
 00008136,-0.00022676,-0.00254435,-0.01821151,-0.06491561,-0.02574189,-
 0.03106946,-0.01623149,0.01646009,-0.03705916,-0.01652058,0.02084504,0
 .02736072,-0.00340448,0.00006957,-0.00007517,-0.00000660,0.00359937,0.
 02826899,0.10137409,-0.00000623,-0.00003617,-0.00000021,-0.00001122,0.
 00006236,-0.00001135,0.00022210,-0.00009079,-0.00006403,-0.00067518,-0
 .00044703,0.00004447,0.00111712,0.00059780,0.00008661,-0.00056130,-0.0
 0044204,-0.00003317,-0.00048472,-0.00071702,0.00008456,-0.00034017,0.0
 0031486,0.00090217,0.00233109,-0.00420566,-0.00192464,-0.00009108,-0.0
 0051016,-0.00027838,0.00030788,0.00040498,0.00106147,-0.00253728,-0.00
 193004,0.00003983,-0.01159998,0.00801046,-0.01302825,-0.00002868,-0.00
 001084,0.00000138,0.00000426,0.00000787,0.00000155,0.00000397,0.000010
 73,-0.00000135,-0.00000310,-0.00001025,-0.00000116,0.00000452,-0.00000
 820,0.00000517,-0.00000019,0.00001908,-0.00000863,-0.00004712,0.000028
 06,0.00000099,-0.00000325,0.00008073,-0.00002539,-0.00015657,0.0000175
 1,-0.00000871,0.00072983,0.00059842,-0.00025582,0.00010114,-0.00002992
 ,-0.00011610,0.00077521,-0.00028626,-0.00090341,-0.13488012,0.00213340
 ,-0.07375934,-0.00062730,0.00381477,-0.00534974,0.00804983,-0.00112566
 ,0.01177739,-0.04388126,0.00470886,-0.01112466,0.00073355,-0.00078330,
 -0.00006288,-0.00271888,0.01553845,-0.01248908,0.18427311,-0.00000091,
 -0.00003658,-0.00000186,-0.00002743,0.00005720,-0.00000369,0.00024217,
 -0.00012844,-0.00005273,-0.00073870,-0.00021637,0.00006058,0.00175897,
 -0.00063990,-0.00022316,-0.00058444,0.00043214,0.00014530,-0.00185068,
 -0.00037959,0.00011654,0.00110830,-0.00094588,0.00092375,0.00259662,-0
 .00181379,-0.00185148,-0.00165494,-0.00056553,-0.00017828,-0.00058222,
 0.00236432,-0.00003446,-0.00028396,-0.00434791,-0.00315756,-0.01803895
 ,-0.00212172,-0.01519401,-0.00002261,-0.00000204,0.00000201,-0.0000027
 8,0.00000607,-0.00000778,-0.00000044,0.00000630,0.00000809,0.00000056,
 -0.00000297,0.00000700,0.00000698,0.00000084,-0.00000675,-0.00001332,0
 .00000815,0.00000612,-0.00006701,0.00002715,-0.00002051,0.00002522,0.0
 0007156,0.00000238,-0.00007406,0.00005221,0.00002204,0.00011951,-0.000
 03944,-0.00039977,-0.00007769,-0.00003846,0.00007421,-0.00098728,-0.00
 146932,-0.00051552,0.00178375,-0.06863807,0.00106042,0.00021814,0.0081
 0584,0.00024497,0.00177899,0.00748213,0.00867386,0.00941264,0.00681679
 ,0.00165425,0.00052021,-0.00049038,-0.00007871,0.03115034,-0.03975963,
 0.03142582,-0.02571499,0.09620534,-0.00000462,-0.00003529,-0.00000585,
 -0.00001782,0.00005764,-0.00001468,0.00020262,-0.00009310,-0.00009821,
 -0.00067075,-0.00031463,0.00010956,0.00140743,-0.00008493,-0.00016732,
 -0.00056506,0.00002292,0.00021706,-0.00103091,-0.00080079,0.00014830,-
 0.00067118,0.00051066,0.00052176,0.00238677,-0.00553324,-0.00186707,-0
 .00028725,-0.00050746,-0.00016448,-0.00035318,0.00082073,0.00038822,-0
 .00078230,-0.00370998,-0.00050386,-0.01657333,0.00915382,-0.00659657,-
 0.00002439,-0.00000594,0.00000060,0.00000438,0.00000301,0.00000261,-0.
 00000127,0.00001222,0.00000517,-0.00000131,0.,0.00000765,0.00000470,-0
 .00001382,0.00000517,-0.00001182,0.00001818,-0.00000032,-0.00004525,0.
 00002093,0.00000315,0.00001473,0.00008400,-0.00003970,-0.00018651,0.00
 002311,-0.00003581,0.00050719,0.00027778,-0.00041082,0.00001018,-0.000
 05322,-0.00006132,-0.00027978,-0.00110942,-0.00154504,-0.07247783,0.00
 060047,-0.13659916,-0.00531432,0.00379324,-0.00066583,-0.01007474,0.00
 583570,-0.04549537,0.01123900,-0.00140380,0.00800749,0.00065942,-0.000
 68748,-0.00005367,-0.01250348,0.01581978,-0.00272265,0.10544070,-0.022
 70107,0.18763102\\0.00000010,0.00000471,0.00000668,-0.00000718,0.00000
 776,0.00000498,-0.00000478,-0.00000589,0.00000480,-0.00001153,0.000012
 61,-0.00001705,0.00000762,0.00001867,0.00001203,0.00001058,-0.00000711
 ,0.00000468,-0.00001610,-0.00000619,-0.00002932,0.00001516,0.00000457,
 0.00000401,-0.00000765,-0.00000100,0.00000093,-0.00000330,-0.00000326,
 -0.00001153,-0.00000011,-0.00001383,-0.00001303,-0.00000539,0.00000278
 ,-0.00000562,0.00001296,-0.00001100,-0.00000541,-0.00000416,0.00000751
 ,0.00000938,-0.00000291,0.00000855,0.00001333,-0.00000003,0.00000480,0
 .00001214,-0.00000432,0.00000455,0.00000548,0.00000099,0.00000239,0.00
 000161,-0.00000071,0.00000308,0.00001140,0.00000395,0.00000307,0.00001
 083,-0.00000105,-0.00000255,0.00000847,-0.00000042,-0.00000147,0.00000
 032,-0.00000004,-0.00000433,0.00000256,-0.00000622,0.00000012,-0.00000
 978,0.00000122,-0.00000591,-0.00001128,0.00001061,0.00000070,0.0000041
 9,0.00000210,0.00000074,0.00000743,0.00000362,-0.00000805,-0.00000807,
 0.00001243,-0.00000507,-0.00000239,-0.00000461,-0.00000052,-0.00001554
 ,-0.00000019,-0.00000059,0.00000862,-0.00000064,-0.00000986,-0.0000048
 4\\\@


 LAW OF COMPENSATION:
      NO CALCULATION IS EVER A COMPLETE FAILURE; IT 
      CAN ALWAYS SERVE AS A BAD EXAMPLE.

                                           -- ANON
 Job cpu time:       0 days  3 hours 55 minutes 56.0 seconds.
 File lengths (MBytes):  RWF=    757 Int=      0 D2E=      0 Chk=     23 Scr=      1
 Normal termination of Gaussian 09 at Mon Feb 25 15:52:42 2019.
WARNING: pbs_rusage is deprecated and values produced may not be accurate


=============================================================================
                                     Resource usage:
                                       CPU time:              16:33:46
   JobId:    6135396.r-man2            Elapsed time:          04:09:08
   Project:             q95            Requested time:        40:00:00
   Service Units:     16.61 
                                       Max physical memory:      829MB
                                       Max virtual memory:      1948MB
                                       Requested memory:           0MB

                                       Number of cpus:               4

                                       Max jobfs disk use:       0.7GB
                                       Requested jobfs:         20.0GB
=============================================================================

