 Entering Gaussian System, Link 0=/apps/gaussian/g09e01/g09/g09
 AtFile(1): /home/507/hio507/Basis/6-31pGd.gbs
 Initial command:
 /apps/gaussian/g09e01/g09/l1.exe "/jobfs/local/6169181.r-man2/Gau-4811.inp" -scrdir="/jobfs/local/6169181.r-man2/"
 Entering Link 1 = /apps/gaussian/g09e01/g09/l1.exe PID=      4812.
  
 Copyright (c) 1988,1990,1992,1993,1995,1998,2003,2009,2015,
            Gaussian, Inc.  All Rights Reserved.
  
 This is part of the Gaussian(R) 09 program.  It is based on
 the Gaussian(R) 03 system (copyright 2003, Gaussian, Inc.),
 the Gaussian(R) 98 system (copyright 1998, Gaussian, Inc.),
 the Gaussian(R) 94 system (copyright 1995, Gaussian, Inc.),
 the Gaussian 92(TM) system (copyright 1992, Gaussian, Inc.),
 the Gaussian 90(TM) system (copyright 1990, Gaussian, Inc.),
 the Gaussian 88(TM) system (copyright 1988, Gaussian, Inc.),
 the Gaussian 86(TM) system (copyright 1986, Carnegie Mellon
 University), and the Gaussian 82(TM) system (copyright 1983,
 Carnegie Mellon University). Gaussian is a federally registered
 trademark of Gaussian, Inc.
  
 This software contains proprietary and confidential information,
 including trade secrets, belonging to Gaussian, Inc.
  
 This software is provided under written license and may be
 used, copied, transmitted, or stored only in accord with that
 written license.
  
 The following legend is applicable only to US Government
 contracts under FAR:
  
                    RESTRICTED RIGHTS LEGEND
  
 Use, reproduction and disclosure by the US Government is
 subject to restrictions as set forth in subparagraphs (a)
 and (c) of the Commercial Computer Software - Restricted
 Rights clause in FAR 52.227-19.
  
 Gaussian, Inc.
 340 Quinnipiac St., Bldg. 40, Wallingford CT 06492
  
  
 ---------------------------------------------------------------
 Warning -- This program may not be used in any manner that
 competes with the business of Gaussian, Inc. or will provide
 assistance to any competitor of Gaussian, Inc.  The licensee
 of this program is prohibited from giving any competitor of
 Gaussian, Inc. access to this program.  By using this program,
 the user acknowledges that Gaussian, Inc. is engaged in the
 business of creating and licensing software in the field of
 computational chemistry and represents and warrants to the
 licensee that it is not a competitor of Gaussian, Inc. and that
 it will not use this program in any manner prohibited above.
 ---------------------------------------------------------------
  

 Cite this work as:
 Gaussian 09, Revision E.01,
 M. J. Frisch, G. W. Trucks, H. B. Schlegel, G. E. Scuseria, 
 M. A. Robb, J. R. Cheeseman, G. Scalmani, V. Barone, B. Mennucci, 
 G. A. Petersson, H. Nakatsuji, M. Caricato, X. Li, H. P. Hratchian, 
 A. F. Izmaylov, J. Bloino, G. Zheng, J. L. Sonnenberg, M. Hada, 
 M. Ehara, K. Toyota, R. Fukuda, J. Hasegawa, M. Ishida, T. Nakajima, 
 Y. Honda, O. Kitao, H. Nakai, T. Vreven, J. A. Montgomery, Jr., 
 J. E. Peralta, F. Ogliaro, M. Bearpark, J. J. Heyd, E. Brothers, 
 K. N. Kudin, V. N. Staroverov, T. Keith, R. Kobayashi, J. Normand, 
 K. Raghavachari, A. Rendell, J. C. Burant, S. S. Iyengar, J. Tomasi, 
 M. Cossi, N. Rega, J. M. Millam, M. Klene, J. E. Knox, J. B. Cross, 
 V. Bakken, C. Adamo, J. Jaramillo, R. Gomperts, R. E. Stratmann, 
 O. Yazyev, A. J. Austin, R. Cammi, C. Pomelli, J. W. Ochterski, 
 R. L. Martin, K. Morokuma, V. G. Zakrzewski, G. A. Voth, 
 P. Salvador, J. J. Dannenberg, S. Dapprich, A. D. Daniels, 
 O. Farkas, J. B. Foresman, J. V. Ortiz, J. Cioslowski, 
 and D. J. Fox, Gaussian, Inc., Wallingford CT, 2013.
 
 ******************************************
 Gaussian 09:  ES64L-G09RevE.01 30-Nov-2015
                26-Feb-2019 
 ******************************************
 %chk=3SF5Chloro_EtO.M062X_6-31pGd_opt.chk
 %mem=196608000
 %nproc=8
 Will use up to    8 processors via shared memory.
 ----------------------------------------------------------------------
 # M062X/Gen 6D SCF=Tight INT(grid=ultrafine) OPT=CalcFC IOP(2/17=4) ma
 xdisk=3221225472
 ----------------------------------------------------------------------
 1/10=4,14=-1,18=20,19=15,26=4,38=1/1,3;
 2/9=110,12=2,17=4,18=5,40=1/2;
 3/5=7,8=2,11=2,16=1,25=1,30=1,71=2,74=-55,75=-5,140=1/1,2,3;
 4//1;
 5/5=2,32=2,38=5/2;
 8/6=4,10=90,11=11/1;
 11/6=1,8=1,9=11,15=111,16=1/1,2,10;
 10/6=1,13=1/2;
 6/7=2,8=2,9=2,10=2,28=1/1;
 7/10=1,18=20,25=1/1,2,3,16;
 1/10=4,14=-1,18=20,19=15,26=4/3(2);
 2/9=110,17=4/2;
 99//99;
 2/9=110,17=4/2;
 3/5=7,6=1,8=2,11=2,16=1,25=1,30=1,71=1,74=-55,75=-5,82=7/1,2,3;
 4/5=5,16=3,69=1/1;
 5/5=2,32=2,38=5/2;
 7//1,2,3,16;
 1/14=-1,18=20,19=15,26=4/3(-5);
 2/9=110,17=4/2;
 6/7=2,8=2,9=2,10=2,19=2,28=1/1;
 99/9=1/99;
 --------------------------------
 3SF5Chloro_EtO.M062X_6-31pGd_opt
 --------------------------------
 Symbolic Z-matrix:
 Charge = -1 Multiplicity = 1
 C                    -1.87835   2.0501   -0.0895 
 C                    -0.46243   1.49907  -0.04227 
 C                     0.57471   2.62872  -0.06674 
 N                     1.91334   2.07968  -0.01021 
 C                     3.03715   2.83402  -0.02448 
 O                     2.92415   4.04584  -0.09287 
 N                     4.26793   2.21779   0.03694 
 C                     5.54793   2.91369   0.01015 
 C                     5.74607   4.3367   -0.08006 
 C                     6.6864    2.1158    0.08274 
 C                     7.9635    2.66145   0.07731 
 C                     8.15033   4.04124  -0.00537 
 C                     7.04995   4.92456  -0.08877 
 H                    -2.60168   1.20833  -0.072 
 H                    -2.02791   2.63604  -1.02063 
 H                    -2.06172   2.7014    0.79093 
 H                    -0.30314   0.83154  -0.91903 
 H                    -0.33953   0.9006    0.88837 
 H                     0.41578   3.29388   0.80821 
 H                     0.45735   3.21192  -1.00435 
 H                     2.03198   0.97824   0.04135 
 H                     4.27464   1.01847   0.12929 
 H                     4.9155    5.00346  -0.13954 
 H                     6.57778   1.04498   0.14847 
 H                     9.17277   4.38813  -0.00005 
 S                     7.32085   6.77556  -0.19466 
 F                     5.64422   7.09051  -0.29165 
 F                     7.40078   6.67962  -1.89961 
 F                     7.24732   6.88737   1.51241 
 Cl                    9.34336   1.58485   0.18367 
 F                     7.56897   8.46874  -0.30019 
 F                     9.02144   6.60984  -0.10344 
 O                     2.01253  -1.08288  -0.07116 
 O                     4.22763  -1.19524  -0.15603 
 C                     3.14177  -1.7714    0.04203 
 C                     2.91542  -3.23719   0.38995 
 C                     4.16179  -4.05491   0.64962 
 H                     2.3373   -3.69768  -0.44166 
 H                     2.24005  -3.31609   1.27614 
 H                     5.04434  -3.407     0.50532 
 H                     4.21836  -4.91198  -0.06452 
 H                     4.12224  -4.45729   1.68177 
 
 Add virtual bond connecting atoms H22        and N7         Dist= 2.27D+00.
 Add virtual bond connecting atoms O33        and H21        Dist= 3.90D+00.

 GradGradGradGradGradGradGradGradGradGradGradGradGradGradGradGradGradGrad
 Berny optimization.
 Initialization pass.
                           ----------------------------
                           !    Initial Parameters    !
                           ! (Angstroms and Degrees)  !
 --------------------------                            --------------------------
 ! Name  Definition              Value          Derivative Info.                !
 --------------------------------------------------------------------------------
 ! R1    R(1,2)                  1.5201         calculate D2E/DX2 analytically  !
 ! R2    R(1,14)                 1.11           calculate D2E/DX2 analytically  !
 ! R3    R(1,15)                 1.1103         calculate D2E/DX2 analytically  !
 ! R4    R(1,16)                 1.1104         calculate D2E/DX2 analytically  !
 ! R5    R(2,3)                  1.5337         calculate D2E/DX2 analytically  !
 ! R6    R(2,17)                 1.1134         calculate D2E/DX2 analytically  !
 ! R7    R(2,18)                 1.1133         calculate D2E/DX2 analytically  !
 ! R8    R(3,4)                  1.448          calculate D2E/DX2 analytically  !
 ! R9    R(3,19)                 1.1105         calculate D2E/DX2 analytically  !
 ! R10   R(3,20)                 1.1104         calculate D2E/DX2 analytically  !
 ! R11   R(4,5)                  1.3536         calculate D2E/DX2 analytically  !
 ! R12   R(4,21)                 1.109          calculate D2E/DX2 analytically  !
 ! R13   R(5,6)                  1.219          calculate D2E/DX2 analytically  !
 ! R14   R(5,7)                  1.3778         calculate D2E/DX2 analytically  !
 ! R15   R(7,8)                  1.4572         calculate D2E/DX2 analytically  !
 ! R16   R(7,22)                 1.2029         calculate D2E/DX2 analytically  !
 ! R17   R(8,9)                  1.4396         calculate D2E/DX2 analytically  !
 ! R18   R(8,10)                 1.3921         calculate D2E/DX2 analytically  !
 ! R19   R(9,13)                 1.4303         calculate D2E/DX2 analytically  !
 ! R20   R(9,23)                 1.0667         calculate D2E/DX2 analytically  !
 ! R21   R(10,11)                1.3888         calculate D2E/DX2 analytically  !
 ! R22   R(10,24)                1.0783         calculate D2E/DX2 analytically  !
 ! R23   R(11,12)                1.3948         calculate D2E/DX2 analytically  !
 ! R24   R(11,30)                1.7534         calculate D2E/DX2 analytically  !
 ! R25   R(12,13)                1.4135         calculate D2E/DX2 analytically  !
 ! R26   R(12,25)                1.0797         calculate D2E/DX2 analytically  !
 ! R27   R(13,26)                1.8737         calculate D2E/DX2 analytically  !
 ! R28   R(21,33)                2.0643         calculate D2E/DX2 analytically  !
 ! R29   R(26,27)                1.7087         calculate D2E/DX2 analytically  !
 ! R30   R(26,28)                1.7095         calculate D2E/DX2 analytically  !
 ! R31   R(26,29)                1.7123         calculate D2E/DX2 analytically  !
 ! R32   R(26,31)                1.7145         calculate D2E/DX2 analytically  !
 ! R33   R(26,32)                1.7111         calculate D2E/DX2 analytically  !
 ! R34   R(33,35)                1.3274         calculate D2E/DX2 analytically  !
 ! R35   R(34,35)                1.2451         calculate D2E/DX2 analytically  !
 ! R36   R(35,36)                1.5234         calculate D2E/DX2 analytically  !
 ! R37   R(36,37)                1.5131         calculate D2E/DX2 analytically  !
 ! R38   R(36,38)                1.1126         calculate D2E/DX2 analytically  !
 ! R39   R(36,39)                1.117          calculate D2E/DX2 analytically  !
 ! R40   R(37,40)                1.1043         calculate D2E/DX2 analytically  !
 ! R41   R(37,41)                1.117          calculate D2E/DX2 analytically  !
 ! R42   R(37,42)                1.1085         calculate D2E/DX2 analytically  !
 ! A1    A(2,1,14)             109.366          calculate D2E/DX2 analytically  !
 ! A2    A(2,1,15)             110.0499         calculate D2E/DX2 analytically  !
 ! A3    A(2,1,16)             109.9871         calculate D2E/DX2 analytically  !
 ! A4    A(14,1,15)            109.0055         calculate D2E/DX2 analytically  !
 ! A5    A(14,1,16)            108.9473         calculate D2E/DX2 analytically  !
 ! A6    A(15,1,16)            109.4615         calculate D2E/DX2 analytically  !
 ! A7    A(1,2,3)              111.2468         calculate D2E/DX2 analytically  !
 ! A8    A(1,2,17)             109.0337         calculate D2E/DX2 analytically  !
 ! A9    A(1,2,18)             108.8853         calculate D2E/DX2 analytically  !
 ! A10   A(3,2,17)             109.4067         calculate D2E/DX2 analytically  !
 ! A11   A(3,2,18)             109.5501         calculate D2E/DX2 analytically  !
 ! A12   A(17,2,18)            108.6741         calculate D2E/DX2 analytically  !
 ! A13   A(2,3,4)              110.1974         calculate D2E/DX2 analytically  !
 ! A14   A(2,3,19)             109.3788         calculate D2E/DX2 analytically  !
 ! A15   A(2,3,20)             109.1982         calculate D2E/DX2 analytically  !
 ! A16   A(4,3,19)             109.1879         calculate D2E/DX2 analytically  !
 ! A17   A(4,3,20)             109.2584         calculate D2E/DX2 analytically  !
 ! A18   A(19,3,20)            109.6067         calculate D2E/DX2 analytically  !
 ! A19   A(3,4,5)              123.7683         calculate D2E/DX2 analytically  !
 ! A20   A(3,4,21)             118.5099         calculate D2E/DX2 analytically  !
 ! A21   A(5,4,21)             117.7205         calculate D2E/DX2 analytically  !
 ! A22   A(4,5,6)              118.5313         calculate D2E/DX2 analytically  !
 ! A23   A(4,5,7)              119.4678         calculate D2E/DX2 analytically  !
 ! A24   A(6,5,7)              122.0009         calculate D2E/DX2 analytically  !
 ! A25   A(5,7,8)              124.7684         calculate D2E/DX2 analytically  !
 ! A26   A(5,7,22)             117.0222         calculate D2E/DX2 analytically  !
 ! A27   A(8,7,22)             118.207          calculate D2E/DX2 analytically  !
 ! A28   A(7,8,9)              126.4503         calculate D2E/DX2 analytically  !
 ! A29   A(7,8,10)             116.339          calculate D2E/DX2 analytically  !
 ! A30   A(9,8,10)             117.2105         calculate D2E/DX2 analytically  !
 ! A31   A(8,9,13)             122.1496         calculate D2E/DX2 analytically  !
 ! A32   A(8,9,23)             120.9426         calculate D2E/DX2 analytically  !
 ! A33   A(13,9,23)            116.9073         calculate D2E/DX2 analytically  !
 ! A34   A(8,10,11)            121.7782         calculate D2E/DX2 analytically  !
 ! A35   A(8,10,24)            119.338          calculate D2E/DX2 analytically  !
 ! A36   A(11,10,24)           118.8835         calculate D2E/DX2 analytically  !
 ! A37   A(10,11,12)           120.8012         calculate D2E/DX2 analytically  !
 ! A38   A(10,11,30)           118.8289         calculate D2E/DX2 analytically  !
 ! A39   A(12,11,30)           120.3694         calculate D2E/DX2 analytically  !
 ! A40   A(11,12,13)           121.1576         calculate D2E/DX2 analytically  !
 ! A41   A(11,12,25)           116.3829         calculate D2E/DX2 analytically  !
 ! A42   A(13,12,25)           122.4594         calculate D2E/DX2 analytically  !
 ! A43   A(9,13,12)            116.9017         calculate D2E/DX2 analytically  !
 ! A44   A(9,13,26)            122.5589         calculate D2E/DX2 analytically  !
 ! A45   A(12,13,26)           120.5384         calculate D2E/DX2 analytically  !
 ! A46   A(13,26,27)            92.4891         calculate D2E/DX2 analytically  !
 ! A47   A(13,26,28)            90.4401         calculate D2E/DX2 analytically  !
 ! A48   A(13,26,29)            90.1121         calculate D2E/DX2 analytically  !
 ! A49   A(13,26,32)            92.5794         calculate D2E/DX2 analytically  !
 ! A50   A(27,26,28)            89.9778         calculate D2E/DX2 analytically  !
 ! A51   A(27,26,29)            90.1385         calculate D2E/DX2 analytically  !
 ! A52   A(27,26,31)            87.5057         calculate D2E/DX2 analytically  !
 ! A53   A(28,26,31)            89.2706         calculate D2E/DX2 analytically  !
 ! A54   A(28,26,32)            90.0724         calculate D2E/DX2 analytically  !
 ! A55   A(29,26,31)            90.1771         calculate D2E/DX2 analytically  !
 ! A56   A(29,26,32)            89.7625         calculate D2E/DX2 analytically  !
 ! A57   A(31,26,32)            87.4264         calculate D2E/DX2 analytically  !
 ! A58   A(21,33,35)           120.3467         calculate D2E/DX2 analytically  !
 ! A59   A(33,35,34)           119.23           calculate D2E/DX2 analytically  !
 ! A60   A(33,35,36)           113.0879         calculate D2E/DX2 analytically  !
 ! A61   A(34,35,36)           127.672          calculate D2E/DX2 analytically  !
 ! A62   A(35,36,37)           115.8987         calculate D2E/DX2 analytically  !
 ! A63   A(35,36,38)           107.7421         calculate D2E/DX2 analytically  !
 ! A64   A(35,36,39)           109.8153         calculate D2E/DX2 analytically  !
 ! A65   A(37,36,38)           109.4274         calculate D2E/DX2 analytically  !
 ! A66   A(37,36,39)           108.8877         calculate D2E/DX2 analytically  !
 ! A67   A(38,36,39)           104.4536         calculate D2E/DX2 analytically  !
 ! A68   A(36,37,40)           108.5905         calculate D2E/DX2 analytically  !
 ! A69   A(36,37,41)           110.2825         calculate D2E/DX2 analytically  !
 ! A70   A(36,37,42)           109.0606         calculate D2E/DX2 analytically  !
 ! A71   A(40,37,41)           109.0355         calculate D2E/DX2 analytically  !
 ! A72   A(40,37,42)           111.2938         calculate D2E/DX2 analytically  !
 ! A73   A(41,37,42)           108.5765         calculate D2E/DX2 analytically  !
 ! A74   L(4,21,33,1,-1)       173.1208         calculate D2E/DX2 analytically  !
 ! A75   L(13,26,31,27,-1)     179.9948         calculate D2E/DX2 analytically  !
 ! A76   L(27,26,32,13,-1)     185.0684         calculate D2E/DX2 analytically  !
 ! A77   L(28,26,29,13,-1)     180.5523         calculate D2E/DX2 analytically  !
 ! A78   L(4,21,33,1,-2)       174.1484         calculate D2E/DX2 analytically  !
 ! A79   L(13,26,31,27,-2)     180.2895         calculate D2E/DX2 analytically  !
 ! A80   L(27,26,32,13,-2)     180.0892         calculate D2E/DX2 analytically  !
 ! A81   L(28,26,29,13,-2)     179.8596         calculate D2E/DX2 analytically  !
 ! D1    D(14,1,2,3)           179.9102         calculate D2E/DX2 analytically  !
 ! D2    D(14,1,2,17)           59.1625         calculate D2E/DX2 analytically  !
 ! D3    D(14,1,2,18)          -59.2612         calculate D2E/DX2 analytically  !
 ! D4    D(15,1,2,3)            60.1917         calculate D2E/DX2 analytically  !
 ! D5    D(15,1,2,17)          -60.5559         calculate D2E/DX2 analytically  !
 ! D6    D(15,1,2,18)         -178.9797         calculate D2E/DX2 analytically  !
 ! D7    D(16,1,2,3)           -60.4813         calculate D2E/DX2 analytically  !
 ! D8    D(16,1,2,17)          178.771          calculate D2E/DX2 analytically  !
 ! D9    D(16,1,2,18)           60.3473         calculate D2E/DX2 analytically  !
 ! D10   D(1,2,3,4)            179.5452         calculate D2E/DX2 analytically  !
 ! D11   D(1,2,3,19)            59.5035         calculate D2E/DX2 analytically  !
 ! D12   D(1,2,3,20)           -60.4396         calculate D2E/DX2 analytically  !
 ! D13   D(17,2,3,4)           -59.9267         calculate D2E/DX2 analytically  !
 ! D14   D(17,2,3,19)         -179.9684         calculate D2E/DX2 analytically  !
 ! D15   D(17,2,3,20)           60.0885         calculate D2E/DX2 analytically  !
 ! D16   D(18,2,3,4)            59.1079         calculate D2E/DX2 analytically  !
 ! D17   D(18,2,3,19)          -60.9338         calculate D2E/DX2 analytically  !
 ! D18   D(18,2,3,20)          179.1231         calculate D2E/DX2 analytically  !
 ! D19   D(2,3,4,5)            179.574          calculate D2E/DX2 analytically  !
 ! D20   D(2,3,4,21)            -0.0195         calculate D2E/DX2 analytically  !
 ! D21   D(19,3,4,5)           -60.269          calculate D2E/DX2 analytically  !
 ! D22   D(19,3,4,21)          120.1375         calculate D2E/DX2 analytically  !
 ! D23   D(20,3,4,5)            59.5952         calculate D2E/DX2 analytically  !
 ! D24   D(20,3,4,21)         -119.9983         calculate D2E/DX2 analytically  !
 ! D25   D(3,4,5,6)             -0.2361         calculate D2E/DX2 analytically  !
 ! D26   D(3,4,5,7)            179.8195         calculate D2E/DX2 analytically  !
 ! D27   D(21,4,5,6)           179.3604         calculate D2E/DX2 analytically  !
 ! D28   D(21,4,5,7)            -0.584          calculate D2E/DX2 analytically  !
 ! D29   D(3,4,33,35)         -176.3935         calculate D2E/DX2 analytically  !
 ! D30   D(5,4,33,35)            7.9534         calculate D2E/DX2 analytically  !
 ! D31   D(4,5,7,8)            179.0797         calculate D2E/DX2 analytically  !
 ! D32   D(4,5,7,22)            -1.5017         calculate D2E/DX2 analytically  !
 ! D33   D(6,5,7,8)             -0.8627         calculate D2E/DX2 analytically  !
 ! D34   D(6,5,7,22)           178.5559         calculate D2E/DX2 analytically  !
 ! D35   D(5,7,8,9)              0.1553         calculate D2E/DX2 analytically  !
 ! D36   D(5,7,8,10)           179.9853         calculate D2E/DX2 analytically  !
 ! D37   D(22,7,8,9)          -179.257          calculate D2E/DX2 analytically  !
 ! D38   D(22,7,8,10)            0.573          calculate D2E/DX2 analytically  !
 ! D39   D(7,8,9,13)           179.4967         calculate D2E/DX2 analytically  !
 ! D40   D(7,8,9,23)            -0.2305         calculate D2E/DX2 analytically  !
 ! D41   D(10,8,9,13)           -0.332          calculate D2E/DX2 analytically  !
 ! D42   D(10,8,9,23)          179.9408         calculate D2E/DX2 analytically  !
 ! D43   D(7,8,10,11)         -179.4586         calculate D2E/DX2 analytically  !
 ! D44   D(7,8,10,24)            0.328          calculate D2E/DX2 analytically  !
 ! D45   D(9,8,10,11)            0.3876         calculate D2E/DX2 analytically  !
 ! D46   D(9,8,10,24)         -179.8257         calculate D2E/DX2 analytically  !
 ! D47   D(8,9,13,12)            0.0537         calculate D2E/DX2 analytically  !
 ! D48   D(8,9,13,26)         -179.5967         calculate D2E/DX2 analytically  !
 ! D49   D(23,9,13,12)         179.7914         calculate D2E/DX2 analytically  !
 ! D50   D(23,9,13,26)           0.1409         calculate D2E/DX2 analytically  !
 ! D51   D(8,10,11,12)          -0.1676         calculate D2E/DX2 analytically  !
 ! D52   D(8,10,11,30)         179.5617         calculate D2E/DX2 analytically  !
 ! D53   D(24,10,11,12)       -179.9552         calculate D2E/DX2 analytically  !
 ! D54   D(24,10,11,30)         -0.2259         calculate D2E/DX2 analytically  !
 ! D55   D(10,11,12,13)         -0.1334         calculate D2E/DX2 analytically  !
 ! D56   D(10,11,12,25)        179.7635         calculate D2E/DX2 analytically  !
 ! D57   D(30,11,12,13)       -179.8585         calculate D2E/DX2 analytically  !
 ! D58   D(30,11,12,25)          0.0384         calculate D2E/DX2 analytically  !
 ! D59   D(11,12,13,9)           0.182          calculate D2E/DX2 analytically  !
 ! D60   D(11,12,13,26)        179.8399         calculate D2E/DX2 analytically  !
 ! D61   D(25,12,13,9)        -179.7086         calculate D2E/DX2 analytically  !
 ! D62   D(25,12,13,26)         -0.0507         calculate D2E/DX2 analytically  !
 ! D63   D(9,13,26,27)          -1.4647         calculate D2E/DX2 analytically  !
 ! D64   D(9,13,26,28)         -91.4615         calculate D2E/DX2 analytically  !
 ! D65   D(9,13,26,29)          88.6788         calculate D2E/DX2 analytically  !
 ! D66   D(9,13,26,32)         178.4461         calculate D2E/DX2 analytically  !
 ! D67   D(12,13,26,27)        178.8973         calculate D2E/DX2 analytically  !
 ! D68   D(12,13,26,28)         88.9004         calculate D2E/DX2 analytically  !
 ! D69   D(12,13,26,29)        -90.9592         calculate D2E/DX2 analytically  !
 ! D70   D(12,13,26,32)         -1.1919         calculate D2E/DX2 analytically  !
 ! D71   D(21,33,35,34)        -19.863          calculate D2E/DX2 analytically  !
 ! D72   D(21,33,35,36)        161.2033         calculate D2E/DX2 analytically  !
 ! D73   D(33,35,36,37)       -175.0192         calculate D2E/DX2 analytically  !
 ! D74   D(33,35,36,38)         62.0544         calculate D2E/DX2 analytically  !
 ! D75   D(33,35,36,39)        -51.1392         calculate D2E/DX2 analytically  !
 ! D76   D(34,35,36,37)          6.1564         calculate D2E/DX2 analytically  !
 ! D77   D(34,35,36,38)       -116.7699         calculate D2E/DX2 analytically  !
 ! D78   D(34,35,36,39)        130.0365         calculate D2E/DX2 analytically  !
 ! D79   D(35,36,37,40)         -1.4818         calculate D2E/DX2 analytically  !
 ! D80   D(35,36,37,41)       -120.8986         calculate D2E/DX2 analytically  !
 ! D81   D(35,36,37,42)        119.9566         calculate D2E/DX2 analytically  !
 ! D82   D(38,36,37,40)        120.5545         calculate D2E/DX2 analytically  !
 ! D83   D(38,36,37,41)          1.1376         calculate D2E/DX2 analytically  !
 ! D84   D(38,36,37,42)       -118.0072         calculate D2E/DX2 analytically  !
 ! D85   D(39,36,37,40)       -125.8426         calculate D2E/DX2 analytically  !
 ! D86   D(39,36,37,41)        114.7405         calculate D2E/DX2 analytically  !
 ! D87   D(39,36,37,42)         -4.4042         calculate D2E/DX2 analytically  !
 --------------------------------------------------------------------------------
 Trust Radius=3.00D-01 FncErr=1.00D-07 GrdErr=1.00D-06
 Number of steps in this run=    220 maximum allowed number of steps=    252.
 GradGradGradGradGradGradGradGradGradGradGradGradGradGradGradGradGradGrad

                          Input orientation:                          
 ---------------------------------------------------------------------
 Center     Atomic      Atomic             Coordinates (Angstroms)
 Number     Number       Type             X           Y           Z
 ---------------------------------------------------------------------
      1          6           0       -1.878350    2.050100   -0.089500
      2          6           0       -0.462430    1.499070   -0.042270
      3          6           0        0.574710    2.628720   -0.066740
      4          7           0        1.913340    2.079680   -0.010210
      5          6           0        3.037150    2.834020   -0.024480
      6          8           0        2.924150    4.045840   -0.092870
      7          7           0        4.267930    2.217790    0.036940
      8          6           0        5.547930    2.913690    0.010150
      9          6           0        5.746070    4.336700   -0.080060
     10          6           0        6.686400    2.115800    0.082740
     11          6           0        7.963500    2.661450    0.077310
     12          6           0        8.150330    4.041240   -0.005370
     13          6           0        7.049950    4.924560   -0.088770
     14          1           0       -2.601680    1.208330   -0.072000
     15          1           0       -2.027910    2.636040   -1.020630
     16          1           0       -2.061720    2.701400    0.790930
     17          1           0       -0.303140    0.831540   -0.919030
     18          1           0       -0.339530    0.900600    0.888370
     19          1           0        0.415780    3.293880    0.808210
     20          1           0        0.457350    3.211920   -1.004350
     21          1           0        2.031980    0.978240    0.041350
     22          1           0        4.274640    1.018470    0.129290
     23          1           0        4.915500    5.003460   -0.139540
     24          1           0        6.577780    1.044980    0.148470
     25          1           0        9.172770    4.388130   -0.000050
     26         16           0        7.320850    6.775560   -0.194660
     27          9           0        5.644220    7.090510   -0.291650
     28          9           0        7.400780    6.679620   -1.899610
     29          9           0        7.247320    6.887370    1.512410
     30         17           0        9.343360    1.584850    0.183670
     31          9           0        7.568970    8.468740   -0.300190
     32          9           0        9.021440    6.609840   -0.103440
     33          8           0        2.012530   -1.082880   -0.071160
     34          8           0        4.227630   -1.195240   -0.156030
     35          6           0        3.141770   -1.771400    0.042030
     36          6           0        2.915420   -3.237190    0.389950
     37          6           0        4.161790   -4.054910    0.649620
     38          1           0        2.337300   -3.697680   -0.441660
     39          1           0        2.240050   -3.316090    1.276140
     40          1           0        5.044340   -3.407000    0.505320
     41          1           0        4.218360   -4.911980   -0.064520
     42          1           0        4.122240   -4.457290    1.681770
 ---------------------------------------------------------------------
                    Distance matrix (angstroms):
                    1          2          3          4          5
     1  C    0.000000
     2  C    1.520097   0.000000
     3  C    2.520481   1.533743   0.000000
     4  N    3.792634   2.445898   1.447954   0.000000
     5  C    4.978042   3.745593   2.471345   1.353581   0.000000
     6  O    5.200673   4.237632   2.743862   2.212319   1.218997
     7  N    6.149867   4.785304   3.717457   2.359108   1.377799
     8  C    7.476988   6.174814   4.981971   3.729106   2.512282
     9  C    7.959925   6.826349   5.446130   4.448465   3.098287
    10  C    8.566734   7.176472   6.134997   4.774102   3.720801
    11  C    9.862230   8.506569   7.390267   6.078697   4.930422
    12  C   10.224781   8.980180   7.706426   6.538179   5.253794
    13  C    9.379609   8.256634   6.870233   5.872331   4.525158
    14  H    1.109995   2.159121   3.479510   4.598747   5.868691
    15  H    1.110269   2.168091   2.771929   4.106572   5.165883
    16  H    1.110393   2.167383   2.773381   4.102373   5.165361
    17  H    2.157382   1.113408   2.174138   2.701220   3.995958
    18  H    2.155353   1.113266   2.175883   2.696868   3.996671
    19  H    2.759693   2.171615   1.110511   2.094464   2.788624
    20  H    2.764466   2.169205   1.110409   2.095278   2.785376
    21  H    4.056684   2.549576   2.204405   1.109010   2.111544
    22  H    6.242709   4.764477   4.039903   2.592559   2.202555
    23  H    7.408187   6.419684   4.948449   4.192634   2.871917
    24  H    8.518981   7.057417   6.212197   4.780459   3.970722
    25  H   11.296090  10.059102   8.776480   7.617635   6.329430
    26  S   10.342452   9.404468   7.919789   7.164250   5.823640
    27  F    9.057354   8.283572   6.757077   6.253566   4.998590
    28  F   10.526690   9.597806   8.146437   7.405490   6.111139
    29  F   10.451945   9.533680   8.071774   7.340545   6.042947
    30  Cl  11.234672   9.808768   8.834115   7.449003   6.432110
    31  F   11.423449  10.637021   9.114823   8.537583   7.236261
    32  F   11.815111  10.773463   9.337982   8.429480   7.076353
    33  O    4.995483   3.576692   3.980367   3.164702   4.048967
    34  O    6.915175   5.410075   5.289089   4.012767   4.203509
    35  C    6.310528   4.867580   5.095359   4.042596   4.607088
    36  C    7.153009   5.833425   6.332171   5.425256   6.086556
    37  C    8.619788   7.260084   7.619135   6.566894   7.012602
    38  H    7.136715   5.916436   6.578041   5.808940   6.582320
    39  H    6.900883   5.676915   6.318026   5.556597   6.336469
    40  H    8.835009   7.395532   7.532248   6.338185   6.577221
    41  H    9.254245   7.938001   8.374864   7.362023   7.835648
    42  H    9.027215   7.711662   8.115035   7.104506   7.566499
                    6          7          8          9         10
     6  O    0.000000
     7  N    2.272523   0.000000
     8  C    2.859475   1.457187   0.000000
     9  C    2.836899   2.586188   1.439568   0.000000
    10  C    4.232070   2.421053   1.392125   2.417255   0.000000
    11  C    5.228819   3.722325   2.429632   2.783563   1.388794
    12  C    5.226914   4.289498   2.836211   2.423498   2.420366
    13  C    4.218340   3.883560   2.511861   1.430300   2.837379
    14  H    6.211819   6.944236   8.326533   8.914690   9.333589
    15  H    5.231747   6.397733   7.650683   8.013219   8.799277
    16  H    5.239038   6.392718   7.652546   8.024613   8.796253
    17  H    4.629219   4.871370   6.279629   7.041517   7.176805
    18  H    4.637561   4.867095   6.283788   7.055435   7.175614
    19  H    2.769352   4.073314   5.207726   5.503498   6.421437
    20  H    2.758862   4.073463   5.199246   5.485435   6.417500
    21  H    3.197523   2.556556   4.013583   5.008838   4.791595
    22  H    3.322371   1.202889   2.286333   3.635875   2.650073
    23  H    2.210133   2.865388   2.188496   1.066749   3.394713
    24  H    4.734176   2.592938   2.138177   3.402850   1.078320
    25  H    6.258676   5.363693   3.913252   3.428020   3.369328
    26  S    5.176167   5.490649   4.254319   2.905358   4.710928
    27  F    4.087580   5.074007   4.188816   2.763804   5.096474
    28  F    5.499211   5.785577   4.611124   3.396778   5.026779
    29  F    5.416735   5.732256   4.575461   3.360897   5.012631
    30  Cl   6.880349   5.116848   4.025073   4.536819   2.711371
    31  F    6.417116   7.077068   5.919417   4.521634   6.425373
    32  F    6.614465   6.473459   5.073431   3.986949   5.067886
    33  O    5.209155   3.999117   5.336500   6.581128   5.665713
    34  O    5.401108   3.418718   4.319041   5.737054   4.131047
    35  C    5.822872   4.145105   5.266943   6.641248   5.260835
    36  C    7.299022   5.631226   6.701319   8.099216   6.555087
    37  C    8.228317   6.303444   7.133841   8.570968   6.691238
    38  H    7.773554   6.240927   7.363592   8.735086   7.279163
    39  H    7.519321   6.022603   7.166237   8.526233   7.120369
    40  H    7.771606   5.697408   6.360025   7.797434   5.777219
    41  H    9.050874   7.130664   7.938164   9.374018   7.450007
    42  H    8.768580   6.876291   7.691440   9.114556   7.234454
                   11         12         13         14         15
    11  C    0.000000
    12  C    1.394834   0.000000
    13  C    2.446185   1.413523   0.000000
    14  H   10.665687  11.119152  10.342370   0.000000
    15  H   10.051587  10.324820   9.408147   1.807614   0.000000
    16  H   10.050666  10.330306   9.420130   1.807059   1.813054
    17  H    8.525175   9.088350   8.456363   2.478450   2.498274
    18  H    8.526354   9.096159   8.470624   2.476758   3.083287
    19  H    7.609353   7.813048   6.890276   3.772182   3.122344
    20  H    7.603637   7.801774   6.872685   3.773767   2.551161
    21  H    6.165827   6.842394   6.385170   4.640754   4.512074
    22  H    4.038536   4.916934   4.796607   6.881885   6.607646
    23  H    3.849979   3.377572   2.136511   8.421138   7.388636
    24  H    2.130319   3.387352   3.915401   9.183560   8.829279
    25  H    2.109441   1.079696   2.191345  12.196474  11.382734
    26  S    4.172873   2.863629   1.873713  11.378299  10.257542
    27  F    5.013159   3.957346   2.590092  10.131296   8.901421
    28  F    4.513375   3.333320   2.546067  11.546618  10.296764
    29  F    4.520047   3.349558   2.540739  11.478878  10.512849
    30  Cl   1.753395   2.737318   4.060495  11.953707  11.483080
    31  F    5.832905   4.475227   3.588216  12.498310  11.253423
    32  F    4.091661   2.714066   2.593676  12.816950  11.777965
    33  O    7.032503   7.995844   7.839977   5.151755   5.572882
    34  O    5.374498   6.544539   6.739582   7.240420   7.386340
    35  C    6.549846   7.672985   7.754151   6.471400   6.876072
    36  C    7.770123   8.974191   9.161751   7.100313   7.805196
    37  C    7.738865   9.049039   9.461372   8.600404   9.266657
    38  H    8.506585   9.688785   9.832427   6.971306   7.714031
    39  H    8.362180   9.523864   9.638798   6.762411   7.675838
    40  H    6.747649   8.086053   8.590128   8.949648   9.426748
    41  H    8.450031   9.778754  10.236015   9.163580   9.843914
    42  H    8.246577   9.554944   9.986261   8.965827   9.769475
                   16         17         18         19         20
    16  H    0.000000
    17  H    3.084306   0.000000
    18  H    2.493655   1.809085   0.000000
    19  H    2.547418   3.092462   2.510918   0.000000
    20  H    3.135183   2.500367   3.091861   1.814888   0.000000
    21  H    4.504390   2.529157   2.519431   2.926152   2.926136
    22  H    6.589346   4.699999   4.677677   4.530919   4.546214
    23  H    7.405866   6.726569   6.745769   4.905953   4.881866
    24  H    8.820286   6.966504   6.958267   6.592651   6.594262
    25  H   11.387909  10.163008  10.170349   8.862028   8.851589
    26  S   10.276322   9.694396   9.714398   7.797938   7.775780
    27  F    8.934080   8.656755   8.689804   6.554439   6.515752
    28  F   10.611510   9.721726  10.053970   8.221055   7.812660
    29  F   10.232356   9.979701   9.684582   7.751065   8.120758
    30  Cl  11.475683   9.738500   9.732582   9.111121   9.111527
    31  F   11.278428  10.985440  11.010622   8.898081   8.871592
    32  F   11.786104  11.000079  11.009399   9.267366   9.257491
    33  O    5.627032   3.121893   3.222899   4.741195   4.662053
    34  O    7.458985   5.021741   5.132472   5.967592   5.861546
    35  C    6.902398   4.423385   4.469376   5.803026   5.756257
    36  C    7.758837   5.350432   5.288140   7.005570   7.041108
    37  C    9.186935   6.802474   6.698952   8.249997   8.322578
    38  H    7.862498   5.264375   5.484394   7.357739   7.182855
    39  H    7.412883   5.337548   4.958334   6.873036   7.140978
    40  H    9.374978   6.970620   6.905664   8.149669   8.193271
    41  H    9.906299   7.359495   7.447714   9.086111   9.001457
    42  H    9.501674   7.370202   7.017397   8.636063   8.914227
                   21         22         23         24         25
    21  H    0.000000
    22  H    2.244744   0.000000
    23  H    4.954776   4.045135   0.000000
    24  H    4.547552   2.303372   4.302986   0.000000
    25  H    7.913277   5.946681   4.303770   4.234700   0.000000
    26  S    7.850909   6.521382   2.988158   5.788734   3.027755
    27  F    7.107673   6.238799   2.215840   6.132999   4.454049
    28  F    8.068276   6.777743   3.476201   6.051539   3.463987
    29  F    8.017581   6.722636   3.422783   6.036732   3.498727
    30  Cl   7.337882   5.100555   5.603330   2.818001   2.814468
    31  F    9.321078   8.157425   4.367479   7.503064   4.394728
    32  F    8.977106   7.338235   4.409139   6.082976   2.229257
    33  O    2.064280   3.094025   6.743548   5.041580   9.011440
    34  O    3.095780   2.232516   6.236772   3.261060   7.460078
    35  C    2.965157   3.012372   7.005556   4.444040   8.620588
    36  C    4.321092   4.475049   8.496411   5.639874   9.871780
    37  C    5.498971   5.101241   9.123865   5.665425   9.839559
    38  H    4.710706   5.130433   9.080101   6.389268  10.597122
    39  H    4.473172   4.923742   8.853084   6.253517  10.442522
    40  H    5.340404   4.507618   8.436130   4.722172   8.835349
    41  H    6.283801   5.933883   9.940200   6.410741  10.537665
    42  H    6.050219   5.693625   9.667069   6.217368  10.323654
                   26         27         28         29         30
    26  S    0.000000
    27  F    1.708710   0.000000
    28  F    1.709517   2.416582   0.000000
    29  F    1.712307   2.421947   3.421782   0.000000
    30  Cl   5.583650   6.649952   5.836982   5.854541   0.000000
    31  F    1.714514   2.367330   2.405698   2.426872   7.125344
    32  F    1.711079   3.416443   2.420255   2.415677   5.043470
    33  O    9.484123   8.946625   9.624597   9.666209   7.805305
    34  O    8.550038   8.407067   8.667316   8.788106   5.832237
    35  C    9.516893   9.214502   9.660687   9.694940   7.052956
    36  C   10.954668  10.703846  11.122215  11.069417   8.038223
    37  C   11.313335  11.282906  11.498685  11.401684   7.672853
    38  H   11.601101  11.284647  11.638419  11.830890   8.796649
    39  H   11.393822  11.060907  11.689001  11.368341   8.698834
    40  H   10.457390  10.544797  10.633739  10.575510   6.595726
    41  H   12.093013  12.089021  12.159792  12.283565   8.278649
    42  H   11.829160  11.813657  12.149316  11.768437   8.124768
                   31         32         33         34         35
    31  F    0.000000
    32  F    2.367253   0.000000
    33  O   11.052598  10.406911   0.000000
    34  O   10.226331   9.159839   2.219571   0.000000
    35  C   11.161437  10.238987   1.327424   1.245102   0.000000
    36  C   12.615888  11.597022   2.380942   2.487880   1.523425
    37  C   13.013563  11.743943   3.737888   2.971720   2.573718
    38  H   13.244326  12.289715   2.660813   3.149149   2.142821
    39  H   13.029368  12.100189   2.618055   3.240307   2.173061
    40  H   12.167818  10.794674   3.863384   2.448731   2.551391
    41  H   13.795862  12.482925   4.419020   3.717878   3.321693
    42  H   13.523696  12.233990   4.348595   3.745609   3.296069
                   36         37         38         39         40
    36  C    0.000000
    37  C    1.513120   0.000000
    38  H    1.112587   2.155753   0.000000
    39  H    1.116997   2.152084   1.762358   0.000000
    40  H    2.138795   1.104312   2.882591   2.909720   0.000000
    41  H    2.170050   1.117034   2.270495   2.873664   1.808846
    42  H    2.147989   1.108516   2.876104   2.238194   1.826859
                   41         42
    41  H    0.000000
    42  H    1.807072   0.000000
 Stoichiometry    C13H17ClF5N2O3S(1-)
 Framework group  C1[X(C13H17ClF5N2O3S)]
 Deg. of freedom   120
 Full point group                 C1      NOp   1
 Largest Abelian subgroup         C1      NOp   1
 Largest concise Abelian subgroup C1      NOp   1
                         Standard orientation:                         
 ---------------------------------------------------------------------
 Center     Atomic      Atomic             Coordinates (Angstroms)
 Number     Number       Type             X           Y           Z
 ---------------------------------------------------------------------
      1          6           0        5.218693   -4.749383    0.043233
      2          6           0        4.733200   -3.309043    0.022996
      3          6           0        3.201185   -3.238595    0.041294
      4          7           0        2.764074   -1.858224    0.032328
      5          6           0        1.464240   -1.480602    0.036172
      6          8           0        0.606361   -2.346596    0.043424
      7          7           0        1.147993   -0.139600    0.030663
      8          6           0       -0.207733    0.394394    0.014722
      9          6           0       -1.427825   -0.369570    0.005347
     10          6           0       -0.325208    1.781550    0.011687
     11          6           0       -1.563318    2.410692    0.008110
     12          6           0       -2.742810    1.666150    0.003928
     13          6           0       -2.715564    0.252895    0.000383
     14          1           0        6.328483   -4.763984    0.027667
     15          1           0        4.837428   -5.292125   -0.847140
     16          1           0        4.864348   -5.256424    0.965362
     17          1           0        5.115551   -2.809858   -0.895862
     18          1           0        5.141166   -2.778740    0.912773
     19          1           0        2.820363   -3.736090    0.958195
     20          1           0        2.801147   -3.755279   -0.856490
     21          1           0        3.533259   -1.059507    0.014773
     22          1           0        2.065268    0.638313    0.050645
     23          1           0       -1.407176   -1.436119    0.006136
     24          1           0        0.566860    2.387333    0.015613
     25          1           0       -3.664827    2.227956    0.005310
     26         16           0       -4.310721   -0.730098   -0.000703
     27          9           0       -3.478508   -2.221983   -0.037984
     28          9           0       -4.340571   -0.704801   -1.709772
     29          9           0       -4.297072   -0.760526    1.711279
     30         17           0       -1.621230    4.163112    0.016195
     31          9           0       -5.770339   -1.629531   -0.010354
     32          9           0       -5.272813    0.684319    0.039201
     33          8           0        5.121279    0.238166   -0.220787
     34          8           0        3.782604    2.002649   -0.365858
     35          6           0        4.927183    1.550577   -0.176517
     36          6           0        6.206024    2.335015    0.088142
     37          6           0        6.040174    3.828227    0.267991
     38          1           0        6.904585    2.139208   -0.755376
     39          1           0        6.727119    1.918572    0.984087
     40          1           0        4.972801    4.081657    0.141528
     41          1           0        6.638638    4.379277   -0.497482
     42          1           0        6.405317    4.114354    1.274773
 ---------------------------------------------------------------------
 Rotational constants (GHZ):      0.2206594      0.0810623      0.0610605
 General basis read from cards:  (6D, 7F)
 There are   517 symmetry adapted cartesian basis functions of A   symmetry.
 There are   517 symmetry adapted basis functions of A   symmetry.
   517 basis functions,   916 primitive gaussians,   517 cartesian basis functions
   106 alpha electrons      106 beta electrons
       nuclear repulsion energy      2636.2362381587 Hartrees.
 NAtoms=   42 NActive=   42 NUniq=   42 SFac= 1.00D+00 NAtFMM=   60 NAOKFM=F Big=F
 Integral buffers will be    131072 words long.
 Raffenetti 2 integral format.
 Two-electron integral symmetry is turned on.
 One-electron integrals computed using PRISM.
 NBasis=   517 RedAO= T EigKep=  1.55D-06  NBF=   517
 NBsUse=   514 1.00D-06 EigRej=  9.58D-07 NBFU=   514
 ExpMin= 4.05D-02 ExpMax= 2.52D+04 ExpMxC= 3.78D+03 IAcc=3 IRadAn=         5 AccDes= 0.00D+00
 Harris functional with IExCor= 1009 and IRadAn=       5 diagonalized for initial guess.
 HarFok:  IExCor= 1009 AccDes= 0.00D+00 IRadAn=         5 IDoV= 1 UseB2=F ITyADJ=14
 ICtDFT=  3500011 ScaDFX=  1.000000  1.000000  1.000000  1.000000
 FoFCou: FMM=F IPFlag=           0 FMFlag=      100000 FMFlg1=           0
         NFxFlg=           0 DoJE=T BraDBF=F KetDBF=T FulRan=T
         wScrn=  0.000000 ICntrl=     500 IOpCl=  0 I1Cent=   200000004 NGrid=           0
         NMat0=    1 NMatS0=      1 NMatT0=    0 NMatD0=    1 NMtDS0=    0 NMtDT0=    0
 Petite list used in FoFCou.
 Requested convergence on RMS density matrix=1.00D-08 within 128 cycles.
 Requested convergence on MAX density matrix=1.00D-06.
 Requested convergence on             energy=1.00D-06.
 No special actions if energy rises.
 EnCoef did     2 forward-backward iterations
 SCF Done:  E(RM062X) =  -2197.80147361     A.U. after   17 cycles
            NFock= 17  Conv=0.77D-08     -V/T= 2.0070
 DoSCS=F DFT=T ScalE2(SS,OS)=  1.000000  1.000000
 Range of M.O.s used for correlation:     1   514
 NBasis=   517 NAE=   106 NBE=   106 NFC=     0 NFV=     0
 NROrb=    514 NOA=   106 NOB=   106 NVA=   408 NVB=   408

 **** Warning!!: The largest alpha MO coefficient is  0.10009082D+03

 Symmetrizing basis deriv contribution to polar:
 IMax=3 JMax=2 DiffMx= 0.00D+00
 G2DrvN: will do    43 centers at a time, making    1 passes.
 Calling FoFCou, ICntrl=  3107 FMM=F I1Cent=   0 AccDes= 0.00D+00.
 End of G2Drv F.D. properties file   721 does not exist.
 End of G2Drv F.D. properties file   722 does not exist.
 End of G2Drv F.D. properties file   788 does not exist.
          IDoAtm=111111111111111111111111111111111111111111
          Differentiating once with respect to nuclear coordinates.
          There are   129 degrees of freedom in the 1st order CPHF.  IDoFFX=6 NUNeed=     0.
    123 vectors produced by pass  0 Test12= 4.32D-14 1.00D-09 XBig12= 2.11D-01 1.14D-01.
 AX will form   123 AO Fock derivatives at one time.
    123 vectors produced by pass  1 Test12= 4.32D-14 1.00D-09 XBig12= 3.57D-02 3.22D-02.
    123 vectors produced by pass  2 Test12= 4.32D-14 1.00D-09 XBig12= 1.06D-03 5.81D-03.
    123 vectors produced by pass  3 Test12= 4.32D-14 1.00D-09 XBig12= 1.20D-05 6.38D-04.
    123 vectors produced by pass  4 Test12= 4.32D-14 1.00D-09 XBig12= 9.23D-08 4.34D-05.
    123 vectors produced by pass  5 Test12= 4.32D-14 1.00D-09 XBig12= 4.13D-10 1.91D-06.
     99 vectors produced by pass  6 Test12= 4.32D-14 1.00D-09 XBig12= 1.66D-12 1.74D-07.
     33 vectors produced by pass  7 Test12= 4.32D-14 1.00D-09 XBig12= 6.36D-15 7.46D-09.
      5 vectors produced by pass  8 Test12= 4.32D-14 1.00D-09 XBig12= 1.63D-15 4.41D-09.
      5 vectors produced by pass  9 Test12= 4.32D-14 1.00D-09 XBig12= 7.94D-15 8.32D-09.
      5 vectors produced by pass 10 Test12= 4.32D-14 1.00D-09 XBig12= 3.48D-14 1.95D-08.
      5 vectors produced by pass 11 Test12= 4.32D-14 1.00D-09 XBig12= 5.47D-14 1.86D-08.
      5 vectors produced by pass 12 Test12= 4.32D-14 1.00D-09 XBig12= 2.09D-14 9.68D-09.
      5 vectors produced by pass 13 Test12= 4.32D-14 1.00D-09 XBig12= 1.21D-14 6.66D-09.
      4 vectors produced by pass 14 Test12= 4.32D-14 1.00D-09 XBig12= 7.14D-15 4.58D-09.
      4 vectors produced by pass 15 Test12= 4.32D-14 1.00D-09 XBig12= 2.42D-14 1.53D-08.
      4 vectors produced by pass 16 Test12= 4.32D-14 1.00D-09 XBig12= 1.52D-14 9.97D-09.
      4 vectors produced by pass 17 Test12= 4.32D-14 1.00D-09 XBig12= 4.17D-14 1.27D-08.
      3 vectors produced by pass 18 Test12= 4.32D-14 1.00D-09 XBig12= 1.36D-14 8.57D-09.
      3 vectors produced by pass 19 Test12= 4.32D-14 1.00D-09 XBig12= 3.21D-14 1.17D-08.
      3 vectors produced by pass 20 Test12= 4.32D-14 1.00D-09 XBig12= 1.40D-14 7.22D-09.
      3 vectors produced by pass 21 Test12= 4.32D-14 1.00D-09 XBig12= 1.91D-14 9.01D-09.
      3 vectors produced by pass 22 Test12= 4.32D-14 1.00D-09 XBig12= 3.96D-14 1.48D-08.
      2 vectors produced by pass 23 Test12= 4.32D-14 1.00D-09 XBig12= 3.58D-15 3.83D-09.
 InvSVY:  IOpt=1 It=  1 EMax= 1.50D-15
 Solved reduced A of dimension   933 with   129 vectors.
 End of Minotr F.D. properties file   721 does not exist.
 End of Minotr F.D. properties file   722 does not exist.
 End of Minotr F.D. properties file   788 does not exist.

 **********************************************************************

            Population analysis using the SCF density.

 **********************************************************************

 Orbital symmetries:
       Occupied  (A) (A) (A) (A) (A) (A) (A) (A) (A) (A) (A) (A)
                 (A) (A) (A) (A) (A) (A) (A) (A) (A) (A) (A) (A)
                 (A) (A) (A) (A) (A) (A) (A) (A) (A) (A) (A) (A)
                 (A) (A) (A) (A) (A) (A) (A) (A) (A) (A) (A) (A)
                 (A) (A) (A) (A) (A) (A) (A) (A) (A) (A) (A) (A)
                 (A) (A) (A) (A) (A) (A) (A) (A) (A) (A) (A) (A)
                 (A) (A) (A) (A) (A) (A) (A) (A) (A) (A) (A) (A)
                 (A) (A) (A) (A) (A) (A) (A) (A) (A) (A) (A) (A)
                 (A) (A) (A) (A) (A) (A) (A) (A) (A) (A)
       Virtual   (A) (A) (A) (A) (A) (A) (A) (A) (A) (A) (A) (A)
                 (A) (A) (A) (A) (A) (A) (A) (A) (A) (A) (A) (A)
                 (A) (A) (A) (A) (A) (A) (A) (A) (A) (A) (A) (A)
                 (A) (A) (A) (A) (A) (A) (A) (A) (A) (A) (A) (A)
                 (A) (A) (A) (A) (A) (A) (A) (A) (A) (A) (A) (A)
                 (A) (A) (A) (A) (A) (A) (A) (A) (A) (A) (A) (A)
                 (A) (A) (A) (A) (A) (A) (A) (A) (A) (A) (A) (A)
                 (A) (A) (A) (A) (A) (A) (A) (A) (A) (A) (A) (A)
                 (A) (A) (A) (A) (A) (A) (A) (A) (A) (A) (A) (A)
                 (A) (A) (A) (A) (A) (A) (A) (A) (A) (A) (A) (A)
                 (A) (A) (A) (A) (A) (A) (A) (A) (A) (A) (A) (A)
                 (A) (A) (A) (A) (A) (A) (A) (A) (A) (A) (A) (A)
                 (A) (A) (A) (A) (A) (A) (A) (A) (A) (A) (A) (A)
                 (A) (A) (A) (A) (A) (A) (A) (A) (A) (A) (A) (A)
                 (A) (A) (A) (A) (A) (A) (A) (A) (A) (A) (A) (A)
                 (A) (A) (A) (A) (A) (A) (A) (A) (A) (A) (A) (A)
                 (A) (A) (A) (A) (A) (A) (A) (A) (A) (A) (A) (A)
                 (A) (A) (A) (A) (A) (A) (A) (A) (A) (A) (A) (A)
                 (A) (A) (A) (A) (A) (A) (A) (A) (A) (A) (A) (A)
                 (A) (A) (A) (A) (A) (A) (A) (A) (A) (A) (A) (A)
                 (A) (A) (A) (A) (A) (A) (A) (A) (A) (A) (A) (A)
                 (A) (A) (A) (A) (A) (A) (A) (A) (A) (A) (A) (A)
                 (A) (A) (A) (A) (A) (A) (A) (A) (A) (A) (A) (A)
                 (A) (A) (A) (A) (A) (A) (A) (A) (A) (A) (A) (A)
                 (A) (A) (A) (A) (A) (A) (A) (A) (A) (A) (A) (A)
                 (A) (A) (A) (A) (A) (A) (A) (A) (A) (A) (A) (A)
                 (A) (A) (A) (A) (A) (A) (A) (A) (A) (A) (A) (A)
                 (A) (A) (A) (A) (A) (A) (A) (A) (A) (A) (A) (A)
                 (A) (A) (A) (A) (A) (A) (A) (A) (A) (A) (A) (A)
                 (A) (A) (A) (A) (A) (A) (A) (A) (A) (A) (A) (A)
                 (A) (A) (A) (A) (A) (A) (A) (A) (A) (A) (A) (A)
                 (A) (A) (A) (A) (A) (A) (A) (A) (A) (A) (A) (A)
                 (A) (A) (A) (A) (A) (A) (A) (A) (A) (A) (A) (A)
                 (A) (A) (A) (A) (A) (A) (A) (A) (A) (A) (A) (A)
 The electronic state is 1-A.
 Alpha  occ. eigenvalues -- -102.60846 -90.26202 -25.24546 -25.23721 -25.23206
 Alpha  occ. eigenvalues --  -25.23072 -25.23042 -19.49501 -19.46844 -19.43924
 Alpha  occ. eigenvalues --  -14.71294 -14.66576 -10.57048 -10.55898 -10.55709
 Alpha  occ. eigenvalues --  -10.55170 -10.51036 -10.50983 -10.50384 -10.49613
 Alpha  occ. eigenvalues --  -10.48313 -10.46005 -10.45286 -10.43388 -10.43247
 Alpha  occ. eigenvalues --   -9.75478  -8.54780  -7.47888  -7.47214  -7.47204
 Alpha  occ. eigenvalues --   -6.47123  -6.47105  -6.46737  -1.36364  -1.29335
 Alpha  occ. eigenvalues --   -1.28805  -1.27785  -1.26072  -1.06967  -1.01085
 Alpha  occ. eigenvalues --   -0.94555  -0.92070  -0.90463  -0.89109  -0.88688
 Alpha  occ. eigenvalues --   -0.84511  -0.79127  -0.77717  -0.75900  -0.75307
 Alpha  occ. eigenvalues --   -0.68455  -0.66090  -0.63722  -0.62802  -0.62671
 Alpha  occ. eigenvalues --   -0.60553  -0.58892  -0.57661  -0.54895  -0.52760
 Alpha  occ. eigenvalues --   -0.52508  -0.51721  -0.51605  -0.50341  -0.48710
 Alpha  occ. eigenvalues --   -0.48206  -0.46578  -0.46384  -0.46360  -0.46307
 Alpha  occ. eigenvalues --   -0.46001  -0.45810  -0.45527  -0.44953  -0.44530
 Alpha  occ. eigenvalues --   -0.43627  -0.43420  -0.42211  -0.42111  -0.41273
 Alpha  occ. eigenvalues --   -0.40965  -0.40033  -0.39565  -0.39237  -0.37118
 Alpha  occ. eigenvalues --   -0.36925  -0.36431  -0.35866  -0.35677  -0.33599
 Alpha  occ. eigenvalues --   -0.33284  -0.33016  -0.32123  -0.31535  -0.30495
 Alpha  occ. eigenvalues --   -0.30381  -0.29848  -0.28864  -0.27564  -0.23988
 Alpha  occ. eigenvalues --   -0.23319  -0.20879  -0.19016  -0.18617  -0.17084
 Alpha  occ. eigenvalues --   -0.15983
 Alpha virt. eigenvalues --   -0.02315   0.05901   0.08331   0.08694   0.10229
 Alpha virt. eigenvalues --    0.10435   0.10868   0.11242   0.11551   0.11607
 Alpha virt. eigenvalues --    0.12488   0.12713   0.13057   0.13202   0.13766
 Alpha virt. eigenvalues --    0.13983   0.14103   0.14516   0.15247   0.15487
 Alpha virt. eigenvalues --    0.15808   0.15850   0.16050   0.16688   0.17084
 Alpha virt. eigenvalues --    0.17649   0.17936   0.18188   0.18476   0.18865
 Alpha virt. eigenvalues --    0.18997   0.19735   0.19892   0.20022   0.20365
 Alpha virt. eigenvalues --    0.20682   0.21114   0.21386   0.21722   0.21841
 Alpha virt. eigenvalues --    0.22115   0.22436   0.23057   0.23464   0.23727
 Alpha virt. eigenvalues --    0.23810   0.24650   0.25283   0.25843   0.26451
 Alpha virt. eigenvalues --    0.26519   0.27031   0.27409   0.28019   0.28546
 Alpha virt. eigenvalues --    0.29024   0.29156   0.30119   0.30212   0.30887
 Alpha virt. eigenvalues --    0.31048   0.31247   0.31800   0.32091   0.32506
 Alpha virt. eigenvalues --    0.33076   0.33215   0.33646   0.33819   0.34009
 Alpha virt. eigenvalues --    0.34305   0.35162   0.35634   0.35926   0.36313
 Alpha virt. eigenvalues --    0.36749   0.36959   0.37316   0.37776   0.37940
 Alpha virt. eigenvalues --    0.38037   0.38290   0.38772   0.39099   0.39458
 Alpha virt. eigenvalues --    0.39983   0.40400   0.40880   0.40938   0.41533
 Alpha virt. eigenvalues --    0.41882   0.42066   0.42318   0.42729   0.43312
 Alpha virt. eigenvalues --    0.43491   0.43669   0.43958   0.44093   0.44272
 Alpha virt. eigenvalues --    0.44715   0.45051   0.45202   0.45254   0.45732
 Alpha virt. eigenvalues --    0.46377   0.46598   0.46935   0.47119   0.47945
 Alpha virt. eigenvalues --    0.48519   0.48753   0.49084   0.49912   0.50063
 Alpha virt. eigenvalues --    0.50439   0.51536   0.51955   0.52618   0.53864
 Alpha virt. eigenvalues --    0.53993   0.54648   0.56114   0.56459   0.57096
 Alpha virt. eigenvalues --    0.57998   0.58631   0.59167   0.59908   0.60883
 Alpha virt. eigenvalues --    0.61910   0.62874   0.63219   0.63420   0.63603
 Alpha virt. eigenvalues --    0.65374   0.65812   0.66214   0.67131   0.67598
 Alpha virt. eigenvalues --    0.69225   0.71562   0.72091   0.72332   0.72377
 Alpha virt. eigenvalues --    0.75657   0.78260   0.78358   0.78673   0.78908
 Alpha virt. eigenvalues --    0.79705   0.80212   0.81529   0.82407   0.83209
 Alpha virt. eigenvalues --    0.83413   0.84458   0.84722   0.85309   0.85530
 Alpha virt. eigenvalues --    0.85861   0.86897   0.87702   0.87809   0.88114
 Alpha virt. eigenvalues --    0.88800   0.90689   0.91512   0.92160   0.93131
 Alpha virt. eigenvalues --    0.93914   0.94487   0.94957   0.96195   0.96537
 Alpha virt. eigenvalues --    0.98182   0.98591   0.98946   0.99445   1.00132
 Alpha virt. eigenvalues --    1.00886   1.02609   1.04364   1.05534   1.06673
 Alpha virt. eigenvalues --    1.06898   1.07589   1.07838   1.08525   1.09578
 Alpha virt. eigenvalues --    1.10237   1.10528   1.10782   1.11277   1.12473
 Alpha virt. eigenvalues --    1.14516   1.15357   1.15884   1.16249   1.17064
 Alpha virt. eigenvalues --    1.17390   1.19331   1.21449   1.22280   1.22747
 Alpha virt. eigenvalues --    1.23476   1.25165   1.25761   1.25873   1.26953
 Alpha virt. eigenvalues --    1.27584   1.28380   1.28661   1.29785   1.30618
 Alpha virt. eigenvalues --    1.32418   1.33886   1.34497   1.35820   1.38293
 Alpha virt. eigenvalues --    1.38622   1.41550   1.41764   1.42601   1.45534
 Alpha virt. eigenvalues --    1.46889   1.47334   1.47974   1.50006   1.50101
 Alpha virt. eigenvalues --    1.50402   1.51900   1.54206   1.55066   1.55322
 Alpha virt. eigenvalues --    1.56337   1.56819   1.57183   1.57921   1.58977
 Alpha virt. eigenvalues --    1.59131   1.59545   1.59993   1.62157   1.64013
 Alpha virt. eigenvalues --    1.64515   1.65811   1.66738   1.67088   1.67609
 Alpha virt. eigenvalues --    1.67957   1.68270   1.69054   1.71213   1.72788
 Alpha virt. eigenvalues --    1.73476   1.75503   1.76707   1.78216   1.79582
 Alpha virt. eigenvalues --    1.80246   1.82088   1.82739   1.83805   1.84223
 Alpha virt. eigenvalues --    1.84852   1.85244   1.86027   1.87443   1.87969
 Alpha virt. eigenvalues --    1.89220   1.90930   1.91184   1.92208   1.92776
 Alpha virt. eigenvalues --    1.92976   1.93768   1.93957   1.95353   1.95796
 Alpha virt. eigenvalues --    1.95895   1.96264   1.97585   1.97821   1.97937
 Alpha virt. eigenvalues --    1.99083   1.99266   1.99459   2.00944   2.02083
 Alpha virt. eigenvalues --    2.02563   2.03967   2.04227   2.04755   2.05357
 Alpha virt. eigenvalues --    2.05662   2.05719   2.06355   2.06568   2.07840
 Alpha virt. eigenvalues --    2.07932   2.08407   2.08862   2.08994   2.10844
 Alpha virt. eigenvalues --    2.11179   2.11774   2.12056   2.12386   2.12432
 Alpha virt. eigenvalues --    2.12955   2.15679   2.15916   2.16438   2.17085
 Alpha virt. eigenvalues --    2.17207   2.18064   2.21012   2.21900   2.23907
 Alpha virt. eigenvalues --    2.24891   2.25062   2.25280   2.26447   2.27294
 Alpha virt. eigenvalues --    2.28651   2.30290   2.30509   2.31123   2.31510
 Alpha virt. eigenvalues --    2.31715   2.32044   2.34150   2.35580   2.35939
 Alpha virt. eigenvalues --    2.36603   2.36846   2.37915   2.39111   2.40334
 Alpha virt. eigenvalues --    2.45775   2.46414   2.47773   2.49607   2.49854
 Alpha virt. eigenvalues --    2.49958   2.51341   2.54063   2.55968   2.59640
 Alpha virt. eigenvalues --    2.64519   2.65897   2.68513   2.70365   2.71962
 Alpha virt. eigenvalues --    2.72739   2.73952   2.75841   2.76492   2.79741
 Alpha virt. eigenvalues --    2.80277   2.84381   2.85048   2.85215   2.86920
 Alpha virt. eigenvalues --    2.88085   2.89389   2.90856   2.92274   2.92631
 Alpha virt. eigenvalues --    2.93582   3.00828   3.02363   3.08792   3.13344
 Alpha virt. eigenvalues --    3.15596   3.24244   3.26567   3.29695   3.30747
 Alpha virt. eigenvalues --    3.37734   3.40834   3.44719   4.27691   4.30598
 Alpha virt. eigenvalues --    4.33494   4.35693   4.37436   4.42650   4.44411
 Alpha virt. eigenvalues --    4.44945   4.49311   4.52446   4.54427   4.56330
 Alpha virt. eigenvalues --    4.57244   4.59810   4.63522   4.67117   4.74580
 Alpha virt. eigenvalues --    4.80911   4.82701   4.87052   5.92907   5.93812
 Alpha virt. eigenvalues --    6.15066   6.44334   8.04388
          Condensed to atoms (all electrons):
               1          2          3          4          5          6
     1  C    5.900946  -0.280574   0.014604  -0.018180  -0.047428  -0.001277
     2  C   -0.280574   6.497451  -0.545237  -0.073685   0.198561   0.024438
     3  C    0.014604  -0.545237   6.959244   0.386163  -0.718126  -0.132595
     4  N   -0.018180  -0.073685   0.386163   7.818625   0.385994  -0.203529
     5  C   -0.047428   0.198561  -0.718126   0.385994   6.167294   0.626588
     6  O   -0.001277   0.024438  -0.132595  -0.203529   0.626588   8.342139
     7  N   -0.002038   0.015844  -0.178711  -0.394565   0.152706  -0.076085
     8  C   -0.003832   0.006327  -0.128738  -0.107610  -0.122581  -0.294292
     9  C   -0.004312   0.004456  -0.213721  -0.064022  -0.796297   0.383024
    10  C   -0.000287   0.003086   0.007207  -0.047661   0.025078  -0.086005
    11  C   -0.000179   0.000830  -0.009050  -0.004861  -0.089742  -0.009934
    12  C    0.000066  -0.000004   0.006914  -0.011286   0.003258  -0.028584
    13  C   -0.000261   0.000058  -0.024713   0.008050  -0.314536   0.061164
    14  H    0.466724  -0.146354   0.031380   0.000222  -0.001487   0.000004
    15  H    0.417762  -0.067686  -0.005907   0.000039  -0.001117  -0.000043
    16  H    0.419032  -0.065388  -0.010799   0.000011   0.000005  -0.000026
    17  H   -0.039624   0.430566  -0.079146   0.006076  -0.000133  -0.000143
    18  H   -0.042970   0.421336  -0.061930   0.005718  -0.007327  -0.000190
    19  H   -0.008657  -0.058890   0.456961  -0.060828  -0.024486   0.001108
    20  H   -0.012669  -0.052310   0.455675  -0.060177  -0.025263   0.001274
    21  H    0.002133  -0.002940  -0.046990   0.171433   0.011048   0.004647
    22  H    0.000100   0.000114   0.008161   0.038644  -0.023797   0.003327
    23  H    0.000011  -0.000071   0.003182  -0.000161   0.026689   0.004070
    24  H   -0.000003   0.000049  -0.000903   0.000384  -0.021460   0.000121
    25  H    0.000000  -0.000000   0.000010   0.000003   0.001989   0.000005
    26  S   -0.000056   0.000185  -0.003937   0.001161  -0.058408   0.007073
    27  F    0.000000   0.000007  -0.000006   0.000049   0.000893  -0.001085
    28  F   -0.000000  -0.000001   0.000019   0.000002   0.002133   0.000078
    29  F   -0.000000  -0.000001   0.000026   0.000002   0.002676   0.000067
    30  Cl  -0.000000  -0.000002  -0.000215  -0.000065  -0.008217  -0.000134
    31  F    0.000000  -0.000000   0.000012   0.000001   0.000475  -0.000024
    32  F    0.000000  -0.000000   0.000006   0.000002  -0.000137   0.000027
    33  O    0.012493   0.013425  -0.009779  -0.036785   0.003606  -0.000314
    34  O   -0.000347  -0.002217   0.004121   0.005479  -0.000668  -0.000055
    35  C   -0.006139  -0.009049   0.004823   0.002486  -0.005934  -0.000819
    36  C    0.003948   0.000307   0.012086  -0.011565  -0.008543  -0.000400
    37  C   -0.000795  -0.000682  -0.002163   0.002489   0.000066   0.000040
    38  H    0.000076   0.000182   0.000087  -0.000048  -0.000196  -0.000000
    39  H   -0.000015   0.000129  -0.000229  -0.000025   0.000261  -0.000000
    40  H   -0.000001   0.000013  -0.000039  -0.000010   0.000013  -0.000000
    41  H    0.000000  -0.000001   0.000003   0.000000  -0.000001  -0.000000
    42  H    0.000001   0.000019  -0.000012  -0.000003   0.000028   0.000000
               7          8          9         10         11         12
     1  C   -0.002038  -0.003832  -0.004312  -0.000287  -0.000179   0.000066
     2  C    0.015844   0.006327   0.004456   0.003086   0.000830  -0.000004
     3  C   -0.178711  -0.128738  -0.213721   0.007207  -0.009050   0.006914
     4  N   -0.394565  -0.107610  -0.064022  -0.047661  -0.004861  -0.011286
     5  C    0.152706  -0.122581  -0.796297   0.025078  -0.089742   0.003258
     6  O   -0.076085  -0.294292   0.383024  -0.086005  -0.009934  -0.028584
     7  N    7.789671   0.036688   0.184907  -0.068827   0.032402  -0.101899
     8  C    0.036688  12.758360  -3.486306   0.709910  -1.055630   1.546482
     9  C    0.184907  -3.486306  13.171069  -2.729892  -0.759686  -3.743487
    10  C   -0.068827   0.709910  -2.729892   8.301183   0.997836  -0.697678
    11  C    0.032402  -1.055630  -0.759686   0.997836   8.642087  -0.620540
    12  C   -0.101899   1.546482  -3.743487  -0.697678  -0.620540  16.449468
    13  C    0.039618  -3.794125   3.656729  -0.314870  -1.282120  -6.056343
    14  H    0.000011  -0.000024  -0.000001  -0.000001  -0.000000  -0.000000
    15  H    0.000006   0.000005  -0.000033   0.000004   0.000000   0.000000
    16  H    0.000014   0.000006  -0.000019   0.000003   0.000000   0.000000
    17  H    0.000029  -0.000567  -0.000155   0.000220   0.000007   0.000001
    18  H   -0.000247  -0.000709  -0.000309   0.000249   0.000007   0.000002
    19  H    0.000238  -0.000031  -0.002069   0.000188  -0.000005   0.000033
    20  H   -0.000802  -0.000240  -0.001000  -0.000017  -0.000007   0.000013
    21  H    0.029869   0.013044   0.000797   0.000393  -0.000356   0.000121
    22  H    0.166106   0.020026   0.039740  -0.052083  -0.007659  -0.007264
    23  H   -0.011685   0.031950   0.305364   0.024271  -0.023259   0.018466
    24  H   -0.005544  -0.045575  -0.017101   0.337399  -0.004960   0.030195
    25  H    0.000248   0.008101   0.017811   0.021730   0.082498   0.229198
    26  S   -0.004361  -0.260095  -0.014239  -0.026098  -0.080102  -0.278181
    27  F    0.000203  -0.033116  -0.014627  -0.005671   0.002581  -0.091101
    28  F    0.000185   0.017553   0.017114   0.002557   0.025430   0.042812
    29  F    0.000243   0.017717   0.017232   0.002812   0.028758   0.042215
    30  Cl  -0.001612   0.003430   0.041032  -0.015611  -0.212104  -0.035270
    31  F    0.000028  -0.006285   0.002814  -0.001082   0.005933   0.037307
    32  F   -0.000055   0.017031   0.027357  -0.000986  -0.017677   0.078100
    33  O    0.012225  -0.010013  -0.000462   0.000512  -0.001535   0.000256
    34  O   -0.018194  -0.062528   0.000689   0.055613   0.007589  -0.002406
    35  C   -0.003321   0.019618  -0.010329  -0.012222  -0.004195   0.002270
    36  C   -0.007608  -0.011176  -0.003487   0.007749   0.000341   0.000518
    37  C    0.000386  -0.003340  -0.000498   0.002438   0.003351   0.000254
    38  H    0.000005  -0.000083  -0.000013   0.000011  -0.000000   0.000001
    39  H    0.000083  -0.000217   0.000003   0.000164   0.000010   0.000000
    40  H    0.000057  -0.000866  -0.000046   0.000435   0.000445   0.000034
    41  H   -0.000004   0.000015  -0.000001  -0.000012  -0.000008  -0.000000
    42  H    0.000005   0.000019   0.000003  -0.000036   0.000002   0.000000
              13         14         15         16         17         18
     1  C   -0.000261   0.466724   0.417762   0.419032  -0.039624  -0.042970
     2  C    0.000058  -0.146354  -0.067686  -0.065388   0.430566   0.421336
     3  C   -0.024713   0.031380  -0.005907  -0.010799  -0.079146  -0.061930
     4  N    0.008050   0.000222   0.000039   0.000011   0.006076   0.005718
     5  C   -0.314536  -0.001487  -0.001117   0.000005  -0.000133  -0.007327
     6  O    0.061164   0.000004  -0.000043  -0.000026  -0.000143  -0.000190
     7  N    0.039618   0.000011   0.000006   0.000014   0.000029  -0.000247
     8  C   -3.794125  -0.000024   0.000005   0.000006  -0.000567  -0.000709
     9  C    3.656729  -0.000001  -0.000033  -0.000019  -0.000155  -0.000309
    10  C   -0.314870  -0.000001   0.000004   0.000003   0.000220   0.000249
    11  C   -1.282120  -0.000000   0.000000   0.000000   0.000007   0.000007
    12  C   -6.056343  -0.000000   0.000000   0.000000   0.000001   0.000002
    13  C   14.458632  -0.000000  -0.000000   0.000000  -0.000007  -0.000010
    14  H   -0.000000   0.509101  -0.025752  -0.026124  -0.003404  -0.003482
    15  H   -0.000000  -0.025752   0.515167  -0.030937  -0.004587   0.004056
    16  H    0.000000  -0.026124  -0.030937   0.516954   0.003948  -0.004764
    17  H   -0.000007  -0.003404  -0.004587   0.003948   0.470413  -0.025043
    18  H   -0.000010  -0.003482   0.004056  -0.004764  -0.025043   0.483899
    19  H   -0.000075  -0.000069  -0.000420   0.003136   0.003866  -0.005138
    20  H   -0.000045  -0.000074   0.003013  -0.000340  -0.005043   0.003895
    21  H   -0.000371  -0.000001  -0.000000  -0.000001   0.000700   0.000629
    22  H    0.013351  -0.000000   0.000000  -0.000000   0.000003   0.000004
    23  H   -0.084300   0.000000  -0.000000  -0.000000  -0.000000  -0.000000
    24  H    0.022029  -0.000000  -0.000000  -0.000000  -0.000000  -0.000000
    25  H   -0.055188   0.000000  -0.000000  -0.000000   0.000000   0.000000
    26  S    0.351868  -0.000000  -0.000000  -0.000000  -0.000000  -0.000000
    27  F    0.135948  -0.000000   0.000000   0.000000   0.000000  -0.000000
    28  F   -0.131221  -0.000000  -0.000000  -0.000000  -0.000000  -0.000000
    29  F   -0.132998  -0.000000  -0.000000  -0.000000  -0.000000  -0.000000
    30  Cl   0.017703   0.000000  -0.000000   0.000000   0.000000  -0.000000
    31  F   -0.145199  -0.000000   0.000000   0.000000   0.000000   0.000000
    32  F   -0.105206  -0.000000   0.000000   0.000000  -0.000000  -0.000000
    33  O   -0.000728  -0.000027  -0.000006  -0.000018  -0.002844  -0.002037
    34  O    0.002150   0.000000   0.000000   0.000000  -0.000010  -0.000023
    35  C   -0.003636  -0.000128   0.000002   0.000005   0.000180  -0.000377
    36  C   -0.000965   0.000052   0.000010  -0.000016  -0.000579   0.000683
    37  C    0.000172  -0.000001  -0.000000   0.000000   0.000011  -0.000031
    38  H   -0.000001  -0.000000  -0.000000   0.000000  -0.000000  -0.000000
    39  H   -0.000000   0.000000   0.000000  -0.000000  -0.000000  -0.000000
    40  H   -0.000004   0.000000  -0.000000   0.000000   0.000000  -0.000000
    41  H   -0.000000   0.000000  -0.000000  -0.000000   0.000000  -0.000000
    42  H    0.000000   0.000000  -0.000000  -0.000000  -0.000000  -0.000000
              19         20         21         22         23         24
     1  C   -0.008657  -0.012669   0.002133   0.000100   0.000011  -0.000003
     2  C   -0.058890  -0.052310  -0.002940   0.000114  -0.000071   0.000049
     3  C    0.456961   0.455675  -0.046990   0.008161   0.003182  -0.000903
     4  N   -0.060828  -0.060177   0.171433   0.038644  -0.000161   0.000384
     5  C   -0.024486  -0.025263   0.011048  -0.023797   0.026689  -0.021460
     6  O    0.001108   0.001274   0.004647   0.003327   0.004070   0.000121
     7  N    0.000238  -0.000802   0.029869   0.166106  -0.011685  -0.005544
     8  C   -0.000031  -0.000240   0.013044   0.020026   0.031950  -0.045575
     9  C   -0.002069  -0.001000   0.000797   0.039740   0.305364  -0.017101
    10  C    0.000188  -0.000017   0.000393  -0.052083   0.024271   0.337399
    11  C   -0.000005  -0.000007  -0.000356  -0.007659  -0.023259  -0.004960
    12  C    0.000033   0.000013   0.000121  -0.007264   0.018466   0.030195
    13  C   -0.000075  -0.000045  -0.000371   0.013351  -0.084300   0.022029
    14  H   -0.000069  -0.000074  -0.000001  -0.000000   0.000000  -0.000000
    15  H   -0.000420   0.003013  -0.000000   0.000000  -0.000000  -0.000000
    16  H    0.003136  -0.000340  -0.000001  -0.000000  -0.000000  -0.000000
    17  H    0.003866  -0.005043   0.000700   0.000003  -0.000000  -0.000000
    18  H   -0.005138   0.003895   0.000629   0.000004  -0.000000  -0.000000
    19  H    0.530233  -0.041872   0.001750   0.000002  -0.000001  -0.000000
    20  H   -0.041872   0.525617   0.001717   0.000006  -0.000001   0.000000
    21  H    0.001750   0.001717   0.253998   0.004544  -0.000001   0.000008
    22  H    0.000002   0.000006   0.004544   0.275160  -0.000038   0.004695
    23  H   -0.000001  -0.000001  -0.000001  -0.000038   0.383186  -0.000087
    24  H   -0.000000   0.000000   0.000008   0.004695  -0.000087   0.431532
    25  H   -0.000000  -0.000000  -0.000000   0.000000  -0.000124  -0.000133
    26  S   -0.000012  -0.000009  -0.000019   0.000430  -0.003920   0.002206
    27  F   -0.000000  -0.000000   0.000000  -0.000000   0.003948   0.000000
    28  F   -0.000000   0.000000  -0.000000   0.000000   0.000193   0.000001
    29  F    0.000000  -0.000000  -0.000000   0.000000   0.000146   0.000001
    30  Cl   0.000000   0.000000   0.000004  -0.000030   0.000030   0.002272
    31  F   -0.000000  -0.000000   0.000000   0.000000   0.000168   0.000000
    32  F    0.000000  -0.000000  -0.000000  -0.000000   0.000040   0.000002
    33  O   -0.000090  -0.000026   0.054874   0.000386   0.000000  -0.000003
    34  O   -0.000001  -0.000006  -0.000690   0.036445   0.000003  -0.001311
    35  C    0.000320   0.000303  -0.005426  -0.002710  -0.000034   0.000679
    36  C   -0.000034   0.000014   0.007052   0.006993  -0.000003   0.000843
    37  C    0.000004  -0.000000  -0.001244  -0.000509   0.000000  -0.000026
    38  H    0.000000  -0.000000   0.000003  -0.000002   0.000000   0.000000
    39  H   -0.000000   0.000000  -0.000007  -0.000009  -0.000000  -0.000000
    40  H    0.000000   0.000000  -0.000001  -0.000018   0.000000  -0.000001
    41  H   -0.000000  -0.000000   0.000000   0.000000   0.000000   0.000000
    42  H   -0.000000  -0.000000   0.000000   0.000000  -0.000000   0.000000
              25         26         27         28         29         30
     1  C    0.000000  -0.000056   0.000000  -0.000000  -0.000000  -0.000000
     2  C   -0.000000   0.000185   0.000007  -0.000001  -0.000001  -0.000002
     3  C    0.000010  -0.003937  -0.000006   0.000019   0.000026  -0.000215
     4  N    0.000003   0.001161   0.000049   0.000002   0.000002  -0.000065
     5  C    0.001989  -0.058408   0.000893   0.002133   0.002676  -0.008217
     6  O    0.000005   0.007073  -0.001085   0.000078   0.000067  -0.000134
     7  N    0.000248  -0.004361   0.000203   0.000185   0.000243  -0.001612
     8  C    0.008101  -0.260095  -0.033116   0.017553   0.017717   0.003430
     9  C    0.017811  -0.014239  -0.014627   0.017114   0.017232   0.041032
    10  C    0.021730  -0.026098  -0.005671   0.002557   0.002812  -0.015611
    11  C    0.082498  -0.080102   0.002581   0.025430   0.028758  -0.212104
    12  C    0.229198  -0.278181  -0.091101   0.042812   0.042215  -0.035270
    13  C   -0.055188   0.351868   0.135948  -0.131221  -0.132998   0.017703
    14  H    0.000000  -0.000000  -0.000000  -0.000000  -0.000000   0.000000
    15  H   -0.000000  -0.000000   0.000000  -0.000000  -0.000000  -0.000000
    16  H   -0.000000  -0.000000   0.000000  -0.000000  -0.000000   0.000000
    17  H    0.000000  -0.000000   0.000000  -0.000000  -0.000000   0.000000
    18  H    0.000000  -0.000000  -0.000000  -0.000000  -0.000000  -0.000000
    19  H   -0.000000  -0.000012  -0.000000  -0.000000   0.000000   0.000000
    20  H   -0.000000  -0.000009  -0.000000   0.000000  -0.000000   0.000000
    21  H   -0.000000  -0.000019   0.000000  -0.000000  -0.000000   0.000004
    22  H    0.000000   0.000430  -0.000000   0.000000   0.000000  -0.000030
    23  H   -0.000124  -0.003920   0.003948   0.000193   0.000146   0.000030
    24  H   -0.000133   0.002206   0.000000   0.000001   0.000001   0.002272
    25  H    0.448667  -0.005509   0.000080  -0.000045  -0.000058   0.000299
    26  S   -0.005509  13.935197   0.033487   0.005235   0.009555   0.000069
    27  F    0.000080   0.033487   9.546040  -0.016063  -0.018255  -0.000246
    28  F   -0.000045   0.005235  -0.016063   9.502249  -0.015805  -0.000327
    29  F   -0.000058   0.009555  -0.018255  -0.015805   9.497160  -0.000357
    30  Cl   0.000299   0.000069  -0.000246  -0.000327  -0.000357  17.007759
    31  F    0.000126   0.190176  -0.031674  -0.014948  -0.015166  -0.000007
    32  F   -0.000027   0.016222  -0.035227  -0.015767  -0.015069  -0.000373
    33  O    0.000000  -0.000013   0.000000   0.000000   0.000000  -0.000012
    34  O    0.000000  -0.000007  -0.000000   0.000000   0.000000  -0.000124
    35  C   -0.000001  -0.000115  -0.000001  -0.000001  -0.000000  -0.000393
    36  C    0.000000  -0.000015   0.000000  -0.000000   0.000000   0.000071
    37  C   -0.000000   0.000005  -0.000000   0.000000  -0.000000   0.000043
    38  H   -0.000000  -0.000000  -0.000000  -0.000000  -0.000000  -0.000000
    39  H   -0.000000   0.000000   0.000000   0.000000   0.000000   0.000000
    40  H   -0.000000  -0.000000  -0.000000   0.000000  -0.000000   0.000000
    41  H    0.000000  -0.000000  -0.000000  -0.000000  -0.000000  -0.000000
    42  H    0.000000   0.000000   0.000000   0.000000   0.000000  -0.000000
              31         32         33         34         35         36
     1  C    0.000000   0.000000   0.012493  -0.000347  -0.006139   0.003948
     2  C   -0.000000  -0.000000   0.013425  -0.002217  -0.009049   0.000307
     3  C    0.000012   0.000006  -0.009779   0.004121   0.004823   0.012086
     4  N    0.000001   0.000002  -0.036785   0.005479   0.002486  -0.011565
     5  C    0.000475  -0.000137   0.003606  -0.000668  -0.005934  -0.008543
     6  O   -0.000024   0.000027  -0.000314  -0.000055  -0.000819  -0.000400
     7  N    0.000028  -0.000055   0.012225  -0.018194  -0.003321  -0.007608
     8  C   -0.006285   0.017031  -0.010013  -0.062528   0.019618  -0.011176
     9  C    0.002814   0.027357  -0.000462   0.000689  -0.010329  -0.003487
    10  C   -0.001082  -0.000986   0.000512   0.055613  -0.012222   0.007749
    11  C    0.005933  -0.017677  -0.001535   0.007589  -0.004195   0.000341
    12  C    0.037307   0.078100   0.000256  -0.002406   0.002270   0.000518
    13  C   -0.145199  -0.105206  -0.000728   0.002150  -0.003636  -0.000965
    14  H   -0.000000  -0.000000  -0.000027   0.000000  -0.000128   0.000052
    15  H    0.000000   0.000000  -0.000006   0.000000   0.000002   0.000010
    16  H    0.000000   0.000000  -0.000018   0.000000   0.000005  -0.000016
    17  H    0.000000  -0.000000  -0.002844  -0.000010   0.000180  -0.000579
    18  H    0.000000  -0.000000  -0.002037  -0.000023  -0.000377   0.000683
    19  H   -0.000000   0.000000  -0.000090  -0.000001   0.000320  -0.000034
    20  H   -0.000000  -0.000000  -0.000026  -0.000006   0.000303   0.000014
    21  H    0.000000  -0.000000   0.054874  -0.000690  -0.005426   0.007052
    22  H    0.000000  -0.000000   0.000386   0.036445  -0.002710   0.006993
    23  H    0.000168   0.000040   0.000000   0.000003  -0.000034  -0.000003
    24  H    0.000000   0.000002  -0.000003  -0.001311   0.000679   0.000843
[...]
 9415199,0.09824889,0.24495123,0.00000246,0.00000185,-0.00000030,0.0000
 0113,-0.00000676,0.00000396,0.00000834,0.00000114,0.00000312,0.0000758
 1,0.00009010,0.00001690,-0.00021459,-0.00005775,-0.00001705,0.00005202
 ,0.00002820,-0.00000135,0.00012911,-0.00011287,-0.00000491,-0.00007205
 ,-0.00005514,-0.00000488,0.00002483,0.00001659,0.00000404,0.00002899,0
 .00000874,-0.00001017,-0.00003787,0.00003468,-0.00000560,0.00002223,-0
 .00001821,0.00000179,-0.00002192,-0.00000766,-0.00000426,0.00000022,-0
 .00000080,0.00000025,-0.00000083,-0.00000064,-0.00000049,-0.00000148,0
 .00000163,-0.00000180,0.00000448,0.00000408,-0.00000243,-0.00000146,-0
 .00000085,0.00000208,-0.00000137,0.00000406,-0.00000226,0.00000720,-0.
 00000229,0.00000046,0.00001141,-0.00016912,-0.00002052,-0.00005317,0.0
 0014229,0.00001290,-0.00000875,-0.00000325,0.00000114,-0.00001153,0.00
 004238,0.00002450,-0.00000070,0.00000111,0.00000205,-0.00001860,0.0000
 5281,0.00002500,0.00000642,-0.00001128,0.00000363,0.00000073,-0.000009
 86,-0.00000236,0.00001421,-0.00001371,-0.00001295,0.00002290,-0.000028
 51,-0.00000154,0.00000181,-0.00000949,-0.00000291,-0.00000433,-0.00001
 032,-0.00001080,-0.00007708,0.00147702,-0.00028875,0.00100827,-0.00075
 935,0.00001295,-0.00070968,-0.00022315,-0.00253995,-0.12760961,-0.0459
 6557,0.11338383,-0.01759384,-0.00995262,0.02476570,0.00702083,0.004647
 58,-0.00989656,0.14166965,0.00000293,0.00000157,-0.00001375,0.00001013
 ,-0.00002726,0.00002409,-0.00006756,0.00002763,-0.00000097,0.00011228,
 0.00009940,0.00004788,-0.00043090,0.00004697,-0.00001819,0.00014316,-0
 .00013112,-0.00001043,0.00012999,-0.00078382,0.00014973,0.00026168,0.0
 0005494,0.00002926,-0.00004327,-0.00005491,-0.00001136,-0.00011617,0.0
 0007127,-0.00000913,0.00011133,-0.00004243,0.00001482,-0.00005249,-0.0
 0002275,-0.00000678,0.00001436,-0.00000234,-0.00000238,0.00000727,-0.0
 0000519,-0.00000242,0.00000221,0.00000037,0.00000453,-0.00000333,0.000
 00464,-0.00000206,0.00000283,0.00001029,-0.00000893,-0.00000453,0.0000
 0341,0.00000237,0.00000763,-0.00000591,-0.00000427,0.00001324,-0.00000
 007,0.00000220,-0.00003478,-0.00004358,-0.00012604,-0.00021891,0.00118
 154,-0.00032640,0.00000047,0.00000424,0.00000256,0.00010310,0.00004192
 ,0.00001899,-0.00000039,-0.00000483,0.00000132,0.00001849,0.00011827,0
 .00002147,0.00000499,-0.00002594,0.00001014,-0.00002177,-0.00002451,0.
 00001181,0.00001338,-0.00002756,-0.00001645,-0.00004604,0.00002593,-0.
 00000825,-0.00000360,-0.00002294,-0.00000250,-0.00001972,-0.00002521,-
 0.00002427,0.00170802,0.00085576,-0.00414067,-0.00003361,-0.00714473,-
 0.00358966,-0.02025050,-0.00797960,0.03012176,-0.04626423,-0.07224369,
 0.06940952,0.00663593,0.00308118,-0.00887204,0.00831555,0.00469160,-0.
 01151518,0.04891314,0.07813521,0.00000255,0.00000407,0.00001285,-0.000
 01023,0.00001511,-0.00001551,0.00008730,-0.00001015,0.00000512,-0.0000
 8035,0.00005909,0.00000901,0.00017069,-0.00007458,0.00000730,-0.000061
 64,0.00009312,-0.00000029,-0.00004340,0.00024027,0.00000872,-0.0000988
 3,-0.00001690,-0.00001305,0.00000927,0.00002357,0.00000184,0.00004673,
 -0.00003226,0.00000471,-0.00005263,0.00000402,-0.00000651,0.00002106,0
 .00002078,0.00000308,0.00000059,0.00000020,0.00000156,-0.00000734,0.00
 000480,0.00000389,-0.00000577,-0.00000269,-0.00000755,0.00000007,-0.00
 000371,-0.00000011,0.00000404,-0.00000343,0.00000873,0.00000171,-0.000
 00535,-0.00000134,-0.00001010,0.00000546,-0.00000021,-0.00000864,-0.00
 000662,-0.00000845,0.00003161,-0.00010394,0.00000356,0.00005221,-0.000
 35933,-0.00001491,0.00000156,-0.00000285,-0.00000166,-0.00003925,-0.00
 002919,-0.00000932,0.00000015,0.00000118,-0.00000096,-0.00001556,-0.00
 012218,-0.00001734,-0.00000511,0.00002560,-0.00000935,0.00001702,0.000
 02376,-0.00000843,-0.00001237,0.00002748,0.00001442,0.00001744,-0.0000
 0234,0.00000380,0.00000365,0.00002648,0.00000212,0.00001625,0.00002452
 ,0.00001937,-0.00195438,0.00037697,0.00115062,-0.00078253,0.00063103,-
 0.00018280,0.00296359,-0.00240913,-0.00144432,0.11261018,0.06631618,-0
 .20390893,-0.00383407,-0.00223268,0.00490794,0.01527610,0.00967224,-0.
 02223019,-0.12381639,-0.07153724,0.21959525,0.00000077,-0.00000028,-0.
 00000441,0.00000240,-0.00001073,0.00000914,-0.00001102,0.00000265,0.00
 000073,0.00004030,0.00009460,-0.00002819,-0.00013388,-0.00001509,0.000
 00276,0.00003467,0.00000975,-0.00000542,0.00003192,-0.00007162,-0.0000
 1417,0.00002279,-0.00000195,-0.00000014,-0.00000433,0.00000226,0.00000
 093,-0.00001707,0.00000875,-0.00000810,0.00004890,-0.00002078,0.000002
 97,-0.00001264,0.00000176,0.00000064,0.00000081,-0.00000182,-0.0000035
 9,0.00000107,-0.00000146,-0.00000005,0.00000166,-0.00000048,0.00000261
 ,-0.00000103,0.00000372,-0.00000175,0.00000105,0.00000304,-0.00000783,
 -0.00000089,0.00000284,-0.00000004,-0.00000085,0.00000540,-0.00000156,
 0.00000414,-0.00000287,0.00000686,0.00000316,-0.00011669,0.00002633,-0
 .00000887,0.00012534,0.00001801,-0.00000239,-0.00000042,0.00000229,0.0
 0002446,0.00002226,0.00002934,-0.00000012,-0.00000229,0.00000132,-0.00
 000139,0.00001253,0.00002253,-0.00000149,-0.00000134,-0.00000541,0.000
 00056,-0.00000219,-0.00000339,0.00000388,-0.00000298,-0.00000521,-0.00
 001707,0.00002463,-0.00000257,-0.00000003,-0.00000262,-0.00000268,-0.0
 0000308,-0.00000267,-0.00000613,0.00084514,0.00056498,-0.00032236,0.00
 178622,0.00056875,-0.00070643,-0.00151832,-0.00243457,0.00058023,-0.01
 870555,-0.00986219,0.02632903,-0.12798817,-0.04699464,0.11574410,0.001
 11923,-0.00075327,-0.00025693,-0.00595496,0.00244770,-0.00161489,0.142
 12363,0.00000157,0.00000158,0.00000663,-0.00000767,0.00000258,-0.00000
 473,0.00005784,-0.00001278,0.00000548,-0.00006345,0.00004626,-0.000004
 61,0.00014939,-0.00008918,0.00001265,-0.00005268,0.00010006,-0.0000050
 3,-0.00003406,0.00024161,-0.00001156,-0.00007153,0.00000921,-0.0000019
 4,-0.00000388,0.00001943,-0.00000399,0.00004436,-0.00006712,0.00002083
 ,-0.00010114,0.00001830,-0.00001201,0.00003284,0.00002773,-0.00000033,
 0.00001009,0.00000465,0.00000279,-0.00000571,0.00000265,0.00000353,-0.
 00000194,-0.00000248,-0.00000234,0.00000018,0.00000144,-0.00000204,0.0
 0000147,-0.00000164,-0.00000137,0.00000190,-0.00000058,-0.00000239,-0.
 00000657,0.00001000,-0.00000066,-0.00000532,-0.00000597,0.00000145,0.0
 0003855,-0.00010582,0.00000768,0.00003781,-0.00039278,0.00000981,0.000
 00157,-0.00000100,-0.00000032,-0.00003229,-0.00010186,-0.00005809,0.00
 000014,0.00000475,-0.00000021,-0.00003651,-0.00015123,-0.00000068,-0.0
 0000616,0.00003247,-0.00001668,0.00002895,0.00002997,-0.00001717,-0.00
 001026,0.00003256,0.00001282,0.00004467,-0.00000041,0.00001202,0.00000
 619,0.00003018,0.00000010,0.00002284,0.00003037,0.00002228,-0.00072429
 ,0.00003484,0.00001720,-0.00048467,-0.00042867,0.00037806,0.00142308,0
 .00052707,-0.00075830,0.00502603,0.00312530,-0.00807314,-0.04840114,-0
 .07486868,0.06823358,-0.00067083,0.00020787,0.00012781,0.00223653,-0.0
 0028873,0.00003388,0.05117734,0.07732126,-0.00000049,0.00000055,0.0000
 0462,-0.00000546,0.00000927,-0.00000836,0.00002036,-0.00000550,0.00000
 440,-0.00009077,-0.00010827,0.00000108,0.00022118,0.00001146,0.0000188
 6,-0.00005918,-0.00001006,-0.00000046,-0.00017048,0.00001020,-0.000007
 15,0.00015935,0.00010196,0.00001476,-0.00005699,-0.00002791,-0.0000071
 9,-0.00006611,-0.00001890,0.00001262,0.00007802,-0.00007177,0.00001498
 ,-0.00004154,0.00003792,-0.00000690,0.00004175,0.00001230,0.00000791,-
 0.00000234,0.00000190,0.00000042,-0.00000166,-0.00000064,-0.00000191,0
 .00000109,-0.00000223,0.00000156,-0.00000153,-0.00000438,0.00000431,0.
 00000179,-0.00000145,-0.00000262,-0.00000035,-0.00000073,0.00000204,-0
 .00000870,0.00000008,-0.00000301,0.00000434,0.00010503,-0.00001583,0.0
 0000345,-0.00004342,-0.00002070,0.00001328,0.00000566,-0.00000034,0.00
 004466,-0.00011735,-0.00004006,0.00000091,-0.00000243,-0.00000224,0.00
 002011,-0.00011590,-0.00002415,-0.00001300,0.00002559,-0.00001364,0.00
 000578,0.00002195,-0.00000250,-0.00002290,0.00002800,0.00002009,-0.000
 04460,0.00005937,0.00000049,-0.00000129,0.00002187,0.00000279,0.000009
 75,0.00002241,0.00001732,-0.00040212,-0.00066997,-0.00009255,-0.001744
 96,-0.00004978,0.00034296,0.00150428,0.00185282,0.00010670,-0.00314782
 ,-0.00234725,0.00431578,0.11665250,0.06651285,-0.21349040,0.00043907,-
 0.00042408,0.00075302,-0.00133767,0.00049984,0.00131073,-0.12615965,-0
 .07478017,0.22867359,0.00000257,0.00000322,0.00000698,-0.00000495,-0.0
 0000346,-0.00000232,0.00009005,-0.00000314,-0.00000565,0.00007505,0.00
 048088,-0.00000128,-0.00034144,-0.00015553,-0.00004369,0.00006850,0.00
 016444,0.00000677,0.00020893,0.00009108,0.00002229,-0.00021837,-0.0001
 1948,-0.00002789,0.00005481,0.00005720,0.00000680,0.00007829,0.0000031
 8,0.00000920,-0.00004939,0.00003819,-0.00000825,0.00004321,-0.00000814
 ,0.00000659,-0.00003800,-0.00001486,-0.00000503,-0.00000793,0.00000370
 ,0.00000567,0.00000007,-0.00000267,-0.00000248,-0.00000101,0.00000234,
 -0.00000325,0.00000440,-0.00000202,-0.00000771,0.00000015,0.00000422,0
 .00000054,-0.00001772,0.00002057,-0.00000323,0.00000856,-0.00001542,0.
 00000847,0.00005724,-0.00066988,0.00004844,-0.00001266,-0.00013586,0.0
 0000729,-0.00001573,-0.00000934,-0.00000180,-0.00004800,0.00004990,-0.
 00000339,-0.00000003,0.00000006,-0.00000005,-0.00002962,-0.00000637,-0
 .00000353,0.00000648,0.00000102,0.00000343,0.00000750,0.00000192,-0.00
 000333,0.00000743,0.00000092,-0.00000186,0.00002518,-0.00003207,0.0000
 0372,0.00000396,0.00000414,0.00000043,0.00000634,0.00000205,0.00000511
 ,-0.00178744,0.00376965,-0.00038247,0.00211034,0.00023880,0.00012142,-
 0.00653843,-0.00457037,-0.00043766,-0.00103182,0.03515686,-0.00208339,
 -0.04906350,0.01729979,-0.00087919,0.00123804,-0.00069273,-0.00033526,
 0.00116240,-0.00058117,0.00067883,0.00118459,-0.01793450,-0.00112832,0
 .05274473,-0.00000533,-0.00000431,-0.00001374,0.00001348,0.00000258,0.
 00000322,-0.00015514,0.00002928,-0.00000095,0.00004847,-0.00039139,0.0
 0000918,0.00000517,0.00030484,-0.00000005,0.00004105,-0.00030612,0.000
 00868,-0.00012624,-0.00047216,-0.00000306,0.00030181,0.00008637,0.0000
 3712,-0.00003792,-0.00008511,-0.00000340,-0.00013928,0.00009039,-0.000
 01644,0.00018294,-0.00003648,0.00002537,-0.00008272,-0.00004500,-0.000
 01078,0.00001594,0.00000858,0.00000165,0.00001634,-0.00000784,-0.00001
 277,0.00000268,0.00000674,0.00000609,0.00000134,-0.00000595,0.00000767
 ,-0.00000720,0.00000191,0.00001103,-0.00000285,-0.00000276,0.00000302,
 0.00002219,-0.00003346,0.00000390,-0.00000035,0.00001824,-0.00000994,-
 0.00013223,0.00063668,-0.00005032,-0.00003099,0.00078480,-0.00003136,0
 .00001106,0.00001036,0.00000114,0.00009270,0.00012350,0.00000325,0.000
 00020,-0.00000523,0.00000028,0.00009502,0.00029764,0.00000755,0.000005
 79,-0.00006306,0.00002763,-0.00005955,-0.00005914,0.00003364,0.0000123
 9,-0.00006375,-0.00002254,-0.00007886,0.00002330,-0.00001076,-0.000015
 74,-0.00006490,-0.00000106,-0.00004847,-0.00006050,-0.00004646,0.00197
 560,-0.00161275,0.00026933,0.00138096,-0.00104053,0.00023397,-0.000695
 35,0.00194879,-0.00011212,-0.00174071,-0.00743214,0.00019401,0.0174549
 4,-0.30832874,0.01663016,0.00030050,0.00032670,0.00050139,0.00039445,0
 .00022688,-0.00046570,0.00052980,-0.00941248,-0.00006736,-0.02031887,0
 .33709315,0.00000061,0.00000095,0.00000184,-0.00000153,-0.00000193,-0.
 00000002,0.00001854,-0.00000096,0.00000081,0.00000598,0.00007446,0.000
 00331,-0.00003895,-0.00003449,-0.00000942,0.00000545,0.00003579,0.0000
 0163,0.00003210,0.00004144,0.00001718,-0.00004568,-0.00002024,-0.00000
 927,0.00000984,0.00001219,0.00000045,0.00001529,-0.00000361,0.00002118
 ,-0.00001612,0.00000734,0.00000029,0.00001048,0.00000096,-0.00000111,-
 0.00000629,-0.00000246,-0.00000050,-0.00000156,0.00000033,0.00000092,-
 0.00000007,-0.00000089,-0.00000011,-0.00000003,0.00000102,-0.00000099,
 0.00000030,-0.00000010,-0.00000185,0.00000021,0.00000103,-0.00000050,-
 0.00000302,0.00000423,-0.00000094,0.00000082,-0.00000291,0.00000182,0.
 00001477,-0.00010922,0.00000532,0.00000107,-0.00006748,-0.00001355,-0.
 00000256,-0.00000178,-0.00000078,-0.00000437,-0.00000077,-0.00005640,0
 .00000006,0.00000029,-0.00000041,-0.00000827,-0.00001527,-0.00000288,0
 .00000075,0.00000326,-0.00000035,0.00000363,0.00000320,-0.00000168,0.0
 0000011,0.00000317,0.00000126,0.00000669,-0.00000542,0.00000631,0.0000
 0128,0.00000375,0.00000030,0.00000334,0.00000315,0.00000339,-0.0003173
 8,0.00048243,-0.00002935,0.00003201,0.00014847,0.00073901,-0.00065713,
 -0.00051267,0.00050376,0.00014392,0.00398400,-0.00131016,-0.00090595,0
 .01658615,-0.05177152,0.00020759,0.00028360,-0.00009680,0.00000569,-0.
 00044350,0.00008571,-0.00352930,0.02603192,-0.00052929,0.00178567,-0.0
 1877043,0.04886701,-0.00000284,-0.00000253,0.00000145,0.00000342,0.000
 00565,-0.00000413,0.00000041,-0.00000896,-0.00001327,0.00001175,0.0000
 8017,0.00002677,-0.00008429,-0.00001917,-0.00002607,0.00001881,0.00001
 363,0.00000953,-0.00000460,-0.00005575,0.00001743,0.00004619,0.0000174
 5,0.00000908,-0.00001411,-0.00000111,-0.00000362,-0.00002924,0.0000046
 0,-0.00000088,0.00006518,-0.00003555,0.00001211,-0.00001983,0.00001004
 ,-0.00000478,0.00000756,0.00000060,0.00000483,-0.00000206,0.00000184,0
 .00000179,0.00000329,0.00000122,0.00000050,0.00000141,-0.00000092,0.00
 000062,-0.00000362,-0.00000551,-0.00000111,0.00000056,0.00000470,0.000
 00122,-0.00000168,0.00000191,0.00000218,0.00000793,0.00000083,0.000003
 37,0.00000775,-0.00010015,-0.00000992,-0.00000398,0.00009247,-0.000021
 87,0.00000059,0.00000055,-0.00000211,0.00003639,-0.00000453,-0.0000160
 4,0.00000036,-0.00000290,-0.00000088,0.00000693,-0.00001269,-0.0000179
 6,-0.00000103,0.00000303,0.00000089,-0.00000169,0.00000225,0.00000234,
 -0.00000646,0.00000448,0.00000719,-0.00002412,0.00003984,-0.00000628,-
 0.00000080,0.00000204,0.00000211,0.00000118,0.00000268,0.00000509,0.00
 061018,0.00047184,0.00041394,0.00124254,0.00061459,0.00076353,-0.00102
 595,-0.00208506,-0.00051522,-0.01316385,-0.01321837,-0.02849698,-0.085
 84286,-0.04229401,-0.08555189,-0.00617665,0.00253846,-0.00027835,0.001
 11838,-0.00078684,0.00044090,0.00710179,0.00831129,0.01528623,0.000017
 19,0.00077299,0.00323200,0.09609990,0.00000157,0.00000114,0.00000517,-
 0.00000652,0.00000266,-0.00000358,0.00005452,-0.00001316,0.00000357,-0
 .00005380,0.00005770,-0.00000974,0.00012324,-0.00008801,0.00001940,-0.
 00004528,0.00009829,-0.00000737,-0.00001810,0.00023254,-0.00000301,-0.
 00007825,0.00000125,-0.00002259,-0.00000088,0.00002108,0.00000459,0.00
 005193,-0.00006749,-0.00000533,-0.00011047,0.00002578,-0.00001715,0.00
 003567,0.00002407,0.00000941,0.00000723,0.00000360,-0.00000063,-0.0000
 0589,0.00000311,0.00000416,-0.00000163,-0.00000199,-0.00000253,-0.0000
 0020,0.00000108,-0.00000188,0.00000240,-0.00000177,-0.00000185,0.00000
 177,-0.00000043,-0.00000192,-0.00000662,0.00000944,-0.00000051,-0.0000
 0443,-0.00000539,0.00000154,0.00003767,-0.00011521,0.00001112,0.000035
 45,-0.00037606,0.00001633,0.00000023,-0.00000128,0.00000030,-0.0000490
 7,-0.00008477,0.00005068,0.00000013,0.00000510,-0.00000043,-0.00003731
 ,-0.00013870,-0.00000942,-0.00000445,0.00002910,-0.00001308,0.00002649
 ,0.00002732,-0.00001423,-0.00000867,0.00003013,0.00001265,0.00005344,-
 0.00000342,0.00000121,0.00000613,0.00002761,0.00000121,0.00002304,0.00
 002821,0.00002351,-0.00060823,0.00009986,-0.00015919,-0.00027106,-0.00
 029285,-0.00035017,0.00105508,0.00040238,0.00095802,0.00341810,0.00419
 705,0.00864844,-0.04336550,-0.09314137,-0.09407522,0.00220994,-0.00024
 484,0.00064828,-0.00067919,0.00022413,-0.00020954,0.00469486,0.0040692
 6,0.00952855,-0.01211826,-0.01248690,-0.02771901,0.04563493,0.09744174
 ,-0.00000163,-0.00000183,-0.00000387,0.00000738,-0.00000469,0.00000480
 ,-0.00002375,0.00000244,-0.00001505,0.00010040,0.00012907,0.00003267,-
 0.00026663,-0.00000685,-0.00004407,0.00007039,0.00000377,0.00001578,0.
 00018375,-0.00004101,0.00003932,-0.00015705,-0.00010613,-0.00002236,0.
 00005972,0.00002926,0.00000650,0.00005511,0.00002785,0.00002992,-0.000
 05966,0.00006827,-0.00000593,0.00003766,-0.00004143,0.00000437,-0.0000
 4567,-0.00001343,-0.00000263,0.00000109,-0.00000067,0.00000056,0.00000
 391,0.00000217,0.00000206,0.,0.00000002,-0.00000032,-0.00000143,-0.000
 00034,-0.00000292,-0.00000125,0.00000490,0.00000316,0.00000086,-0.0000
 0208,-0.00000022,0.00001308,0.00000255,0.00000321,-0.00000363,-0.00012
 266,-0.00000763,-0.00000455,0.00009356,-0.00002916,-0.00001387,-0.0000
 0597,-0.00000398,-0.00002316,0.00013293,-0.00006854,-0.00000023,0.0000
 0144,-0.00000252,-0.00000841,0.00013923,-0.00003257,0.00001785,-0.0000
 3232,0.00002907,-0.00001804,-0.00002655,0.00001695,0.00001790,-0.00003
 105,-0.00001059,0.00003624,-0.00005428,0.00001311,-0.00000038,-0.00002
 674,0.00000374,-0.00000817,-0.00002684,-0.00000633,0.00062384,0.000767
 38,-0.00001330,0.00195169,0.00033720,0.00091761,-0.00188438,-0.0023622
 3,-0.00015035,-0.00082623,-0.00033894,-0.00228930,-0.08632588,-0.09217
 690,-0.23695295,-0.00050277,0.00023297,0.00152636,-0.00028411,0.000320
 57,0.00072091,-0.01008962,-0.01118278,-0.02136175,0.00264339,0.0016299
 5,0.00357639,0.09472625,0.10268024,0.25407983\\0.00000222,-0.00000007,
 -0.00000070,-0.00000325,-0.00000273,-0.00000179,-0.00000254,-0.0000036
 0,0.00000501,0.00000279,0.00000778,-0.00000857,-0.00001282,-0.00000031
 ,-0.00000183,0.00000782,-0.00000038,0.00000020,0.00000984,0.00001099,0
 .00000321,0.00000274,-0.00000594,0.00000005,-0.00000420,-0.00000039,-0
 .00000307,-0.00000375,-0.00000026,-0.00000067,0.00000149,0.00000109,-0
 .00000040,-0.00000317,0.00000066,0.00000041,0.00000203,0.00000301,-0.0
 0000172,-0.00000077,-0.00000061,0.00000071,-0.00000078,-0.00000190,-0.
 00000020,-0.00000083,-0.00000032,-0.00000134,0.00000124,0.00000011,0.0
 0000287,0.00000089,0.00000003,0.00000046,0.00000330,-0.00000491,0.0000
 0089,-0.00000544,-0.00000135,-0.00000240,-0.00000058,-0.00000477,0.000
 00842,0.00000016,-0.00000161,-0.00000151,-0.00000176,0.00000082,-0.000
 00114,-0.00000067,0.00000047,0.00000037,0.00000037,0.00000264,-0.00000
 186,-0.00001464,0.00000746,-0.00001078,-0.00000022,-0.00000120,-0.0000
 0069,0.00000401,-0.00000402,-0.00000643,-0.00000022,0.00000209,-0.0000
 0356,0.00000041,0.00000089,-0.00000006,-0.00000538,-0.00000257,-0.0000
 0126,0.00001022,-0.00000065,0.00001080,0.00000671,-0.00000138,-0.00000
 458,-0.00000568,0.00000061,-0.00000088,0.00000747,-0.00000105,0.000007
 60,0.00000028,-0.00000155,0.00000322,-0.00000254,0.00000190,0.00000322
 ,0.00000035,-0.00000105,0.00000106,0.00000012,0.00000073,0.00000273,0.
 00000131,0.00000014,-0.00000034,0.00000276,-0.00000081,0.00000247,0.00
 000074,0.00000203,0.00000205\\\@


 DIATOMIC MOLECULES ARE PECULIAR BECAUSE THEY ONLY HAVE TWO ENDS,
 AND THESE ENDS ARE VERY CLOSE TOGETHER.
 KLAUS RUEDENBERG, REV.MOD.PHYS. PG 176, 32, (1960)
 Job cpu time:       0 days  8 hours 34 minutes 55.9 seconds.
 File lengths (MBytes):  RWF=   1252 Int=      0 D2E=      0 Chk=     24 Scr=      1
 Normal termination of Gaussian 09 at Tue Feb 26 16:55:48 2019.
WARNING: pbs_rusage is deprecated and values produced may not be accurate


=============================================================================
                                     Resource usage:
                                       CPU time:              62:42:44
   JobId:    6169181.r-man2            Elapsed time:          08:20:03
   Project:             q95            Requested time:        50:00:00
   Service Units:     66.67 
                                       Max physical memory:     1579MB
                                       Max virtual memory:      3258MB
                                       Requested memory:           0MB

                                       Number of cpus:               8

                                       Max jobfs disk use:       1.2GB
                                       Requested jobfs:         24.0GB
=============================================================================

