 Entering Gaussian System, Link 0=/apps/gaussian/g09e01/g09/g09
 AtFile(1): /home/507/hio507/Basis/6-31pGd.gbs
 Initial command:
 /apps/gaussian/g09e01/g09/l1.exe "/jobfs/local/5878581.r-man2/Gau-56063.inp" -scrdir="/jobfs/local/5878581.r-man2/"
 Entering Link 1 = /apps/gaussian/g09e01/g09/l1.exe PID=     56064.
  
 Copyright (c) 1988,1990,1992,1993,1995,1998,2003,2009,2015,
            Gaussian, Inc.  All Rights Reserved.
  
 This is part of the Gaussian(R) 09 program.  It is based on
 the Gaussian(R) 03 system (copyright 2003, Gaussian, Inc.),
 the Gaussian(R) 98 system (copyright 1998, Gaussian, Inc.),
 the Gaussian(R) 94 system (copyright 1995, Gaussian, Inc.),
 the Gaussian 92(TM) system (copyright 1992, Gaussian, Inc.),
 the Gaussian 90(TM) system (copyright 1990, Gaussian, Inc.),
 the Gaussian 88(TM) system (copyright 1988, Gaussian, Inc.),
 the Gaussian 86(TM) system (copyright 1986, Carnegie Mellon
 University), and the Gaussian 82(TM) system (copyright 1983,
 Carnegie Mellon University). Gaussian is a federally registered
 trademark of Gaussian, Inc.
  
 This software contains proprietary and confidential information,
 including trade secrets, belonging to Gaussian, Inc.
  
 This software is provided under written license and may be
 used, copied, transmitted, or stored only in accord with that
 written license.
  
 The following legend is applicable only to US Government
 contracts under FAR:
  
                    RESTRICTED RIGHTS LEGEND
  
 Use, reproduction and disclosure by the US Government is
 subject to restrictions as set forth in subparagraphs (a)
 and (c) of the Commercial Computer Software - Restricted
 Rights clause in FAR 52.227-19.
  
 Gaussian, Inc.
 340 Quinnipiac St., Bldg. 40, Wallingford CT 06492
  
  
 ---------------------------------------------------------------
 Warning -- This program may not be used in any manner that
 competes with the business of Gaussian, Inc. or will provide
 assistance to any competitor of Gaussian, Inc.  The licensee
 of this program is prohibited from giving any competitor of
 Gaussian, Inc. access to this program.  By using this program,
 the user acknowledges that Gaussian, Inc. is engaged in the
 business of creating and licensing software in the field of
 computational chemistry and represents and warrants to the
 licensee that it is not a competitor of Gaussian, Inc. and that
 it will not use this program in any manner prohibited above.
 ---------------------------------------------------------------
  

 Cite this work as:
 Gaussian 09, Revision E.01,
 M. J. Frisch, G. W. Trucks, H. B. Schlegel, G. E. Scuseria, 
 M. A. Robb, J. R. Cheeseman, G. Scalmani, V. Barone, B. Mennucci, 
 G. A. Petersson, H. Nakatsuji, M. Caricato, X. Li, H. P. Hratchian, 
 A. F. Izmaylov, J. Bloino, G. Zheng, J. L. Sonnenberg, M. Hada, 
 M. Ehara, K. Toyota, R. Fukuda, J. Hasegawa, M. Ishida, T. Nakajima, 
 Y. Honda, O. Kitao, H. Nakai, T. Vreven, J. A. Montgomery, Jr., 
 J. E. Peralta, F. Ogliaro, M. Bearpark, J. J. Heyd, E. Brothers, 
 K. N. Kudin, V. N. Staroverov, T. Keith, R. Kobayashi, J. Normand, 
 K. Raghavachari, A. Rendell, J. C. Burant, S. S. Iyengar, J. Tomasi, 
 M. Cossi, N. Rega, J. M. Millam, M. Klene, J. E. Knox, J. B. Cross, 
 V. Bakken, C. Adamo, J. Jaramillo, R. Gomperts, R. E. Stratmann, 
 O. Yazyev, A. J. Austin, R. Cammi, C. Pomelli, J. W. Ochterski, 
 R. L. Martin, K. Morokuma, V. G. Zakrzewski, G. A. Voth, 
 P. Salvador, J. J. Dannenberg, S. Dapprich, A. D. Daniels, 
 O. Farkas, J. B. Foresman, J. V. Ortiz, J. Cioslowski, 
 and D. J. Fox, Gaussian, Inc., Wallingford CT, 2013.
 
 ******************************************
 Gaussian 09:  ES64L-G09RevE.01 30-Nov-2015
                19-Feb-2019 
 ******************************************
 %chk=3SF5Chloro_EtO.M062X_6-31pGd_opt_Pentadecane.chk
 %mem=196608000
 %nproc=8
 Will use up to    8 processors via shared memory.
 ----------------------------------------------------------------------
 # M062X/Gen 6D SCF=Tight INT(grid=ultrafine) OPT IOP(2/17=4) SCRF=(SMD
 ,Solvent=n-Pentadecane) maxdisk=3221225472
 ----------------------------------------------------------------------
 1/14=-1,18=20,19=15,26=4,38=1/1,3;
 2/9=110,12=2,17=4,18=5,40=1/2;
 3/5=7,8=2,11=2,16=1,25=1,30=1,70=32201,71=1,72=151,74=-55,75=-5/1,2,3;
 4//1;
 5/5=2,32=2,38=5,53=151/2;
 6/7=2,8=2,9=2,10=2,28=1/1;
 7//1,2,3,16;
 1/14=-1,18=20,19=15,26=4/3(2);
 2/9=110,17=4/2;
 99//99;
 2/9=110,17=4/2;
 3/5=7,6=1,8=2,11=2,16=1,25=1,30=1,70=32205,71=1,72=151,74=-55,75=-5,82=7/1,2,3;
 4/5=5,16=3,69=1/1;
 5/5=2,32=2,38=5,53=151/2;
 7//1,2,3,16;
 1/14=-1,18=20,19=15,26=4/3(-5);
 2/9=110,17=4/2;
 6/7=2,8=2,9=2,10=2,19=2,28=1/1;
 99/9=1/99;
 --------------------------------------------
 3SF5Chloro_EtO.M062X_6-31pGd_opt_Pentadecane
 --------------------------------------------
 Symbolic Z-matrix:
 Charge = -1 Multiplicity = 1
 C                    -1.87835   2.0501   -0.0895 
 C                    -0.46243   1.49907  -0.04227 
 C                     0.57471   2.62872  -0.06674 
 N                     1.91334   2.07968  -0.01021 
 C                     3.03715   2.83402  -0.02448 
 O                     2.92415   4.04584  -0.09287 
 N                     4.26793   2.21779   0.03694 
 C                     5.54793   2.91369   0.01015 
 C                     5.74607   4.3367   -0.08006 
 C                     6.6864    2.1158    0.08274 
 C                     7.9635    2.66145   0.07731 
 C                     8.15033   4.04124  -0.00537 
 C                     7.04995   4.92456  -0.08877 
 H                    -2.60168   1.20833  -0.072 
 H                    -2.02791   2.63604  -1.02063 
 H                    -2.06172   2.7014    0.79093 
 H                    -0.30314   0.83154  -0.91903 
 H                    -0.33953   0.9006    0.88837 
 H                     0.41578   3.29388   0.80821 
 H                     0.45735   3.21192  -1.00435 
 H                     2.03198   0.97824   0.04135 
 H                     4.27464   1.01847   0.12929 
 H                     4.9155    5.00346  -0.13954 
 H                     6.57778   1.04498   0.14847 
 H                     9.17277   4.38813  -0.00005 
 S                     7.32085   6.77556  -0.19466 
 F                     5.64422   7.09051  -0.29165 
 F                     7.40078   6.67962  -1.89961 
 F                     7.24732   6.88737   1.51241 
 Cl                    9.34336   1.58485   0.18367 
 F                     7.56897   8.46874  -0.30019 
 F                     9.02144   6.60984  -0.10344 
 O                     1.97714  -1.0599    0.17108 
 O                     4.19256  -1.10405   0.29949 
 C                     3.1163   -1.7301    0.29432 
 C                     2.91542  -3.23719   0.38995 
 C                     4.16179  -4.05491   0.64962 
 H                     2.44073  -3.57674  -0.55727 
 H                     2.15983  -3.46914   1.17923 
 H                     4.90492  -3.82234  -0.13343 
 H                     3.92376  -5.14569   0.61355 
 H                     4.55072  -3.81151   1.65873 
 
 Add virtual bond connecting atoms H22        and N7         Dist= 2.27D+00.
 Add virtual bond connecting atoms O33        and H21        Dist= 3.86D+00.
 Add virtual bond connecting atoms O34        and H22        Dist= 4.03D+00.

 GradGradGradGradGradGradGradGradGradGradGradGradGradGradGradGradGradGrad
 Berny optimization.
 Initialization pass.
                           ----------------------------
                           !    Initial Parameters    !
                           ! (Angstroms and Degrees)  !
 --------------------------                            --------------------------
 ! Name  Definition              Value          Derivative Info.                !
 --------------------------------------------------------------------------------
 ! R1    R(1,2)                  1.5201         estimate D2E/DX2                !
 ! R2    R(1,14)                 1.11           estimate D2E/DX2                !
 ! R3    R(1,15)                 1.1103         estimate D2E/DX2                !
 ! R4    R(1,16)                 1.1104         estimate D2E/DX2                !
 ! R5    R(2,3)                  1.5337         estimate D2E/DX2                !
 ! R6    R(2,17)                 1.1134         estimate D2E/DX2                !
 ! R7    R(2,18)                 1.1133         estimate D2E/DX2                !
 ! R8    R(3,4)                  1.448          estimate D2E/DX2                !
 ! R9    R(3,19)                 1.1105         estimate D2E/DX2                !
 ! R10   R(3,20)                 1.1104         estimate D2E/DX2                !
 ! R11   R(4,5)                  1.3536         estimate D2E/DX2                !
 ! R12   R(4,21)                 1.109          estimate D2E/DX2                !
 ! R13   R(5,6)                  1.219          estimate D2E/DX2                !
 ! R14   R(5,7)                  1.3778         estimate D2E/DX2                !
 ! R15   R(7,8)                  1.4572         estimate D2E/DX2                !
 ! R16   R(7,22)                 1.2029         estimate D2E/DX2                !
 ! R17   R(8,9)                  1.4396         estimate D2E/DX2                !
 ! R18   R(8,10)                 1.3921         estimate D2E/DX2                !
 ! R19   R(9,13)                 1.4303         estimate D2E/DX2                !
 ! R20   R(9,23)                 1.0667         estimate D2E/DX2                !
 ! R21   R(10,11)                1.3888         estimate D2E/DX2                !
 ! R22   R(10,24)                1.0783         estimate D2E/DX2                !
 ! R23   R(11,12)                1.3948         estimate D2E/DX2                !
 ! R24   R(11,30)                1.7534         estimate D2E/DX2                !
 ! R25   R(12,13)                1.4135         estimate D2E/DX2                !
 ! R26   R(12,25)                1.0797         estimate D2E/DX2                !
 ! R27   R(13,26)                1.8737         estimate D2E/DX2                !
 ! R28   R(21,33)                2.043          estimate D2E/DX2                !
 ! R29   R(22,34)                2.1309         estimate D2E/DX2                !
 ! R30   R(26,27)                1.7087         estimate D2E/DX2                !
 ! R31   R(26,28)                1.7095         estimate D2E/DX2                !
 ! R32   R(26,29)                1.7123         estimate D2E/DX2                !
 ! R33   R(26,31)                1.7145         estimate D2E/DX2                !
 ! R34   R(26,32)                1.7111         estimate D2E/DX2                !
 ! R35   R(33,35)                1.3274         estimate D2E/DX2                !
 ! R36   R(34,35)                1.2451         estimate D2E/DX2                !
 ! R37   R(35,36)                1.5234         estimate D2E/DX2                !
 ! R38   R(36,37)                1.5131         estimate D2E/DX2                !
 ! R39   R(36,38)                1.1126         estimate D2E/DX2                !
 ! R40   R(36,39)                1.117          estimate D2E/DX2                !
 ! R41   R(37,40)                1.1043         estimate D2E/DX2                !
 ! R42   R(37,41)                1.117          estimate D2E/DX2                !
 ! R43   R(37,42)                1.1085         estimate D2E/DX2                !
 ! A1    A(2,1,14)             109.366          estimate D2E/DX2                !
 ! A2    A(2,1,15)             110.0499         estimate D2E/DX2                !
 ! A3    A(2,1,16)             109.9871         estimate D2E/DX2                !
 ! A4    A(14,1,15)            109.0055         estimate D2E/DX2                !
 ! A5    A(14,1,16)            108.9473         estimate D2E/DX2                !
 ! A6    A(15,1,16)            109.4615         estimate D2E/DX2                !
 ! A7    A(1,2,3)              111.2468         estimate D2E/DX2                !
 ! A8    A(1,2,17)             109.0337         estimate D2E/DX2                !
 ! A9    A(1,2,18)             108.8853         estimate D2E/DX2                !
 ! A10   A(3,2,17)             109.4067         estimate D2E/DX2                !
 ! A11   A(3,2,18)             109.5501         estimate D2E/DX2                !
 ! A12   A(17,2,18)            108.6741         estimate D2E/DX2                !
 ! A13   A(2,3,4)              110.1974         estimate D2E/DX2                !
 ! A14   A(2,3,19)             109.3788         estimate D2E/DX2                !
 ! A15   A(2,3,20)             109.1982         estimate D2E/DX2                !
 ! A16   A(4,3,19)             109.1879         estimate D2E/DX2                !
 ! A17   A(4,3,20)             109.2584         estimate D2E/DX2                !
 ! A18   A(19,3,20)            109.6067         estimate D2E/DX2                !
 ! A19   A(3,4,5)              123.7683         estimate D2E/DX2                !
 ! A20   A(3,4,21)             118.5099         estimate D2E/DX2                !
 ! A21   A(5,4,21)             117.7205         estimate D2E/DX2                !
 ! A22   A(4,5,6)              118.5313         estimate D2E/DX2                !
 ! A23   A(4,5,7)              119.4678         estimate D2E/DX2                !
 ! A24   A(6,5,7)              122.0009         estimate D2E/DX2                !
 ! A25   A(5,7,8)              124.7684         estimate D2E/DX2                !
 ! A26   A(5,7,22)             117.0222         estimate D2E/DX2                !
 ! A27   A(8,7,22)             118.207          estimate D2E/DX2                !
 ! A28   A(7,8,9)              126.4503         estimate D2E/DX2                !
 ! A29   A(7,8,10)             116.339          estimate D2E/DX2                !
 ! A30   A(9,8,10)             117.2105         estimate D2E/DX2                !
 ! A31   A(8,9,13)             122.1496         estimate D2E/DX2                !
 ! A32   A(8,9,23)             120.9426         estimate D2E/DX2                !
 ! A33   A(13,9,23)            116.9073         estimate D2E/DX2                !
 ! A34   A(8,10,11)            121.7782         estimate D2E/DX2                !
 ! A35   A(8,10,24)            119.338          estimate D2E/DX2                !
 ! A36   A(11,10,24)           118.8835         estimate D2E/DX2                !
 ! A37   A(10,11,12)           120.8012         estimate D2E/DX2                !
 ! A38   A(10,11,30)           118.8289         estimate D2E/DX2                !
 ! A39   A(12,11,30)           120.3694         estimate D2E/DX2                !
 ! A40   A(11,12,13)           121.1576         estimate D2E/DX2                !
 ! A41   A(11,12,25)           116.3829         estimate D2E/DX2                !
 ! A42   A(13,12,25)           122.4594         estimate D2E/DX2                !
 ! A43   A(9,13,12)            116.9017         estimate D2E/DX2                !
 ! A44   A(9,13,26)            122.5589         estimate D2E/DX2                !
 ! A45   A(12,13,26)           120.5384         estimate D2E/DX2                !
 ! A46   A(13,26,27)            92.4891         estimate D2E/DX2                !
 ! A47   A(13,26,28)            90.4401         estimate D2E/DX2                !
 ! A48   A(13,26,29)            90.1121         estimate D2E/DX2                !
 ! A49   A(13,26,32)            92.5794         estimate D2E/DX2                !
 ! A50   A(27,26,28)            89.9778         estimate D2E/DX2                !
 ! A51   A(27,26,29)            90.1385         estimate D2E/DX2                !
 ! A52   A(27,26,31)            87.5057         estimate D2E/DX2                !
 ! A53   A(28,26,31)            89.2706         estimate D2E/DX2                !
 ! A54   A(28,26,32)            90.0724         estimate D2E/DX2                !
 ! A55   A(29,26,31)            90.1771         estimate D2E/DX2                !
 ! A56   A(29,26,32)            89.7625         estimate D2E/DX2                !
 ! A57   A(31,26,32)            87.4264         estimate D2E/DX2                !
 ! A58   A(21,33,35)           119.1139         estimate D2E/DX2                !
 ! A59   A(22,34,35)           122.2618         estimate D2E/DX2                !
 ! A60   A(33,35,34)           119.2304         estimate D2E/DX2                !
 ! A61   A(33,35,36)           113.088          estimate D2E/DX2                !
 ! A62   A(34,35,36)           127.6716         estimate D2E/DX2                !
 ! A63   A(35,36,37)           115.8988         estimate D2E/DX2                !
 ! A64   A(35,36,38)           107.7421         estimate D2E/DX2                !
 ! A65   A(35,36,39)           109.8149         estimate D2E/DX2                !
 ! A66   A(37,36,38)           109.4275         estimate D2E/DX2                !
 ! A67   A(37,36,39)           108.8876         estimate D2E/DX2                !
 ! A68   A(38,36,39)           104.4539         estimate D2E/DX2                !
 ! A69   A(36,37,40)           108.5905         estimate D2E/DX2                !
 ! A70   A(36,37,41)           110.2827         estimate D2E/DX2                !
 ! A71   A(36,37,42)           109.0604         estimate D2E/DX2                !
 ! A72   A(40,37,41)           109.0354         estimate D2E/DX2                !
 ! A73   A(40,37,42)           111.2939         estimate D2E/DX2                !
 ! A74   A(41,37,42)           108.5766         estimate D2E/DX2                !
 ! A75   L(4,21,33,1,-1)       172.3398         estimate D2E/DX2                !
 ! A76   L(7,22,34,1,-1)       177.4775         estimate D2E/DX2                !
 ! A77   L(13,26,31,27,-1)     179.9948         estimate D2E/DX2                !
 ! A78   L(27,26,32,13,-1)     185.0684         estimate D2E/DX2                !
 ! A79   L(28,26,29,13,-1)     180.5523         estimate D2E/DX2                !
 ! A80   L(4,21,33,1,-2)       181.1586         estimate D2E/DX2                !
 ! A81   L(7,22,34,1,-2)       180.2403         estimate D2E/DX2                !
 ! A82   L(13,26,31,27,-2)     180.2895         estimate D2E/DX2                !
 ! A83   L(27,26,32,13,-2)     180.0892         estimate D2E/DX2                !
 ! A84   L(28,26,29,13,-2)     179.8596         estimate D2E/DX2                !
 ! D1    D(14,1,2,3)           179.9102         estimate D2E/DX2                !
 ! D2    D(14,1,2,17)           59.1625         estimate D2E/DX2                !
 ! D3    D(14,1,2,18)          -59.2612         estimate D2E/DX2                !
 ! D4    D(15,1,2,3)            60.1917         estimate D2E/DX2                !
 ! D5    D(15,1,2,17)          -60.5559         estimate D2E/DX2                !
 ! D6    D(15,1,2,18)         -178.9797         estimate D2E/DX2                !
 ! D7    D(16,1,2,3)           -60.4813         estimate D2E/DX2                !
 ! D8    D(16,1,2,17)          178.771          estimate D2E/DX2                !
 ! D9    D(16,1,2,18)           60.3473         estimate D2E/DX2                !
 ! D10   D(1,2,3,4)            179.5452         estimate D2E/DX2                !
 ! D11   D(1,2,3,19)            59.5035         estimate D2E/DX2                !
 ! D12   D(1,2,3,20)           -60.4396         estimate D2E/DX2                !
 ! D13   D(17,2,3,4)           -59.9267         estimate D2E/DX2                !
 ! D14   D(17,2,3,19)         -179.9684         estimate D2E/DX2                !
 ! D15   D(17,2,3,20)           60.0885         estimate D2E/DX2                !
 ! D16   D(18,2,3,4)            59.1079         estimate D2E/DX2                !
 ! D17   D(18,2,3,19)          -60.9338         estimate D2E/DX2                !
 ! D18   D(18,2,3,20)          179.1231         estimate D2E/DX2                !
 ! D19   D(2,3,4,5)            179.574          estimate D2E/DX2                !
 ! D20   D(2,3,4,21)            -0.0195         estimate D2E/DX2                !
 ! D21   D(19,3,4,5)           -60.269          estimate D2E/DX2                !
 ! D22   D(19,3,4,21)          120.1375         estimate D2E/DX2                !
 ! D23   D(20,3,4,5)            59.5952         estimate D2E/DX2                !
 ! D24   D(20,3,4,21)         -119.9983         estimate D2E/DX2                !
 ! D25   D(3,4,5,6)             -0.2361         estimate D2E/DX2                !
 ! D26   D(3,4,5,7)            179.8195         estimate D2E/DX2                !
 ! D27   D(21,4,5,6)           179.3604         estimate D2E/DX2                !
 ! D28   D(21,4,5,7)            -0.584          estimate D2E/DX2                !
 ! D29   D(3,4,33,35)         -176.7803         estimate D2E/DX2                !
 ! D30   D(5,4,33,35)            2.8189         estimate D2E/DX2                !
 ! D31   D(4,5,7,8)            179.0797         estimate D2E/DX2                !
 ! D32   D(4,5,7,22)            -1.5017         estimate D2E/DX2                !
 ! D33   D(6,5,7,8)             -0.8627         estimate D2E/DX2                !
 ! D34   D(6,5,7,22)           178.5559         estimate D2E/DX2                !
 ! D35   D(5,7,8,9)              0.1553         estimate D2E/DX2                !
 ! D36   D(5,7,8,10)           179.9853         estimate D2E/DX2                !
 ! D37   D(22,7,8,9)          -179.257          estimate D2E/DX2                !
 ! D38   D(22,7,8,10)            0.573          estimate D2E/DX2                !
 ! D39   D(5,7,34,35)            2.3535         estimate D2E/DX2                !
 ! D40   D(8,7,34,35)         -178.3376         estimate D2E/DX2                !
 ! D41   D(7,8,9,13)           179.4967         estimate D2E/DX2                !
 ! D42   D(7,8,9,23)            -0.2305         estimate D2E/DX2                !
 ! D43   D(10,8,9,13)           -0.332          estimate D2E/DX2                !
 ! D44   D(10,8,9,23)          179.9408         estimate D2E/DX2                !
 ! D45   D(7,8,10,11)         -179.4586         estimate D2E/DX2                !
 ! D46   D(7,8,10,24)            0.328          estimate D2E/DX2                !
 ! D47   D(9,8,10,11)            0.3876         estimate D2E/DX2                !
 ! D48   D(9,8,10,24)         -179.8257         estimate D2E/DX2                !
 ! D49   D(8,9,13,12)            0.0537         estimate D2E/DX2                !
 ! D50   D(8,9,13,26)         -179.5967         estimate D2E/DX2                !
 ! D51   D(23,9,13,12)         179.7914         estimate D2E/DX2                !
 ! D52   D(23,9,13,26)           0.1409         estimate D2E/DX2                !
 ! D53   D(8,10,11,12)          -0.1676         estimate D2E/DX2                !
 ! D54   D(8,10,11,30)         179.5617         estimate D2E/DX2                !
 ! D55   D(24,10,11,12)       -179.9552         estimate D2E/DX2                !
 ! D56   D(24,10,11,30)         -0.2259         estimate D2E/DX2                !
 ! D57   D(10,11,12,13)         -0.1334         estimate D2E/DX2                !
 ! D58   D(10,11,12,25)        179.7635         estimate D2E/DX2                !
 ! D59   D(30,11,12,13)       -179.8585         estimate D2E/DX2                !
 ! D60   D(30,11,12,25)          0.0384         estimate D2E/DX2                !
 ! D61   D(11,12,13,9)           0.182          estimate D2E/DX2                !
 ! D62   D(11,12,13,26)        179.8399         estimate D2E/DX2                !
 ! D63   D(25,12,13,9)        -179.7086         estimate D2E/DX2                !
 ! D64   D(25,12,13,26)         -0.0507         estimate D2E/DX2                !
 ! D65   D(9,13,26,27)          -1.4647         estimate D2E/DX2                !
 ! D66   D(9,13,26,28)         -91.4615         estimate D2E/DX2                !
 ! D67   D(9,13,26,29)          88.6788         estimate D2E/DX2                !
 ! D68   D(9,13,26,32)         178.4461         estimate D2E/DX2                !
 ! D69   D(12,13,26,27)        178.8973         estimate D2E/DX2                !
 ! D70   D(12,13,26,28)         88.9004         estimate D2E/DX2                !
 ! D71   D(12,13,26,29)        -90.9592         estimate D2E/DX2                !
 ! D72   D(12,13,26,32)         -1.1919         estimate D2E/DX2                !
 ! D73   D(21,33,35,34)         -1.5095         estimate D2E/DX2                !
 ! D74   D(21,33,35,36)        179.5577         estimate D2E/DX2                !
 ! D75   D(22,34,35,33)          0.4026         estimate D2E/DX2                !
 ! D76   D(22,34,35,36)        179.1622         estimate D2E/DX2                !
 ! D77   D(33,35,36,37)       -175.0195         estimate D2E/DX2                !
 ! D78   D(33,35,36,38)         62.0539         estimate D2E/DX2                !
 ! D79   D(33,35,36,39)        -51.1398         estimate D2E/DX2                !
 ! D80   D(34,35,36,37)          6.1572         estimate D2E/DX2                !
 ! D81   D(34,35,36,38)       -116.7694         estimate D2E/DX2                !
 ! D82   D(34,35,36,39)        130.0369         estimate D2E/DX2                !
 ! D83   D(35,36,37,40)        -55.6708         estimate D2E/DX2                !
 ! D84   D(35,36,37,41)       -175.0877         estimate D2E/DX2                !
 ! D85   D(35,36,37,42)         65.7675         estimate D2E/DX2                !
 ! D86   D(38,36,37,40)         66.3656         estimate D2E/DX2                !
 ! D87   D(38,36,37,41)        -53.0512         estimate D2E/DX2                !
 ! D88   D(38,36,37,42)       -172.1961         estimate D2E/DX2                !
 ! D89   D(39,36,37,40)        179.9689         estimate D2E/DX2                !
 ! D90   D(39,36,37,41)         60.552          estimate D2E/DX2                !
 ! D91   D(39,36,37,42)        -58.5929         estimate D2E/DX2                !
 --------------------------------------------------------------------------------
 Trust Radius=3.00D-01 FncErr=1.00D-07 GrdErr=1.00D-06
 Number of steps in this run=    228 maximum allowed number of steps=    252.
 GradGradGradGradGradGradGradGradGradGradGradGradGradGradGradGradGradGrad

                          Input orientation:                          
 ---------------------------------------------------------------------
 Center     Atomic      Atomic             Coordinates (Angstroms)
 Number     Number       Type             X           Y           Z
 ---------------------------------------------------------------------
      1          6           0       -1.878350    2.050100   -0.089500
      2          6           0       -0.462430    1.499070   -0.042270
      3          6           0        0.574710    2.628720   -0.066740
      4          7           0        1.913340    2.079680   -0.010210
      5          6           0        3.037150    2.834020   -0.024480
      6          8           0        2.924150    4.045840   -0.092870
      7          7           0        4.267930    2.217790    0.036940
      8          6           0        5.547930    2.913690    0.010150
      9          6           0        5.746070    4.336700   -0.080060
     10          6           0        6.686400    2.115800    0.082740
     11          6           0        7.963500    2.661450    0.077310
     12          6           0        8.150330    4.041240   -0.005370
     13          6           0        7.049950    4.924560   -0.088770
     14          1           0       -2.601680    1.208330   -0.072000
     15          1           0       -2.027910    2.636040   -1.020630
     16          1           0       -2.061720    2.701400    0.790930
     17          1           0       -0.303140    0.831540   -0.919030
     18          1           0       -0.339530    0.900600    0.888370
     19          1           0        0.415780    3.293880    0.808210
     20          1           0        0.457350    3.211920   -1.004350
     21          1           0        2.031980    0.978240    0.041350
     22          1           0        4.274640    1.018470    0.129290
     23          1           0        4.915500    5.003460   -0.139540
     24          1           0        6.577780    1.044980    0.148470
     25          1           0        9.172770    4.388130   -0.000050
     26         16           0        7.320850    6.775560   -0.194660
     27          9           0        5.644220    7.090510   -0.291650
     28          9           0        7.400780    6.679620   -1.899610
     29          9           0        7.247320    6.887370    1.512410
     30         17           0        9.343360    1.584850    0.183670
     31          9           0        7.568970    8.468740   -0.300190
     32          9           0        9.021440    6.609840   -0.103440
     33          8           0        1.977140   -1.059900    0.171080
     34          8           0        4.192560   -1.104050    0.299490
     35          6           0        3.116300   -1.730100    0.294320
     36          6           0        2.915420   -3.237190    0.389950
     37          6           0        4.161790   -4.054910    0.649620
     38          1           0        2.440730   -3.576740   -0.557270
     39          1           0        2.159830   -3.469140    1.179230
     40          1           0        4.904920   -3.822340   -0.133430
     41          1           0        3.923760   -5.145690    0.613550
     42          1           0        4.550720   -3.811510    1.658730
 ---------------------------------------------------------------------
                    Distance matrix (angstroms):
                    1          2          3          4          5
     1  C    0.000000
     2  C    1.520097   0.000000
     3  C    2.520481   1.533743   0.000000
     4  N    3.792634   2.445898   1.447954   0.000000
     5  C    4.978042   3.745593   2.471345   1.353581   0.000000
     6  O    5.200673   4.237632   2.743862   2.212319   1.218997
     7  N    6.149867   4.785304   3.717457   2.359108   1.377799
     8  C    7.476988   6.174814   4.981971   3.729106   2.512282
     9  C    7.959925   6.826349   5.446130   4.448465   3.098287
    10  C    8.566734   7.176472   6.134997   4.774102   3.720801
    11  C    9.862230   8.506569   7.390267   6.078697   4.930422
    12  C   10.224781   8.980180   7.706426   6.538179   5.253794
    13  C    9.379609   8.256634   6.870233   5.872331   4.525158
    14  H    1.109995   2.159121   3.479510   4.598747   5.868691
    15  H    1.110269   2.168091   2.771929   4.106572   5.165883
    16  H    1.110393   2.167383   2.773381   4.102373   5.165361
    17  H    2.157382   1.113408   2.174138   2.701220   3.995958
    18  H    2.155353   1.113266   2.175883   2.696868   3.996671
    19  H    2.759693   2.171615   1.110511   2.094464   2.788624
    20  H    2.764466   2.169205   1.110409   2.095278   2.785376
    21  H    4.056684   2.549576   2.204405   1.109010   2.111544
    22  H    6.242709   4.764477   4.039903   2.592559   2.202555
    23  H    7.408187   6.419684   4.948449   4.192634   2.871917
    24  H    8.518981   7.057417   6.212197   4.780459   3.970722
    25  H   11.296090  10.059102   8.776480   7.617635   6.329430
    26  S   10.342452   9.404468   7.919789   7.164250   5.823640
    27  F    9.057354   8.283572   6.757077   6.253566   4.998590
    28  F   10.526690   9.597806   8.146437   7.405490   6.111139
    29  F   10.451945   9.533680   8.071774   7.340545   6.042947
    30  Cl  11.234672   9.808768   8.834115   7.449003   6.432110
    31  F   11.423449  10.637021   9.114823   8.537583   7.236261
    32  F   11.815111  10.773463   9.337982   8.429480   7.076353
    33  O    4.960323   3.541941   3.953389   3.145457   4.040356
    34  O    6.852439   5.344340   5.211193   3.927709   4.116834
    35  C    6.275648   4.831991   5.058592   4.006779   4.575925
    36  C    7.153009   5.833425   6.332171   5.425256   6.086556
    37  C    8.619788   7.260084   7.619135   6.566894   7.012602
    38  H    7.108768   5.870043   6.498491   5.707232   6.460451
    39  H    6.955471   5.749036   6.422534   5.680223   6.476761
    40  H    8.972192   7.558714   7.769900   6.618049   6.914301
    41  H    9.270283   7.988842   8.492372   7.525745   8.054125
    42  H    8.873991   7.498489   7.762890   6.666877   7.020481
                    6          7          8          9         10
     6  O    0.000000
     7  N    2.272523   0.000000
     8  C    2.859475   1.457187   0.000000
     9  C    2.836899   2.586188   1.439568   0.000000
    10  C    4.232070   2.421053   1.392125   2.417255   0.000000
    11  C    5.228819   3.722325   2.429632   2.783563   1.388794
    12  C    5.226914   4.289498   2.836211   2.423498   2.420366
    13  C    4.218340   3.883560   2.511861   1.430300   2.837379
    14  H    6.211819   6.944236   8.326533   8.914690   9.333589
    15  H    5.231747   6.397733   7.650683   8.013219   8.799277
    16  H    5.239038   6.392718   7.652546   8.024613   8.796253
    17  H    4.629219   4.871370   6.279629   7.041517   7.176805
    18  H    4.637561   4.867095   6.283788   7.055435   7.175614
    19  H    2.769352   4.073314   5.207726   5.503498   6.421437
    20  H    2.758862   4.073463   5.199246   5.485435   6.417500
    21  H    3.197523   2.556556   4.013583   5.008838   4.791595
    22  H    3.322371   1.202889   2.286333   3.635875   2.650073
    23  H    2.210133   2.865388   2.188496   1.066749   3.394713
    24  H    4.734176   2.592938   2.138177   3.402850   1.078320
    25  H    6.258676   5.363693   3.913252   3.428020   3.369328
    26  S    5.176167   5.490649   4.254319   2.905358   4.710928
    27  F    4.087580   5.074007   4.188816   2.763804   5.096474
    28  F    5.499211   5.785577   4.611124   3.396778   5.026779
    29  F    5.416735   5.732256   4.575461   3.360897   5.012631
    30  Cl   6.880349   5.116848   4.025073   4.536819   2.711371
    31  F    6.417116   7.077068   5.919417   4.521634   6.425373
    32  F    6.614465   6.473459   5.073431   3.986949   5.067886
    33  O    5.199527   4.001120   5.344704   6.587199   5.680669
    34  O    5.318287   3.333052   4.250056   5.670909   4.078438
    35  C    5.792091   4.120477   5.249606   6.622833   5.251793
    36  C    7.299022   5.631226   6.701319   8.099216   6.555087
    37  C    8.228317   6.303444   7.133841   8.570968   6.691238
    38  H    7.651999   6.104779   7.218195   8.589269   7.130241
    39  H    7.660114   6.171717   7.320279   8.682054   7.272117
    40  H    8.113775   6.076015   6.768174   8.202458   6.203379
    41  H    9.272673   7.394036   8.243520   9.680787   7.787373
    42  H    8.212903   6.250011   6.995753   8.416982   6.494450
                   11         12         13         14         15
    11  C    0.000000
    12  C    1.394834   0.000000
    13  C    2.446185   1.413523   0.000000
    14  H   10.665687  11.119152  10.342370   0.000000
    15  H   10.051587  10.324820   9.408147   1.807614   0.000000
    16  H   10.050666  10.330306   9.420130   1.807059   1.813054
    17  H    8.525175   9.088350   8.456363   2.478450   2.498274
    18  H    8.526354   9.096159   8.470624   2.476758   3.083287
    19  H    7.609353   7.813048   6.890276   3.772182   3.122344
    20  H    7.603637   7.801774   6.872685   3.773767   2.551161
    21  H    6.165827   6.842394   6.385170   4.640754   4.512074
    22  H    4.038536   4.916934   4.796607   6.881885   6.607646
    23  H    3.849979   3.377572   2.136511   8.421138   7.388636
    24  H    2.130319   3.387352   3.915401   9.183560   8.829279
    25  H    2.109441   1.079696   2.191345  12.196474  11.382734
    26  S    4.172873   2.863629   1.873713  11.378299  10.257542
    27  F    5.013159   3.957346   2.590092  10.131296   8.901421
    28  F    4.513375   3.333320   2.546067  11.546618  10.296764
    29  F    4.520047   3.349558   2.540739  11.478878  10.512849
    30  Cl   1.753395   2.737318   4.060495  11.953707  11.483080
    31  F    5.832905   4.475227   3.588216  12.498310  11.253423
    32  F    4.091661   2.714066   2.593676  12.816950  11.777965
    33  O    7.049379   8.010059   7.849502   5.115618   5.578581
    34  O    5.333699   6.498530   6.682781   7.186571   7.377346
    35  C    6.544322   7.664179   7.739823   6.439243   6.874239
    36  C    7.770123   8.974191   9.161751   7.100313   7.805196
    37  C    7.738865   9.049039   9.461372   8.600404   9.266657
    38  H    8.355758   9.536128   9.681761   6.968377   7.666947
    39  H    8.513574   9.679627   9.796698   6.790897   7.723327
    40  H    7.172089   8.507936   9.006187   9.036618   9.516403
    41  H    8.806730  10.131468  10.567699   9.133724   9.932182
    42  H    7.486466   8.797278   9.253044   8.907920   9.593135
                   16         17         18         19         20
    16  H    0.000000
    17  H    3.084306   0.000000
    18  H    2.493655   1.809085   0.000000
    19  H    2.547418   3.092462   2.510918   0.000000
    20  H    3.135183   2.500367   3.091861   1.814888   0.000000
    21  H    4.504390   2.529157   2.519431   2.926152   2.926136
    22  H    6.589346   4.699999   4.677677   4.530919   4.546214
    23  H    7.405866   6.726569   6.745769   4.905953   4.881866
    24  H    8.820286   6.966504   6.958267   6.592651   6.594262
    25  H   11.387909  10.163008  10.170349   8.862028   8.851589
    26  S   10.276322   9.694396   9.714398   7.797938   7.775780
    27  F    8.934080   8.656755   8.689804   6.554439   6.515752
    28  F   10.611510   9.721726  10.053970   8.221055   7.812660
    29  F   10.232356   9.979701   9.684582   7.751065   8.120758
    30  Cl  11.475683   9.738500   9.732582   9.111121   9.111527
    31  F   11.278428  10.985440  11.010622   8.898081   8.871592
    32  F   11.786104  11.000079  11.009399   9.267366   9.257491
    33  O    5.553736   3.156828   3.118497   4.668959   4.683999
    34  O    7.337505   5.044068   4.990515   5.819334   5.854860
    35  C    6.833499   4.441485   4.383633   5.726890   5.760219
    36  C    7.758837   5.350432   5.288140   7.005570   7.041108
    37  C    9.186935   6.802474   6.698952   8.249997   8.322578
    38  H    7.842496   5.205058   5.465006   7.291802   7.086578
    39  H    7.486510   5.381892   5.042423   6.994127   7.232083
    40  H    9.588936   7.028489   7.131234   8.466384   8.367807
    41  H    9.870879   7.479490   7.403296   9.141672   9.191477
    42  H    9.321772   7.194631   6.834616   8.264846   8.554311
                   21         22         23         24         25
    21  H    0.000000
    22  H    2.244744   0.000000
    23  H    4.954776   4.045135   0.000000
    24  H    4.547552   2.303372   4.302986   0.000000
    25  H    7.913277   5.946681   4.303770   4.234700   0.000000
    26  S    7.850909   6.521382   2.988158   5.788734   3.027755
    27  F    7.107673   6.238799   2.215840   6.132999   4.454049
    28  F    8.068276   6.777743   3.476201   6.051539   3.463987
    29  F    8.017581   6.722636   3.422783   6.036732   3.498727
    30  Cl   7.337882   5.100555   5.603330   2.818001   2.814468
    31  F    9.321078   8.157425   4.367479   7.503064   4.394728
    32  F    8.977106   7.338235   4.409139   6.082976   2.229257
    33  O    2.043001   3.098366   6.744982   5.059340   9.027038
    34  O    3.011756   2.130914   6.165798   3.214096   7.419990
    35  C    2.928284   2.987243   6.983279   4.438940   8.613955
    36  C    4.321092   4.475049   8.496411   5.639874   9.871780
    37  C    5.498971   5.101241   9.123865   5.665425   9.839559
    38  H    4.612295   4.995052   8.939732   6.242880  10.443659
    39  H    4.592418   5.070842   9.006543   6.399846  10.597581
    40  H    5.597312   4.888734   8.825808   5.154487   9.254413
    41  H    6.434964   6.193100  10.225260   6.751631  10.900566
    42  H    5.648157   5.073866   9.003918   5.474975   9.557667
                   26         27         28         29         30
    26  S    0.000000
    27  F    1.708710   0.000000
    28  F    1.709517   2.416582   0.000000
    29  F    1.712307   2.421947   3.421782   0.000000
    30  Cl   5.583650   6.649952   5.836982   5.854541   0.000000
    31  F    1.714514   2.367330   2.405698   2.426872   7.125344
    32  F    1.711079   3.416443   2.420255   2.415677   5.043470
    33  O    9.491229   8.949345   9.674906   9.629801   7.826625
    34  O    8.492269   8.343116   8.701393   8.640922   5.811569
    35  C    9.500715   9.194395   9.689865   9.633787   7.055311
    36  C   10.954668  10.703846  11.122215  11.069417   8.038223
    37  C   11.313335  11.282906  11.498685  11.401684   7.672853
    38  H   11.450641  11.141056  11.471569  11.699764   8.650856
    39  H   11.553250  11.216536  11.829799  11.543434   8.839517
    40  H   10.869956  10.939008  10.938001  11.085735   7.002714
    41  H   12.422143  12.389672  12.579491  12.515931   8.651996
    42  H   11.099312  11.128961  11.438900  11.034450   7.366539
                   31         32         33         34         35
    31  F    0.000000
    32  F    2.367253   0.000000
    33  O   11.058284  10.417410   0.000000
    34  O   10.168484   9.109585   2.219577   0.000000
    35  C   11.144328  10.226607   1.327419   1.245111   0.000000
    36  C   12.615888  11.597022   2.380938   2.487882   1.523423
    37  C   13.013563  11.743943   3.737885   2.971719   2.573719
    38  H   13.094217  12.135820   2.660807   3.149149   2.142820
    39  H   13.189407  12.260211   2.618049   3.240306   2.173053
    40  H   12.577584  11.215035   4.036793   2.843234   2.785606
    41  H   14.123568  12.833273   4.547394   4.062726   3.524224
    42  H   12.796552  11.475936   4.050651   3.050599   2.872533
                   36         37         38         39         40
    36  C    0.000000
    37  C    1.513120   0.000000
    38  H    1.112587   2.155755   0.000000
    39  H    1.116996   2.152082   1.762361   0.000000
    40  H    2.138793   1.104309   2.512408   3.063225   0.000000
    41  H    2.170050   1.117032   2.455973   2.498452   1.808842
    42  H    2.147988   1.108518   3.068848   2.462416   1.826859
                   41         42
    41  H    0.000000
    42  H    1.807074   0.000000
 Stoichiometry    C13H17ClF5N2O3S(1-)
 Framework group  C1[X(C13H17ClF5N2O3S)]
 Deg. of freedom   120
 Full point group                 C1      NOp   1
 Largest Abelian subgroup         C1      NOp   1
 Largest concise Abelian subgroup C1      NOp   1
                         Standard orientation:                         
 ---------------------------------------------------------------------
 Center     Atomic      Atomic             Coordinates (Angstroms)
 Number     Number       Type             X           Y           Z
 ---------------------------------------------------------------------
      1          6           0        5.229220   -4.734768    0.002201
      2          6           0        4.740604   -3.295622   -0.026245
      3          6           0        3.208697   -3.228018    0.006254
      4          7           0        2.768693   -1.848644   -0.010853
      5          6           0        1.468186   -1.473553    0.002190
      6          8           0        0.612193   -2.341127    0.025510
      7          7           0        1.149154   -0.133276   -0.012278
      8          6           0       -0.207753    0.397892   -0.019878
      9          6           0       -1.426312   -0.368516   -0.010591
     10          6           0       -0.328093    1.784732   -0.034210
     11          6           0       -1.567465    2.411387   -0.031439
     12          6           0       -2.745415    1.664525   -0.017526
     13          6           0       -2.715311    0.251351   -0.008666
     14          1           0        6.338835   -4.747331   -0.023978
     15          1           0        4.840480   -5.286233   -0.879538
     16          1           0        4.884842   -5.234198    0.932226
     17          1           0        5.113034   -2.803964   -0.953200
     18          1           0        5.156063   -2.756548    0.854751
     19          1           0        2.837774   -3.718002    0.931222
     20          1           0        2.801061   -3.753530   -0.882947
     21          1           0        3.536035   -1.048609   -0.043015
     22          1           0        2.064985    0.646582   -0.008152
     23          1           0       -1.403471   -1.434973   -0.000440
     24          1           0        0.562729    2.392274   -0.044352
     25          1           0       -3.668525    2.224512   -0.012254
     26         16           0       -4.308386   -0.734739    0.014505
     27          9           0       -3.473519   -2.225263   -0.017457
     28          9           0       -4.354804   -0.724855   -1.694353
     29          9           0       -4.278131   -0.749758    1.726479
     30         17           0       -1.628886    4.163692   -0.038504
     31          9           0       -5.766185   -1.637083    0.027050
     32          9           0       -5.272944    0.678090    0.051041
     33          8           0        5.133967    0.224232   -0.061486
     34          8           0        3.746553    1.955344    0.008227
     35          6           0        4.917637    1.533114   -0.015991
     36          6           0        6.202426    2.351671   -0.025960
     37          6           0        6.035264    3.846110    0.142093
     38          1           0        6.729569    2.143614   -0.983396
     39          1           0        6.897725    1.974645    0.762767
     40          1           0        5.347763    4.213622   -0.640068
     41          1           0        7.020576    4.360742    0.032213
     42          1           0        5.639284    4.054291    1.156329
 ---------------------------------------------------------------------
 Rotational constants (GHZ):      0.2214996      0.0811498      0.0611142
 General basis read from cards:  (6D, 7F)
 There are   517 symmetry adapted cartesian basis functions of A   symmetry.
 There are   517 symmetry adapted basis functions of A   symmetry.
   517 basis functions,   916 primitive gaussians,   517 cartesian basis functions
   106 alpha electrons      106 beta electrons
       nuclear repulsion energy      2638.1284021533 Hartrees.
 NAtoms=   42 NActive=   42 NUniq=   42 SFac= 1.00D+00 NAtFMM=   60 NAOKFM=F Big=F
 Integral buffers will be    131072 words long.
 Raffenetti 2 integral format.
 Two-electron integral symmetry is turned on.
 ------------------------------------------------------------------------------
 Polarizable Continuum Model (PCM)
 =================================
 Model                : PCM (using non-symmetric T matrix).
 Atomic radii         : SMD-Coulomb.
 Polarization charges : Total charges.
 Charge compensation  : None.
 Solution method      : On-the-fly selection.
 Cavity type          : VdW (van der Waals Surface) (Alpha=1.000).
 Cavity algorithm     : GePol (No added spheres)
                        Default sphere list used, NSphG=   42.
                        Lebedev-Laikov grids with approx.  5.0 points / Ang**2.
                        Smoothing algorithm: York/Karplus (Gamma=1.0000).
                        Polarization charges: spherical gaussians, with
                                              point-specific exponents (IZeta= 3).
                        Self-potential: point-specific (ISelfS= 7).
                        Self-field    : sphere-specific E.n sum rule (ISelfD= 2).
 1st derivatives      : Analytical E(r).r(x)/FMM algorithm (CHGder, D1EAlg=3).
                        Cavity 1st derivative terms included.
 Solvent              : n-Pentadecane, Eps=   2.033300 Eps(inf)=   2.049192
 ------------------------------------------------------------------------------
 ------------------------------------------------------------------------------
 Atomic radii for non-electrostatic terms: SMD-CDS.
 ------------------------------------------------------------------------------
 Nuclear repulsion after PCM non-electrostatic terms =     2638.1200119308 Hartrees.
 One-electron integrals computed using PRISM.
 NBasis=   517 RedAO= T EigKep=  1.49D-06  NBF=   517
 NBsUse=   514 1.00D-06 EigRej=  9.02D-07 NBFU=   514
 ExpMin= 4.05D-02 ExpMax= 2.52D+04 ExpMxC= 3.78D+03 IAcc=3 IRadAn=         5 AccDes= 0.00D+00
 Harris functional with IExCor= 1009 and IRadAn=       5 diagonalized for initial guess.
 HarFok:  IExCor= 1009 AccDes= 0.00D+00 IRadAn=         5 IDoV= 1 UseB2=F ITyADJ=14
 ICtDFT=  3500011 ScaDFX=  1.000000  1.000000  1.000000  1.000000
 FoFCou: FMM=F IPFlag=           0 FMFlag=      100000 FMFlg1=           0
         NFxFlg=           0 DoJE=T BraDBF=F KetDBF=T FulRan=T
         wScrn=  0.000000 ICntrl=     500 IOpCl=  0 I1Cent=   200000004 NGrid=           0
         NMat0=    1 NMatS0=      1 NMatT0=    0 NMatD0=    1 NMtDS0=    0 NMtDT0=    0
 Petite list used in FoFCou.
 Requested convergence on RMS density matrix=1.00D-08 within 128 cycles.
 Requested convergence on MAX density matrix=1.00D-06.
 Requested convergence on             energy=1.00D-06.
 No special actions if energy rises.
 Inv3:  Mode=1 IEnd=    37023507.
 Iteration    1 A*A^-1 deviation from unit magnitude is 5.55D-15 for   3493.
 Iteration    1 A*A^-1 deviation from orthogonality  is 6.11D-15 for   3500   1131.
 Iteration    1 A^-1*A deviation from unit magnitude is 5.55D-15 for   3499.
 Iteration    1 A^-1*A deviation from orthogonality  is 1.74D-15 for   3495   1918.
 Error on total polarization charges =  0.02385
 SCF Done:  E(RM062X) =  -2197.84931565     A.U. after   17 cycles
            NFock= 17  Conv=0.78D-08     -V/T= 2.0070
 SMD-CDS (non-electrostatic) energy       (kcal/mol) =      -5.26
 (included in total energy above)

 **********************************************************************

            Population analysis using the SCF density.

 **********************************************************************

 Orbital symmetries:
       Occupied  (A) (A) (A) (A) (A) (A) (A) (A) (A) (A) (A) (A)
                 (A) (A) (A) (A) (A) (A) (A) (A) (A) (A) (A) (A)
                 (A) (A) (A) (A) (A) (A) (A) (A) (A) (A) (A) (A)
                 (A) (A) (A) (A) (A) (A) (A) (A) (A) (A) (A) (A)
                 (A) (A) (A) (A) (A) (A) (A) (A) (A) (A) (A) (A)
                 (A) (A) (A) (A) (A) (A) (A) (A) (A) (A) (A) (A)
                 (A) (A) (A) (A) (A) (A) (A) (A) (A) (A) (A) (A)
                 (A) (A) (A) (A) (A) (A) (A) (A) (A) (A) (A) (A)
                 (A) (A) (A) (A) (A) (A) (A) (A) (A) (A)
       Virtual   (A) (A) (A) (A) (A) (A) (A) (A) (A) (A) (A) (A)
                 (A) (A) (A) (A) (A) (A) (A) (A) (A) (A) (A) (A)
                 (A) (A) (A) (A) (A) (A) (A) (A) (A) (A) (A) (A)
                 (A) (A) (A) (A) (A) (A) (A) (A) (A) (A) (A) (A)
                 (A) (A) (A) (A) (A) (A) (A) (A) (A) (A) (A) (A)
                 (A) (A) (A) (A) (A) (A) (A) (A) (A) (A) (A) (A)
                 (A) (A) (A) (A) (A) (A) (A) (A) (A) (A) (A) (A)
                 (A) (A) (A) (A) (A) (A) (A) (A) (A) (A) (A) (A)
                 (A) (A) (A) (A) (A) (A) (A) (A) (A) (A) (A) (A)
                 (A) (A) (A) (A) (A) (A) (A) (A) (A) (A) (A) (A)
                 (A) (A) (A) (A) (A) (A) (A) (A) (A) (A) (A) (A)
                 (A) (A) (A) (A) (A) (A) (A) (A) (A) (A) (A) (A)
                 (A) (A) (A) (A) (A) (A) (A) (A) (A) (A) (A) (A)
                 (A) (A) (A) (A) (A) (A) (A) (A) (A) (A) (A) (A)
                 (A) (A) (A) (A) (A) (A) (A) (A) (A) (A) (A) (A)
                 (A) (A) (A) (A) (A) (A) (A) (A) (A) (A) (A) (A)
                 (A) (A) (A) (A) (A) (A) (A) (A) (A) (A) (A) (A)
                 (A) (A) (A) (A) (A) (A) (A) (A) (A) (A) (A) (A)
                 (A) (A) (A) (A) (A) (A) (A) (A) (A) (A) (A) (A)
                 (A) (A) (A) (A) (A) (A) (A) (A) (A) (A) (A) (A)
                 (A) (A) (A) (A) (A) (A) (A) (A) (A) (A) (A) (A)
                 (A) (A) (A) (A) (A) (A) (A) (A) (A) (A) (A) (A)
                 (A) (A) (A) (A) (A) (A) (A) (A) (A) (A) (A) (A)
                 (A) (A) (A) (A) (A) (A) (A) (A) (A) (A) (A) (A)
                 (A) (A) (A) (A) (A) (A) (A) (A) (A) (A) (A) (A)
                 (A) (A) (A) (A) (A) (A) (A) (A) (A) (A) (A) (A)
                 (A) (A) (A) (A) (A) (A) (A) (A) (A) (A) (A) (A)
                 (A) (A) (A) (A) (A) (A) (A) (A) (A) (A) (A) (A)
                 (A) (A) (A) (A) (A) (A) (A) (A) (A) (A) (A) (A)
                 (A) (A) (A) (A) (A) (A) (A) (A) (A) (A) (A) (A)
                 (A) (A) (A) (A) (A) (A) (A) (A) (A) (A) (A) (A)
                 (A) (A) (A) (A) (A) (A) (A) (A) (A) (A) (A) (A)
                 (A) (A) (A) (A) (A) (A) (A) (A) (A) (A) (A) (A)
                 (A) (A) (A) (A) (A) (A) (A) (A) (A) (A) (A) (A)
 The electronic state is 1-A.
 Alpha  occ. eigenvalues -- -102.64946 -90.30581 -25.28933 -25.28032 -25.27669
 Alpha  occ. eigenvalues --  -25.27475 -25.27465 -19.54420 -19.52798 -19.49900
 Alpha  occ. eigenvalues --  -14.75816 -14.71399 -10.61878 -10.60218 -10.59925
 Alpha  occ. eigenvalues --  -10.59535 -10.56809 -10.55234 -10.54789 -10.53908
 Alpha  occ. eigenvalues --  -10.52711 -10.49660 -10.49527 -10.48683 -10.48428
 Alpha  occ. eigenvalues --   -9.79573  -8.59162  -7.51985  -7.51309  -7.51297
 Alpha  occ. eigenvalues --   -6.51505  -6.51488  -6.51116  -1.40761  -1.33717
 Alpha  occ. eigenvalues --   -1.33228  -1.32178  -1.30487  -1.11852  -1.07028
 Alpha  occ. eigenvalues --   -0.98975  -0.96594  -0.95262  -0.94901  -0.93017
 Alpha  occ. eigenvalues --   -0.88847  -0.83372  -0.81944  -0.80484  -0.80184
 Alpha  occ. eigenvalues --   -0.72710  -0.70432  -0.68058  -0.67219  -0.67023
 Alpha  occ. eigenvalues --   -0.65810  -0.63198  -0.61935  -0.59456  -0.57171
 Alpha  occ. eigenvalues --   -0.56933  -0.56107  -0.56011  -0.54828  -0.53324
 Alpha  occ. eigenvalues --   -0.52620  -0.51651  -0.50972  -0.50768  -0.50726
 Alpha  occ. eigenvalues --   -0.50431  -0.50157  -0.50078  -0.49354  -0.48910
 Alpha  occ. eigenvalues --   -0.47966  -0.47842  -0.46676  -0.46543  -0.46450
 Alpha  occ. eigenvalues --   -0.45336  -0.44846  -0.44317  -0.43680  -0.42051
 Alpha  occ. eigenvalues --   -0.41111  -0.41067  -0.40490  -0.40172  -0.38650
 Alpha  occ. eigenvalues --   -0.38068  -0.37867  -0.36957  -0.35638  -0.35293
 Alpha  occ. eigenvalues --   -0.34653  -0.34486  -0.33353  -0.33306  -0.28270
 Alpha  occ. eigenvalues --   -0.28213  -0.25667  -0.24746  -0.23371  -0.22892
 Alpha  occ. eigenvalues --   -0.22037
 Alpha virt. eigenvalues --   -0.06680   0.01564   0.04038   0.04947   0.06211
 Alpha virt. eigenvalues --    0.06899   0.07056   0.07273   0.07488   0.07545
 Alpha virt. eigenvalues --    0.08353   0.08617   0.08722   0.08975   0.09794
 Alpha virt. eigenvalues --    0.10091   0.10194   0.10368   0.10974   0.11355
 Alpha virt. eigenvalues --    0.11663   0.11755   0.12077   0.12599   0.13045
 Alpha virt. eigenvalues --    0.13412   0.13714   0.13876   0.14260   0.14633
 Alpha virt. eigenvalues --    0.14779   0.15331   0.15673   0.15984   0.16225
 Alpha virt. eigenvalues --    0.16451   0.16731   0.16914   0.17201   0.17764
 Alpha virt. eigenvalues --    0.17797   0.18052   0.18766   0.18984   0.19500
 Alpha virt. eigenvalues --    0.19804   0.20135   0.21026   0.21371   0.22016
 Alpha virt. eigenvalues --    0.22340   0.22823   0.23002   0.23472   0.24251
 Alpha virt. eigenvalues --    0.24746   0.24980   0.25849   0.26163   0.26507
 Alpha virt. eigenvalues --    0.26962   0.27256   0.27751   0.28066   0.28604
 Alpha virt. eigenvalues --    0.28918   0.28985   0.29538   0.29609   0.29814
 Alpha virt. eigenvalues --    0.29904   0.29941   0.31038   0.31672   0.32087
 Alpha virt. eigenvalues --    0.32456   0.32642   0.32991   0.33314   0.33422
 Alpha virt. eigenvalues --    0.33675   0.33953   0.34098   0.34375   0.34482
 Alpha virt. eigenvalues --    0.35098   0.35458   0.36217   0.36435   0.36671
 Alpha virt. eigenvalues --    0.37139   0.37447   0.37585   0.37785   0.38195
 Alpha virt. eigenvalues --    0.38429   0.38898   0.39262   0.39574   0.39709
 Alpha virt. eigenvalues --    0.39937   0.40490   0.40681   0.40954   0.41149
 Alpha virt. eigenvalues --    0.41396   0.41568   0.42199   0.42750   0.43109
 Alpha virt. eigenvalues --    0.43799   0.44089   0.44278   0.44576   0.45346
 Alpha virt. eigenvalues --    0.46165   0.46568   0.47526   0.48126   0.48941
 Alpha virt. eigenvalues --    0.49251   0.50635   0.51330   0.52125   0.52469
 Alpha virt. eigenvalues --    0.53378   0.53735   0.54736   0.55271   0.56405
 Alpha virt. eigenvalues --    0.57697   0.58578   0.58678   0.59061   0.59356
 Alpha virt. eigenvalues --    0.61309   0.61448   0.62169   0.62562   0.63315
 Alpha virt. eigenvalues --    0.64950   0.65454   0.67423   0.68074   0.68340
 Alpha virt. eigenvalues --    0.71375   0.74059   0.74149   0.74760   0.75064
 Alpha virt. eigenvalues --    0.75418   0.76002   0.76127   0.77109   0.79020
 Alpha virt. eigenvalues --    0.79040   0.80068   0.80419   0.80812   0.81301
 Alpha virt. eigenvalues --    0.81368   0.81726   0.81883   0.83503   0.83623
 Alpha virt. eigenvalues --    0.84713   0.86000   0.86695   0.87312   0.88524
 Alpha virt. eigenvalues --    0.89621   0.90212   0.91681   0.92073   0.92683
 Alpha virt. eigenvalues --    0.93952   0.94230   0.94632   0.95514   0.96781
 Alpha virt. eigenvalues --    0.97148   0.98545   1.00076   1.01461   1.02453
 Alpha virt. eigenvalues --    1.02631   1.03512   1.03708   1.04285   1.04864
 Alpha virt. eigenvalues --    1.05893   1.06404   1.06680   1.07225   1.09178
 Alpha virt. eigenvalues --    1.10139   1.10783   1.10873   1.12298   1.12465
 Alpha virt. eigenvalues --    1.13342   1.15005   1.17024   1.18040   1.18277
 Alpha virt. eigenvalues --    1.20439   1.20859   1.21722   1.22090   1.23035
 Alpha virt. eigenvalues --    1.23591   1.24223   1.24776   1.25566   1.26577
 Alpha virt. eigenvalues --    1.27653   1.29585   1.30166   1.33770   1.34349
 Alpha virt. eigenvalues --    1.35053   1.37006   1.37826   1.38332   1.39436
 Alpha virt. eigenvalues --    1.41778   1.42295   1.43977   1.45167   1.45708
 Alpha virt. eigenvalues --    1.45964   1.47022   1.49730   1.50461   1.50872
 Alpha virt. eigenvalues --    1.52100   1.52318   1.52335   1.52799   1.54276
 Alpha virt. eigenvalues --    1.54707   1.55156   1.55895   1.57520   1.60188
 Alpha virt. eigenvalues --    1.60700   1.61298   1.61672   1.62635   1.63065
 Alpha virt. eigenvalues --    1.63490   1.64036   1.64413   1.65593   1.68041
 Alpha virt. eigenvalues --    1.69182   1.71932   1.72282   1.73815   1.75457
 Alpha virt. eigenvalues --    1.75838   1.77836   1.78496   1.79402   1.79859
 Alpha virt. eigenvalues --    1.80479   1.81043   1.81935   1.83450   1.83607
 Alpha virt. eigenvalues --    1.84818   1.86458   1.86784   1.87780   1.88348
 Alpha virt. eigenvalues --    1.88399   1.88580   1.89391   1.89971   1.91204
 Alpha virt. eigenvalues --    1.91406   1.91489   1.91894   1.93375   1.93476
 Alpha virt. eigenvalues --    1.94469   1.94865   1.95153   1.96678   1.97674
 Alpha virt. eigenvalues --    1.98037   1.99199   2.00225   2.00529   2.00895
 Alpha virt. eigenvalues --    2.01021   2.01268   2.01332   2.01921   2.03225
 Alpha virt. eigenvalues --    2.03458   2.03609   2.03823   2.03982   2.04341
 Alpha virt. eigenvalues --    2.05109   2.06752   2.07141   2.07620   2.08137
 Alpha virt. eigenvalues --    2.08326   2.11134   2.11685   2.12007   2.12645
 Alpha virt. eigenvalues --    2.12831   2.13328   2.16537   2.17544   2.18158
 Alpha virt. eigenvalues --    2.19551   2.19732   2.20781   2.21131   2.21909
 Alpha virt. eigenvalues --    2.22999   2.25974   2.26143   2.26729   2.27438
 Alpha virt. eigenvalues --    2.27640   2.29782   2.31276   2.31472   2.32491
 Alpha virt. eigenvalues --    2.33460   2.34811   2.34876   2.35918   2.39455
 Alpha virt. eigenvalues --    2.40100   2.41758   2.42136   2.42543   2.43337
 Alpha virt. eigenvalues --    2.45509   2.45645   2.46905   2.51641   2.55134
 Alpha virt. eigenvalues --    2.59070   2.61362   2.63398   2.64218   2.67424
 Alpha virt. eigenvalues --    2.68338   2.69131   2.71556   2.72349   2.75351
 Alpha virt. eigenvalues --    2.76004   2.78946   2.80077   2.80330   2.82512
 Alpha virt. eigenvalues --    2.83672   2.85006   2.86453   2.87910   2.88206
 Alpha virt. eigenvalues --    2.89201   2.94982   2.98063   3.04311   3.08934
 Alpha virt. eigenvalues --    3.10803   3.19565   3.22168   3.23951   3.25586
 Alpha virt. eigenvalues --    3.33133   3.36376   3.40310   4.23325   4.26929
 Alpha virt. eigenvalues --    4.28941   4.31546   4.33605   4.38671   4.40430
 Alpha virt. eigenvalues --    4.40842   4.45420   4.48544   4.50321   4.50872
 Alpha virt. eigenvalues --    4.52612   4.55518   4.59365   4.64199   4.70665
 Alpha virt. eigenvalues --    4.76507   4.78119   4.83828   5.88299   5.89643
 Alpha virt. eigenvalues --    6.10922   6.40362   8.01014
          Condensed to atoms (all electrons):
               1          2          3          4          5          6
     1  C    5.876594  -0.246166   0.014733  -0.017572  -0.045253  -0.001139
     2  C   -0.246166   6.423518  -0.518992  -0.069205   0.203723   0.022539
     3  C    0.014733  -0.518992   6.961836   0.381342  -0.733954  -0.127136
     4  N   -0.017572  -0.069205   0.381342   7.842642   0.387656  -0.198973
     5  C   -0.045253   0.203723  -0.733954   0.387656   6.172086   0.627535
     6  O   -0.001139   0.022539  -0.127136  -0.198973   0.627535   8.360479
     7  N   -0.002582   0.016830  -0.182816  -0.389414   0.149880  -0.082861
     8  C   -0.003973   0.007480  -0.122797  -0.084654  -0.122782  -0.233180
     9  C   -0.004701   0.001774  -0.209151  -0.079811  -0.868527   0.326963
    10  C   -0.000015   0.005955  -0.007595  -0.055676   0.053680  -0.082176
    11  C   -0.000135   0.001137  -0.011044  -0.007216  -0.084003  -0.010000
    12  C    0.000088   0.000261   0.007961  -0.009005   0.050096  -0.029952
    13  C   -0.000222  -0.000132  -0.022483   0.002546  -0.334908   0.048036
    14  H    0.460303  -0.137137   0.029219   0.000316  -0.001705   0.000004
    15  H    0.418422  -0.066042  -0.009843   0.000192   0.000338  -0.000034
    16  H    0.417592  -0.066179  -0.008190   0.000183  -0.000202  -0.000034
    17  H   -0.036491   0.422948  -0.073938   0.006300  -0.003179  -0.000171
    18  H   -0.035557   0.423841  -0.075150   0.006394  -0.003272  -0.000158
    19  H   -0.006942  -0.055225   0.461423  -0.057242  -0.034919   0.001158
    20  H   -0.010179  -0.050622   0.451637  -0.057527  -0.027739   0.001209
    21  H    0.002025  -0.002056  -0.044310   0.171068   0.007822   0.004604
    22  H    0.000157   0.000279   0.007656   0.035984  -0.024895   0.003200
    23  H    0.000011  -0.000051   0.003144  -0.000261   0.024247   0.003380
    24  H   -0.000002   0.000049  -0.000796   0.000451  -0.018470   0.000110
    25  H    0.000000  -0.000000   0.000009   0.000002   0.001861   0.000005
    26  S   -0.000057   0.000185  -0.004263   0.000352  -0.061885   0.006018
    27  F    0.000000   0.000006  -0.000028   0.000026   0.000397  -0.001142
    28  F   -0.000000  -0.000001   0.000017  -0.000001   0.002244   0.000074
    29  F   -0.000000  -0.000001   0.000024  -0.000001   0.002474   0.000074
    30  Cl  -0.000000  -0.000002  -0.000223  -0.000098  -0.008374  -0.000142
    31  F    0.000000  -0.000000   0.000011   0.000001   0.000416  -0.000024
    32  F    0.000000  -0.000000   0.000007   0.000002  -0.000040   0.000027
    33  O    0.011571   0.011004  -0.010403  -0.031193   0.003384  -0.000148
    34  O   -0.000199  -0.002787   0.009354   0.005292   0.001895  -0.000134
    35  C   -0.005611  -0.009165   0.004353  -0.004691  -0.002697  -0.000796
    36  C    0.003976  -0.000048   0.014110  -0.010156  -0.012699  -0.000583
    37  C   -0.000632  -0.000363  -0.001400   0.002900   0.001008   0.000037
    38  H    0.000023   0.000051   0.000028  -0.000012  -0.000108  -0.000000
    39  H    0.000063   0.000213  -0.000033  -0.000080  -0.000067  -0.000000
    40  H    0.000000   0.000013  -0.000016  -0.000005  -0.000006  -0.000000
    41  H    0.000000   0.000002  -0.000005  -0.000002   0.000013   0.000000
    42  H    0.000000   0.000005  -0.000010  -0.000000  -0.000018  -0.000000
               7          8          9         10         11         12
     1  C   -0.002582  -0.003973  -0.004701  -0.000015  -0.000135   0.000088
     2  C    0.016830   0.007480   0.001774   0.005955   0.001137   0.000261
     3  C   -0.182816  -0.122797  -0.209151  -0.007595  -0.011044   0.007961
     4  N   -0.389414  -0.084654  -0.079811  -0.055676  -0.007216  -0.009005
     5  C    0.149880  -0.122782  -0.868527   0.053680  -0.084003   0.050096
     6  O   -0.082861  -0.233180   0.326963  -0.082176  -0.010000  -0.029952
     7  N    7.799122   0.116229   0.206107  -0.128999   0.019915  -0.102820
     8  C    0.116229  11.982465  -2.963599   0.451134  -1.065194   1.390453
     9  C    0.206107  -2.963599  13.122179  -2.645971  -0.521214  -4.371969
    10  C   -0.128999   0.451134  -2.645971   8.265384   0.949761  -0.651155
    11  C    0.019915  -1.065194  -0.521214   0.949761   8.512533  -1.036223
    12  C   -0.102820   1.390453  -4.371969  -0.651155  -1.036223  18.550099
    13  C    0.032060  -3.255932   3.698676  -0.175601  -0.961372  -7.074561
    14  H    0.000011  -0.000027  -0.000002  -0.000001  -0.000000   0.000000
    15  H    0.000012   0.000011  -0.000019   0.000003   0.000000   0.000000
    16  H    0.000013   0.000006  -0.000025   0.000004   0.000000   0.000000
    17  H   -0.000018  -0.000641  -0.000189   0.000214   0.000006   0.000002
    18  H   -0.000051  -0.000656  -0.000214   0.000220   0.000006   0.000002
    19  H   -0.000737  -0.000893  -0.001701   0.000092  -0.000013   0.000026
    20  H   -0.000106  -0.000301  -0.001857   0.000364   0.000007   0.000032
    21  H    0.027613   0.009509   0.000077   0.002183  -0.000109   0.000157
    22  H    0.159293   0.035537   0.036408  -0.059254  -0.009769  -0.007938
    23  H   -0.011495   0.017916   0.318440   0.020845  -0.023545   0.016344
    24  H   -0.003548  -0.073417  -0.025761   0.345442   0.010357   0.042794
    25  H    0.000213   0.010029   0.019170   0.019863   0.077113   0.227386
    26  S   -0.005068  -0.202121  -0.050693  -0.015543  -0.104930  -0.193125
    27  F    0.000255  -0.039596  -0.002591  -0.007036   0.007564  -0.114203
    28  F    0.000202   0.017595   0.017464   0.002248   0.028829   0.032307
    29  F    0.000236   0.014463   0.016865   0.002274   0.033741   0.026510
    30  Cl  -0.001846   0.013455   0.041816  -0.011186  -0.182595  -0.061357
    31  F    0.000030  -0.006649   0.004699  -0.001127   0.006155   0.034583
    32  F   -0.000063   0.020326   0.020069  -0.001273  -0.029195   0.109551
    33  O    0.008843  -0.006078  -0.000558  -0.000461  -0.001122   0.000275
    34  O   -0.009193  -0.103047  -0.000738   0.076804   0.015454  -0.001399
    35  C   -0.008244   0.023846  -0.012529  -0.017021  -0.002246   0.003814
    36  C   -0.007841  -0.023582  -0.007301   0.015395   0.002434   0.001219
    37  C    0.001330  -0.006841  -0.000808   0.004365   0.003342   0.000356
    38  H    0.000018  -0.000182  -0.000013   0.000126   0.000015   0.000001
    39  H    0.000031  -0.000134  -0.000009   0.000050   0.000002   0.000001
    40  H   -0.000002  -0.000303  -0.000015   0.000091   0.000183   0.000013
    41  H    0.000002   0.000017   0.000001  -0.000009  -0.000006  -0.000000
    42  H   -0.000009  -0.000231  -0.000012   0.000116   0.000131   0.000007
              13         14         15         16         17         18
     1  C   -0.000222   0.460303   0.418422   0.417592  -0.036491  -0.035557
     2  C   -0.000132  -0.137137  -0.066042  -0.066179   0.422948   0.423841
     3  C   -0.022483   0.029219  -0.009843  -0.008190  -0.073938  -0.075150
     4  N    0.002546   0.000316   0.000192   0.000183   0.006300   0.006394
     5  C   -0.334908  -0.001705   0.000338  -0.000202  -0.003179  -0.003272
     6  O    0.048036   0.000004  -0.000034  -0.000034  -0.000171  -0.000158
     7  N    0.032060   0.000011   0.000012   0.000013  -0.000018  -0.000051
     8  C   -3.255932  -0.000027   0.000011   0.000006  -0.000641  -0.000656
     9  C    3.698676  -0.000002  -0.000019  -0.000025  -0.000189  -0.000214
    10  C   -0.175601  -0.000001   0.000003   0.000004   0.000214   0.000220
    11  C   -0.961372  -0.000000   0.000000   0.000000   0.000006   0.000006
    12  C   -7.074561   0.000000   0.000000   0.000000   0.000002   0.000002
    13  C   14.578186  -0.000000   0.000000   0.000000  -0.000008  -0.000007
    14  H   -0.000000   0.498017  -0.025071  -0.025062  -0.003396  -0.003393
    15  H    0.000000  -0.025071   0.506519  -0.030088  -0.004688   0.003977
    16  H    0.000000  -0.025062  -0.030088   0.506060   0.003976  -0.004713
    17  H   -0.000008  -0.003396  -0.004688   0.003976   0.483341  -0.027021
    18  H   -0.000007  -0.003393   0.003977  -0.004713  -0.027021   0.480995
    19  H   -0.000062  -0.000063  -0.000362   0.002966   0.003863  -0.004982
    20  H   -0.000082  -0.000070   0.003003  -0.000346  -0.005204   0.003856
    21  H   -0.000364  -0.000001  -0.000001  -0.000001   0.000622   0.000643
    22  H    0.011291  -0.000000  -0.000000  -0.000000   0.000003   0.000003
    23  H   -0.076246   0.000000  -0.000000  -0.000000  -0.000000  -0.000000
    24  H    0.018063  -0.000000  -0.000000  -0.000000  -0.000000  -0.000000
    25  H   -0.047094   0.000000  -0.000000  -0.000000   0.000000   0.000000
    26  S    0.269931  -0.000000  -0.000000  -0.000000  -0.000000  -0.000000
    27  F    0.149237  -0.000000   0.000000   0.000000   0.000000  -0.000000
    28  F   -0.118502  -0.000000  -0.000000  -0.000000  -0.000000  -0.000000
    29  F   -0.119891  -0.000000  -0.000000  -0.000000  -0.000000  -0.000000
    30  Cl   0.008801  -0.000000   0.000000   0.000000  -0.000000  -0.000000
    31  F   -0.144154  -0.000000   0.000000   0.000000   0.000000   0.000000
    32  F   -0.124177  -0.000000   0.000000   0.000000  -0.000000  -0.000000
    33  O   -0.000554  -0.000040  -0.000010  -0.000007  -0.001968  -0.002112
    34  O    0.001614  -0.000000   0.000000   0.000000  -0.000005   0.000001
    35  C   -0.003983  -0.000136  -0.000004   0.000008  -0.000046  -0.000166
    36  C   -0.001816   0.000066  -0.000007  -0.000005  -0.000074  -0.000170
    37  C    0.000080  -0.000001   0.000000   0.000000  -0.000016  -0.000021
    38  H   -0.000001  -0.000000  -0.000000   0.000000  -0.000000   0.000000
    39  H   -0.000001  -0.000000   0.000000  -0.000000  -0.000000  -0.000000
    40  H   -0.000001   0.000000  -0.000000  -0.000000   0.000000  -0.000000
    41  H    0.000000   0.000000  -0.000000  -0.000000  -0.000000  -0.000000
    42  H    0.000000   0.000000  -0.000000  -0.000000  -0.000000   0.000000
              19         20         21         22         23         24
     1  C   -0.006942  -0.010179   0.002025   0.000157   0.000011  -0.000002
     2  C   -0.055225  -0.050622  -0.002056   0.000279  -0.000051   0.000049
     3  C    0.461423   0.451637  -0.044310   0.007656   0.003144  -0.000796
     4  N   -0.057242  -0.057527   0.171068   0.035984  -0.000261   0.000451
     5  C   -0.034919  -0.027739   0.007822  -0.024895   0.024247  -0.018470
     6  O    0.001158   0.001209   0.004604   0.003200   0.003380   0.000110
     7  N   -0.000737  -0.000106   0.027613   0.159293  -0.011495  -0.003548
     8  C   -0.000893  -0.000301   0.009509   0.035537   0.017916  -0.073417
     9  C   -0.001701  -0.001857   0.000077   0.036408   0.318440  -0.025761
    10  C    0.000092   0.000364   0.002183  -0.059254   0.020845   0.345442
    11  C   -0.000013   0.000007  -0.000109  -0.009769  -0.023545   0.010357
    12  C    0.000026   0.000032   0.000157  -0.007938   0.016344   0.042794
    13  C   -0.000062  -0.000082  -0.000364   0.011291  -0.076246   0.018063
    14  H   -0.000063  -0.000070  -0.000001  -0.000000   0.000000  -0.000000
    15  H   -0.000362   0.003003  -0.000001  -0.000000  -0.000000  -0.000000
    16  H    0.002966  -0.000346  -0.000001  -0.000000  -0.000000  -0.000000
    17  H    0.003863  -0.005204   0.000622   0.000003  -0.000000  -0.000000
    18  H   -0.004982   0.003856   0.000643   0.000003  -0.000000  -0.000000
    19  H    0.519200  -0.041381   0.001730   0.000003  -0.000001  -0.000000
    20  H   -0.041381   0.519394   0.001730   0.000004  -0.000001  -0.000000
    21  H    0.001730   0.001730   0.254275   0.004751  -0.000001   0.000008
    22  H    0.000003   0.000004   0.004751   0.268794  -0.000043   0.004689
    23  H   -0.000001  -0.000001  -0.000001  -0.000043   0.387714  -0.000087
    24  H   -0.000000  -0.000000   0.000008   0.004689  -0.000087   0.426983
    25  H   -0.000000  -0.000000  -0.000000   0.000000  -0.000121  -0.000129
    26  S   -0.000011  -0.000012  -0.000016   0.000364  -0.003050   0.002227
    27  F   -0.000000  -0.000000   0.000000  -0.000000   0.003946   0.000000
    28  F   -0.000000   0.000000  -0.000000   0.000000   0.000210   0.000001
    29  F    0.000000  -0.000000  -0.000000   0.000000   0.000163   0.000001
    30  Cl  -0.000000   0.000000   0.000004  -0.000023   0.000027   0.001822
    31  F   -0.000000  -0.000000   0.000000   0.000000   0.000162   0.000000
    32  F   -0.000000  -0.000000  -0.000000  -0.000000   0.000032   0.000002
    33  O   -0.000034  -0.000040   0.056368   0.000691   0.000001   0.000003
    34  O   -0.000006  -0.000005   0.000176   0.045042   0.000004  -0.001777
    35  C    0.000390   0.000332  -0.005004  -0.003417  -0.000053   0.000759
    36  C    0.000020   0.000016   0.006340   0.007208  -0.000004   0.001174
    37  C    0.000001   0.000001  -0.001197  -0.000780   0.000000  -0.000116
    38  H    0.000000  -0.000000  -0.000001  -0.000004   0.000000   0.000000
    39  H   -0.000000  -0.000000   0.000001  -0.000004   0.000000  -0.000000
    40  H   -0.000000   0.000000   0.000000  -0.000001   0.000000  -0.000000
    41  H   -0.000000  -0.000000   0.000000   0.000000  -0.000000   0.000000
    42  H    0.000000  -0.000000   0.000000  -0.000000   0.000000   0.000000
              25         26         27         28         29         30
     1  C    0.000000  -0.000057   0.000000  -0.000000  -0.000000  -0.000000
     2  C   -0.000000   0.000185   0.000006  -0.000001  -0.000001  -0.000002
     3  C    0.000009  -0.004263  -0.000028   0.000017   0.000024  -0.000223
     4  N    0.000002   0.000352   0.000026  -0.000001  -0.000001  -0.000098
     5  C    0.001861  -0.061885   0.000397   0.002244   0.002474  -0.008374
     6  O    0.000005   0.006018  -0.001142   0.000074   0.000074  -0.000142
     7  N    0.000213  -0.005068   0.000255   0.000202   0.000236  -0.001846
     8  C    0.010029  -0.202121  -0.039596   0.017595   0.014463   0.013455
     9  C    0.019170  -0.050693  -0.002591   0.017464   0.016865   0.041816
    10  C    0.019863  -0.015543  -0.007036   0.002248   0.002274  -0.011186
    11  C    0.077113  -0.104930   0.007564   0.028829   0.033741  -0.182595
    12  C    0.227386  -0.193125  -0.114203   0.032307   0.026510  -0.061357
    13  C   -0.047094   0.269931   0.149237  -0.118502  -0.119891   0.008801
    14  H    0.000000  -0.000000  -0.000000  -0.000000  -0.000000  -0.000000
    15  H   -0.000000  -0.000000   0.000000  -0.000000  -0.000000   0.000000
    16  H   -0.000000  -0.000000   0.000000  -0.000000  -0.000000   0.000000
    17  H    0.000000  -0.000000   0.000000  -0.000000  -0.000000  -0.000000
    18  H    0.000000  -0.000000  -0.000000  -0.000000  -0.000000  -0.000000
    19  H   -0.000000  -0.000011  -0.000000  -0.000000   0.000000  -0.000000
    20  H   -0.000000  -0.000012  -0.000000   0.000000  -0.000000   0.000000
    21  H   -0.000000  -0.000016   0.000000  -0.000000  -0.000000   0.000004
    22  H    0.000000   0.000364  -0.000000   0.000000   0.000000  -0.000023
    23  H   -0.000121  -0.003050   0.003946   0.000210   0.000163   0.000027
    24  H   -0.000129   0.002227   0.000000   0.000001   0.000001   0.001822
    25  H    0.431559  -0.006996   0.000087  -0.000094  -0.000106   0.000542
    26  S   -0.006996  13.925875   0.030623   0.002006   0.011759  -0.000114
    27  F    0.000087   0.030623   9.552790  -0.016436  -0.018057  -0.000259
    28  F   -0.000094   0.002006  -0.016436   9.502310  -0.015681  -0.000380
    29  F   -0.000106   0.011759  -0.018057  -0.015681   9.497744  -0.000369
    30  Cl   0.000542  -0.000114  -0.000259  -0.000380  -0.000369  16.991459
    31  F    0.000133   0.190626  -0.031055  -0.014657  -0.014884  -0.000005
    32  F    0.000321   0.020807  -0.035509  -0.015624  -0.014758  -0.000239
    33  O    0.000000  -0.000012   0.000000   0.000000   0.000000  -0.000015
    34  O    0.000000  -0.000011   0.000000   0.000000   0.000000  -0.000081
    35  C   -0.000001  -0.000121  -0.000002  -0.000001  -0.000001  -0.000408
    36  C    0.000000  -0.000026  -0.000000  -0.000000  -0.000000   0.000076
    37  C   -0.000000   0.000004  -0.000000   0.000000   0.000000  -0.000027
    38  H   -0.000000  -0.000000  -0.000000  -0.000000  -0.000000  -0.000000
    39  H   -0.000000  -0.000000  -0.000000  -0.000000  -0.000000  -0.000000
    40  H    0.000000  -0.000000  -0.000000  -0.000000  -0.000000  -0.000002
    41  H    0.000000   0.000000   0.000000   0.000000   0.000000   0.000000
    42  H    0.000000   0.000000  -0.000000  -0.000000   0.000000  -0.000001
              31         32         33         34         35         36
     1  C    0.000000   0.000000   0.011571  -0.000199  -0.005611   0.003976
     2  C   -0.000000  -0.000000   0.011004  -0.002787  -0.009165  -0.000048
     3  C    0.000011   0.000007  -0.010403   0.009354   0.004353   0.014110
     4  N    0.000001   0.000002  -0.031193   0.005292  -0.004691  -0.010156
     5  C    0.000416  -0.000040   0.003384   0.001895  -0.002697  -0.012699
     6  O   -0.000024   0.000027  -0.000148  -0.000134  -0.000796  -0.000583
     7  N    0.000030  -0.000063   0.008843  -0.009193  -0.008244  -0.007841
     8  C   -0.006649   0.020326  -0.006078  -0.103047   0.023846  -0.023582
     9  C    0.004699   0.020069  -0.000558  -0.000738  -0.012529  -0.007301
    10  C   -0.001127  -0.001273  -0.000461   0.076804  -0.017021   0.015395
    11  C    0.006155  -0.029195  -0.001122   0.015454  -0.002246   0.002434
    12  C    0.034583   0.109551   0.000275  -0.001399   0.003814   0.001219
    13  C   -0.144154  -0.124177  -0.000554   0.001614  -0.003983  -0.001816
    14  H   -0.000000  -0.000000  -0.000040  -0.000000  -0.000136   0.000066
    15  H    0.000000   0.000000  -0.000010   0.000000  -0.000004  -0.000007
    16  H    0.000000   0.000000  -0.000007   0.000000   0.000008  -0.000005
    17  H    0.000000  -0.000000  -0.001968  -0.000005  -0.000046  -0.000074
    18  H    0.000000  -0.000000  -0.002112   0.000001  -0.000166  -0.000170
    19  H   -0.000000  -0.000000  -0.000034  -0.000006   0.000390   0.000020
    20  H   -0.000000  -0.000000  -0.000040  -0.000005   0.000332   0.000016
    21  H    0.000000  -0.000000   0.056368   0.000176  -0.005004   0.006340
    22  H    0.000000  -0.000000   0.000691   0.045042  -0.003417   0.007208
    23  H    0.000162   0.000032   0.000001   0.000004  -0.000053  -0.000004
    24  H    0.000000   0.000002   0.000003  -0.001777   0.000759   0.001174
    25  H    0.000133   0.000321   0.000000   0.000000  -0.000001   0.000000
    26  S    0.190626   0.020807  -0.000012  -0.000011  -0.000121  -0.000026
    27  F   -0.031055  -0.035509   0.000000   0.000000  -0.000002  -0.000000
    28  F   -0.014657  -0.015624   0.000000   0.000000  -0.000001  -0.000000
    29  F   -0.014884  -0.014758   0.000000   0.000000  -0.000001  -0.000000
    30  Cl  -0.000005  -0.000239  -0.000015  -0.000081  -0.000408   0.000076
    31  F    9.434834  -0.029722   0.000000   0.000000  -0.000000  -0.000000
[...]
 .00356909,0.00316823,-0.09317041,-0.08675904,-0.21599035,-0.00026580,-
 0.00018653,-0.00107634,0.10365653,0.09394760,0.23366619,0.00000336,0.0
 0000540,0.00000048,-0.00000371,-0.00001195,0.00000152,0.00001664,-0.00
 000400,0.00001071,0.00007035,0.00008591,-0.00000073,-0.00020506,-0.000
 04226,0.00001540,0.00004887,0.00001906,-0.00000923,0.00009755,-0.00016
 039,-0.00001331,-0.00004459,-0.00004072,0.00000876,0.00001798,0.000007
 54,-0.00000277,0.00001772,0.00001182,-0.00001329,-0.00002606,0.0000301
 9,0.00000116,0.00001408,-0.00001737,-0.00000189,-0.00001758,-0.0000062
 9,-0.00000063,-0.00000300,-0.00000022,0.00000012,-0.00000224,0.0000014
 4,-0.00000177,-0.00000086,-0.00000073,0.00000002,0.00000406,0.00000333
 ,0.00000137,0.00000900,0.00000620,-0.00000230,-0.00000059,-0.00000029,
 0.00000141,-0.00000120,0.00000273,-0.00000467,0.00000221,-0.00017069,-
 0.00002366,-0.00004725,0.00020463,0.00000211,-0.00000648,-0.00000209,0
 .00000292,0.00000338,0.00003771,0.00001716,-0.00000013,0.00000037,0.00
 000225,-0.00001198,0.00004270,0.00002760,0.00000532,-0.00000922,0.0000
 0143,0.00000022,-0.00000796,-0.00000256,0.00001047,-0.00001218,-0.0000
 1414,0.00001405,-0.00002405,-0.00000278,0.00000115,-0.00000657,-0.0000
 0314,-0.00000555,-0.00000792,-0.00000882,0.00034922,0.00166067,-0.0005
 7181,0.00095169,-0.00128673,-0.00008876,-0.00230367,-0.00070126,-0.000
 45780,-0.12710351,-0.03736416,0.11728378,-0.01692508,-0.00783542,0.024
 78072,0.00797651,0.00442310,-0.01160417,0.14042867,0.00000314,0.000007
 09,-0.00000301,0.00001065,-0.00001968,0.00001658,-0.00005334,0.0000310
 1,0.00000773,0.00009933,0.00007561,0.00002938,-0.00039098,0.00007904,0
 .00002880,0.00012046,-0.00014966,-0.00002121,0.00007137,-0.00081173,0.
 00014169,0.00028400,0.00004322,-0.00000112,-0.00005394,-0.00005602,-0.
 00000384,-0.00011293,0.00008096,-0.00000060,0.00010071,-0.00004985,0.0
 0000238,-0.00005454,-0.00001703,-0.00000016,0.00001567,-0.00000521,-0.
 00000369,0.00000674,0.00000009,0.00000300,-0.00000181,0.00000240,-0.00
 000313,0.00000194,-0.00000479,-0.00000029,-0.00000239,0.00000050,-0.00
 000715,-0.00000398,0.00000256,-0.00000246,0.00000968,-0.00001153,-0.00
 000337,0.00001346,-0.00000305,-0.00000090,-0.00005031,-0.00000723,-0.0
 0011541,-0.00017897,0.00124494,-0.00030013,0.00000272,0.00000465,0.000
 00257,0.00011349,0.00003326,0.00000125,0.00000027,-0.00000462,0.000001
 40,0.00002534,0.00009513,0.00001717,0.00000418,-0.00002139,0.00000737,
 -0.00001885,-0.00001907,0.00001384,0.00000809,-0.00002410,-0.00001678,
 -0.00004052,0.00002706,-0.00000159,-0.00000425,-0.00001656,-0.00000168
 ,-0.00002263,-0.00001970,-0.00001828,0.00102644,0.00043848,-0.00390489
 ,-0.00108557,-0.00764472,-0.00293851,-0.01909608,-0.00590109,0.0305114
 6,-0.03713573,-0.06406500,0.05898274,0.00767598,0.00286106,-0.01077658
 ,0.00812808,0.00381986,-0.01152858,0.03916187,0.07003157,0.00000158,0.
 00000062,0.00000438,-0.00001098,0.00000680,-0.00002062,0.00007252,-0.0
 0002141,-0.00000250,-0.00006752,0.00004114,0.00000540,0.00016998,-0.00
 007551,-0.00000908,-0.00005359,0.00008952,0.00000184,-0.00002646,0.000
 25844,0.00000003,-0.00010235,-0.00000826,-0.00000201,0.00001271,0.0000
 2223,0.00000213,0.00004349,-0.00003619,0.00000085,-0.00004740,0.000006
 80,0.00000040,0.00002136,0.00001770,0.00000016,0.00000065,0.00000233,0
 .00000025,-0.00001537,-0.00000144,-0.00000337,0.00000132,-0.00000443,0
 .00000348,-0.00000126,0.00000225,-0.00000045,0.00000793,0.00000629,-0.
 00000315,0.00000865,0.00000761,0.00001505,-0.00001252,0.00000656,0.000
 00442,-0.00001377,0.00000035,-0.00000136,0.00002434,-0.00008220,0.0000
 1470,0.00003396,-0.00039602,0.00000576,0.00000101,-0.00000293,-0.00000
 164,-0.00004744,-0.00002476,-0.00000347,-0.00000066,0.00000123,-0.0000
 0107,-0.00002071,-0.00010465,-0.00001089,-0.00000550,0.00002252,-0.000
 00793,0.00001503,0.00001988,-0.00001042,-0.00000771,0.00002496,0.00001
 450,0.00001549,-0.00000241,0.00000135,0.00000432,0.00002107,0.00000090
 ,0.00001855,0.00002011,0.00001377,-0.00159693,0.00018817,0.00131700,-0
 .00068178,0.00098580,-0.00001886,0.00329059,-0.00265838,-0.00225786,0.
 11620449,0.05679309,-0.21477951,-0.00342810,-0.00172616,0.00449339,0.0
 1452890,0.00773169,-0.02187601,-0.12792335,-0.06063716,0.23092152,0.00
 000171,0.00000131,-0.00000363,0.00000180,-0.00000492,0.00001706,-0.000
 01123,0.00000503,0.00000464,0.00003166,0.00006743,-0.00002965,-0.00010
 501,0.00000703,0.00001791,0.00002786,-0.00000553,-0.00000860,0.0000102
 2,-0.00008476,-0.00001600,0.00003256,0.00000180,-0.00000242,-0.0000065
 3,-0.00000144,0.00000137,-0.00001975,0.00001073,-0.00000826,0.00004666
 ,-0.00002415,-0.00000418,-0.00001439,0.00000200,0.00000174,0.00000208,
 -0.00000079,-0.00000309,0.00000377,-0.00000027,0.00000242,-0.00000272,
 0.00000456,-0.00000289,0.00000027,-0.00000149,0.00000002,-0.00000227,-
 0.00000430,0.00000181,0.00000079,-0.00000185,-0.00001193,0.00000223,-0
 .00000176,-0.00000166,0.00000129,0.00000587,-0.00000193,-0.00000098,-0
 .00008132,0.00001860,0.00000623,0.00014321,0.00001107,-0.00000093,0.00
 000051,0.00000290,0.00003160,0.00002474,0.00002658,0.00000025,-0.00000
 177,0.00000179,0.00000785,0.00002471,0.00002515,-0.00000235,-0.0000036
 3,-0.00000459,-0.00000193,-0.00000462,-0.00000271,0.00000301,-0.000006
 07,-0.00000726,-0.00001185,0.00002834,-0.00000141,-0.00000152,-0.00000
 546,-0.00000283,-0.00000698,-0.00000473,-0.00000755,0.00080285,0.00048
 317,-0.00036922,0.00130135,0.00062434,-0.00059311,-0.00144117,-0.00213
 735,0.00074427,-0.01801234,-0.00780543,0.02642190,-0.12841134,-0.03771
 899,0.11918891,0.00112199,-0.00077150,-0.00019352,-0.00562507,0.002835
 35,-0.00139645,0.14216393,0.00000133,-0.00000237,-0.00000049,-0.000003
 16,0.00000413,0.00000256,0.00004663,-0.00001874,-0.00000056,-0.0000523
 1,0.00004452,-0.00000114,0.00013237,-0.00008778,-0.00000243,-0.0000414
 3,0.00009316,0.00000012,-0.00002736,0.00022991,-0.00001054,-0.00005121
 ,0.00001980,-0.00000151,-0.00000590,0.00001838,0.00000023,0.00002734,-
 0.00006060,0.00001255,-0.00006987,0.00000699,0.00000103,0.00002392,0.0
 0002456,-0.00000403,0.00001257,0.00000647,0.00000170,-0.00000548,-0.00
 000159,0.00000011,-0.00000106,0.00000226,-0.00000101,-0.00000133,0.000
 00199,0.00000091,0.00000378,-0.00000037,0.00000461,0.00000459,-0.00000
 100,-0.00000468,-0.00000919,0.00000703,0.00000354,-0.00000801,0.000006
 70,-0.00000322,0.00003033,-0.00010886,0.00000840,0.00001081,-0.0003793
 1,0.00001328,0.00000217,-0.00000073,-0.00000107,-0.00004259,-0.0000933
 4,-0.00002910,-0.00000065,0.00000358,-0.00000059,-0.00003567,-0.000126
 35,0.00000202,-0.00000708,0.00002805,-0.00001323,0.00002320,0.00002399
 ,-0.00001824,-0.00000695,0.00002927,0.00001424,0.00003579,0.00001411,0
 .00000489,0.00000600,0.00002314,-0.00000067,0.00002454,0.00002430,0.00
 001563,-0.00076223,0.00014770,0.00010994,0.00002368,0.00005085,0.00000
 035,0.00127478,0.00034812,-0.00085435,0.00623774,0.00306112,-0.0101471
 7,-0.03898270,-0.06504793,0.05640899,-0.00071312,0.00031891,0.00017453
 ,0.00251488,-0.00060080,0.00016310,0.04014043,0.06612299,-0.00000182,-
 0.00000303,0.00000092,-0.00000233,0.00001047,-0.00000645,0.00001963,-0
 .00000904,-0.00000359,-0.00007701,-0.00006484,0.00001775,0.00017889,-0
 .00002281,-0.00000951,-0.00004768,0.00001535,0.00000557,-0.00012172,0.
 00006316,0.00001377,0.00011252,0.00006882,-0.00000620,-0.00004581,-0.0
 0001182,0.00000252,-0.00004502,-0.00002251,0.00000635,0.00005190,-0.00
 006550,0.00000570,-0.00002668,0.00003851,-0.00000140,0.00003465,0.0000
 0936,0.00000178,-0.00000377,-0.00000019,-0.00000093,0.00000130,-0.0000
 0161,0.00000228,0.00000001,0.00000122,-0.00000059,0.00000117,0.0000007
 7,-0.00000036,0.00000039,-0.00000207,0.00000436,-0.00000571,0.00000363
 ,0.00000087,-0.00000365,-0.00000055,0.00000160,0.00001442,0.00005202,-
 0.00001589,-0.00000460,-0.00011268,-0.00001864,0.00000978,0.00000327,-
 0.00000250,0.00000971,-0.00011048,-0.00001600,-0.00000037,-0.00000122,
 -0.00000210,0.00000445,-0.00011290,-0.00002074,-0.00001263,0.00002548,
 -0.00001149,0.00000896,0.00002092,-0.00000611,-0.00001609,0.00002850,0
 .00002189,-0.00002744,0.00005102,0.00000016,0.00000076,0.00002010,0.00
 000205,0.00001419,0.00002085,0.00001384,-0.00049926,-0.00055263,-0.000
 00537,-0.00144523,0.00000341,0.00034968,0.00172549,0.00162534,-0.00011
 460,-0.00275626,-0.00183962,0.00386817,0.12011478,0.05463239,-0.224729
 38,0.00040942,-0.00040371,0.00077118,-0.00105853,0.00054366,0.00138220
 ,-0.13049693,-0.06162552,0.24056807,0.00000864,0.00000505,-0.00000212,
 -0.00000941,-0.00001004,0.00000655,0.00008021,-0.00001429,-0.00000456,
 0.00008262,0.00042233,-0.00002653,-0.00028020,-0.00011623,0.00000076,0
 .00006054,0.00014290,-0.00000321,0.00016272,0.00007992,-0.00000432,-0.
 00018064,-0.00007977,0.00000128,0.00004661,0.00004069,-0.00000136,0.00
 006320,-0.00000194,0.00000432,-0.00003207,0.00003279,-0.00000212,0.000
 03170,-0.00000796,0.00000045,-0.00002874,-0.00000859,0.00000046,-0.000
 00723,-0.00000277,-0.00000025,-0.00000577,0.00000561,-0.00000286,-0.00
 000492,0.00000524,0.00000317,0.00000841,-0.00000282,0.00001911,0.00001
 482,-0.00000360,-0.00002123,-0.00001320,0.00001483,0.00000690,-0.00001
 458,0.00001655,-0.00000679,0.00002925,-0.00062227,0.00004733,-0.000014
 16,-0.00014271,0.00001277,-0.00001161,-0.00000641,-0.00000010,-0.00003
 754,0.00003892,-0.00000655,0.00000003,-0.00000019,-0.00000019,-0.00001
 758,0.00000246,-0.00000263,0.00000506,-0.00000079,0.00000273,0.0000034
 8,0.00000002,-0.00000189,0.00000420,-0.00000055,-0.00000134,0.00001327
 ,-0.00002639,0.00000123,0.00000236,0.00000118,0.00000023,0.00000426,0.
 00000024,0.00000287,-0.00154865,0.00383343,-0.00027688,0.00205997,0.00
 015285,0.00005251,-0.00659694,-0.00388281,-0.00003963,0.00117179,0.034
 57093,-0.00314371,-0.04818228,-0.00186362,0.00024212,0.00129196,-0.000
 74073,-0.00023066,0.00120760,-0.00064548,0.00055911,-0.00019714,-0.017
 79633,-0.00065320,0.05153258,-0.00000949,-0.00000123,0.00000213,0.0000
 0889,0.00000549,-0.00000718,-0.00012686,0.00004100,0.00000261,0.000011
 98,-0.00035896,0.00002611,0.00002881,0.00025659,-0.00001238,0.00001589
 ,-0.00026457,0.00001040,-0.00012197,-0.00040518,0.00002360,0.00025229,
 0.00005095,-0.00000794,-0.00003836,-0.00006528,0.00000343,-0.00010476,
 0.00007703,0.00000500,0.00012600,-0.00002864,0.00000044,-0.00006281,-0
 .00003142,0.00000095,0.00001175,0.00000129,0.00000004,0.00001220,0.000
 00608,0.00000021,0.00000710,-0.00000919,0.00000579,0.00000600,-0.00000
 824,-0.00000603,-0.00000998,0.00000219,-0.00002370,-0.00001880,0.00000
 369,0.00002667,0.00002130,-0.00002148,-0.00001242,0.00002179,-0.000023
 97,0.00001214,-0.00009486,0.00061141,-0.00004778,0.00001493,0.00070177
 ,-0.00003994,0.00000829,0.00000798,-0.00000026,0.00009053,0.00008664,-
 0.00001583,0.00000166,-0.00000352,0.00000021,0.00007977,0.00020671,-0.
 00000924,0.00000643,-0.00004515,0.00001965,-0.00004180,-0.00003957,0.0
 0003265,0.00000469,-0.00004721,-0.00001859,-0.00005256,0.00001376,0.00
 000023,-0.00001326,-0.00004194,0.00000181,-0.00004378,-0.00004063,-0.0
 0002641,0.00190353,-0.00207394,0.00013574,0.00101136,-0.00115800,0.000
 21477,0.00006507,0.00254539,0.00001691,-0.00232599,-0.00971291,0.00067
 200,-0.00126127,-0.31090415,0.02299057,0.00016688,0.00043468,0.0004536
 7,0.00023664,0.00026504,-0.00047279,-0.00019246,-0.00712788,0.00022128
 ,0.00047891,0.33900399,0.00000153,0.00000053,-0.00000093,-0.00000145,-
 0.00000122,0.00000519,0.00001640,-0.00000445,-0.00000004,0.00000592,0.
 00006252,-0.00000156,-0.00002218,-0.00003202,-0.00000290,0.00000249,0.
 00003592,0.00000002,0.00002627,0.00005477,0.00001073,-0.00003767,-0.00
 000765,-0.00000056,0.00000709,0.00001010,-0.00000131,0.00001405,-0.000
 00933,0.00001133,-0.00001328,0.00000540,0.00000398,0.00000854,0.000002
 75,-0.00000298,-0.00000329,-0.00000028,0.00000111,-0.00000151,-0.00000
 072,0.00000092,-0.00000111,0.00000202,-0.00000120,-0.00000090,0.000000
 28,0.00000039,0.00000193,-0.00000025,0.00000258,0.00000241,-0.00000093
 ,-0.00000490,-0.00000314,0.00000276,0.00000130,-0.00000271,0.00000379,
 -0.00000175,0.00001166,-0.00010469,0.00000641,-0.00000817,-0.00009781,
 -0.00000654,-0.00000166,-0.00000096,-0.00000058,-0.00001287,-0.0000170
 8,-0.00003865,-0.00000009,0.00000043,-0.00000044,-0.00000846,-0.000016
 96,-0.00000217,0.00000008,0.00000378,-0.00000100,0.00000380,0.00000340
 ,-0.00000255,-0.00000040,0.00000397,0.00000221,0.00000644,-0.00000188,
 0.00000404,0.00000132,0.00000337,0.00000014,0.00000455,0.00000341,0.00
 000323,-0.00034248,0.00042311,-0.00000016,-0.00012916,0.00033128,0.000
 60191,-0.00028603,-0.00022188,0.00059236,0.00049569,0.00292576,-0.0013
 2218,0.00008556,0.02287126,-0.05261965,0.00022881,0.00028142,-0.000059
 98,-0.00009897,-0.00039568,0.00011023,-0.00146156,0.02686514,-0.001013
 78,0.00039981,-0.02580560,0.04979216,0.00000214,0.00000030,0.00000258,
 0.00000068,-0.00000244,-0.00001300,0.00000337,-0.00000326,-0.00000891,
 0.00001217,0.00007658,0.00002436,-0.00005404,-0.00002391,-0.00002122,0
 .00001161,0.00002497,0.00000835,-0.00000596,-0.00000888,0.00002582,0.0
 0002822,0.00001158,-0.00000198,-0.00001094,0.00000199,0.00000078,-0.00
 001511,-0.00000198,-0.00000136,0.00003716,-0.00003091,0.00000347,-0.00
 001165,0.00001211,-0.00000173,0.00000834,0.00000141,0.00000371,0.00000
 266,-0.00000073,-0.00000190,-0.00000060,0.00000008,-0.00000048,-0.0000
 0341,0.00000532,0.00000338,0.00000110,-0.00000224,0.00001470,-0.000000
 21,-0.00000628,-0.00000689,-0.00000155,0.00000872,0.00000348,-0.000000
 69,0.00000159,0.00000059,0.00000802,-0.00011131,-0.00001002,0.00000207
 ,0.00001512,-0.00002084,0.00000041,0.00000022,-0.00000294,0.00001661,-
 0.00000845,-0.00000557,0.,-0.00000147,-0.00000099,0.00000200,-0.000023
 79,-0.00002151,-0.00000088,0.00000504,0.00000096,0.00000047,0.00000428
 ,0.00000157,-0.00000609,0.00000731,0.00000995,-0.00001304,0.00002930,-
 0.00000435,-0.00000005,0.00000398,0.00000244,0.00000371,0.00000455,0.0
 0000597,0.00038910,0.00048298,0.00031401,0.00100304,0.00051161,0.00053
 277,-0.00070318,-0.00200993,-0.00016253,-0.01443259,-0.01242119,-0.026
 87843,-0.09895674,-0.04678618,-0.09569889,-0.00577186,0.00294905,-0.00
 019199,0.00108351,-0.00076666,0.00042384,0.00827352,0.00804675,0.01463
 932,-0.00070260,-0.00007367,0.00111276,0.10980127,0.00000142,-0.000001
 90,-0.00000092,-0.00000222,0.00000223,0.00000030,0.00003969,-0.0000154
 9,-0.00000032,-0.00003334,0.00005726,-0.00000650,0.00008521,-0.0000765
 9,0.00000936,-0.00002859,0.00008279,-0.00000450,0.00000290,0.00020012,
 -0.00000755,-0.00007305,0.00000053,-0.00000509,0.00000623,0.00001852,0
 .00000217,0.00003521,-0.00004810,-0.00001333,-0.00006928,0.00001556,-0
 .00000044,0.00002545,0.00001555,0.00000261,0.00000364,0.00000324,-0.00
 000116,-0.00000418,-0.00000141,-0.00000048,-0.00000137,0.00000175,-0.0
 0000084,-0.00000099,0.00000234,0.00000152,0.00000188,-0.00000013,0.000
 00460,0.00000483,-0.00000073,-0.00000463,-0.00000688,0.00000609,0.0000
 0346,-0.00000737,0.00000612,-0.00000303,0.00002766,-0.00011232,0.00000
 801,0.00000685,-0.00033333,0.00000439,-0.00000037,-0.00000168,0.000000
 28,-0.00003801,-0.00004589,0.00004206,-0.00000052,0.00000302,-0.000000
 49,-0.00003217,-0.00009201,-0.00000099,-0.00000377,0.00001997,-0.00000
 859,0.00001776,0.00001741,-0.00001331,-0.00000353,0.00002129,0.0000097
 7,0.00003179,-0.00000187,-0.00000464,0.00000520,0.00001727,-0.00000015
 ,0.00001997,0.00001793,0.00001299,-0.00049066,0.00021198,-0.00017868,-
 0.00049208,-0.00080109,-0.00052822,0.00084316,0.00024354,0.00086839,0.
 00521467,0.00489913,0.01052175,-0.04755075,-0.08997429,-0.08787681,0.0
 0254548,-0.00047256,0.00059147,-0.00074374,0.00030931,-0.00018557,0.00
 445402,0.00299562,0.00750320,-0.01386857,-0.01190860,-0.02717775,0.050
 07843,0.09471942,0.00000244,0.00000329,0.00000084,0.00000245,-0.000011
 36,-0.00000539,-0.00002041,0.00000854,-0.00000678,0.00008266,0.0000842
 9,0.00001682,-0.00019847,0.00001739,-0.00001653,0.00005172,-0.00001022
 ,0.00000872,0.00012884,-0.00006021,0.00002280,-0.00010882,-0.00006515,
 -0.00000550,0.00004431,0.00001438,0.00000055,0.00003880,0.00002426,0.0
 0003023,-0.00003159,0.00005708,0.00000295,0.00002216,-0.00003523,-0.00
 000039,-0.00003408,-0.00000917,0.00000298,0.00000474,0.00000012,-0.000
 00060,-0.00000058,-0.00000027,-0.00000126,-0.00000193,0.00000196,0.000
 00276,-0.00000026,0.00000087,0.00000691,-0.00000137,-0.00000161,-0.000
 00350,0.00000422,0.00000150,0.00000193,0.00000472,-0.00000191,0.000000
 36,-0.00001120,-0.00008004,-0.00000867,-0.00000376,0.00010485,-0.00002
 827,-0.00000987,-0.00000318,-0.00000274,-0.00000598,0.00009455,-0.0000
 7361,0.00000042,0.00000033,-0.00000303,-0.00000109,0.00011243,-0.00003
 939,0.00001742,-0.00002730,0.00002330,-0.00001622,-0.00002039,0.000020
 08,0.00000981,-0.00002569,-0.00000798,0.00001839,-0.00004420,0.0000084
 3,-0.00000121,-0.00002024,0.00000481,-0.00000874,-0.00002112,-0.000001
 26,0.00054594,0.00060116,-0.00011818,0.00170443,-0.00007571,0.00062193
 ,-0.00180370,-0.00180236,0.00008928,-0.00043016,-0.00002453,-0.0014226
 6,-0.09652372,-0.08637053,-0.22760798,-0.00035282,0.00023181,0.0014955
 5,-0.00024985,0.00037519,0.00069646,-0.01185677,-0.01108832,-0.0210551
 1,0.00306842,0.00162709,0.00393560,0.10592071,0.09643767,0.24341554\\-
 0.00000312,-0.00000155,-0.00000480,0.00000333,-0.00000533,-0.00000420,
 0.00000118,-0.00000005,-0.00000178,-0.00000036,0.00000085,-0.00000476,
 0.00000770,-0.00001675,0.00000061,-0.00000205,0.00001058,-0.00000339,-
 0.00000251,-0.00000333,-0.00000025,-0.00000207,-0.00000229,-0.00000041
 ,-0.00000120,-0.00000212,-0.00000115,-0.00001013,0.00000651,0.00000327
 ,0.00000477,0.00000446,0.00000319,0.00000572,-0.00000322,0.00000269,-0
 .00000882,-0.00000245,-0.00000084,0.00000063,-0.00000318,-0.00000640,0
 .00000103,-0.00000354,-0.00000619,-0.00000077,-0.00000305,-0.00000657,
 0.00000053,-0.00000255,-0.00000244,-0.00000021,0.00000002,-0.00000274,
 -0.00000131,-0.00000025,-0.00000552,-0.00000075,-0.00000399,-0.0000051
 1,-0.00000127,-0.00000314,-0.00000042,0.00000101,0.00000728,0.00000139
 ,-0.00000096,0.00000320,-0.00000126,0.00000334,-0.00000021,0.00000345,
 -0.00000210,0.00000457,0.00000284,0.00000152,0.00000938,-0.00000874,0.
 00000120,0.00000018,-0.00000305,-0.00000627,0.00000289,0.00000494,-0.0
 0000792,0.00000076,0.00000188,-0.00000100,0.00000161,0.00000585,-0.000
 00181,-0.00000488,-0.00000529,0.00000148,0.00000347,0.00000295,0.00000
 663,0.00000278,-0.00000193,0.00001272,0.00000566,0.00000271,-0.0000139
 2,-0.00001430,0.00000431,0.00000175,0.00001215,-0.00000035,0.00000603,
 -0.00000080,0.00000636,0.00000179,-0.00000344,0.00000640,0.00000209,-0
 .00000029,0.00000536,0.00000265,0.00000163,0.00000706,0.00000117,0.000
 00138,0.00000609,0.00000029,0.00000133,0.00000623\\\@


 RESEARCH IS WHAT I AM DOING WHEN I DON'T KNOW WHAT I AM DOING.
     -- WERNER VON BRAUN
 Job cpu time:       0 days  9 hours 13 minutes 59.9 seconds.
 File lengths (MBytes):  RWF=   1485 Int=      0 D2E=      0 Chk=     34 Scr=      1
 Normal termination of Gaussian 09 at Tue Feb 19 14:06:31 2019.
WARNING: pbs_rusage is deprecated and values produced may not be accurate


=============================================================================
                                     Resource usage:
                                       CPU time:              27:53:34
   JobId:    5878581.r-man2            Elapsed time:          03:30:45
   Project:             q95            Requested time:        50:00:00
   Service Units:     28.10 
                                       Max physical memory:     1575MB
                                       Max virtual memory:      3532MB
                                       Requested memory:           0MB

                                       Number of cpus:               8

                                       Max jobfs disk use:       1.5GB
                                       Requested jobfs:         24.0GB
=============================================================================

