 Entering Gaussian System, Link 0=/apps/gaussian/g09e01/g09/g09
 AtFile(1): /home/507/hio507/Basis/6-31pGd.gbs
 Initial command:
 /apps/gaussian/g09e01/g09/l1.exe "/jobfs/local/1827492.r-man2/Gau-18698.inp" -scrdir="/jobfs/local/1827492.r-man2/"
 Entering Link 1 = /apps/gaussian/g09e01/g09/l1.exe PID=     18699.
  
 Copyright (c) 1988,1990,1992,1993,1995,1998,2003,2009,2015,
            Gaussian, Inc.  All Rights Reserved.
  
 This is part of the Gaussian(R) 09 program.  It is based on
 the Gaussian(R) 03 system (copyright 2003, Gaussian, Inc.),
 the Gaussian(R) 98 system (copyright 1998, Gaussian, Inc.),
 the Gaussian(R) 94 system (copyright 1995, Gaussian, Inc.),
 the Gaussian 92(TM) system (copyright 1992, Gaussian, Inc.),
 the Gaussian 90(TM) system (copyright 1990, Gaussian, Inc.),
 the Gaussian 88(TM) system (copyright 1988, Gaussian, Inc.),
 the Gaussian 86(TM) system (copyright 1986, Carnegie Mellon
 University), and the Gaussian 82(TM) system (copyright 1983,
 Carnegie Mellon University). Gaussian is a federally registered
 trademark of Gaussian, Inc.
  
 This software contains proprietary and confidential information,
 including trade secrets, belonging to Gaussian, Inc.
  
 This software is provided under written license and may be
 used, copied, transmitted, or stored only in accord with that
 written license.
  
 The following legend is applicable only to US Government
 contracts under FAR:
  
                    RESTRICTED RIGHTS LEGEND
  
 Use, reproduction and disclosure by the US Government is
 subject to restrictions as set forth in subparagraphs (a)
 and (c) of the Commercial Computer Software - Restricted
 Rights clause in FAR 52.227-19.
  
 Gaussian, Inc.
 340 Quinnipiac St., Bldg. 40, Wallingford CT 06492
  
  
 ---------------------------------------------------------------
 Warning -- This program may not be used in any manner that
 competes with the business of Gaussian, Inc. or will provide
 assistance to any competitor of Gaussian, Inc.  The licensee
 of this program is prohibited from giving any competitor of
 Gaussian, Inc. access to this program.  By using this program,
 the user acknowledges that Gaussian, Inc. is engaged in the
 business of creating and licensing software in the field of
 computational chemistry and represents and warrants to the
 licensee that it is not a competitor of Gaussian, Inc. and that
 it will not use this program in any manner prohibited above.
 ---------------------------------------------------------------
  

 Cite this work as:
 Gaussian 09, Revision E.01,
 M. J. Frisch, G. W. Trucks, H. B. Schlegel, G. E. Scuseria, 
 M. A. Robb, J. R. Cheeseman, G. Scalmani, V. Barone, B. Mennucci, 
 G. A. Petersson, H. Nakatsuji, M. Caricato, X. Li, H. P. Hratchian, 
 A. F. Izmaylov, J. Bloino, G. Zheng, J. L. Sonnenberg, M. Hada, 
 M. Ehara, K. Toyota, R. Fukuda, J. Hasegawa, M. Ishida, T. Nakajima, 
 Y. Honda, O. Kitao, H. Nakai, T. Vreven, J. A. Montgomery, Jr., 
 J. E. Peralta, F. Ogliaro, M. Bearpark, J. J. Heyd, E. Brothers, 
 K. N. Kudin, V. N. Staroverov, T. Keith, R. Kobayashi, J. Normand, 
 K. Raghavachari, A. Rendell, J. C. Burant, S. S. Iyengar, J. Tomasi, 
 M. Cossi, N. Rega, J. M. Millam, M. Klene, J. E. Knox, J. B. Cross, 
 V. Bakken, C. Adamo, J. Jaramillo, R. Gomperts, R. E. Stratmann, 
 O. Yazyev, A. J. Austin, R. Cammi, C. Pomelli, J. W. Ochterski, 
 R. L. Martin, K. Morokuma, V. G. Zakrzewski, G. A. Voth, 
 P. Salvador, J. J. Dannenberg, S. Dapprich, A. D. Daniels, 
 O. Farkas, J. B. Foresman, J. V. Ortiz, J. Cioslowski, 
 and D. J. Fox, Gaussian, Inc., Wallingford CT, 2013.
 
 ******************************************
 Gaussian 09:  ES64L-G09RevE.01 30-Nov-2015
                30-Oct-2018 
 ******************************************
 %chk=3Chloro4TFM_a1.M062X_6-31pGd_opt_water.chk
 ----------------------------------------------------------------------
 # M062X/Gen 6D SCF=Tight INT(grid=ultrafine) OPT IOP(2/17=4) SCRF=(SMD
 ,Solvent=h2o)
 ----------------------------------------------------------------------
 1/14=-1,18=20,19=15,26=4,38=1/1,3;
 2/9=110,12=2,17=4,18=5,40=1/2;
 3/5=7,8=2,11=2,16=1,25=1,30=1,70=32201,71=1,72=1,74=-55,75=-5/1,2,3;
 4//1;
 5/5=2,32=2,38=5,53=1/2;
 6/7=2,8=2,9=2,10=2,28=1/1;
 7//1,2,3,16;
 1/14=-1,18=20,19=15,26=4/3(2);
 2/9=110,17=4/2;
 99//99;
 2/9=110,17=4/2;
 3/5=7,6=1,8=2,11=2,16=1,25=1,30=1,70=32205,71=1,72=1,74=-55,75=-5,82=7/1,2,3;
 4/5=5,16=3,69=1/1;
 5/5=2,32=2,38=5,53=1/2;
 7//1,2,3,16;
 1/14=-1,18=20,19=15,26=4/3(-5);
 2/9=110,17=4/2;
 6/7=2,8=2,9=2,10=2,19=2,28=1/1;
 99/9=1/99;
 --------------------------------------
 3Chloro4TFM_a1.M062X_6-31pGd_opt_water
 --------------------------------------
 Symbolic Z-matrix:
 Charge = -1 Multiplicity = 1
 C                    -2.00641   1.87865  -0.08 
 C                    -0.65796   1.1699    0.00801 
 C                     0.50072   2.17233  -0.04519 
 N                     1.78183   1.4925    0.03905 
 C                     2.96184   2.17458   0.00873 
 O                     2.94464   3.39085  -0.09197 
 N                     4.14094   1.48328   0.09198 
 C                     5.4816    2.00887   0.07546 
 C                     5.80609   3.37977  -0.04312 
 C                     6.54063   1.09353   0.18363 
 C                     7.86833   1.51697   0.17528 
 C                     8.19612   2.87605   0.05779 
 C                     7.14023   3.81569  -0.05278 
 H                    -2.82432   1.12874  -0.03995 
 H                    -2.08566   2.44072  -1.03494 
 H                    -2.12822   2.58363   0.76984 
 H                    -0.56964   0.45643  -0.84016 
 H                    -0.61172   0.59981   0.96143 
 H                     0.40768   2.88472   0.80422 
 H                     0.44923   2.73947  -1.00088 
 H                     1.79847   0.46386   0.12355 
 H                     5.05846   4.14562  -0.13146 
 H                     6.33814   0.03356   0.27625 
 H                     8.65094   0.77237   0.26159 
 Cl                    7.3956    5.5535   -0.20733 
 C                     9.67229   3.22826   0.05882 
 F                     9.92205   4.5802   -0.06035 
 F                     10.29272   2.58504  -0.9972 
 F                     10.2419   2.7917    1.24152 
 

 GradGradGradGradGradGradGradGradGradGradGradGradGradGradGradGradGradGrad
 Berny optimization.
 Initialization pass.
                           ----------------------------
                           !    Initial Parameters    !
                           ! (Angstroms and Degrees)  !
 --------------------------                            --------------------------
 ! Name  Definition              Value          Derivative Info.                !
 --------------------------------------------------------------------------------
 ! R1    R(1,2)                  1.5259         estimate D2E/DX2                !
 ! R2    R(1,14)                 1.1104         estimate D2E/DX2                !
 ! R3    R(1,15)                 1.1109         estimate D2E/DX2                !
 ! R4    R(1,16)                 1.1109         estimate D2E/DX2                !
 ! R5    R(2,3)                  1.533          estimate D2E/DX2                !
 ! R6    R(2,17)                 1.1119         estimate D2E/DX2                !
 ! R7    R(2,18)                 1.1118         estimate D2E/DX2                !
 ! R8    R(3,4)                  1.4528         estimate D2E/DX2                !
 ! R9    R(3,19)                 1.1125         estimate D2E/DX2                !
 ! R10   R(3,20)                 1.1125         estimate D2E/DX2                !
 ! R11   R(4,5)                  1.3633         estimate D2E/DX2                !
 ! R12   R(4,21)                 1.0322         estimate D2E/DX2                !
 ! R13   R(5,6)                  1.2206         estimate D2E/DX2                !
 ! R14   R(5,7)                  1.3693         estimate D2E/DX2                !
 ! R15   R(7,8)                  1.4401         estimate D2E/DX2                !
 ! R16   R(8,9)                  1.4138         estimate D2E/DX2                !
 ! R17   R(8,10)                 1.404          estimate D2E/DX2                !
 ! R18   R(9,13)                 1.4036         estimate D2E/DX2                !
 ! R19   R(9,22)                 1.0739         estimate D2E/DX2                !
 ! R20   R(10,11)                1.3936         estimate D2E/DX2                !
 ! R21   R(10,23)                1.0831         estimate D2E/DX2                !
 ! R22   R(11,12)                1.403          estimate D2E/DX2                !
 ! R23   R(11,24)                1.0837         estimate D2E/DX2                !
 ! R24   R(12,13)                1.4178         estimate D2E/DX2                !
 ! R25   R(12,26)                1.5176         estimate D2E/DX2                !
 ! R26   R(13,25)                1.7633         estimate D2E/DX2                !
 ! R27   R(26,27)                1.38           estimate D2E/DX2                !
 ! R28   R(26,28)                1.3834         estimate D2E/DX2                !
 ! R29   R(26,29)                1.3834         estimate D2E/DX2                !
 ! A1    A(2,1,14)             109.5827         estimate D2E/DX2                !
 ! A2    A(2,1,15)             110.3422         estimate D2E/DX2                !
 ! A3    A(2,1,16)             110.3369         estimate D2E/DX2                !
 ! A4    A(14,1,15)            108.6727         estimate D2E/DX2                !
 ! A5    A(14,1,16)            108.6769         estimate D2E/DX2                !
 ! A6    A(15,1,16)            109.1899         estimate D2E/DX2                !
 ! A7    A(1,2,3)              111.2348         estimate D2E/DX2                !
 ! A8    A(1,2,17)             108.9201         estimate D2E/DX2                !
 ! A9    A(1,2,18)             108.9277         estimate D2E/DX2                !
 ! A10   A(3,2,17)             109.4558         estimate D2E/DX2                !
 ! A11   A(3,2,18)             109.4876         estimate D2E/DX2                !
 ! A12   A(17,2,18)            108.7733         estimate D2E/DX2                !
 ! A13   A(2,3,4)              111.0081         estimate D2E/DX2                !
 ! A14   A(2,3,19)             109.2086         estimate D2E/DX2                !
 ! A15   A(2,3,20)             109.1579         estimate D2E/DX2                !
 ! A16   A(4,3,19)             109.2162         estimate D2E/DX2                !
 ! A17   A(4,3,20)             109.2196         estimate D2E/DX2                !
 ! A18   A(19,3,20)            109.0009         estimate D2E/DX2                !
 ! A19   A(3,4,5)              121.8617         estimate D2E/DX2                !
 ! A20   A(3,4,21)             119.0314         estimate D2E/DX2                !
 ! A21   A(5,4,21)             119.1069         estimate D2E/DX2                !
 ! A22   A(4,5,6)              119.2223         estimate D2E/DX2                !
 ! A23   A(4,5,7)              119.4308         estimate D2E/DX2                !
 ! A24   A(6,5,7)              121.3469         estimate D2E/DX2                !
 ! A25   A(5,7,8)              128.0729         estimate D2E/DX2                !
 ! A26   A(7,8,9)              124.6484         estimate D2E/DX2                !
 ! A27   A(7,8,10)             117.6067         estimate D2E/DX2                !
 ! A28   A(9,8,10)             117.7449         estimate D2E/DX2                !
 ! A29   A(8,9,13)             121.3258         estimate D2E/DX2                !
 ! A30   A(8,9,22)             122.5906         estimate D2E/DX2                !
 ! A31   A(13,9,22)            116.0835         estimate D2E/DX2                !
 ! A32   A(8,10,11)            121.3378         estimate D2E/DX2                !
 ! A33   A(8,10,23)            120.2393         estimate D2E/DX2                !
 ! A34   A(11,10,23)           118.4229         estimate D2E/DX2                !
 ! A35   A(10,11,12)           121.1598         estimate D2E/DX2                !
 ! A36   A(10,11,24)           118.6053         estimate D2E/DX2                !
 ! A37   A(12,11,24)           120.2349         estimate D2E/DX2                !
 ! A38   A(11,12,13)           118.3302         estimate D2E/DX2                !
 ! A39   A(11,12,26)           116.8736         estimate D2E/DX2                !
 ! A40   A(13,12,26)           124.7963         estimate D2E/DX2                !
 ! A41   A(9,13,12)            120.1016         estimate D2E/DX2                !
 ! A42   A(9,13,25)            116.3824         estimate D2E/DX2                !
 ! A43   A(12,13,25)           123.516          estimate D2E/DX2                !
 ! A44   A(12,26,27)           113.7882         estimate D2E/DX2                !
 ! A45   A(12,26,28)           109.1357         estimate D2E/DX2                !
 ! A46   A(12,26,29)           109.138          estimate D2E/DX2                !
 ! A47   A(27,26,28)           107.9638         estimate D2E/DX2                !
 ! A48   A(27,26,29)           107.9667         estimate D2E/DX2                !
 ! A49   A(28,26,29)           108.7363         estimate D2E/DX2                !
 ! D1    D(14,1,2,3)           179.9517         estimate D2E/DX2                !
 ! D2    D(14,1,2,17)           59.2251         estimate D2E/DX2                !
 ! D3    D(14,1,2,18)          -59.2771         estimate D2E/DX2                !
 ! D4    D(15,1,2,3)            60.3273         estimate D2E/DX2                !
 ! D5    D(15,1,2,17)          -60.3993         estimate D2E/DX2                !
 ! D6    D(15,1,2,18)         -178.9015         estimate D2E/DX2                !
 ! D7    D(16,1,2,3)           -60.4221         estimate D2E/DX2                !
 ! D8    D(16,1,2,17)          178.8513         estimate D2E/DX2                !
 ! D9    D(16,1,2,18)           60.3491         estimate D2E/DX2                !
 ! D10   D(1,2,3,4)            179.9955         estimate D2E/DX2                !
 ! D11   D(1,2,3,19)            59.5211         estimate D2E/DX2                !
 ! D12   D(1,2,3,20)           -59.559          estimate D2E/DX2                !
 ! D13   D(17,2,3,4)           -59.5936         estimate D2E/DX2                !
 ! D14   D(17,2,3,19)          179.9321         estimate D2E/DX2                !
 ! D15   D(17,2,3,20)           60.8519         estimate D2E/DX2                !
 ! D16   D(18,2,3,4)            59.5541         estimate D2E/DX2                !
 ! D17   D(18,2,3,19)          -60.9203         estimate D2E/DX2                !
 ! D18   D(18,2,3,20)          179.9996         estimate D2E/DX2                !
 ! D19   D(2,3,4,5)            179.8399         estimate D2E/DX2                !
 ! D20   D(2,3,4,21)            -0.115          estimate D2E/DX2                !
 ! D21   D(19,3,4,5)           -59.6902         estimate D2E/DX2                !
 ! D22   D(19,3,4,21)          120.3549         estimate D2E/DX2                !
 ! D23   D(20,3,4,5)            59.431          estimate D2E/DX2                !
 ! D24   D(20,3,4,21)         -120.5239         estimate D2E/DX2                !
 ! D25   D(3,4,5,6)              0.0001         estimate D2E/DX2                !
 ! D26   D(3,4,5,7)            179.9853         estimate D2E/DX2                !
 ! D27   D(21,4,5,6)           179.955          estimate D2E/DX2                !
 ! D28   D(21,4,5,7)            -0.0598         estimate D2E/DX2                !
 ! D29   D(4,5,7,8)            179.8643         estimate D2E/DX2                !
 ! D30   D(6,5,7,8)             -0.1509         estimate D2E/DX2                !
 ! D31   D(5,7,8,9)             -0.4497         estimate D2E/DX2                !
 ! D32   D(5,7,8,10)           179.6128         estimate D2E/DX2                !
 ! D33   D(7,8,9,13)          -179.9407         estimate D2E/DX2                !
 ! D34   D(7,8,9,22)             0.0006         estimate D2E/DX2                !
 ! D35   D(10,8,9,13)           -0.0032         estimate D2E/DX2                !
 ! D36   D(10,8,9,22)          179.9381         estimate D2E/DX2                !
 ! D37   D(7,8,10,11)          179.9601         estimate D2E/DX2                !
 ! D38   D(7,8,10,23)           -0.048          estimate D2E/DX2                !
 ! D39   D(9,8,10,11)            0.0181         estimate D2E/DX2                !
 ! D40   D(9,8,10,23)         -179.9899         estimate D2E/DX2                !
 ! D41   D(8,9,13,12)           -0.0078         estimate D2E/DX2                !
 ! D42   D(8,9,13,25)          179.9755         estimate D2E/DX2                !
 ! D43   D(22,9,13,12)        -179.9527         estimate D2E/DX2                !
 ! D44   D(22,9,13,25)           0.0305         estimate D2E/DX2                !
 ! D45   D(8,10,11,12)          -0.0221         estimate D2E/DX2                !
 ! D46   D(8,10,11,24)         179.9924         estimate D2E/DX2                !
 ! D47   D(23,10,11,12)        179.9857         estimate D2E/DX2                !
 ! D48   D(23,10,11,24)          0.0003         estimate D2E/DX2                !
 ! D49   D(10,11,12,13)          0.0105         estimate D2E/DX2                !
 ! D50   D(10,11,12,26)       -179.9749         estimate D2E/DX2                !
 ! D51   D(24,11,12,13)        179.9957         estimate D2E/DX2                !
 ! D52   D(24,11,12,26)          0.0104         estimate D2E/DX2                !
 ! D53   D(11,12,13,9)           0.0043         estimate D2E/DX2                !
 ! D54   D(11,12,13,25)       -179.9778         estimate D2E/DX2                !
 ! D55   D(26,12,13,9)         179.9883         estimate D2E/DX2                !
 ! D56   D(26,12,13,25)          0.0063         estimate D2E/DX2                !
 ! D57   D(11,12,26,27)        179.9742         estimate D2E/DX2                !
 ! D58   D(11,12,26,28)         59.3294         estimate D2E/DX2                !
 ! D59   D(11,12,26,29)        -59.3756         estimate D2E/DX2                !
 ! D60   D(13,12,26,27)         -0.01           estimate D2E/DX2                !
 ! D61   D(13,12,26,28)       -120.6548         estimate D2E/DX2                !
 ! D62   D(13,12,26,29)        120.6402         estimate D2E/DX2                !
 --------------------------------------------------------------------------------
 Trust Radius=3.00D-01 FncErr=1.00D-07 GrdErr=1.00D-06
 Number of steps in this run=    150 maximum allowed number of steps=    174.
 GradGradGradGradGradGradGradGradGradGradGradGradGradGradGradGradGradGrad

                          Input orientation:                          
 ---------------------------------------------------------------------
 Center     Atomic      Atomic             Coordinates (Angstroms)
 Number     Number       Type             X           Y           Z
 ---------------------------------------------------------------------
      1          6           0       -2.006410    1.878650   -0.080000
      2          6           0       -0.657960    1.169900    0.008010
      3          6           0        0.500720    2.172330   -0.045190
      4          7           0        1.781830    1.492500    0.039050
      5          6           0        2.961840    2.174580    0.008730
      6          8           0        2.944640    3.390850   -0.091970
      7          7           0        4.140940    1.483280    0.091980
      8          6           0        5.481600    2.008870    0.075460
      9          6           0        5.806090    3.379770   -0.043120
     10          6           0        6.540630    1.093530    0.183630
     11          6           0        7.868330    1.516970    0.175280
     12          6           0        8.196120    2.876050    0.057790
     13          6           0        7.140230    3.815690   -0.052780
     14          1           0       -2.824320    1.128740   -0.039950
     15          1           0       -2.085660    2.440720   -1.034940
     16          1           0       -2.128220    2.583630    0.769840
     17          1           0       -0.569640    0.456430   -0.840160
     18          1           0       -0.611720    0.599810    0.961430
     19          1           0        0.407680    2.884720    0.804220
     20          1           0        0.449230    2.739470   -1.000880
     21          1           0        1.798470    0.463860    0.123550
     22          1           0        5.058460    4.145620   -0.131460
     23          1           0        6.338140    0.033560    0.276250
     24          1           0        8.650940    0.772370    0.261590
     25         17           0        7.395600    5.553500   -0.207330
     26          6           0        9.672290    3.228260    0.058820
     27          9           0        9.922050    4.580200   -0.060350
     28          9           0       10.292720    2.585040   -0.997200
     29          9           0       10.241900    2.791700    1.241520
 ---------------------------------------------------------------------
                    Distance matrix (angstroms):
                    1          2          3          4          5
     1  C    0.000000
     2  C    1.525906   0.000000
     3  C    2.524512   1.533048   0.000000
     4  N    3.809731   2.461221   1.452759   0.000000
     5  C    4.977846   3.756639   2.461712   1.363296   0.000000
     6  O    5.176851   4.233361   2.731250   2.230028   1.220553
     7  N    6.162451   4.809854   3.707399   2.359722   1.369344
     8  C    7.490756   6.196985   4.985022   3.735808   2.526085
     9  C    7.955494   6.831550   5.441035   4.445583   3.089487
    10  C    8.587072   7.201137   6.139762   4.777683   3.742592
    11  C    9.884658   8.534990   7.399985   6.088074   4.953164
    12  C   10.252093   9.017104   7.728196   6.561835   5.281302
    13  C    9.349539   8.235027   6.839867   5.841070   4.489540
    14  H    1.110381   2.167282   3.484968   4.621167   5.880119
    15  H    1.110907   2.177396   2.782265   4.124325   5.161137
    16  H    1.110884   2.177311   2.782942   4.124695   5.162879
    17  H    2.159829   1.111860   2.173007   2.715854   4.017960
    18  H    2.159900   1.111823   2.173390   2.716019   4.019685
    19  H    2.760770   2.170287   1.112499   2.100488   2.767822
    20  H    2.760290   2.169626   1.112494   2.100526   2.766157
    21  H    4.064502   2.558494   2.152092   1.032239   2.071998
    22  H    7.419851   6.446070   4.967324   4.219529   2.881053
    23  H    8.553525   7.092858   6.225201   4.790066   4.006861
    24  H   10.720058   9.320834   8.275270   6.910339   5.864809
    25  Cl  10.095471   9.171813   7.681014   6.933025   5.578710
    26  C   11.757243  10.533446   9.232741   8.079147   6.792856
    27  F   12.230573  11.116269   9.724172   8.706719   7.364530
    28  F   12.353495  11.087401   9.846823   8.643073   7.410950
    29  F   12.353185  11.088676   9.845295   8.643300   7.409445
                    6          7          8          9         10
     6  O    0.000000
     7  N    2.259158   0.000000
     8  C    2.893798   1.440100   0.000000
     9  C    2.861888   2.527380   1.413762   0.000000
    10  C    4.276070   2.432862   1.403956   2.412024   0.000000
    11  C    5.274995   3.728473   2.438936   2.787572   1.393613
    12  C    5.278777   4.287827   2.849725   2.444619   2.435952
    13  C    4.217227   3.802214   2.456033   1.403584   2.797421
    14  H    6.196834   6.975525   8.353218   8.919144   9.367685
    15  H    5.205368   6.399780   7.660477   8.009072   8.815481
    16  H    5.208477   6.400987   7.663020   8.015486   8.815498
    17  H    4.639049   4.910486   6.313948   7.059116   7.211795
    18  H    4.641902   4.911643   6.316561   7.065804   7.211438
    19  H    2.737789   4.050747   5.200276   5.486883   6.419234
    20  H    2.734499   4.049825   5.197791   5.479346   6.420073
    21  H    3.150782   2.554874   3.994348   4.958964   4.784159
    22  H    2.244877   2.824858   2.188050   1.073909   3.407545
    23  H    4.787779   2.638812   2.162366   3.403263   1.083105
    24  H    6.288347   4.568836   3.407094   3.870989   2.136031
    25  Cl   4.949890   5.220066   4.038288   2.697890   4.557977
    26  C    6.731304   5.800163   4.364524   3.870510   3.792090
    27  F    7.078121   6.560133   5.133009   4.287477   4.863167
    28  F    7.447352   6.343862   4.962806   4.655289   4.206797
    29  F    7.442256   6.344692   4.963162   4.655377   4.207412
                   11         12         13         14         15
    11  C    0.000000
    12  C    1.402978   0.000000
    13  C    2.422035   1.417763   0.000000
    14  H   10.701860  11.158528  10.320471   0.000000
    15  H   10.069750  10.348844   9.379351   1.804693   0.000000
    16  H   10.070863  10.352996   9.386098   1.804722   1.810929
    17  H    8.564765   9.137802   8.446697   2.485140   2.504728
    18  H    8.565656   9.141984   8.453593   2.485584   3.089813
    19  H    7.611019   7.824131   6.850429   3.773846   3.129919
    20  H    7.610578   7.820086   6.842998   3.772793   2.552661
    21  H    6.160756   6.837610   6.308744   4.673220   4.509605
    22  H    3.859956   3.390064   2.109220   8.440862   7.400095
    23  H    2.133584   3.402876   3.880221   9.233097   8.858558
    24  H    1.083678   2.161912   3.412165  11.484752  10.942530
    25  Cl   4.082088   2.807109   1.763259  11.137921  10.013422
    26  C    2.489246   1.517607   2.601703  12.672135  11.834945
    27  F    3.695493   2.428357   2.884971  13.205413  12.235698
    28  F    2.897093   2.365042   3.513491  13.232304  12.379279
    29  F    2.897523   2.365068   3.513421  13.233809  12.540901
                   16         17         18         19         20
    16  H    0.000000
    17  H    3.089701   0.000000
    18  H    2.504400   1.807776   0.000000
    19  H    2.553943   3.091235   2.506931   0.000000
    20  H    3.130972   2.505234   3.091023   1.811411   0.000000
    21  H    4.508881   2.556704   2.555297   2.873703   2.874577
    22  H    7.409489   6.766675   6.776291   4.908678   4.896749
    23  H    8.855831   7.010179   7.006473   6.601380   6.605473
    24  H   10.942087   9.291543   9.290663   8.526887   8.528268
    25  Cl  10.023878   9.477639   9.488004   7.548288   7.536613
    26  C   11.839474  10.648396  10.652902   9.300895   9.296597
    27  F   12.242733  11.299962  11.306982   9.702854   9.695731
    28  F   12.546003  11.070073  11.255407  10.052310   9.844702
    29  F   12.380858  11.255056  11.076276   9.844377  10.046267
                   21         22         23         24         25
    21  H    0.000000
    22  H    4.924218   0.000000
    23  H    4.562574   4.325835   0.000000
    24  H    6.860800   4.943604   2.427982   0.000000
    25  Cl   7.572436   2.729488   5.641082   4.965377   0.000000
    26  C    8.345246   4.707991   4.622763   2.667521   3.265102
    27  F    9.108821   4.883485   5.799107   4.027274   2.711432
    28  F    8.826538   5.530135   4.875493   2.750594   4.222435
    29  F    8.829508   5.530481   4.876313   2.751202   4.222337
                   26         27         28         29
    26  C    0.000000
    27  F    1.379972   0.000000
    28  F    1.383417   2.235117   0.000000
    29  F    1.383409   2.235151   2.248813   0.000000
 Stoichiometry    C11H11ClF3N2O(1-)
 Framework group  C1[X(C11H11ClF3N2O)]
 Deg. of freedom    81
 Full point group                 C1      NOp   1
 Largest Abelian subgroup         C1      NOp   1
 Largest concise Abelian subgroup C1      NOp   1
                         Standard orientation:                         
 ---------------------------------------------------------------------
 Center     Atomic      Atomic             Coordinates (Angstroms)
 Number     Number       Type             X           Y           Z
 ---------------------------------------------------------------------
      1          6           0       -7.562875    0.471482   -0.001331
      2          6           0       -6.367819   -0.477301   -0.007761
      3          6           0       -5.044441    0.296495    0.004370
      4          7           0       -3.910256   -0.611302   -0.001703
      5          6           0       -2.624872   -0.157059    0.003727
      6          8           0       -2.418001    1.045791    0.013982
      7          7           0       -1.593066   -1.057306   -0.002110
      8          6           0       -0.178578   -0.786922   -0.000671
      9          6           0        0.392543    0.506346   -0.001787
     10          6           0        0.694032   -1.886760    0.000677
     11          6           0        2.076987   -1.714733    0.001288
     12          6           0        2.649176   -0.433739    0.000114
     13          6           0        1.784122    0.689529   -0.001492
     14          1           0       -8.504831   -0.116366   -0.011238
     15          1           0       -7.541985    1.124966   -0.899460
     16          1           0       -7.548255    1.104627    0.911345
     17          1           0       -6.416910   -1.112777   -0.918800
     18          1           0       -6.422638   -1.132447    0.888860
     19          1           0       -5.000181    0.931662    0.916650
     20          1           0       -4.995337    0.949927   -0.894662
     21          1           0       -4.083159   -1.628914   -0.011085
     22          1           0       -0.201477    1.401006   -0.003827
     23          1           0        0.300023   -2.895657    0.001398
     24          1           0        2.709295   -2.594814    0.002457
     25         17           0        2.354786    2.357887   -0.003665
     26          6           0        4.164966   -0.359488    0.000325
     27          9           0        4.659139    0.928966   -0.001439
     28          9           0        4.650746   -1.004317   -1.123088
     29          9           0        4.650327   -1.001146    1.125722
 ---------------------------------------------------------------------
 Rotational constants (GHZ):      1.0712451      0.1230663      0.1130012
 General basis read from cards:  (6D, 7F)
 There are   368 symmetry adapted cartesian basis functions of A   symmetry.
 There are   368 symmetry adapted basis functions of A   symmetry.
   368 basis functions,   644 primitive gaussians,   368 cartesian basis functions
    72 alpha electrons       72 beta electrons
       nuclear repulsion energy      1392.2117893586 Hartrees.
 NAtoms=   29 NActive=   29 NUniq=   29 SFac= 1.00D+00 NAtFMM=   60 NAOKFM=F Big=F
 Integral buffers will be    131072 words long.
 Raffenetti 2 integral format.
 Two-electron integral symmetry is turned on.
 ------------------------------------------------------------------------------
 Polarizable Continuum Model (PCM)
 =================================
 Model                : PCM (using non-symmetric T matrix).
 Atomic radii         : SMD-Coulomb.
 Polarization charges : Total charges.
 Charge compensation  : None.
 Solution method      : On-the-fly selection.
 Cavity type          : VdW (van der Waals Surface) (Alpha=1.000).
 Cavity algorithm     : GePol (No added spheres)
                        Default sphere list used, NSphG=   29.
                        Lebedev-Laikov grids with approx.  5.0 points / Ang**2.
                        Smoothing algorithm: York/Karplus (Gamma=1.0000).
                        Polarization charges: spherical gaussians, with
                                              point-specific exponents (IZeta= 3).
                        Self-potential: point-specific (ISelfS= 7).
                        Self-field    : sphere-specific E.n sum rule (ISelfD= 2).
 1st derivatives      : Analytical E(r).r(x)/FMM algorithm (CHGder, D1EAlg=3).
                        Cavity 1st derivative terms included.
 Solvent              : Water, Eps=  78.355300 Eps(inf)=   1.777849
 ------------------------------------------------------------------------------
 ------------------------------------------------------------------------------
 Atomic radii for non-electrostatic terms: SMD-CDS.
 ------------------------------------------------------------------------------
 Nuclear repulsion after PCM non-electrostatic terms =     1392.2206809246 Hartrees.
 One-electron integrals computed using PRISM.
 NBasis=   368 RedAO= T EigKep=  1.18D-06  NBF=   368
 NBsUse=   367 1.00D-06 EigRej=  6.68D-07 NBFU=   367
 ExpMin= 4.38D-02 ExpMax= 2.52D+04 ExpMxC= 3.78D+03 IAcc=3 IRadAn=         5 AccDes= 0.00D+00
 Harris functional with IExCor= 1009 and IRadAn=       5 diagonalized for initial guess.
 HarFok:  IExCor= 1009 AccDes= 0.00D+00 IRadAn=         5 IDoV= 1 UseB2=F ITyADJ=14
 ICtDFT=  3500011 ScaDFX=  1.000000  1.000000  1.000000  1.000000
 FoFCou: FMM=F IPFlag=           0 FMFlag=      100000 FMFlg1=           0
         NFxFlg=           0 DoJE=T BraDBF=F KetDBF=T FulRan=T
         wScrn=  0.000000 ICntrl=     500 IOpCl=  0 I1Cent=   200000004 NGrid=           0
         NMat0=    1 NMatS0=      1 NMatT0=    0 NMatD0=    1 NMtDS0=    0 NMtDT0=    0
 Petite list used in FoFCou.
 Requested convergence on RMS density matrix=1.00D-08 within 128 cycles.
 Requested convergence on MAX density matrix=1.00D-06.
 Requested convergence on             energy=1.00D-06.
 No special actions if energy rises.
 Inv3:  Mode=1 IEnd=    17904747.
 Iteration    1 A*A^-1 deviation from unit magnitude is 8.33D-15 for   2423.
 Iteration    1 A*A^-1 deviation from orthogonality  is 4.55D-15 for   1672    162.
 Iteration    1 A^-1*A deviation from unit magnitude is 8.33D-15 for   2423.
 Iteration    1 A^-1*A deviation from orthogonality  is 2.72D-11 for   2045   1876.
 Error on total polarization charges =  0.05269
 SCF Done:  E(RM062X) =  -1370.04773013     A.U. after   15 cycles
            NFock= 15  Conv=0.68D-08     -V/T= 2.0067
 SMD-CDS (non-electrostatic) energy       (kcal/mol) =       5.58
 (included in total energy above)

 **********************************************************************

            Population analysis using the SCF density.

 **********************************************************************

 Orbital symmetries:
       Occupied  (A) (A) (A) (A) (A) (A) (A) (A) (A) (A) (A) (A)
                 (A) (A) (A) (A) (A) (A) (A) (A) (A) (A) (A) (A)
                 (A) (A) (A) (A) (A) (A) (A) (A) (A) (A) (A) (A)
                 (A) (A) (A) (A) (A) (A) (A) (A) (A) (A) (A) (A)
                 (A) (A) (A) (A) (A) (A) (A) (A) (A) (A) (A) (A)
                 (A) (A) (A) (A) (A) (A) (A) (A) (A) (A) (A) (A)
       Virtual   (A) (A) (A) (A) (A) (A) (A) (A) (A) (A) (A) (A)
                 (A) (A) (A) (A) (A) (A) (A) (A) (A) (A) (A) (A)
                 (A) (A) (A) (A) (A) (A) (A) (A) (A) (A) (A) (A)
                 (A) (A) (A) (A) (A) (A) (A) (A) (A) (A) (A) (A)
                 (A) (A) (A) (A) (A) (A) (A) (A) (A) (A) (A) (A)
                 (A) (A) (A) (A) (A) (A) (A) (A) (A) (A) (A) (A)
                 (A) (A) (A) (A) (A) (A) (A) (A) (A) (A) (A) (A)
                 (A) (A) (A) (A) (A) (A) (A) (A) (A) (A) (A) (A)
                 (A) (A) (A) (A) (A) (A) (A) (A) (A) (A) (A) (A)
                 (A) (A) (A) (A) (A) (A) (A) (A) (A) (A) (A) (A)
                 (A) (A) (A) (A) (A) (A) (A) (A) (A) (A) (A) (A)
                 (A) (A) (A) (A) (A) (A) (A) (A) (A) (A) (A) (A)
                 (A) (A) (A) (A) (A) (A) (A) (A) (A) (A) (A) (A)
                 (A) (A) (A) (A) (A) (A) (A) (A) (A) (A) (A) (A)
                 (A) (A) (A) (A) (A) (A) (A) (A) (A) (A) (A) (A)
                 (A) (A) (A) (A) (A) (A) (A) (A) (A) (A) (A) (A)
                 (A) (A) (A) (A) (A) (A) (A) (A) (A) (A) (A) (A)
                 (A) (A) (A) (A) (A) (A) (A) (A) (A) (A) (A) (A)
                 (A) (A) (A) (A) (A) (A) (A) (A) (A) (A) (A) (A)
                 (A) (A) (A) (A) (A) (A) (A) (A) (A) (A) (A) (A)
                 (A) (A) (A) (A) (A) (A) (A) (A) (A) (A) (A) (A)
                 (A) (A) (A) (A) (A) (A) (A) (A) (A) (A) (A) (A)
                 (A) (A) (A) (A) (A) (A) (A) (A) (A) (A) (A) (A)
                 (A) (A) (A) (A) (A) (A) (A) (A) (A) (A) (A) (A)
                 (A) (A) (A) (A) (A) (A) (A)
 The electronic state is 1-A.
 Alpha  occ. eigenvalues -- -102.67526 -25.30700 -25.30506 -25.30506 -19.58803
 Alpha  occ. eigenvalues --  -14.76216 -14.70699 -10.82359 -10.64607 -10.63002
 Alpha  occ. eigenvalues --  -10.59722 -10.58156 -10.57180 -10.56846 -10.55041
 Alpha  occ. eigenvalues --  -10.54867 -10.54159 -10.53236  -9.82154  -7.54560
 Alpha  occ. eigenvalues --   -7.53907  -7.53865  -1.44728  -1.36919  -1.36799
 Alpha  occ. eigenvalues --   -1.15681  -1.00813  -1.00024  -0.95875  -0.92538
 Alpha  occ. eigenvalues --   -0.87557  -0.85829  -0.83088  -0.79476  -0.75835
 Alpha  occ. eigenvalues --   -0.71111  -0.70145  -0.68294  -0.66931  -0.66684
 Alpha  occ. eigenvalues --   -0.64380  -0.63221  -0.58412  -0.57222  -0.57071
 Alpha  occ. eigenvalues --   -0.54663  -0.54372  -0.53645  -0.53565  -0.52765
 Alpha  occ. eigenvalues --   -0.52301  -0.51713  -0.50995  -0.49614  -0.49358
 Alpha  occ. eigenvalues --   -0.48138  -0.46769  -0.45421  -0.44405  -0.43912
 Alpha  occ. eigenvalues --   -0.41880  -0.41240  -0.40583  -0.38972  -0.38738
 Alpha  occ. eigenvalues --   -0.37883  -0.34964  -0.34598  -0.30781  -0.30158
 Alpha  occ. eigenvalues --   -0.28026  -0.23716
 Alpha virt. eigenvalues --    0.00858   0.01283   0.01557   0.02902   0.03234
 Alpha virt. eigenvalues --    0.04121   0.04177   0.04655   0.05053   0.05685
 Alpha virt. eigenvalues --    0.05946   0.06310   0.06738   0.07583   0.07699
 Alpha virt. eigenvalues --    0.08317   0.08400   0.09274   0.09650   0.10088
 Alpha virt. eigenvalues --    0.10555   0.10665   0.11074   0.11847   0.12627
 Alpha virt. eigenvalues --    0.12959   0.13041   0.13292   0.13558   0.14251
 Alpha virt. eigenvalues --    0.14288   0.14937   0.15938   0.16911   0.17033
 Alpha virt. eigenvalues --    0.17693   0.18135   0.19281   0.19715   0.20253
 Alpha virt. eigenvalues --    0.20628   0.20756   0.20788   0.21255   0.21383
 Alpha virt. eigenvalues --    0.22307   0.23144   0.23206   0.23584   0.24126
 Alpha virt. eigenvalues --    0.24450   0.24688   0.24956   0.25494   0.25742
 Alpha virt. eigenvalues --    0.25875   0.26365   0.26739   0.27060   0.27755
 Alpha virt. eigenvalues --    0.27912   0.28760   0.29685   0.30279   0.30354
 Alpha virt. eigenvalues --    0.30465   0.31065   0.31296   0.31648   0.32434
 Alpha virt. eigenvalues --    0.32785   0.33127   0.33681   0.33730   0.34496
 Alpha virt. eigenvalues --    0.35761   0.36192   0.36467   0.37150   0.37257
 Alpha virt. eigenvalues --    0.37992   0.38330   0.39116   0.39410   0.40088
 Alpha virt. eigenvalues --    0.40443   0.41477   0.41841   0.43202   0.43709
 Alpha virt. eigenvalues --    0.44818   0.44875   0.45921   0.46681   0.48007
 Alpha virt. eigenvalues --    0.49893   0.50368   0.51967   0.53388   0.54637
 Alpha virt. eigenvalues --    0.56199   0.59108   0.61567   0.62743   0.65771
 Alpha virt. eigenvalues --    0.69175   0.70329   0.70406   0.71644   0.71781
 Alpha virt. eigenvalues --    0.73142   0.73588   0.74654   0.75556   0.77025
 Alpha virt. eigenvalues --    0.77369   0.77962   0.79400   0.80384   0.80554
 Alpha virt. eigenvalues --    0.81043   0.83474   0.83586   0.84352   0.84595
 Alpha virt. eigenvalues --    0.85266   0.85510   0.87369   0.88999   0.90117
 Alpha virt. eigenvalues --    0.90464   0.91640   0.94886   0.96516   0.97284
 Alpha virt. eigenvalues --    0.98634   0.98905   1.01087   1.01114   1.02506
 Alpha virt. eigenvalues --    1.02789   1.04099   1.04538   1.06233   1.06680
 Alpha virt. eigenvalues --    1.08525   1.10201   1.10681   1.12639   1.12746
 Alpha virt. eigenvalues --    1.13820   1.15103   1.15480   1.15822   1.18708
 Alpha virt. eigenvalues --    1.19191   1.20993   1.21901   1.22685   1.23322
 Alpha virt. eigenvalues --    1.24531   1.26533   1.29684   1.30308   1.32177
 Alpha virt. eigenvalues --    1.34448   1.34720   1.37160   1.39748   1.40407
 Alpha virt. eigenvalues --    1.41760   1.42769   1.43461   1.47212   1.47811
 Alpha virt. eigenvalues --    1.48859   1.49684   1.49976   1.51080   1.53293
 Alpha virt. eigenvalues --    1.53602   1.57920   1.58848   1.59020   1.61688
 Alpha virt. eigenvalues --    1.61845   1.64225   1.64999   1.67733   1.68666
 Alpha virt. eigenvalues --    1.71820   1.73699   1.73807   1.74335   1.75904
 Alpha virt. eigenvalues --    1.76426   1.78739   1.80375   1.82123   1.84505
 Alpha virt. eigenvalues --    1.85781   1.87257   1.87595   1.88122   1.88175
 Alpha virt. eigenvalues --    1.88697   1.89593   1.90214   1.91195   1.91240
 Alpha virt. eigenvalues --    1.93306   1.95144   1.97202   1.98596   1.99039
 Alpha virt. eigenvalues --    2.00031   2.03236   2.03949   2.04637   2.05089
 Alpha virt. eigenvalues --    2.05721   2.05826   2.07332   2.07494   2.08726
 Alpha virt. eigenvalues --    2.09375   2.09474   2.13063   2.14954   2.15806
 Alpha virt. eigenvalues --    2.16257   2.18207   2.21600   2.21655   2.22945
 Alpha virt. eigenvalues --    2.24554   2.26834   2.27416   2.29211   2.30944
 Alpha virt. eigenvalues --    2.31123   2.32680   2.37567   2.38884   2.40343
 Alpha virt. eigenvalues --    2.41569   2.42104   2.43582   2.48067   2.48556
 Alpha virt. eigenvalues --    2.53158   2.59802   2.61571   2.65142   2.66540
 Alpha virt. eigenvalues --    2.67178   2.68381   2.72433   2.75638   2.76640
 Alpha virt. eigenvalues --    2.77952   2.78742   2.81105   2.81406   2.84596
 Alpha virt. eigenvalues --    2.87773   2.93283   2.98472   3.02135   3.13152
 Alpha virt. eigenvalues --    3.13717   3.14949   3.27138   3.27241   3.29687
 Alpha virt. eigenvalues --    3.35694   3.41855   4.17492   4.26704   4.27672
 Alpha virt. eigenvalues --    4.32040   4.40617   4.41447   4.42816   4.43776
 Alpha virt. eigenvalues --    4.47781   4.48906   4.52512   4.59822   4.63005
 Alpha virt. eigenvalues --    4.68005   4.79756   5.44246   6.09730   6.87013
          Condensed to atoms (all electrons):
               1          2          3          4          5          6
     1  C    5.658829  -0.094282   0.077352  -0.007549  -0.060951  -0.005224
     2  C   -0.094282   6.231990  -0.507998  -0.066527   0.182509   0.023511
     3  C    0.077352  -0.507998   7.385894   0.293029  -0.664081  -0.118517
     4  N   -0.007549  -0.066527   0.293029   7.730440   0.481882  -0.251000
     5  C   -0.060951   0.182509  -0.664081   0.481882   7.127619   0.404605
     6  O   -0.005224   0.023511  -0.118517  -0.251000   0.404605   8.783445
     7  N   -0.004251   0.008316  -0.131126  -0.331884   0.310856  -0.117648
     8  C   -0.011779   0.017577  -0.510728  -0.202514  -0.636817  -0.224709
     9  C    0.001117   0.004811  -0.010305   0.039413   0.570236   0.334703
    10  C   -0.003257   0.010122  -0.200766  -0.124455  -1.925835  -0.084491
    11  C    0.000247  -0.002188   0.034672   0.020301   0.450494  -0.009734
    12  C   -0.000295   0.002229  -0.058177  -0.022551  -0.678210   0.006948
    13  C   -0.000036   0.002494  -0.019710   0.007874  -0.144057   0.069687
    14  H    0.414868  -0.089294   0.027434   0.000441  -0.002680   0.000006
    15  H    0.417784  -0.065176  -0.007812   0.000388  -0.001034  -0.000052
    16  H    0.417251  -0.065182  -0.007542   0.000393  -0.000768  -0.000052
    17  H   -0.034705   0.425087  -0.071624   0.005816  -0.008693  -0.000194
    18  H   -0.033548   0.423823  -0.069203   0.005789  -0.010794  -0.000194
    19  H    0.003007  -0.042428   0.430394  -0.057825  -0.027323   0.003409
    20  H    0.003039  -0.042542   0.431189  -0.057973  -0.027963   0.003426
    21  H   -0.004585   0.004158  -0.086869   0.245480   0.030048   0.010986
    22  H   -0.000004   0.000015   0.003410   0.000587   0.011986  -0.002206
    23  H   -0.000001   0.000045  -0.001128  -0.000554  -0.026064   0.000115
    24  H    0.000000   0.000000   0.000036   0.000016   0.004739   0.000001
    25  Cl   0.000004  -0.000032   0.000779   0.000432   0.001348  -0.002290
    26  C   -0.000016   0.000108  -0.005437  -0.001652  -0.209775   0.002466
    27  F   -0.000000   0.000000   0.000001  -0.000000   0.000518   0.000002
    28  F   -0.000000   0.000000  -0.000002  -0.000001  -0.000140   0.000000
    29  F   -0.000000   0.000000  -0.000002  -0.000001  -0.000169   0.000000
               7          8          9         10         11         12
     1  C   -0.004251  -0.011779   0.001117  -0.003257   0.000247  -0.000295
     2  C    0.008316   0.017577   0.004811   0.010122  -0.002188   0.002229
     3  C   -0.131126  -0.510728  -0.010305  -0.200766   0.034672  -0.058177
     4  N   -0.331884  -0.202514   0.039413  -0.124455   0.020301  -0.022551
     5  C    0.310856  -0.636817   0.570236  -1.925835   0.450494  -0.678210
     6  O   -0.117648  -0.224709   0.334703  -0.084491  -0.009734   0.006948
     7  N    7.804081   0.510678  -0.252684  -0.172375   0.118847  -0.044047
     8  C    0.510678  11.441571  -0.355388  -0.774483   0.221864  -1.716975
     9  C   -0.252684  -0.355388   9.836975  -3.835624   1.096140  -0.903182
    10  C   -0.172375  -0.774483  -3.835624  14.093927  -1.518737   0.048196
    11  C    0.118847   0.221864   1.096140  -1.518737  13.272098   2.237105
    12  C   -0.044047  -1.716975  -0.903182   0.048196   2.237105  19.566373
    13  C   -0.028578  -0.546479  -0.440541   0.008918  -8.797762  -8.991624
    14  H    0.000005  -0.000052   0.000003  -0.000002   0.000000  -0.000000
    15  H    0.000013  -0.000032  -0.000025  -0.000001   0.000000  -0.000000
    16  H    0.000014  -0.000029  -0.000022  -0.000002   0.000000  -0.000000
    17  H   -0.000047  -0.000866  -0.000096   0.000052   0.000004  -0.000003
    18  H   -0.000097  -0.000973  -0.000140   0.000051   0.000005  -0.000004
    19  H   -0.000932  -0.003741   0.001937  -0.000448  -0.000037  -0.000013
    20  H   -0.000909  -0.003571   0.001641  -0.000292  -0.000036  -0.000009
    21  H    0.026580   0.022456  -0.005031   0.006860  -0.000584   0.000250
    22  H   -0.006883  -0.050277   0.320079   0.013242  -0.017648   0.072017
    23  H    0.000844  -0.061374  -0.012192   0.430205  -0.083118   0.044996
    24  H    0.000885   0.031864  -0.009278  -0.134571   0.257445   0.081447
    25  Cl   0.002530  -0.039379  -0.047585   0.064173   0.013559  -0.271767
    26  C   -0.012601  -1.086667  -0.826942   0.830867  -1.516694  -2.098199
    27  F   -0.000005   0.020756   0.027057  -0.013316   0.083707   0.226027
    28  F   -0.000060   0.004342  -0.011796   0.023109  -0.091366   0.241868
    29  F   -0.000064   0.003575  -0.012616   0.023609  -0.094493   0.239337
              13         14         15         16         17         18
     1  C   -0.000036   0.414868   0.417784   0.417251  -0.034705  -0.033548
     2  C    0.002494  -0.089294  -0.065176  -0.065182   0.425087   0.423823
     3  C   -0.019710   0.027434  -0.007812  -0.007542  -0.071624  -0.069203
     4  N    0.007874   0.000441   0.000388   0.000393   0.005816   0.005789
     5  C   -0.144057  -0.002680  -0.001034  -0.000768  -0.008693  -0.010794
     6  O    0.069687   0.000006  -0.000052  -0.000052  -0.000194  -0.000194
     7  N   -0.028578   0.000005   0.000013   0.000014  -0.000047  -0.000097
     8  C   -0.546479  -0.000052  -0.000032  -0.000029  -0.000866  -0.000973
     9  C   -0.440541   0.000003  -0.000025  -0.000022  -0.000096  -0.000140
    10  C    0.008918  -0.000002  -0.000001  -0.000002   0.000052   0.000051
    11  C   -8.797762   0.000000   0.000000   0.000000   0.000004   0.000005
    12  C   -8.991624  -0.000000  -0.000000  -0.000000  -0.000003  -0.000004
    13  C   23.649279  -0.000000  -0.000000   0.000000  -0.000001  -0.000002
    14  H   -0.000000   0.484271  -0.024041  -0.024034  -0.003000  -0.002990
    15  H   -0.000000  -0.024041   0.488741  -0.028479  -0.004575   0.003811
    16  H    0.000000  -0.024034  -0.028479   0.488688   0.003811  -0.004582
    17  H   -0.000001  -0.003000  -0.004575   0.003811   0.494315  -0.030993
    18  H   -0.000002  -0.002990   0.003811  -0.004582  -0.030993   0.494316
    19  H    0.000104  -0.000058  -0.000331   0.002657   0.003830  -0.005617
    20  H    0.000106  -0.000058   0.002664  -0.000328  -0.005638   0.003832
    21  H   -0.000164  -0.000003  -0.000000  -0.000000   0.000479   0.000479
    22  H   -0.045673  -0.000000   0.000000   0.000000  -0.000000  -0.000000
    23  H    0.008173  -0.000000  -0.000000  -0.000000  -0.000000  -0.000000
    24  H    0.112123  -0.000000   0.000000   0.000000   0.000000   0.000000
    25  Cl  -0.046912   0.000000  -0.000000  -0.000000  -0.000000  -0.000000
    26  C    1.657425  -0.000000  -0.000000  -0.000000  -0.000000  -0.000000
    27  F   -0.234509  -0.000000  -0.000000  -0.000000  -0.000000  -0.000000
    28  F   -0.135632  -0.000000  -0.000000   0.000000   0.000000  -0.000000
    29  F   -0.133322  -0.000000   0.000000  -0.000000  -0.000000  -0.000000
              19         20         21         22         23         24
     1  C    0.003007   0.003039  -0.004585  -0.000004  -0.000001   0.000000
     2  C   -0.042428  -0.042542   0.004158   0.000015   0.000045   0.000000
     3  C    0.430394   0.431189  -0.086869   0.003410  -0.001128   0.000036
     4  N   -0.057825  -0.057973   0.245480   0.000587  -0.000554   0.000016
     5  C   -0.027323  -0.027963   0.030048   0.011986  -0.026064   0.004739
     6  O    0.003409   0.003426   0.010986  -0.002206   0.000115   0.000001
     7  N   -0.000932  -0.000909   0.026580  -0.006883   0.000844   0.000885
     8  C   -0.003741  -0.003571   0.022456  -0.050277  -0.061374   0.031864
     9  C    0.001937   0.001641  -0.005031   0.320079  -0.012192  -0.009278
    10  C   -0.000448  -0.000292   0.006860   0.013242   0.430205  -0.134571
    11  C   -0.000037  -0.000036  -0.000584  -0.017648  -0.083118   0.257445
    12  C   -0.000013  -0.000009   0.000250   0.072017   0.044996   0.081447
    13  C    0.000104   0.000106  -0.000164  -0.045673   0.008173   0.112123
    14  H   -0.000058  -0.000058  -0.000003  -0.000000  -0.000000  -0.000000
    15  H   -0.000331   0.002664  -0.000000   0.000000  -0.000000   0.000000
    16  H    0.002657  -0.000328  -0.000000   0.000000  -0.000000   0.000000
    17  H    0.003830  -0.005638   0.000479  -0.000000  -0.000000   0.000000
    18  H   -0.005617   0.003832   0.000479  -0.000000  -0.000000   0.000000
    19  H    0.514794  -0.042096   0.002138   0.000000  -0.000000  -0.000000
    20  H   -0.042096   0.514788   0.002142  -0.000000  -0.000000  -0.000000
    21  H    0.002138   0.002142   0.278516   0.000001   0.000003  -0.000000
    22  H    0.000000  -0.000000   0.000001   0.430587  -0.000101   0.000010
    23  H   -0.000000  -0.000000   0.000003  -0.000101   0.450174  -0.003294
    24  H   -0.000000  -0.000000  -0.000000   0.000010  -0.003294   0.425324
    25  Cl   0.000002   0.000002   0.000004  -0.000136   0.000041  -0.000019
    26  C   -0.000000  -0.000000   0.000009   0.002222   0.007862  -0.041141
    27  F   -0.000000  -0.000000   0.000000   0.000078   0.000011   0.000405
    28  F    0.000000  -0.000000   0.000000   0.000007   0.000006   0.000078
    29  F   -0.000000   0.000000   0.000000   0.000007   0.000006   0.000075
              25         26         27         28         29
     1  C    0.000004  -0.000016  -0.000000  -0.000000  -0.000000
     2  C   -0.000032   0.000108   0.000000   0.000000   0.000000
     3  C    0.000779  -0.005437   0.000001  -0.000002  -0.000002
     4  N    0.000432  -0.001652  -0.000000  -0.000001  -0.000001
     5  C    0.001348  -0.209775   0.000518  -0.000140  -0.000169
     6  O   -0.002290   0.002466   0.000002   0.000000   0.000000
     7  N    0.002530  -0.012601  -0.000005  -0.000060  -0.000064
     8  C   -0.039379  -1.086667   0.020756   0.004342   0.003575
     9  C   -0.047585  -0.826942   0.027057  -0.011796  -0.012616
    10  C    0.064173   0.830867  -0.013316   0.023109   0.023609
    11  C    0.013559  -1.516694   0.083707  -0.091366  -0.094493
    12  C   -0.271767  -2.098199   0.226027   0.241868   0.239337
    13  C   -0.046912   1.657425  -0.234509  -0.135632  -0.133322
    14  H    0.000000  -0.000000  -0.000000  -0.000000  -0.000000
    15  H   -0.000000  -0.000000  -0.000000  -0.000000   0.000000
    16  H   -0.000000  -0.000000  -0.000000   0.000000  -0.000000
    17  H   -0.000000  -0.000000  -0.000000   0.000000  -0.000000
    18  H   -0.000000  -0.000000  -0.000000  -0.000000  -0.000000
    19  H    0.000002  -0.000000  -0.000000   0.000000  -0.000000
    20  H    0.000002  -0.000000  -0.000000  -0.000000   0.000000
    21  H    0.000004   0.000009   0.000000   0.000000   0.000000
    22  H   -0.000136   0.002222   0.000078   0.000007   0.000007
    23  H    0.000041   0.007862   0.000011   0.000006   0.000006
    24  H   -0.000019  -0.041141   0.000405   0.000078   0.000075
    25  Cl  17.066312   0.059648  -0.023970   0.004505   0.004480
    26  C    0.059648   7.593254  -0.001361   0.082349   0.086818
    27  F   -0.023970  -0.001361   9.317444  -0.038459  -0.038421
    28  F    0.004505   0.082349  -0.038459   9.253467  -0.050318
    29  F    0.004480   0.086818  -0.038421  -0.050318   9.253363
 Mulliken charges:
               1
     1  C   -0.733014
     2  C   -0.361146
     3  C   -0.213164
     4  N   -0.707792
     5  C    0.848513
     6  O   -0.826999
     7  N   -0.679461
     8  C   -0.047851
     9  C    0.489335
    10  C   -0.764678
    11  C    0.325910
    12  C   -1.981736
    13  C    0.048819
    14  H    0.219185
    15  H    0.218160
    16  H    0.218205
    17  H    0.227042
    18  H    0.227032
    19  H    0.218577
    20  H    0.218587
    21  H    0.466645
    22  H    0.268682
    23  H    0.245347
    24  H    0.273856
    25  Cl   0.214272
    26  C    1.477459
    27  F   -0.325965
    28  F   -0.281956
    29  F   -0.281863
 Sum of Mulliken charges =  -1.00000
 Mulliken charges with hydrogens summed into heavy atoms:
               1
     1  C   -0.077464
     2  C    0.092929
     3  C    0.223999
     4  N   -0.241147
     5  C    0.848513
     6  O   -0.826999
     7  N   -0.679461
     8  C   -0.047851
     9  C    0.758017
    10  C   -0.519330
    11  C    0.599766
    12  C   -1.981736
    13  C    0.048819
    25  Cl   0.214272
    26  C    1.477459
    27  F   -0.325965
    28  F   -0.281956
    29  F   -0.281863
 Electronic spatial extent (au):  <R**2>=           8900.5989
 Charge=             -1.0000 electrons
 Dipole moment (field-independent basis, Debye):
    X=             -0.9174    Y=             -2.6027    Z=             -0.0394  Tot=              2.7599
 Quadrupole moment (field-independent basis, Debye-Ang):
   XX=           -132.4281   YY=           -120.5807   ZZ=           -118.6576
   XY=              3.1510   XZ=              0.1316   YZ=             -0.0658
 Traceless Quadrupole moment (field-independent basis, Debye-Ang):
   XX=             -8.5393   YY=              3.3081   ZZ=              5.2312
   XY=              3.1510   XZ=              0.1316   YZ=             -0.0658
 Octapole moment (field-independent basis, Debye-Ang**2):
  XXX=           -111.1900  YYY=            -13.3709  ZZZ=              0.0347  XYY=             38.5777
  XXY=            -34.9719  XXZ=             -0.4205  XZZ=             18.3335  YZZ=              8.3481
  YYZ=             -0.0953  XYZ=              0.1050
 Hexadecapole moment (field-independent basis, Debye-Ang**3):
 XXXX=          -9997.5501 YYYY=          -1084.5296 ZZZZ=           -225.8656 XXXY=            183.0257
 XXXZ=              1.9103 YYYX=            -15.0989 YYYZ=             -0.2407 ZZZX=             -0.2031
 ZZZY=             -0.0027 XXYY=          -1891.5122 XXZZ=          -1745.9046 YYZZ=           -238.2433
 XXYZ=             -0.1997 YYXZ=              0.5184 ZZXY=             -0.2346
 N-N= 1.392220680925D+03 E-N=-6.029298461433D+03  KE= 1.360865644052D+03
 D1PCM: PCM CHGder 1st derivatives, ID1Alg=3 FixD1E=F DoIter=F DoCFld=F I1PDM=0.
 Calling FoFJK, ICntrl=      2127 FMM=F ISym2X=0 I1Cent= 0 IOpClX= 0 NMat=1 NMatS=1 NMatT=0.
 ***** Axes restored to original set *****
 -------------------------------------------------------------------
 Center     Atomic                   Forces (Hartrees/Bohr)
 Number     Number              X              Y              Z
 -------------------------------------------------------------------
      1        6          -0.005231636    0.001105887   -0.000205973
      2        6           0.003986757   -0.003877568    0.000370567
      3        6          -0.002750832    0.002646349   -0.000305127
      4        7           0.002189574   -0.029783327    0.002482809
      5        6           0.050722697   -0.030901580    0.003498783
      6        8          -0.018269025    0.071211988   -0.006144562
      7        7           0.023689027   -0.025517553    0.002659663
      8        6          -0.068143882    0.001402867   -0.001633676
      9        6           0.021040488    0.008992392   -0.000392565
     10        6           0.015991653   -0.000861265    0.000476180
     11        6          -0.014264871    0.001971776   -0.000545075
     12        6           0.004958214    0.020551049   -0.001765319
     13        6          -0.001047914   -0.018124991    0.001621165
     14        1           0.005807437    0.009065411   -0.000574259
     15        1          -0.001095146   -0.003978626    0.009382998
     16        1          -0.000678630   -0.005397121   -0.008673855
     17        1           0.001107786    0.004374154    0.008886434
     18        1           0.001546443    0.002922790   -0.009376730
     19        1          -0.000416582   -0.003672875   -0.009361356
     20        1          -0.000807821   -0.002118432    0.009813984
     21        1           0.000096641    0.016886617   -0.001375579
     22        1          -0.007344895   -0.000747483   -0.000092568
     23        1          -0.002824015   -0.001143556    0.000041909
     24        1           0.003114100    0.000175874    0.000056231
     25       17          -0.004636944   -0.005338821    0.000389139
     26        6          -0.013612049    0.003134663   -0.000597476
     27        9           0.006814108   -0.040656436    0.003913840
     28        9          -0.000633312    0.016517265    0.027791385
     29        9           0.000692629    0.011160552   -0.030340965
 -------------------------------------------------------------------
 Cartesian Forces:  Max     0.071211988 RMS     0.016164437

 GradGradGradGradGradGradGradGradGradGradGradGradGradGradGradGradGradGrad
 Berny optimization.
 FormGI is forming the generalized inverse of G from B-inverse, IUseBI=4.
 GSVD:  received Info=                   1 from GESDD.
 Internal  Forces:  Max     0.071726773 RMS     0.012032975
 Search for a local minimum.
 Step number   1 out of a maximum of  150
 All quantities printed in internal units (Hartrees-Bohrs-Radians)
 Mixed Optimization -- RFO/linear search
 Second derivative matrix not updated -- first step.
 ITU=  0
     Eigenvalues ---    0.00329   0.00423   0.00533   0.00994   0.01161
     Eigenvalues ---    0.01369   0.01468   0.01821   0.01915   0.01950
     Eigenvalues ---    0.01975   0.01994   0.02090   0.02095   0.02097
     Eigenvalues ---    0.02122   0.02150   0.02177   0.03755   0.04436
     Eigenvalues ---    0.04933   0.05553   0.05673   0.05783   0.08033
     Eigenvalues ---    0.09179   0.10584   0.11426   0.11975   0.12668
     Eigenvalues ---    0.16000   0.16000   0.16000   0.16000   0.16000
     Eigenvalues ---    0.16000   0.16000   0.21964   0.22000   0.22004
     Eigenvalues ---    0.22365   0.23480   0.24600   0.25000   0.25000
     Eigenvalues ---    0.25000   0.25000   0.25000   0.25000   0.25000
     Eigenvalues ---    0.25000   0.25000   0.29144   0.29239   0.29805
     Eigenvalues ---    0.30598   0.32337   0.32337   0.32404   0.32408
     Eigenvalues ---    0.32504   0.32507   0.32560   0.35554   0.35622
     Eigenvalues ---    0.36740   0.37886   0.39572   0.40463   0.40874
     Eigenvalues ---    0.42441   0.43705   0.44334   0.45049   0.46213
     Eigenvalues ---    0.48483   0.48484   0.49107   0.51103   0.52287
     Eigenvalues ---    0.95139
 RFO step:  Lambda=-4.64290839D-02 EMin= 3.28788700D-03
 Linear search not attempted -- first point.
 Maximum step size (   0.300) exceeded in Quadratic search.
    -- Step size scaled by   0.851
 Iteration  1 RMS(Cart)=  0.07450583 RMS(Int)=  0.00146300
 Iteration  2 RMS(Cart)=  0.00269213 RMS(Int)=  0.00025307
 Iteration  3 RMS(Cart)=  0.00000326 RMS(Int)=  0.00025306
 Iteration  4 RMS(Cart)=  0.00000000 RMS(Int)=  0.00025306
 Variable       Old X    -DE/DX   Delta X   Delta X   Delta X     New X
                                 (Linear)    (Quad)   (Total)
    R1        2.88354   0.00144   0.00000   0.00355   0.00355   2.88709
    R2        2.09832  -0.01042   0.00000  -0.02385  -0.02385   2.07446
    R3        2.09931  -0.01000   0.00000  -0.02292  -0.02292   2.07639
    R4        2.09927  -0.00999   0.00000  -0.02289  -0.02289   2.07638
    R5        2.89704  -0.00688   0.00000  -0.01734  -0.01734   2.87970
    R6        2.10111  -0.00950   0.00000  -0.02183  -0.02183   2.07928
    R7        2.10104  -0.00948   0.00000  -0.02178  -0.02178   2.07926
    R8        2.74532  -0.00078   0.00000  -0.00157  -0.00157   2.74375
    R9        2.10232  -0.00946   0.00000  -0.02179  -0.02179   2.08053
   R10        2.10231  -0.00947   0.00000  -0.02181  -0.02181   2.08050
   R11        2.57626   0.00269   0.00000   0.00402   0.00402   2.58027
   R12        1.95065  -0.01694   0.00000  -0.03063  -0.03063   1.92002
   R13        2.30651   0.07173   0.00000   0.06121   0.06121   2.36772
   R14        2.58769  -0.01669   0.00000  -0.02550  -0.02550   2.56219
   R15        2.72139  -0.05683   0.00000  -0.10945  -0.10945   2.61195
   R16        2.67162  -0.00080   0.00000  -0.00097  -0.00097   2.67065
   R17        2.65309   0.00288   0.00000   0.00550   0.00549   2.65858
   R18        2.65239  -0.01033   0.00000  -0.01783  -0.01782   2.63457
   R19        2.02939   0.00459   0.00000   0.00944   0.00944   2.03883
   R20        2.63355  -0.01069   0.00000  -0.01761  -0.01762   2.61593
   R21        2.04677   0.00165   0.00000   0.00349   0.00349   2.05026
   R22        2.65125  -0.00220   0.00000  -0.00419  -0.00418   2.64706
   R23        2.04785   0.00213   0.00000   0.00452   0.00452   2.05237
   R24        2.67918  -0.00997   0.00000  -0.01847  -0.01846   2.66073
   R25        2.86786  -0.00884   0.00000  -0.02136  -0.02136   2.84651
   R26        3.33208  -0.00597   0.00000  -0.01500  -0.01500   3.31708
   R27        2.60777  -0.03894   0.00000  -0.06168  -0.06168   2.54609
   R28        2.61428  -0.02918   0.00000  -0.04676  -0.04676   2.56752
   R29        2.61426  -0.02917   0.00000  -0.04676  -0.04676   2.56751
    A1        1.91258   0.00330   0.00000   0.01444   0.01436   1.92694
    A2        1.92584   0.00201   0.00000   0.00789   0.00785   1.93368
    A3        1.92574   0.00203   0.00000   0.00798   0.00793   1.93368
    A4        1.89670  -0.00245   0.00000  -0.00931  -0.00938   1.88732
    A5        1.89677  -0.00246   0.00000  -0.00933  -0.00941   1.88736
    A6        1.90572  -0.00260   0.00000  -0.01228  -0.01229   1.89343
    A7        1.94141  -0.00074   0.00000  -0.00026  -0.00026   1.94116
    A8        1.90101   0.00154   0.00000   0.00964   0.00964   1.91065
    A9        1.90115   0.00155   0.00000   0.00961   0.00961   1.91075
   A10        1.91036  -0.00043   0.00000  -0.00369  -0.00371   1.90666
   A11        1.91092  -0.00045   0.00000  -0.00387  -0.00389   1.90703
   A12        1.89845  -0.00148   0.00000  -0.01162  -0.01168   1.88677
   A13        1.93746  -0.00352   0.00000  -0.00895  -0.00893   1.92853
   A14        1.90605   0.00095   0.00000   0.00232   0.00234   1.90839
   A15        1.90516   0.00102   0.00000   0.00269   0.00271   1.90787
   A16        1.90618   0.00201   0.00000   0.00969   0.00969   1.91587
   A17        1.90624   0.00197   0.00000   0.00950   0.00950   1.91574
   A18        1.90242  -0.00244   0.00000  -0.01549  -0.01551   1.88691
   A19        2.12689   0.00068   0.00000   0.00217   0.00217   2.12906
   A20        2.07749   0.00002   0.00000   0.00040   0.00040   2.07789
   A21        2.07881  -0.00070   0.00000  -0.00257  -0.00257   2.07624
   A22        2.08082  -0.00238   0.00000  -0.00684  -0.00684   2.07398
   A23        2.08446  -0.03505   0.00000  -0.10067  -0.10067   1.98379
   A24        2.11790   0.03743   0.00000   0.10751   0.10751   2.22542
   A25        2.23529  -0.03873   0.00000  -0.11124  -0.11124   2.12405
   A26        2.17552   0.00850   0.00000   0.02362   0.02363   2.19916
   A27        2.05262  -0.00492   0.00000  -0.01494  -0.01493   2.03770
   A28        2.05504  -0.00357   0.00000  -0.00869  -0.00871   2.04633
   A29        2.11754  -0.00015   0.00000  -0.00004  -0.00004   2.11750
   A30        2.13961  -0.00579   0.00000  -0.02419  -0.02419   2.11542
   A31        2.02604   0.00595   0.00000   0.02423   0.02423   2.05027
   A32        2.11774  -0.00137   0.00000  -0.00328  -0.00331   2.11444
   A33        2.09857  -0.00194   0.00000  -0.00917  -0.00916   2.08941
   A34        2.06687   0.00331   0.00000   0.01246   0.01247   2.07934
   A35        2.11464   0.00428   0.00000   0.01287   0.01286   2.12750
   A36        2.07005   0.00019   0.00000   0.00318   0.00318   2.07323
   A37        2.09849  -0.00447   0.00000  -0.01604  -0.01604   2.08245
   A38        2.06525  -0.00456   0.00000  -0.01498  -0.01496   2.05029
   A39        2.03983  -0.01200   0.00000  -0.03351  -0.03352   2.00631
   A40        2.17811   0.01655   0.00000   0.04849   0.04848   2.22659
   A41        2.09617   0.00538   0.00000   0.01413   0.01415   2.11032
   A42        2.03126  -0.00904   0.00000  -0.02531  -0.02532   2.00593
   A43        2.15576   0.00366   0.00000   0.01118   0.01117   2.16693
   A44        1.98598   0.01904   0.00000   0.05857   0.05704   2.04302
   A45        1.90478   0.01624   0.00000   0.04479   0.04370   1.94848
   A46        1.90482   0.01625   0.00000   0.04481   0.04373   1.94855
   A47        1.88432  -0.01706   0.00000  -0.04524  -0.04658   1.83774
   A48        1.88438  -0.01707   0.00000  -0.04529  -0.04664   1.83774
   A49        1.89781  -0.01985   0.00000  -0.06519  -0.06569   1.83212
    D1        3.14075   0.00001   0.00000   0.00011   0.00011   3.14086
    D2        1.03367  -0.00000   0.00000  -0.00146  -0.00145   1.03222
    D3       -1.03458  -0.00000   0.00000   0.00144   0.00143  -1.03315
    D4        1.05291  -0.00029   0.00000  -0.00238  -0.00240   1.05051
    D5       -1.05417  -0.00031   0.00000  -0.00395  -0.00396  -1.05813
    D6       -3.12242  -0.00031   0.00000  -0.00106  -0.00108  -3.12350
    D7       -1.05456   0.00032   0.00000   0.00262   0.00264  -1.05192
    D8        3.12154   0.00030   0.00000   0.00105   0.00107   3.12262
    D9        1.05329   0.00030   0.00000   0.00395   0.00396   1.05725
   D10        3.14151   0.00000   0.00000  -0.00004  -0.00003   3.14148
   D11        1.03884  -0.00090   0.00000  -0.00794  -0.00794   1.03090
   D12       -1.03950   0.00089   0.00000   0.00788   0.00788  -1.03162
   D13       -1.04010   0.00117   0.00000   0.00940   0.00939  -1.03072
   D14        3.14041   0.00027   0.00000   0.00149   0.00148  -3.14130
   D15        1.06207   0.00207   0.00000   0.01732   0.01730   1.07937
   D16        1.03941  -0.00116   0.00000  -0.00931  -0.00930   1.03012
   D17       -1.06326  -0.00206   0.00000  -0.01722  -0.01721  -1.08047
   D18        3.14159  -0.00027   0.00000  -0.00139  -0.00138   3.14021
   D19        3.13880   0.00002   0.00000   0.00019   0.00019   3.13899
   D20       -0.00201   0.00003   0.00000   0.00022   0.00022  -0.00179
   D21       -1.04179   0.00029   0.00000   0.00373   0.00372  -1.03807
   D22        2.10059   0.00030   0.00000   0.00376   0.00374   2.10433
   D23        1.03727  -0.00030   0.00000  -0.00369  -0.00367   1.03359
   D24       -2.10354  -0.00030   0.00000  -0.00366  -0.00365  -2.10719
   D25        0.00000   0.00005   0.00000   0.00069   0.00067   0.00067
   D26        3.14134  -0.00002   0.00000  -0.00027  -0.00026   3.14108
   D27        3.14081   0.00005   0.00000   0.00066   0.00065   3.14146
   D28       -0.00104  -0.00002   0.00000  -0.00030  -0.00028  -0.00133
   D29        3.13922  -0.00007   0.00000  -0.00097  -0.00095   3.13828
   D30       -0.00263  -0.00016   0.00000  -0.00197  -0.00200  -0.00463
   D31       -0.00785  -0.00011   0.00000  -0.00163  -0.00163  -0.00948
   D32        3.13483  -0.00010   0.00000  -0.00152  -0.00152   3.13332
   D33       -3.14056   0.00001   0.00000   0.00006   0.00006  -3.14050
   D34        0.00001   0.00001   0.00000   0.00011   0.00011   0.00012
   D35       -0.00006  -0.00000   0.00000  -0.00006  -0.00006  -0.00012
   D36        3.14051   0.00000   0.00000  -0.00001  -0.00001   3.14050
   D37        3.14090   0.00001   0.00000   0.00001   0.00002   3.14091
   D38       -0.00084  -0.00000   0.00000  -0.00007  -0.00007  -0.00091
   D39        0.00032   0.00001   0.00000   0.00010   0.00010   0.00042
   D40       -3.14142  -0.00000   0.00000   0.00001   0.00001  -3.14140
   D41       -0.00014  -0.00001   0.00000  -0.00008  -0.00008  -0.00022
   D42        3.14116   0.00000   0.00000   0.00005   0.00005   3.14121
   D43       -3.14077  -0.00001   0.00000  -0.00011  -0.00011  -3.14088
   D44        0.00053   0.00000   0.00000   0.00003   0.00002   0.00056
   D45       -0.00039  -0.00000   0.00000   0.00000   0.00000  -0.00038
   D46        3.14146  -0.00001   0.00000  -0.00012  -0.00012   3.14134
   D47        3.14134   0.00001   0.00000   0.00009   0.00009   3.14143
   D48        0.00001  -0.00000   0.00000  -0.00003  -0.00003  -0.00003
   D49        0.00018  -0.00001   0.00000  -0.00015  -0.00015   0.00004
   D50       -3.14115  -0.00001   0.00000  -0.00016  -0.00016  -3.14131
   D51        3.14152  -0.00000   0.00000  -0.00002  -0.00002   3.14150
   D52        0.00018  -0.00000   0.00000  -0.00003  -0.00003   0.00015
   D53        0.00007   0.00001   0.00000   0.00019   0.00019   0.00026
   D54       -3.14120   0.00001   0.00000   0.00005   0.00005  -3.14116
   D55        3.14139   0.00001   0.00000   0.00019   0.00019   3.14158
   D56        0.00011   0.00000   0.00000   0.00005   0.00005   0.00016
   D57        3.14114  -0.00000   0.00000  -0.00005  -0.00005   3.14110
   D58        1.03549  -0.00250   0.00000  -0.01326  -0.01356   1.02193
   D59       -1.03630   0.00248   0.00000   0.01313   0.01343  -1.02287
   D60       -0.00018  -0.00000   0.00000  -0.00005  -0.00005  -0.00022
   D61       -2.10582  -0.00249   0.00000  -0.01326  -0.01356  -2.11939
   D62        2.10557   0.00249   0.00000   0.01313   0.01342   2.11899
         Item               Value     Threshold  Converged?
 Maximum Force            0.071727     0.000450     NO 
 RMS     Force            0.012033     0.000300     NO 
 Maximum Displacement     0.259928     0.001800     NO 
 RMS     Displacement     0.076014     0.001200     NO 
 Predicted change in Energy=-2.483226D-02
 GradGradGradGradGradGradGradGradGradGradGradGradGradGradGradGradGradGrad

                          Input orientation:                          
 ---------------------------------------------------------------------
 Center     Atomic      Atomic             Coordinates (Angstroms)
 Number     Number       Type             X           Y           Z
 ---------------------------------------------------------------------
      1          6           0       -1.930750    1.850471   -0.075840
      2          6           0       -0.562843    1.175347    0.008792
      3          6           0        0.562805    2.201081   -0.045644
      4          7           0        1.854531    1.543152    0.036031
      5          6           0        3.026213    2.243570    0.005194
      6          8           0        2.981573    3.491621   -0.095992
      7          7           0        4.130226    1.461453    0.093421
      8          6           0        5.403855    1.998045    0.074270
      9          6           0        5.726054    3.368872   -0.045261
     10          6           0        6.474509    1.091845    0.182680
     11          6           0        7.787495    1.530283    0.172651
     12          6           0        8.113770    2.887389    0.054547
     13          6           0        7.050559    3.803914   -0.055066
     14          1           0       -2.731029    1.100099   -0.036236
     15          1           0       -2.032294    2.409473   -1.016331
     16          1           0       -2.073978    2.547808    0.761122
     17          1           0       -0.450250    0.468674   -0.827039
     18          1           0       -0.491448    0.607549    0.948562
     19          1           0        0.451874    2.908928    0.790283
     20          1           0        0.492965    2.768744   -0.986377
     21          1           0        1.888441    0.530996    0.117921
     22          1           0        4.955254    4.118633   -0.133333
     23          1           0        6.272875    0.029903    0.276197
     24          1           0        8.584308    0.797356    0.258974
     25         17           0        7.258052    5.539882   -0.211657
     26          6           0        9.589554    3.189022    0.060597
     27          9           0        9.951260    4.482058   -0.051359
     28          9           0       10.236226    2.547400   -0.947432
     29          9           0       10.186710    2.747029    1.198147
 ---------------------------------------------------------------------
                    Distance matrix (angstroms):
                    1          2          3          4          5
     1  C    0.000000
     2  C    1.527784   0.000000
     3  C    2.518264   1.523870   0.000000
     4  N    3.799383   2.445347   1.451929   0.000000
     5  C    4.973186   3.744655   2.464299   1.365422   0.000000
     6  O    5.179256   4.235445   2.741982   2.254814   1.252941
     7  N    6.075806   4.702544   3.645940   2.277884   1.355852
     8  C    7.337625   6.023505   4.846789   3.578560   2.391283
     9  C    7.805967   6.660684   5.293664   4.281186   2.925404
    10  C    8.443383   7.039995   6.019201   4.644285   3.639879
    11  C    9.726693   8.359484   7.259047   5.934551   4.817326
    12  C   10.098741   8.844026   7.582752   6.401983   5.128369
    13  C    9.191316   8.054647   6.682822   5.667279   4.316673
    14  H    1.097759   2.169959   3.472981   4.607481   5.869845
    15  H    1.098779   2.175598   2.778524   4.118905   5.163286
    16  H    1.098772   2.175587   2.779158   4.119256   5.164875
    17  H    2.159987   1.100308   2.153623   2.685406   3.991073
    18  H    2.160056   1.100299   2.153889   2.685458   3.992549
    19  H    2.747253   2.155385   1.100966   2.098019   2.772415
    20  H    2.747125   2.154996   1.100953   2.097917   2.770626
    21  H    4.045340   2.536906   2.138515   1.016029   2.059161
    22  H    7.250166   6.255600   4.793568   4.034386   2.693742
    23  H    8.410581   6.936180   6.117393   4.676470   3.938855
    24  H   10.572965   9.158376   8.149095   6.774645   5.748770
    25  Cl   9.902741   8.959027   7.483414   6.725566   5.368534
    26  C   11.598609  10.350301   9.081272   7.908228   6.631319
    27  F   12.169963  11.021992   9.661571   8.614048   7.278069
    28  F   12.218048  10.927799   9.721535   8.498737   7.279018
    29  F   12.217189  10.928754   9.719291   8.498532   7.276629
                    6          7          8          9         10
     6  O    0.000000
     7  N    2.340270   0.000000
     8  C    2.850826   1.382182   0.000000
     9  C    2.747693   2.490812   1.413246   0.000000
    10  C    4.247020   2.374919   1.406859   2.407694   0.000000
    11  C    5.197682   3.658774   2.431094   2.770818   1.384291
    12  C    5.169836   4.231244   2.852185   2.437822   2.434660
    13  C    4.081158   3.746668   2.447351   1.394156   2.782746
    14  H    6.193285   6.871987   8.185039   8.756122   9.208144
    15  H    5.211231   6.333004   7.526951   7.877524   8.691344
    16  H    5.213830   6.333888   7.529408   7.884472   8.690860
    17  H    4.631420   4.776360   6.117342   6.867973   7.025679
    18  H    4.633664   4.777059   6.119842   6.875313   7.024648
    19  H    2.743062   4.013860   5.085715   5.359725   6.320055
    20  H    2.740165   4.013059   5.082892   5.350801   6.321198
    21  H    3.163225   2.427334   3.809498   4.775714   4.620689
    22  H    2.071220   2.791540   2.177438   1.078904   3.401389
    23  H    4.791105   2.583348   2.160916   3.398685   1.084953
    24  H    6.227014   4.506360   3.404564   3.856795   2.131619
    25  Cl   4.743103   5.148781   4.008043   2.662328   4.533704
    26  C    6.616759   5.726241   4.351860   3.869132   3.757201
    27  F    7.039850   6.559683   5.183144   4.369391   4.861698
    28  F    7.365222   6.288553   4.969656   4.672299   4.188832
    29  F    7.358207   6.289207   4.969888   4.672281   4.189421
                   11         12         13         14         15
    11  C    0.000000
    12  C    1.400764   0.000000
    13  C    2.400902   1.407996   0.000000
    14  H   10.529389  10.991466  10.148421   0.000000
    15  H    9.930503  10.213608   9.239411   1.778560   0.000000
    16  H    9.931279  10.217865   9.246683   1.778583   1.783315
    17  H    8.365814   8.942584   8.245114   2.495200   2.511054
    18  H    8.366264   8.946883   8.252629   2.495627   3.079275
    19  H    7.489557   7.697169   6.712545   3.753115   3.111977
    20  H    7.489145   7.692481   6.703802   3.752504   2.550864
    21  H    5.983344   6.656675   6.114686   4.656946   4.493035
    22  H    3.848997   3.395216   2.120255   8.258324   7.247533
    23  H    2.134464   3.406354   3.867517   9.072664   8.735491
    24  H    1.086069   2.152077   3.389749  11.323236  10.813767
    25  Cl   4.062620   2.799792   1.755322  10.932712   9.836538
    26  C    2.451813   1.506306   2.614950  12.496789  11.697641
    27  F    3.666747   2.435272   2.978918  13.125484  12.199685
    28  F    2.878437   2.371577   3.538873  13.079552  12.269489
    29  F    2.878949   2.371625   3.538784  13.080676  12.422637
                   16         17         18         19         20
    16  H    0.000000
    17  H    3.079212   0.000000
    18  H    2.510804   1.781500   0.000000
    19  H    2.551703   3.063397   2.492239   0.000000
    20  H    3.113160   2.491057   3.063302   1.782656   0.000000
    21  H    4.492438   2.523155   2.521844   2.858383   2.859081
    22  H    7.257936   6.559184   6.569990   4.753617   4.739399
    23  H    8.731836   6.827156   6.822157   6.514378   6.519410
    24  H   10.812738   9.105531   9.103896   8.418878   8.420636
    25  Cl   9.848126   9.247365   9.258983   7.365450   7.351585
    26  C   11.702131  10.439629  10.444093   9.171046   9.166281
    27  F   12.206874  11.175881  11.183103   9.665475   9.657590
    28  F   12.428205  10.887441  11.065298   9.944038   9.745853
    29  F   12.270092  11.065135  10.893243   9.744721   9.936866
                   21         22         23         24         25
    21  H    0.000000
    22  H    4.726479   0.000000
    23  H    4.415813   4.315271   0.000000
    24  H    6.702647   4.935061   2.435570   0.000000
    25  Cl   7.350529   2.707206   5.618580   4.946918   0.000000
    26  C    8.147118   4.730595   4.585507   2.601910   3.322133
    27  F    8.980455   5.009877   5.784417   3.942320   2.897940
    28  F    8.653692   5.569579   4.852135   2.692008   4.285538
    29  F    8.656729   5.569765   4.852924   2.692761   4.285395
[...]
 49,-0.00020154,0.00000278,-0.00000049,-0.00000052,0.,-0.00000077,0.000
 00004,0.00000015,0.00000002,-0.00000028,-0.00000008,0.00000015,0.00000
 088,-0.00000046,0.00000065,-0.00000020,0.00001272,-0.00000166,-0.00000
 561,0.00000331,-0.00000767,-0.00000145,-0.00000634,-0.00001614,-0.0000
 1922,0.00046561,0.00113867,-0.00014325,0.07198757,0.00000267,0.0000046
 3,0.00000265,0.00000576,-0.00001225,-0.00000499,-0.00000353,0.00001471
 ,0.00004436,0.00009262,-0.00008585,0.00004136,0.00007655,0.00043004,-0
 .00033047,0.00002121,0.00017204,0.00009746,-0.00142809,0.00171399,-0.0
 0120706,-0.00790170,-0.01498862,0.00344196,0.00332634,-0.00153343,0.00
 176559,-0.06024553,-0.32415050,0.05768018,0.00013536,-0.00379990,0.001
 35215,-0.00155294,0.00207619,0.00085094,0.00120977,0.00068541,-0.00014
 757,0.00000244,-0.00000015,-0.00000071,-0.00000040,-0.00000005,0.00000
 007,0.00000068,-0.00000016,-0.00000102,0.00000116,0.00000036,0.0000008
 9,-0.00000030,0.00000283,-0.00000041,-0.00000514,-0.00000112,-0.000008
 54,0.00000912,0.00000164,-0.00000298,-0.00001407,-0.00001728,-0.000009
 11,-0.00055979,-0.00082740,0.00007166,0.06678940,0.34037325,-0.0000027
 2,-0.00000614,-0.00000308,-0.00000096,0.00000982,0.00000922,0.00003046
 ,-0.00005149,0.00006848,-0.00028121,-0.00005463,0.00002854,0.00068486,
 -0.00053939,-0.00074668,0.00004019,0.00014288,0.00012415,0.00098217,-0
 .00033308,-0.00229481,0.00121427,0.00619275,0.00323795,-0.00131768,0.0
 0163153,0.00470880,0.00959203,0.05728060,-0.04656069,-0.00038078,-0.00
 134820,0.00271682,-0.00088376,0.00085467,0.00667368,-0.00040206,-0.000
 09145,-0.00052923,-0.00000327,0.00000069,0.00000020,-0.00000039,0.0000
 0085,0.00000005,0.00000064,-0.00000002,-0.00000044,-0.00000061,-0.0000
 0098,-0.00000297,-0.00000040,-0.00000144,0.00000046,-0.00003129,0.0000
 0798,0.00000355,0.00000249,0.00000548,-0.00000212,-0.00000399,0.000001
 18,-0.00000510,0.00006867,0.00016616,-0.00054054,-0.00990094,-0.062719
 88,0.03733193,-0.00000653,-0.00001158,-0.00000647,-0.00001389,0.000025
 29,0.00001938,0.00003178,-0.00007597,-0.00003211,-0.00034563,0.0000772
 8,-0.00001468,0.00020177,-0.00059665,-0.00024912,-0.00010561,0.0003107
 0,0.00010161,-0.00152481,0.00106896,-0.00006102,-0.00239649,-0.0032287
 6,-0.00038241,-0.00043009,-0.00067470,0.00024779,-0.01602908,0.0205048
 3,-0.00684997,-0.20751230,0.13956816,-0.04871366,0.00957823,-0.0052443
 4,0.00169813,0.00025691,-0.00160506,-0.00019420,-0.00000646,0.00000131
 ,0.00000145,-0.00000014,0.00000097,-0.00000006,-0.00000033,0.00000031,
 0.00000091,0.00000095,-0.00000057,-0.00000233,0.00000024,-0.00000278,-
 0.00000004,-0.00001821,0.00000632,0.00001582,-0.00000863,0.00000828,0.
 00000308,0.00001066,0.00002234,0.00002211,0.00004013,0.00014490,0.0000
 1213,0.00130906,0.00002463,0.00060989,0.21986648,-0.00000088,-0.000000
 20,-0.00000087,-0.00000301,0.,0.00000131,-0.00001857,-0.00000759,-0.00
 000889,0.00001663,0.00003985,0.00007312,-0.00034455,0.00014183,-0.0002
 1745,0.00001303,-0.00009338,0.00000486,0.00013035,0.00041993,-0.000024
 20,-0.00299838,0.00008077,0.00146755,-0.00048279,-0.00001284,-0.000233
 93,-0.00851559,0.01102673,-0.00223873,0.13853173,-0.18710571,0.0474272
 1,0.02085780,-0.01453430,0.00634926,-0.00308093,-0.00259711,0.00144027
 ,0.00000002,0.00000018,0.00000010,0.00000007,-0.00000014,0.00000001,0.
 00000019,-0.00000003,-0.00000016,0.00000032,0.00000013,0.00000024,0.,0
 .00000036,0.00000001,0.00000527,-0.00000112,-0.00000345,0.00000261,0.0
 0000088,-0.00000069,0.00000076,-0.00000009,-0.00000486,0.00009616,0.00
 005593,-0.00009787,0.00046116,0.00043742,-0.00116785,-0.14709801,0.193
 39877,-0.00000196,-0.00000282,-0.00000241,-0.00000117,0.00000374,0.000
 00669,0.00001676,-0.00003764,0.00002921,-0.00011974,0.00000872,0.00001
 039,0.00022172,-0.00008847,-0.00040992,-0.00004225,0.00003507,0.000045
 03,-0.00010250,0.00008943,-0.00029782,-0.00047959,0.00166068,0.0077722
 5,-0.00007659,-0.00055916,-0.00085906,0.00000610,0.00074459,0.00496793
 ,-0.04851516,0.04755529,-0.05421566,-0.00422903,0.00361110,0.00299831,
 0.00028211,0.00167474,0.00487128,-0.00000164,0.00000047,0.00000009,-0.
 00000028,0.00000040,0.00000004,0.00000019,-0.00000006,-0.00000015,-0.0
 0000028,-0.00000043,-0.00000132,0.00000011,-0.00000050,0.00000015,-0.0
 0001326,0.00000235,0.00000384,0.00000262,0.00000164,-0.00000093,-0.000
 00006,0.00000499,-0.00000085,0.00000857,-0.00011443,-0.00042694,0.0005
 4314,-0.00114936,-0.00463747,0.05279302,-0.05262121,0.04321782,-0.0000
 0776,-0.00001461,-0.00000732,-0.00001279,0.00003019,0.00002200,0.00007
 318,-0.00008322,-0.00003558,-0.00047661,0.00001662,-0.00014833,0.00123
 102,-0.00068059,-0.00016218,-0.00035595,0.00044671,0.00021305,-0.00121
 404,-0.00179730,0.00053542,-0.00323722,0.00409272,-0.00209155,-0.00651
 892,-0.03575665,0.00759580,0.00163571,-0.00071816,0.00041864,-0.003534
 89,-0.00063701,-0.00059336,0.00838128,0.01479759,-0.00294400,-0.044167
 45,-0.02089345,0.00325382,-0.00000855,0.00000163,0.00000190,-0.0000003
 7,0.00000167,-0.00000012,-0.00000060,0.00000042,0.00000105,0.00000046,
 -0.00000138,-0.00000342,0.00000046,-0.00000313,-0.00000053,-0.00003067
 ,0.00000780,0.00002271,-0.00001772,0.00001468,0.00000653,0.00002264,0.
 00005613,0.00005549,0.00044862,-0.00162469,0.00074876,0.00018592,-0.00
 014719,0.00009968,0.00029158,0.00062957,-0.00014467,0.05320602,-0.0000
 2167,-0.00003977,-0.00001992,-0.00003138,0.00008104,0.00006499,0.00021
 894,-0.00024216,-0.00005162,-0.00134839,-0.00001132,-0.00045396,0.0032
 4147,-0.00195760,-0.00015490,-0.00100061,0.00123256,0.00043829,-0.0040
 2541,-0.00236161,0.00022473,-0.00040487,0.00861336,-0.00067124,-0.0120
 3786,-0.03445666,0.00827616,0.00048335,-0.00183735,0.00024681,0.006476
 27,-0.00072779,0.00204399,-0.00969964,-0.03386884,0.00802717,-0.019595
 06,-0.14506765,0.02655685,-0.00002262,0.00000481,0.00000521,-0.0000017
 4,0.00000450,-0.00000038,-0.00000182,0.00000093,0.00000218,0.00000197,
 -0.00000399,-0.00000911,0.00000043,-0.00000803,-0.00000211,-0.00009514
 ,0.00002661,0.00006902,-0.00004651,0.00002976,0.00001511,0.00004656,0.
 00012042,0.00012191,0.00119561,0.00129465,-0.00083815,-0.00012910,-0.0
 0036287,-0.00010136,-0.00089537,-0.00163384,0.00031996,0.03740904,0.21
 286995,0.00000502,0.00001035,0.00000487,0.00000561,-0.00002032,-0.0000
 1484,-0.00006353,0.00006260,0.00000932,0.00036689,0.00004536,0.0001718
 2,-0.00086623,0.00062574,0.00009239,0.00036936,-0.00029030,-0.00015705
 ,0.00129432,0.00024382,-0.00076630,-0.00120528,-0.00054546,0.00643457,
 0.00224823,0.00609767,0.00375932,0.00010180,0.00004999,-0.00100746,-0.
 00234951,0.00119761,0.00335844,0.00321185,0.01008698,0.00112331,0.0023
 6907,0.02661616,-0.02909343,0.00000588,-0.00000121,-0.00000143,0.00000
 044,-0.00000132,-0.00000001,0.00000056,-0.00000033,-0.00000062,-0.0000
 0038,0.00000075,0.00000227,0.00000083,0.00000213,0.00000051,0.00002929
 ,-0.00000522,-0.00001684,0.00001177,-0.00000959,-0.00000395,0.00000913
 ,-0.00003174,-0.00004946,-0.00008101,-0.00118348,-0.00295767,0.0001022
 7,-0.00004446,-0.00055922,0.00020457,0.00056123,0.00036125,-0.00518436
 ,-0.04369943,0.02234033,0.00008521,0.00015356,0.00007849,0.00008863,-0
 .00033127,-0.00025269,-0.00107096,0.00105394,-0.00028489,0.00603188,0.
 00031561,0.00248162,-0.01461794,0.01214480,-0.00113117,0.00240666,-0.0
 0690346,-0.00097078,0.02524939,0.00094453,0.00337564,-0.02072330,-0.00
 779453,-0.00201243,0.01115095,0.01177169,-0.00158875,0.01563884,-0.001
 13450,0.00007791,-0.01460621,-0.02470416,0.00378945,-0.20626695,-0.037
 55429,-0.00599573,-0.03726527,0.00962451,-0.00542668,0.00009272,-0.000
 01808,-0.00001778,0.00000423,-0.00001638,-0.00000003,0.00000847,-0.000
 00448,-0.00000669,-0.00001206,0.00001434,0.00003890,-0.00000054,0.0000
 3897,0.00000643,0.00052784,-0.00013575,-0.00032590,0.00016321,-0.00008
 632,-0.00004456,-0.00010835,-0.00034971,-0.00043595,0.00036864,-0.0001
 9844,-0.00007372,0.00119950,0.00088228,-0.00003343,-0.00083381,0.00253
 888,-0.00013718,-0.00210627,-0.00498621,0.00112422,0.59623982,0.000027
 93,0.00005179,0.00002742,0.00003121,-0.00011186,-0.00008827,-0.0003737
 9,0.00036710,-0.00009278,0.00205755,0.00011295,0.00087912,-0.00494701,
 0.00401457,-0.00052349,0.00089403,-0.00219991,-0.00030615,0.00843689,0
 .00067760,0.00088890,-0.00599790,-0.00598095,-0.00000298,0.00864130,0.
 00114202,0.00197800,0.00363094,-0.00654371,0.00281519,-0.03124557,-0.0
 0645685,-0.00144081,-0.02682399,-0.10144659,0.00599448,0.01401864,0.01
 934507,-0.00406157,0.00003127,-0.00000667,-0.00000620,0.00000245,-0.00
 000652,0.00000064,0.00000314,-0.00000124,-0.00000295,-0.00000481,0.000
 00515,0.00001290,-0.00000071,0.00001182,0.00000262,0.00017694,-0.00004
 661,-0.00011347,0.00005840,-0.00003069,-0.00001451,-0.00003900,-0.0001
 1722,-0.00014914,0.00117772,0.00062664,0.00033238,-0.00098431,0.000130
 52,0.00002825,-0.00011671,-0.00199548,-0.00031396,-0.00136774,-0.00362
 070,-0.00003081,0.00957564,0.51165289,-0.00000206,0.00000303,-0.000002
 10,0.00000331,-0.00000691,-0.00000210,-0.00002956,0.00000334,0.0000439
 1,0.00008757,-0.00003172,0.00013191,-0.00013319,0.00030451,-0.00033857
 ,-0.00035395,-0.00019929,0.00009797,0.00056762,0.00012610,-0.00037025,
 -0.00034532,0.00043128,-0.00114743,-0.00169992,0.00189860,0.00417373,0
 .00015573,0.00282162,0.00537422,0.00541673,-0.00105495,0.00180361,-0.0
 0904955,0.00496139,-0.06460570,-0.00612839,-0.00452533,-0.00413445,0.0
 0000006,-0.00000103,-0.00000013,0.00000126,0.00000022,0.00000056,0.000
 00083,-0.00000077,-0.00000223,-0.00000202,-0.00000273,-0.00000284,-0.0
 0000120,0.00000202,-0.00000074,-0.00000664,-0.00000296,-0.00002097,0.0
 0000994,0.00000568,-0.00000192,-0.00001687,-0.00002186,0.00001742,-0.0
 0023423,0.00013056,0.00139876,0.00029130,0.00018829,0.00057407,0.00033
 275,-0.00005652,-0.00350293,0.00027494,-0.00057746,-0.00299672,0.01229
 425,-0.01043506,0.46544871,-0.00002427,-0.00004227,-0.00002320,-0.0000
 2510,0.00009111,0.00007104,0.00029317,-0.00029209,0.00007758,-0.001662
 98,-0.00007025,-0.00069597,0.00399250,-0.00331710,0.00036849,-0.000639
 29,0.00192106,0.00025840,-0.00705397,-0.00025155,-0.00093259,0.0059076
 6,0.00164187,0.00111674,-0.00238866,-0.00285878,-0.00045811,-0.0041937
 3,-0.00071455,-0.00165715,-0.00189591,0.00654778,0.00155192,-0.0190734
 7,-0.02215936,0.03508292,0.00572230,-0.00345973,0.00073259,-0.00002568
 ,0.00000501,0.00000496,-0.00000124,0.00000465,-0.00000005,-0.00000248,
 0.00000121,0.00000189,0.00000281,-0.00000417,-0.00001115,0.00000077,-0
 .00001033,-0.00000181,-0.00014166,0.00003819,0.00009211,-0.00004590,0.
 00002286,0.00001238,0.00003474,0.00009834,0.00011634,-0.00008702,-0.00
 000661,-0.00011701,-0.00051987,-0.00035592,-0.00042883,0.00026292,0.00
 006271,0.00064696,-0.00220860,0.00296872,0.00059679,-0.10456158,-0.027
 96275,0.06002060,0.10075753,-0.00001466,-0.00002543,-0.00001392,-0.000
 01441,0.00005495,0.00004314,0.00018061,-0.00017757,0.00005551,-0.00100
 816,-0.00004345,-0.00043682,0.00244190,-0.00207635,0.00023525,-0.00032
 355,0.00117762,0.00013020,-0.00432391,-0.00015208,-0.00049835,0.003467
 91,0.00143298,0.00046592,-0.00199421,-0.00171565,-0.00061938,-0.002504
 11,0.00048840,-0.00112315,0.00091147,0.00308356,0.00021838,-0.01692503
 ,-0.00021716,0.01727687,0.00192006,-0.00449030,0.00221388,-0.00001532,
 0.00000305,0.00000300,-0.00000085,0.00000300,-0.00000010,-0.00000156,0
 .00000060,0.00000107,0.00000199,-0.00000258,-0.00000669,0.00000012,-0.
 00000610,-0.00000115,-0.00008795,0.00002310,0.00005589,-0.00002764,0.0
 0001395,0.00000701,0.00002002,0.00005954,0.00007214,-0.00017392,-0.000
 04127,-0.00015349,-0.00014770,-0.00014759,-0.00011262,0.00020567,0.000
 36105,0.00039946,0.00327894,0.00029512,-0.00071862,-0.02740214,-0.0893
 4371,0.05713986,0.03063155,0.11702562,0.00001369,0.00002427,0.00001280
 ,0.00001454,-0.00005240,-0.00004158,-0.00016867,0.00017084,-0.00004560
 ,0.00096083,0.00004499,0.00040594,-0.00229577,0.00187842,-0.00022075,0
 .00038405,-0.00107543,-0.00014113,0.00403821,0.00013054,0.00052784,-0.
 00330086,-0.00132605,-0.00048250,0.00195103,0.00146339,0.00029558,0.00
 203386,0.00031500,0.00052419,0.00176654,-0.00320024,-0.00069500,0.0137
 1649,0.01155350,-0.00978434,-0.00318786,0.00359009,-0.00077140,0.00001
 496,-0.00000289,-0.00000294,0.00000101,-0.00000286,-0.00000021,0.00000
 100,-0.00000069,-0.00000039,-0.00000113,0.00000261,0.00000733,-0.00000
 090,0.00000528,0.00000079,0.00008136,-0.00002208,-0.00005060,0.0000273
 5,-0.00001370,-0.00000737,-0.00001834,-0.00005736,-0.00007108,0.000126
 12,0.00001036,0.00004182,0.00034734,0.00020996,0.00020127,-0.00021400,
 -0.00037006,-0.00013845,-0.00053953,-0.00137796,0.00073744,0.06437049,
 0.05491436,-0.18645898,-0.08203888,-0.09694425,0.31691884,-0.00001836,
 -0.00003353,-0.00001673,-0.00002106,0.00007146,0.00005479,0.00022751,-
 0.00022947,0.00003477,-0.00129030,-0.00008340,-0.00052406,0.00299818,-
 0.00230066,0.00024711,-0.00072601,0.00128558,0.00028898,-0.00504821,-0
 .00026854,-0.00059150,0.00401571,0.00206265,0.00019456,-0.00338380,0.0
 0085339,-0.00068821,-0.00218107,0.00106337,-0.00025244,0.00017731,0.00
 285525,-0.00039115,-0.03607726,0.03941817,-0.01391641,-0.00337475,-0.0
 0939926,0.00146164,-0.00002042,0.00000390,0.00000387,-0.00000078,0.000
 00339,0.00000008,-0.00000181,0.00000119,0.00000166,0.00000260,-0.00000
 305,-0.00000815,-0.00000021,-0.00000878,-0.00000136,-0.00010655,0.0000
 2946,0.00006985,-0.00003552,0.00001862,0.00001097,0.00002116,0.0000758
 6,0.00009304,-0.00064508,-0.00036655,0.00003840,-0.00017382,-0.0002167
 7,0.00000300,-0.00298545,-0.00055565,-0.00009081,0.00034892,0.00069102
 ,-0.00012449,-0.17169037,0.08490708,-0.03137981,0.01534427,0.00503282,
 -0.01114337,0.19598360,0.00000632,0.00001112,0.00000561,0.00000543,-0.
 00002384,-0.00001751,-0.00008047,0.00007428,-0.00002265,0.00043800,0.0
 0003964,0.00019598,-0.00111431,0.00083457,-0.00013180,0.00022297,-0.00
 047046,-0.00009007,0.00179956,0.00022731,0.00024818,-0.00189512,-0.000
 73344,-0.00012271,0.00077450,0.00019058,0.00001566,0.00090739,0.001176
 54,-0.00028742,-0.00408320,-0.00495189,0.00060279,0.00888481,-0.002946
 39,0.00359695,-0.00061580,0.00227478,-0.00001645,0.00000678,-0.0000012
 7,-0.00000116,0.00000011,-0.00000084,-0.00000020,0.00000066,-0.0000004
 8,-0.00000043,-0.00000073,0.00000082,0.00000278,0.00000015,0.00000347,
 0.00000025,0.00003906,-0.00001039,-0.00002361,0.00001175,-0.00000541,-
 0.00000380,-0.00000598,-0.00002554,-0.00003194,0.00015591,0.00009873,-
 0.00007954,0.00009938,0.00003380,0.00001517,-0.00284254,0.00175067,-0.
 00061834,0.00036653,0.00009902,0.00004646,0.09765205,-0.16212819,0.033
 23940,0.01380367,-0.03610380,0.04634509,-0.14499708,0.27453997,-0.0000
 0373,-0.00000605,-0.00000316,-0.00000374,0.00001229,0.00001028,0.00004
 297,-0.00004127,0.00000810,-0.00024580,-0.00001152,-0.00011219,0.00057
 873,-0.00048550,0.00002430,-0.00005678,0.00026177,0.00004673,-0.000933
 93,-0.00007170,-0.00008031,0.00078395,0.00037700,0.00023335,-0.0004299
 4,-0.00001281,-0.00053092,-0.00043977,-0.00015825,0.00005882,0.0010247
 8,0.00147835,-0.00053692,-0.00667556,0.00670960,0.00581953,-0.00056468
 ,-0.00093956,0.00261675,-0.00000363,0.00000078,0.00000067,-0.00000014,
 0.00000043,-0.00000007,-0.00000053,0.00000017,0.00000056,0.00000075,-0
 .00000065,-0.00000105,0.00000013,-0.00000174,-0.00000049,-0.00001984,0
 .00000590,0.00001570,-0.00000694,0.00000278,0.00000191,0.00000449,0.00
 001624,0.00001500,-0.00009448,-0.00013532,-0.00032643,-0.00004521,-0.0
 0002199,0.00002785,0.00048153,-0.00041716,0.00034135,-0.00005633,0.000
 10593,0.00020350,-0.03418995,0.03185558,-0.07767943,-0.02048665,0.0530
 7536,-0.03628449,0.04642777,-0.06218536,0.09785353,-0.00002204,-0.0000
 3932,-0.00002034,-0.00002219,0.00008492,0.00006338,0.00026985,-0.00026
 756,0.00007881,-0.00152802,-0.00008747,-0.00061912,0.00368502,-0.00307
 744,0.00017815,-0.00062630,0.00175093,0.00028720,-0.00633790,-0.000062
 84,-0.00087130,0.00535280,0.00130801,0.00040833,-0.00223632,-0.0023343
 6,0.00085118,-0.00396181,0.00004744,0.00141953,-0.00110282,0.00457127,
 -0.00399033,-0.01020438,-0.03300498,-0.02381017,0.00495298,-0.00259470
 ,0.00155394,-0.00002339,0.00000457,0.00000447,-0.00000105,0.00000432,-
 0.00000004,-0.00000217,0.00000111,0.00000187,0.00000317,-0.00000352,-0
 .00000960,-0.00000061,-0.00001020,-0.00000154,-0.00013539,0.00003348,0
 .00008128,-0.00004041,0.00002242,0.00001104,0.00002413,0.00008822,0.00
 011131,-0.00005723,0.00002939,0.00007642,-0.00052824,-0.00014863,0.000
 34398,0.00036675,-0.00024890,-0.00056510,-0.00192739,0.00161001,-0.002
 18309,-0.08539238,-0.03380684,-0.03007420,0.01223275,0.00687207,0.0130
 6044,0.00866157,0.03046021,0.01491251,0.07860101,-0.00001992,-0.000036
 53,-0.00001903,-0.00002069,0.00007834,0.00005913,0.00025262,-0.0002520
 6,0.00007788,-0.00141685,-0.00007094,-0.00056695,0.00346780,-0.0028877
 4,0.00019798,-0.00059832,0.00164639,0.00025530,-0.00598435,-0.00011595
 ,-0.00089230,0.00491908,0.00189560,0.00031782,-0.00298848,-0.00200927,
 0.00084974,-0.00345788,0.00075993,0.00091519,0.00016049,0.00376502,-0.
 00241751,-0.01748086,-0.01622796,-0.02047421,0.00342802,-0.00599007,0.
 00108328,-0.00002163,0.00000446,0.00000430,-0.00000122,0.00000418,-0.0
 0000029,-0.00000212,0.00000085,0.00000200,0.00000301,-0.00000348,-0.00
 000880,0.00000010,-0.00000877,-0.00000178,-0.00012887,0.00003125,0.000
 07531,-0.00003809,0.00002153,0.00000958,0.00002369,0.00007881,0.000103
 04,-0.00020186,0.00001118,0.00012233,-0.00035526,-0.00014964,0.0001905
 0,0.00042310,0.00026733,-0.00060625,0.00257488,0.00152746,0.00093545,-
 0.03509109,-0.15810122,-0.08433931,0.00366673,0.01052051,-0.01621271,0
 .02008955,-0.07395334,-0.02941330,0.02879840,0.23919414,-0.00001068,-0
 .00001917,-0.00000969,-0.00001154,0.00004114,0.00003117,0.00013161,-0.
 00012964,0.00002846,-0.00073844,-0.00003560,-0.00029767,0.00176245,-0.
 00147091,0.00008952,-0.00032147,0.00083737,0.00015269,-0.00304108,-0.0
 0001107,-0.00036523,0.00252579,0.00081873,0.00010275,-0.00134449,-0.00
 105722,0.00015502,-0.00145773,-0.00047031,0.00046900,-0.00206137,0.002
 01924,-0.00228954,-0.00685121,-0.01673444,-0.00194051,0.00280132,-0.00
 149456,0.00146898,-0.00001118,0.00000246,0.00000230,-0.00000050,0.0000
 0195,-0.00000029,-0.00000126,0.00000041,0.00000137,0.00000181,-0.00000
 164,-0.00000366,-0.00000031,-0.00000497,-0.00000113,-0.00006551,0.0000
 1613,0.00004079,-0.00002018,0.00001087,0.00000508,0.00001235,0.0000436
 5,0.00005116,-0.00004278,-0.00000171,-0.00002791,-0.00038259,-0.000098
 95,0.00017533,0.00017590,0.00013871,-0.00013171,-0.00133850,0.00143931
 ,-0.00097434,-0.03470908,-0.08214770,-0.13779740,0.00609967,-0.0307643
 8,-0.08447701,0.01019801,-0.02068133,0.00827755,0.02870100,0.14975362,
 0.21726493\\0.00000150,0.00000120,0.00000013,-0.00000363,0.00000295,0.
 00000417,0.00000339,-0.00000328,-0.00000563,-0.00000852,-0.00000181,0.
 00001169,-0.00000932,0.00001548,0.00000444,0.00000207,-0.00001465,-0.0
 0001272,0.00000933,0.00000080,0.00000801,-0.00000522,-0.00001409,-0.00
 000032,0.00000657,0.00001521,-0.00000619,0.00000172,0.00000488,0.00000
 261,0.00000126,0.00000488,-0.00000003,0.00000430,-0.00000484,0.0000102
 6,-0.00000250,-0.00000293,-0.00000388,0.00000010,0.00000242,0.00000291
 ,0.00000013,0.00000059,-0.00000383,0.00000017,0.00000761,-0.00000056,0
 .00000062,-0.00000594,0.00000281,-0.00000231,0.00000211,0.00000624,0.0
 0000057,0.00000600,-0.00000021,0.00000071,-0.00000006,-0.00000315,0.00
 000250,0.00000457,0.00000270,0.00000363,-0.00000718,-0.00000760,-0.000
 00250,0.00000066,0.00000889,0.00000276,0.00000122,0.00000898,-0.000000
 97,-0.00000095,-0.00001260,0.00000106,0.00000709,0.00000039,0.00000135
 ,-0.00001358,0.00000082,-0.00000528,-0.00000286,-0.00000279,-0.0000034
 8,-0.00000549,-0.00001555\\\@


 THE MOST INCOMPREHENSIBLE THING ABOUT THE WORLD
 IS THAT IT IS COMPREHENSIBLE. -- A. EINSTEIN
 Job cpu time:       0 days  3 hours 17 minutes 51.3 seconds.
 File lengths (MBytes):  RWF=    529 Int=      0 D2E=      0 Chk=     20 Scr=      1
 Normal termination of Gaussian 09 at Wed Oct 31 08:05:00 2018.
