 Entering Gaussian System, Link 0=/apps/gaussian/g09e01/g09/g09
 AtFile(1): /home/507/hio507/Basis/6-31pGd.gbs
 Initial command:
 /apps/gaussian/g09e01/g09/l1.exe "/jobfs/local/9354123.r-man2/Gau-5121.inp" -scrdir="/jobfs/local/9354123.r-man2/"
 Entering Link 1 = /apps/gaussian/g09e01/g09/l1.exe PID=      5146.
  
 Copyright (c) 1988,1990,1992,1993,1995,1998,2003,2009,2015,
            Gaussian, Inc.  All Rights Reserved.
  
 This is part of the Gaussian(R) 09 program.  It is based on
 the Gaussian(R) 03 system (copyright 2003, Gaussian, Inc.),
 the Gaussian(R) 98 system (copyright 1998, Gaussian, Inc.),
 the Gaussian(R) 94 system (copyright 1995, Gaussian, Inc.),
 the Gaussian 92(TM) system (copyright 1992, Gaussian, Inc.),
 the Gaussian 90(TM) system (copyright 1990, Gaussian, Inc.),
 the Gaussian 88(TM) system (copyright 1988, Gaussian, Inc.),
 the Gaussian 86(TM) system (copyright 1986, Carnegie Mellon
 University), and the Gaussian 82(TM) system (copyright 1983,
 Carnegie Mellon University). Gaussian is a federally registered
 trademark of Gaussian, Inc.
  
 This software contains proprietary and confidential information,
 including trade secrets, belonging to Gaussian, Inc.
  
 This software is provided under written license and may be
 used, copied, transmitted, or stored only in accord with that
 written license.
  
 The following legend is applicable only to US Government
 contracts under FAR:
  
                    RESTRICTED RIGHTS LEGEND
  
 Use, reproduction and disclosure by the US Government is
 subject to restrictions as set forth in subparagraphs (a)
 and (c) of the Commercial Computer Software - Restricted
 Rights clause in FAR 52.227-19.
  
 Gaussian, Inc.
 340 Quinnipiac St., Bldg. 40, Wallingford CT 06492
  
  
 ---------------------------------------------------------------
 Warning -- This program may not be used in any manner that
 competes with the business of Gaussian, Inc. or will provide
 assistance to any competitor of Gaussian, Inc.  The licensee
 of this program is prohibited from giving any competitor of
 Gaussian, Inc. access to this program.  By using this program,
 the user acknowledges that Gaussian, Inc. is engaged in the
 business of creating and licensing software in the field of
 computational chemistry and represents and warrants to the
 licensee that it is not a competitor of Gaussian, Inc. and that
 it will not use this program in any manner prohibited above.
 ---------------------------------------------------------------
  

 Cite this work as:
 Gaussian 09, Revision E.01,
 M. J. Frisch, G. W. Trucks, H. B. Schlegel, G. E. Scuseria, 
 M. A. Robb, J. R. Cheeseman, G. Scalmani, V. Barone, B. Mennucci, 
 G. A. Petersson, H. Nakatsuji, M. Caricato, X. Li, H. P. Hratchian, 
 A. F. Izmaylov, J. Bloino, G. Zheng, J. L. Sonnenberg, M. Hada, 
 M. Ehara, K. Toyota, R. Fukuda, J. Hasegawa, M. Ishida, T. Nakajima, 
 Y. Honda, O. Kitao, H. Nakai, T. Vreven, J. A. Montgomery, Jr., 
 J. E. Peralta, F. Ogliaro, M. Bearpark, J. J. Heyd, E. Brothers, 
 K. N. Kudin, V. N. Staroverov, T. Keith, R. Kobayashi, J. Normand, 
 K. Raghavachari, A. Rendell, J. C. Burant, S. S. Iyengar, J. Tomasi, 
 M. Cossi, N. Rega, J. M. Millam, M. Klene, J. E. Knox, J. B. Cross, 
 V. Bakken, C. Adamo, J. Jaramillo, R. Gomperts, R. E. Stratmann, 
 O. Yazyev, A. J. Austin, R. Cammi, C. Pomelli, J. W. Ochterski, 
 R. L. Martin, K. Morokuma, V. G. Zakrzewski, G. A. Voth, 
 P. Salvador, J. J. Dannenberg, S. Dapprich, A. D. Daniels, 
 O. Farkas, J. B. Foresman, J. V. Ortiz, J. Cioslowski, 
 and D. J. Fox, Gaussian, Inc., Wallingford CT, 2013.
 
 ******************************************
 Gaussian 09:  ES64L-G09RevE.01 30-Nov-2015
                21-Aug-2018 
 ******************************************
 %chk=diph_a1.M062X.SMD.h2o.opt.chk
 %mem=196608000
 %nproc=4
 Will use up to    4 processors via shared memory.
 ----------------------------------------------------------------------
 # M062X/Gen 6D SCF=Tight INT(grid=ultrafine) OPT IOP(2/17=4) Freq=Nora
 man SCRF=(SMD,Solvent=h2o) maxdisk=2147483648
 ----------------------------------------------------------------------
 1/14=-1,18=20,19=15,26=4,38=1/1,3;
 2/9=110,12=2,17=4,18=5,40=1/2;
 3/5=7,8=2,11=2,16=1,25=1,30=1,70=32201,71=1,72=1,74=-55,75=-5/1,2,3;
 4//1;
 5/5=2,32=2,38=5,53=1/2;
 6/7=2,8=2,9=2,10=2,28=1/1;
 7//1,2,3,16;
 1/14=-1,18=20,19=15,26=4/3(2);
 2/9=110,17=4/2;
 99//99;
 2/9=110,17=4/2;
 3/5=7,6=1,8=2,11=2,16=1,25=1,30=1,70=32205,71=1,72=1,74=-55,75=-5,82=7/1,2,3;
 4/5=5,16=3,69=1/1;
 5/5=2,32=2,38=5,53=1/2;
 7//1,2,3,16;
 1/14=-1,18=20,19=15,26=4/3(-5);
 2/9=110,17=4/2;
 6/7=2,8=2,9=2,10=2,19=2,28=1/1;
 99/9=1/99;
 -------------------------
 diph_a1.M062X.SMD.h2o.opt
 -------------------------
 Symbolic Z-matrix:
 Charge = -1 Multiplicity = 1
 C                    -4.17356   2.20316   0.0001 
 C                    -4.08048   0.8091    0.00009 
 C                    -3.01225   2.97971   0.0001 
 C                    -1.7588    2.36108   0.00009 
 C                    -1.65513   0.95936   0.00008 
 C                    -2.82589   0.19196   0.00008 
 N                    -0.402     0.28258   0.00006 
 C                     0.83342   0.84971   0.00005 
 O                     0.96445   2.06547   0.00004 
 N                     1.91963   0.03237   0.00004 
 C                     3.28819   0.4266    0.00002 
 C                     3.68815   1.77403   0. 
 C                     5.04463   2.11138  -0.00003 
 C                     6.0138    1.10522  -0.00002 
 C                     5.62583  -0.237     0. 
 C                     4.26854  -0.57265   0.00002 
 H                    -5.09949   2.65887   0.00011 
 H                    -4.93793   0.23481   0.0001 
 H                    -3.07976   4.0095    0.00011 
 H                    -0.90304   2.93788   0.00008 
 H                    -2.76242  -0.83809   0.00007 
 H                     1.74114  -0.93581   0.00005 
 H                     2.97494   2.51993  -0.00001 
 H                     5.33001   3.10314  -0.00004 
 H                     7.01557   1.35317  -0.00004 
 H                     6.34121  -0.9808    0. 
 H                     3.98706  -1.56552   0.00004 
 

 GradGradGradGradGradGradGradGradGradGradGradGradGradGradGradGradGradGrad
 Berny optimization.
 Initialization pass.
                           ----------------------------
                           !    Initial Parameters    !
                           ! (Angstroms and Degrees)  !
 --------------------------                            --------------------------
 ! Name  Definition              Value          Derivative Info.                !
 --------------------------------------------------------------------------------
 ! R1    R(1,2)                  1.3972         estimate D2E/DX2                !
 ! R2    R(1,3)                  1.397          estimate D2E/DX2                !
 ! R3    R(1,17)                 1.032          estimate D2E/DX2                !
 ! R4    R(2,6)                  1.3982         estimate D2E/DX2                !
 ! R5    R(2,18)                 1.032          estimate D2E/DX2                !
 ! R6    R(3,4)                  1.3978         estimate D2E/DX2                !
 ! R7    R(3,19)                 1.032          estimate D2E/DX2                !
 ! R8    R(4,5)                  1.4055         estimate D2E/DX2                !
 ! R9    R(4,20)                 1.032          estimate D2E/DX2                !
 ! R10   R(5,6)                  1.3999         estimate D2E/DX2                !
 ! R11   R(5,7)                  1.4242         estimate D2E/DX2                !
 ! R12   R(6,21)                 1.032          estimate D2E/DX2                !
 ! R13   R(7,8)                  1.3594         estimate D2E/DX2                !
 ! R14   R(8,9)                  1.2228         estimate D2E/DX2                !
 ! R15   R(8,10)                 1.3594         estimate D2E/DX2                !
 ! R16   R(10,11)                1.4242         estimate D2E/DX2                !
 ! R17   R(10,22)                0.9845         estimate D2E/DX2                !
 ! R18   R(11,12)                1.4055         estimate D2E/DX2                !
 ! R19   R(11,16)                1.3999         estimate D2E/DX2                !
 ! R20   R(12,13)                1.3978         estimate D2E/DX2                !
 ! R21   R(12,23)                1.032          estimate D2E/DX2                !
 ! R22   R(13,14)                1.397          estimate D2E/DX2                !
 ! R23   R(13,24)                1.032          estimate D2E/DX2                !
 ! R24   R(14,15)                1.3972         estimate D2E/DX2                !
 ! R25   R(14,25)                1.032          estimate D2E/DX2                !
 ! R26   R(15,16)                1.3982         estimate D2E/DX2                !
 ! R27   R(15,26)                1.032          estimate D2E/DX2                !
 ! R28   R(16,27)                1.032          estimate D2E/DX2                !
 ! A1    A(2,1,3)              119.9501         estimate D2E/DX2                !
 ! A2    A(2,1,17)             120.0247         estimate D2E/DX2                !
 ! A3    A(3,1,17)             120.0252         estimate D2E/DX2                !
 ! A4    A(1,2,6)              120.0127         estimate D2E/DX2                !
 ! A5    A(1,2,18)             119.9929         estimate D2E/DX2                !
 ! A6    A(6,2,18)             119.9944         estimate D2E/DX2                !
 ! A7    A(1,3,4)              119.9617         estimate D2E/DX2                !
 ! A8    A(1,3,19)             120.0193         estimate D2E/DX2                !
 ! A9    A(4,3,19)             120.019          estimate D2E/DX2                !
 ! A10   A(3,4,5)              120.4981         estimate D2E/DX2                !
 ! A11   A(3,4,20)             119.7509         estimate D2E/DX2                !
 ! A12   A(5,4,20)             119.7509         estimate D2E/DX2                !
 ! A13   A(4,5,6)              119.0139         estimate D2E/DX2                !
 ! A14   A(4,5,7)              122.6021         estimate D2E/DX2                !
 ! A15   A(6,5,7)              118.3841         estimate D2E/DX2                !
 ! A16   A(2,6,5)              120.5635         estimate D2E/DX2                !
 ! A17   A(2,6,21)             119.7189         estimate D2E/DX2                !
 ! A18   A(5,6,21)             119.7177         estimate D2E/DX2                !
 ! A19   A(5,7,8)              126.9699         estimate D2E/DX2                !
 ! A20   A(7,8,9)              120.8093         estimate D2E/DX2                !
 ! A21   A(7,8,10)             118.3818         estimate D2E/DX2                !
 ! A22   A(9,8,10)             120.809          estimate D2E/DX2                !
 ! A23   A(8,10,11)            126.97           estimate D2E/DX2                !
 ! A24   A(8,10,22)            116.5148         estimate D2E/DX2                !
 ! A25   A(11,10,22)           116.5152         estimate D2E/DX2                !
 ! A26   A(10,11,12)           122.6022         estimate D2E/DX2                !
 ! A27   A(10,11,16)           118.3833         estimate D2E/DX2                !
 ! A28   A(12,11,16)           119.0144         estimate D2E/DX2                !
 ! A29   A(11,12,13)           120.4984         estimate D2E/DX2                !
 ! A30   A(11,12,23)           119.7509         estimate D2E/DX2                !
 ! A31   A(13,12,23)           119.7507         estimate D2E/DX2                !
 ! A32   A(12,13,14)           119.9613         estimate D2E/DX2                !
 ! A33   A(12,13,24)           120.0191         estimate D2E/DX2                !
 ! A34   A(14,13,24)           120.0196         estimate D2E/DX2                !
 ! A35   A(13,14,15)           119.9508         estimate D2E/DX2                !
 ! A36   A(13,14,25)           120.0252         estimate D2E/DX2                !
 ! A37   A(15,14,25)           120.024          estimate D2E/DX2                !
 ! A38   A(14,15,16)           120.0122         estimate D2E/DX2                !
 ! A39   A(14,15,26)           119.9938         estimate D2E/DX2                !
 ! A40   A(16,15,26)           119.994          estimate D2E/DX2                !
 ! A41   A(11,16,15)           120.5628         estimate D2E/DX2                !
 ! A42   A(11,16,27)           119.7189         estimate D2E/DX2                !
 ! A43   A(15,16,27)           119.7183         estimate D2E/DX2                !
 ! D1    D(3,1,2,6)              0.0            estimate D2E/DX2                !
 ! D2    D(3,1,2,18)           179.9994         estimate D2E/DX2                !
 ! D3    D(17,1,2,6)          -179.9998         estimate D2E/DX2                !
 ! D4    D(17,1,2,18)           -0.0005         estimate D2E/DX2                !
 ! D5    D(2,1,3,4)              0.0            estimate D2E/DX2                !
 ! D6    D(2,1,3,19)          -179.9998         estimate D2E/DX2                !
 ! D7    D(17,1,3,4)           179.9998         estimate D2E/DX2                !
 ! D8    D(17,1,3,19)            0.0            estimate D2E/DX2                !
 ! D9    D(1,2,6,5)              0.0            estimate D2E/DX2                !
 ! D10   D(1,2,6,21)          -179.9998         estimate D2E/DX2                !
 ! D11   D(18,2,6,5)          -179.9994         estimate D2E/DX2                !
 ! D12   D(18,2,6,21)            0.0008         estimate D2E/DX2                !
 ! D13   D(1,3,4,5)              0.0            estimate D2E/DX2                !
 ! D14   D(1,3,4,20)           179.9994         estimate D2E/DX2                !
 ! D15   D(19,3,4,5)           179.9998         estimate D2E/DX2                !
 ! D16   D(19,3,4,20)           -0.0008         estimate D2E/DX2                !
 ! D17   D(3,4,5,6)              0.0            estimate D2E/DX2                !
 ! D18   D(3,4,5,7)            179.9995         estimate D2E/DX2                !
 ! D19   D(20,4,5,6)          -179.9994         estimate D2E/DX2                !
 ! D20   D(20,4,5,7)             0.0002         estimate D2E/DX2                !
 ! D21   D(4,5,6,2)              0.0            estimate D2E/DX2                !
 ! D22   D(4,5,6,21)           179.9998         estimate D2E/DX2                !
 ! D23   D(7,5,6,2)           -179.9996         estimate D2E/DX2                !
 ! D24   D(7,5,6,21)             0.0003         estimate D2E/DX2                !
 ! D25   D(4,5,7,8)              0.0001         estimate D2E/DX2                !
 ! D26   D(6,5,7,8)            179.9996         estimate D2E/DX2                !
 ! D27   D(5,7,8,9)             -0.001          estimate D2E/DX2                !
 ! D28   D(5,7,8,10)           179.9996         estimate D2E/DX2                !
 ! D29   D(7,8,10,11)          179.9996         estimate D2E/DX2                !
 ! D30   D(7,8,10,22)           -0.0006         estimate D2E/DX2                !
 ! D31   D(9,8,10,11)            0.0001         estimate D2E/DX2                !
 ! D32   D(9,8,10,22)          179.9999         estimate D2E/DX2                !
 ! D33   D(8,10,11,12)          -0.0004         estimate D2E/DX2                !
 ! D34   D(8,10,11,16)         179.9996         estimate D2E/DX2                !
 ! D35   D(22,10,11,12)        179.9998         estimate D2E/DX2                !
 ! D36   D(22,10,11,16)         -0.0002         estimate D2E/DX2                !
 ! D37   D(10,11,12,13)       -179.9995         estimate D2E/DX2                !
 ! D38   D(10,11,12,23)         -0.0006         estimate D2E/DX2                !
 ! D39   D(16,11,12,13)          0.0005         estimate D2E/DX2                !
 ! D40   D(16,11,12,23)        179.9994         estimate D2E/DX2                !
 ! D41   D(10,11,16,15)        180.0            estimate D2E/DX2                !
 ! D42   D(10,11,16,27)         -0.0004         estimate D2E/DX2                !
 ! D43   D(12,11,16,15)          0.0            estimate D2E/DX2                !
 ! D44   D(12,11,16,27)        179.9997         estimate D2E/DX2                !
 ! D45   D(11,12,13,14)         -0.001          estimate D2E/DX2                !
 ! D46   D(11,12,13,24)       -179.9997         estimate D2E/DX2                !
 ! D47   D(23,12,13,14)       -179.9998         estimate D2E/DX2                !
 ! D48   D(23,12,13,24)          0.0014         estimate D2E/DX2                !
 ! D49   D(12,13,14,15)          0.0009         estimate D2E/DX2                !
 ! D50   D(12,13,14,25)       -179.9999         estimate D2E/DX2                !
 ! D51   D(24,13,14,15)        179.9997         estimate D2E/DX2                !
 ! D52   D(24,13,14,25)         -0.0011         estimate D2E/DX2                !
 ! D53   D(13,14,15,16)         -0.0005         estimate D2E/DX2                !
 ! D54   D(13,14,15,26)        179.9995         estimate D2E/DX2                !
 ! D55   D(25,14,15,16)       -179.9997         estimate D2E/DX2                !
 ! D56   D(25,14,15,26)          0.0003         estimate D2E/DX2                !
 ! D57   D(14,15,16,11)          0.0            estimate D2E/DX2                !
 ! D58   D(14,15,16,27)       -179.9997         estimate D2E/DX2                !
 ! D59   D(26,15,16,11)       -180.0            estimate D2E/DX2                !
 ! D60   D(26,15,16,27)          0.0003         estimate D2E/DX2                !
 --------------------------------------------------------------------------------
 Trust Radius=3.00D-01 FncErr=1.00D-07 GrdErr=1.00D-06
 Number of steps in this run=    141 maximum allowed number of steps=    162.
 GradGradGradGradGradGradGradGradGradGradGradGradGradGradGradGradGradGrad

                          Input orientation:                          
 ---------------------------------------------------------------------
 Center     Atomic      Atomic             Coordinates (Angstroms)
 Number     Number       Type             X           Y           Z
 ---------------------------------------------------------------------
      1          6           0       -4.173560    2.203160    0.000100
      2          6           0       -4.080480    0.809100    0.000090
      3          6           0       -3.012250    2.979710    0.000100
      4          6           0       -1.758800    2.361080    0.000090
      5          6           0       -1.655130    0.959360    0.000080
      6          6           0       -2.825890    0.191960    0.000080
      7          7           0       -0.402000    0.282580    0.000060
      8          6           0        0.833420    0.849710    0.000050
      9          8           0        0.964450    2.065470    0.000040
     10          7           0        1.919630    0.032370    0.000040
     11          6           0        3.288190    0.426600    0.000020
     12          6           0        3.688150    1.774030    0.000000
     13          6           0        5.044630    2.111380   -0.000030
     14          6           0        6.013800    1.105220   -0.000020
     15          6           0        5.625830   -0.237000    0.000000
     16          6           0        4.268540   -0.572650    0.000020
     17          1           0       -5.099490    2.658870    0.000110
     18          1           0       -4.937930    0.234810    0.000100
     19          1           0       -3.079760    4.009500    0.000110
     20          1           0       -0.903040    2.937880    0.000080
     21          1           0       -2.762420   -0.838090    0.000070
     22          1           0        1.741140   -0.935810    0.000050
     23          1           0        2.974940    2.519930   -0.000010
     24          1           0        5.330010    3.103140   -0.000040
     25          1           0        7.015570    1.353170   -0.000040
     26          1           0        6.341210   -0.980800    0.000000
     27          1           0        3.987060   -1.565520    0.000040
 ---------------------------------------------------------------------
                    Distance matrix (angstroms):
                    1          2          3          4          5
     1  C    0.000000
     2  C    1.397164   0.000000
     3  C    1.397022   2.419228   0.000000
     4  C    2.419918   2.792640   1.397798   0.000000
     5  C    2.808830   2.430000   2.433842   1.405548   0.000000
     6  C    2.420979   1.398162   2.793972   2.417388   1.399851
     7  N    4.232410   3.715971   3.753387   2.482150   1.424207
     8  C    5.186683   4.914068   4.396144   3.000641   2.490965
     9  O    5.139855   5.199018   4.080438   2.739247   2.843533
    10  N    6.468330   6.050176   5.745455   4.353589   3.692996
    11  C    7.670325   7.378591   6.798082   5.405027   4.971946
    12  C    7.873413   7.828327   6.808012   5.478494   5.405028
    13  C    9.218647   9.217568   8.103537   6.808011   6.798083
    14  C   10.246354  10.098622   9.218638   7.873404   7.670317
    15  C   10.098635   9.762519   9.217573   7.828332   7.378594
    16  C    8.886741   8.462586   8.101183   6.703402   6.118572
    17  H    1.031997   2.111878   2.111755   3.353936   3.840827
    18  H    2.111555   1.032003   3.353016   3.824643   3.361807
    19  H    2.111697   3.353208   1.032001   2.112398   3.366441
    20  H    3.352031   3.824635   2.109625   1.032000   2.116644
    21  H    3.352688   2.109625   3.825965   3.352901   2.111141
    22  H    6.696029   6.077497   6.158410   4.808229   3.889257
    23  H    7.155515   7.259882   6.004818   4.736405   4.885993
    24  H    9.546089   9.686069   8.343173   7.127544   7.306707
    25  H   11.221369  11.109381  10.158878   8.832069   8.679639
    26  H   10.986264  10.574278  10.157404   8.762324   8.228346
    27  H    8.988808   8.409758   8.345625   6.959389   6.181369
                    6          7          8          9         10
     6  C    0.000000
     7  N    2.425583   0.000000
     8  C    3.717954   1.359374   0.000000
     9  O    4.228087   2.246304   1.222801   0.000000
    10  N    4.748203   2.335074   1.359374   2.246300   0.000000
    11  C    6.118581   3.692999   2.490967   2.843530   1.424210
    12  C    6.703407   4.353590   3.000642   2.739248   2.482145
    13  C    8.101189   5.745458   4.396146   4.080438   3.753386
    14  C    8.886741   6.468325   5.186677   5.139846   4.232403
    15  C    8.462599   6.050182   4.914075   5.199022   3.715976
    16  C    7.135514   4.748196   3.717951   4.228083   2.425578
    17  H    3.354833   5.264330   6.202619   6.092905   7.494434
    18  H    2.112475   4.536182   5.804014   6.179758   6.860547
    19  H    3.825972   4.589154   5.029637   4.487191   6.388385
    20  H    3.352227   2.702158   2.715833   2.061218   4.050858
    21  H    1.032004   2.612945   3.972245   4.724428   4.762278
    22  H    4.704214   2.465263   2.003007   3.100150   0.984495
    23  H    6.250526   4.050859   2.715832   2.061214   2.702154
    24  H    8.659889   6.388388   5.029639   4.487190   4.589152
    25  H    9.909730   7.494432   6.202616   6.092900   5.264325
    26  H    9.241812   6.860540   5.804009   6.179750   4.536175
    27  H    7.035981   4.762281   3.972251   4.724432   2.612952
                   11         12         13         14         15
    11  C    0.000000
    12  C    1.405537   0.000000
    13  C    2.433838   1.397799   0.000000
    14  C    2.808821   2.419908   1.397014   0.000000
    15  C    2.430005   2.792641   2.419232   1.397167   0.000000
    16  C    1.399852   2.417387   2.793982   2.420987   1.398176
    17  H    8.679643   8.832076  10.158884  11.221365  11.109390
    18  H    8.228355   8.762332  10.157412  10.986264  10.574291
    19  H    7.306706   7.127547   8.343175   9.546082   9.686076
    20  H    4.885994   4.736409   6.004821   7.155510   7.259890
    21  H    6.181369   6.959384   8.345622   8.988798   8.409759
    22  H    2.061438   3.336777   4.494264   4.735127   3.947043
    23  H    2.116638   1.032005   2.109628   3.352025   3.824641
    24  H    3.366437   2.112401   1.032003   2.111694   3.353214
    25  H    3.840819   3.353930   2.111750   1.031999   2.111875
    26  H    3.361801   3.824633   3.353013   2.111558   1.031992
    27  H    2.111152   3.352900   3.825970   3.352690   2.109629
                   16         17         18         19         20
    16  C    0.000000
    17  H    9.909728   0.000000
    18  H    9.241812   2.429438   0.000000
    19  H    8.659885   2.429714   4.207265   0.000000
    20  H    6.250525   4.205715   4.856637   2.426207   0.000000
    21  H    7.035969   4.206023   2.425687   4.857966   4.208948
    22  H    2.553358   7.727609   6.780880   6.906314   4.690113
    23  H    3.352231   8.075625   8.236218   6.235239   3.900437
    24  H    3.825984  10.438958  10.661046   8.458470   6.235240
    25  H    3.354841  12.185218  12.005702  10.438955   8.075623
    26  H    2.112474  12.005699  11.344457  10.661040   8.236213
    27  H    1.031999  10.020522   9.104759   9.001155   6.647833
                   21         22         23         24         25
    21  H    0.000000
    22  H    4.504620   0.000000
    23  H    6.647827   3.669387   0.000000
    24  H    9.001151   5.403064   2.426209   0.000000
    25  H   10.020514   5.749699   4.205713   2.429713   0.000000
    26  H    9.104749   4.600290   4.856633   4.207266   2.429440
    27  H    6.788566   2.332529   4.208953   4.857973   4.206022
                   26         27
    26  H    0.000000
    27  H    2.425679   0.000000
 Stoichiometry    C13H11N2O(1-)
 Framework group  C1[X(C13H11N2O)]
 Deg. of freedom    75
 Full point group                 C1      NOp   1
 Largest Abelian subgroup         C1      NOp   1
 Largest concise Abelian subgroup C1      NOp   1
                         Standard orientation:                         
 ---------------------------------------------------------------------
 Center     Atomic      Atomic             Coordinates (Angstroms)
 Number     Number       Type             X           Y           Z
 ---------------------------------------------------------------------
      1          6           0        5.134010   -0.557436    0.000055
      2          6           0        4.889698    0.818201    0.000045
      3          6           0        4.064154   -1.455813    0.000055
      4          6           0        2.750800   -0.977335    0.000045
      5          6           0        2.495127    0.404764    0.000035
      6          6           0        3.575373    1.295073    0.000035
      7          7           0        1.175760    0.941080    0.000015
      8          6           0        0.009433    0.242810    0.000005
      9          8           0        0.011554   -0.979989   -0.000005
     10          7           0       -1.159311    0.937025   -0.000005
     11          6           0       -2.476811    0.396130   -0.000025
     12          6           0       -2.727686   -0.986837   -0.000045
     13          6           0       -4.039371   -1.469874   -0.000075
     14          6           0       -5.112329   -0.575219   -0.000065
     15          6           0       -4.872806    0.801264   -0.000045
     16          6           0       -3.560131    1.282699   -0.000025
     17          1           0        6.104052   -0.909622    0.000065
     18          1           0        5.679522    1.482436    0.000055
     19          1           0        4.243386   -2.472130    0.000065
     20          1           0        1.962929   -1.643881    0.000035
     21          1           0        3.400129    2.312089    0.000025
     22          1           0       -1.087297    1.918883    0.000005
     23          1           0       -1.937502   -1.650648   -0.000055
     24          1           0       -4.215072   -2.486810   -0.000085
     25          1           0       -6.081147   -0.930767   -0.000085
     26          1           0       -5.664918    1.462752   -0.000045
     27          1           0       -3.388427    2.300314   -0.000005
 ---------------------------------------------------------------------
 Rotational constants (GHZ):      2.2888891      0.2041389      0.1874232
 General basis read from cards:  (6D, 7F)
 There are   326 symmetry adapted cartesian basis functions of A   symmetry.
 There are   326 symmetry adapted basis functions of A   symmetry.
   326 basis functions,   556 primitive gaussians,   326 cartesian basis functions
    56 alpha electrons       56 beta electrons
       nuclear repulsion energy       949.4476351854 Hartrees.
 NAtoms=   27 NActive=   27 NUniq=   27 SFac= 1.00D+00 NAtFMM=   60 NAOKFM=F Big=F
 Integral buffers will be    131072 words long.
 Raffenetti 2 integral format.
 Two-electron integral symmetry is turned on.
 ------------------------------------------------------------------------------
 Polarizable Continuum Model (PCM)
 =================================
 Model                : PCM (using non-symmetric T matrix).
 Atomic radii         : SMD-Coulomb.
 Polarization charges : Total charges.
 Charge compensation  : None.
 Solution method      : On-the-fly selection.
 Cavity type          : VdW (van der Waals Surface) (Alpha=1.000).
 Cavity algorithm     : GePol (No added spheres)
                        Default sphere list used, NSphG=   27.
                        Lebedev-Laikov grids with approx.  5.0 points / Ang**2.
                        Smoothing algorithm: York/Karplus (Gamma=1.0000).
                        Polarization charges: spherical gaussians, with
                                              point-specific exponents (IZeta= 3).
                        Self-potential: point-specific (ISelfS= 7).
                        Self-field    : sphere-specific E.n sum rule (ISelfD= 2).
 1st derivatives      : Analytical E(r).r(x)/FMM algorithm (CHGder, D1EAlg=3).
                        Cavity 1st derivative terms included.
 Solvent              : Water, Eps=  78.355300 Eps(inf)=   1.777849
 ------------------------------------------------------------------------------
 ------------------------------------------------------------------------------
 Atomic radii for non-electrostatic terms: SMD-CDS.
 ------------------------------------------------------------------------------
 Nuclear repulsion after PCM non-electrostatic terms =      949.4544452524 Hartrees.
 One-electron integrals computed using PRISM.
 NBasis=   326 RedAO= T EigKep=  1.36D-06  NBF=   326
 NBsUse=   326 1.00D-06 EigRej= -1.00D+00 NBFU=   326
 ExpMin= 4.38D-02 ExpMax= 5.48D+03 ExpMxC= 8.25D+02 IAcc=3 IRadAn=         5 AccDes= 0.00D+00
 Harris functional with IExCor= 1009 and IRadAn=       5 diagonalized for initial guess.
 HarFok:  IExCor= 1009 AccDes= 0.00D+00 IRadAn=         5 IDoV= 1 UseB2=F ITyADJ=14
 ICtDFT=  3500011 ScaDFX=  1.000000  1.000000  1.000000  1.000000
 FoFCou: FMM=F IPFlag=           0 FMFlag=      100000 FMFlg1=           0
         NFxFlg=           0 DoJE=T BraDBF=F KetDBF=T FulRan=T
         wScrn=  0.000000 ICntrl=     500 IOpCl=  0 I1Cent=   200000004 NGrid=           0
         NMat0=    1 NMatS0=      1 NMatT0=    0 NMatD0=    1 NMtDS0=    0 NMtDT0=    0
 Petite list used in FoFCou.
 Requested convergence on RMS density matrix=1.00D-08 within 128 cycles.
 Requested convergence on MAX density matrix=1.00D-06.
 Requested convergence on             energy=1.00D-06.
 No special actions if energy rises.
 Inv3:  Mode=1 IEnd=    14270283.
 Iteration    1 A*A^-1 deviation from unit magnitude is 5.22D-15 for   2174.
 Iteration    1 A*A^-1 deviation from orthogonality  is 2.85D-15 for   2168   1274.
 Iteration    1 A^-1*A deviation from unit magnitude is 4.88D-15 for   2174.
 Iteration    1 A^-1*A deviation from orthogonality  is 2.44D-10 for    984    980.
 Iteration    2 A*A^-1 deviation from unit magnitude is 2.89D-15 for   1644.
 Iteration    2 A*A^-1 deviation from orthogonality  is 1.50D-14 for   2164    391.
 Iteration    2 A^-1*A deviation from unit magnitude is 8.88D-16 for    212.
 Iteration    2 A^-1*A deviation from orthogonality  is 4.47D-16 for   2180   1687.
 Error on total polarization charges =  0.06859
 SCF Done:  E(RM062X) =  -686.595387517     A.U. after   15 cycles
            NFock= 15  Conv=0.57D-08     -V/T= 2.0073
 SMD-CDS (non-electrostatic) energy       (kcal/mol) =       4.27
 (included in total energy above)

 **********************************************************************

            Population analysis using the SCF density.

 **********************************************************************

 Orbital symmetries:
       Occupied  (A) (A) (A) (A) (A) (A) (A) (A) (A) (A) (A) (A)
                 (A) (A) (A) (A) (A) (A) (A) (A) (A) (A) (A) (A)
                 (A) (A) (A) (A) (A) (A) (A) (A) (A) (A) (A) (A)
                 (A) (A) (A) (A) (A) (A) (A) (A) (A) (A) (A) (A)
                 (A) (A) (A) (A) (A) (A) (A) (A)
       Virtual   (A) (A) (A) (A) (A) (A) (A) (A) (A) (A) (A) (A)
                 (A) (A) (A) (A) (A) (A) (A) (A) (A) (A) (A) (A)
                 (A) (A) (A) (A) (A) (A) (A) (A) (A) (A) (A) (A)
                 (A) (A) (A) (A) (A) (A) (A) (A) (A) (A) (A) (A)
                 (A) (A) (A) (A) (A) (A) (A) (A) (A) (A) (A) (A)
                 (A) (A) (A) (A) (A) (A) (A) (A) (A) (A) (A) (A)
                 (A) (A) (A) (A) (A) (A) (A) (A) (A) (A) (A) (A)
                 (A) (A) (A) (A) (A) (A) (A) (A) (A) (A) (A) (A)
                 (A) (A) (A) (A) (A) (A) (A) (A) (A) (A) (A) (A)
                 (A) (A) (A) (A) (A) (A) (A) (A) (A) (A) (A) (A)
                 (A) (A) (A) (A) (A) (A) (A) (A) (A) (A) (A) (A)
                 (A) (A) (A) (A) (A) (A) (A) (A) (A) (A) (A) (A)
                 (A) (A) (A) (A) (A) (A) (A) (A) (A) (A) (A) (A)
                 (A) (A) (A) (A) (A) (A) (A) (A) (A) (A) (A) (A)
                 (A) (A) (A) (A) (A) (A) (A) (A) (A) (A) (A) (A)
                 (A) (A) (A) (A) (A) (A) (A) (A) (A) (A) (A) (A)
                 (A) (A) (A) (A) (A) (A) (A) (A) (A) (A) (A) (A)
                 (A) (A) (A) (A) (A) (A) (A) (A) (A) (A) (A) (A)
                 (A) (A) (A) (A) (A) (A) (A) (A) (A) (A) (A) (A)
                 (A) (A) (A) (A) (A) (A) (A) (A) (A) (A) (A) (A)
                 (A) (A) (A) (A) (A) (A) (A) (A) (A) (A) (A) (A)
                 (A) (A) (A) (A) (A) (A) (A) (A) (A) (A) (A) (A)
                 (A) (A) (A) (A) (A) (A)
 The electronic state is 1-A.
 Alpha  occ. eigenvalues --  -19.58208 -14.77783 -14.69865 -10.64565 -10.59879
 Alpha  occ. eigenvalues --  -10.57248 -10.54628 -10.54405 -10.54351 -10.53715
 Alpha  occ. eigenvalues --  -10.53701 -10.53595 -10.53481 -10.52785 -10.52748
 Alpha  occ. eigenvalues --  -10.51994  -1.15750  -1.03494  -0.97040  -0.94817
 Alpha  occ. eigenvalues --   -0.91539  -0.84435  -0.84040  -0.83216  -0.80459
 Alpha  occ. eigenvalues --   -0.71331  -0.69977  -0.68390  -0.66846  -0.64097
 Alpha  occ. eigenvalues --   -0.61027  -0.58893  -0.56604  -0.55023  -0.52142
 Alpha  occ. eigenvalues --   -0.50889  -0.50781  -0.50383  -0.49557  -0.48384
 Alpha  occ. eigenvalues --   -0.48245  -0.47383  -0.44632  -0.42745  -0.42035
 Alpha  occ. eigenvalues --   -0.41442  -0.40484  -0.39506  -0.36697  -0.33906
 Alpha  occ. eigenvalues --   -0.33506  -0.30498  -0.29617  -0.27372  -0.27277
 Alpha  occ. eigenvalues --   -0.22325
 Alpha virt. eigenvalues --    0.01999   0.02182   0.02251   0.02962   0.03346
 Alpha virt. eigenvalues --    0.03903   0.04425   0.04715   0.04902   0.05219
 Alpha virt. eigenvalues --    0.05764   0.05841   0.06140   0.07314   0.07761
 Alpha virt. eigenvalues --    0.08057   0.08107   0.09316   0.10253   0.10295
 Alpha virt. eigenvalues --    0.10881   0.11059   0.11155   0.12173   0.12618
 Alpha virt. eigenvalues --    0.13267   0.14689   0.14982   0.15235   0.15299
 Alpha virt. eigenvalues --    0.15334   0.15780   0.16574   0.16676   0.16832
 Alpha virt. eigenvalues --    0.17232   0.18146   0.18363   0.19566   0.19670
 Alpha virt. eigenvalues --    0.19994   0.20514   0.20880   0.21280   0.22062
 Alpha virt. eigenvalues --    0.22282   0.23165   0.23476   0.23909   0.24030
 Alpha virt. eigenvalues --    0.24514   0.24873   0.25245   0.25341   0.25438
 Alpha virt. eigenvalues --    0.26173   0.27313   0.27383   0.28005   0.28536
 Alpha virt. eigenvalues --    0.28770   0.28998   0.29190   0.30051   0.30417
 Alpha virt. eigenvalues --    0.31070   0.31691   0.31794   0.32023   0.33036
 Alpha virt. eigenvalues --    0.33369   0.33417   0.34791   0.35870   0.36490
 Alpha virt. eigenvalues --    0.36894   0.37596   0.38228   0.38510   0.39189
 Alpha virt. eigenvalues --    0.40048   0.40513   0.41255   0.42341   0.43438
 Alpha virt. eigenvalues --    0.43782   0.45277   0.45619   0.47516   0.49218
 Alpha virt. eigenvalues --    0.50162   0.53145   0.57189   0.60491   0.64204
 Alpha virt. eigenvalues --    0.64407   0.65624   0.68889   0.70030   0.71308
 Alpha virt. eigenvalues --    0.72748   0.72851   0.73936   0.75211   0.76479
 Alpha virt. eigenvalues --    0.76566   0.77536   0.78546   0.79017   0.79961
 Alpha virt. eigenvalues --    0.80190   0.81042   0.81100   0.81504   0.82038
 Alpha virt. eigenvalues --    0.82601   0.82976   0.83823   0.84987   0.87137
 Alpha virt. eigenvalues --    0.87459   0.87782   0.89169   0.89468   0.98084
 Alpha virt. eigenvalues --    0.99175   0.99351   1.01643   1.02747   1.04466
 Alpha virt. eigenvalues --    1.04683   1.05075   1.05416   1.05780   1.05874
 Alpha virt. eigenvalues --    1.07398   1.10318   1.11585   1.12026   1.12764
 Alpha virt. eigenvalues --    1.13380   1.13713   1.14346   1.15808   1.17323
 Alpha virt. eigenvalues --    1.18073   1.19079   1.20141   1.21252   1.22353
 Alpha virt. eigenvalues --    1.23098   1.24275   1.25134   1.28159   1.30142
 Alpha virt. eigenvalues --    1.31599   1.31892   1.33874   1.34273   1.35126
 Alpha virt. eigenvalues --    1.36201   1.37391   1.38093   1.40569   1.43574
 Alpha virt. eigenvalues --    1.46124   1.46880   1.47701   1.48857   1.49196
 Alpha virt. eigenvalues --    1.51334   1.52069   1.53023   1.53799   1.54801
 Alpha virt. eigenvalues --    1.55151   1.55865   1.56442   1.56886   1.57328
 Alpha virt. eigenvalues --    1.60845   1.63491   1.66253   1.69127   1.79238
 Alpha virt. eigenvalues --    1.83671   1.87309   1.88621   1.89701   1.91157
 Alpha virt. eigenvalues --    1.93003   1.95694   1.96130   1.96337   1.99225
 Alpha virt. eigenvalues --    2.01405   2.03204   2.04786   2.05425   2.09118
 Alpha virt. eigenvalues --    2.09186   2.10517   2.11594   2.13605   2.15009
 Alpha virt. eigenvalues --    2.16591   2.18080   2.18540   2.18953   2.20127
 Alpha virt. eigenvalues --    2.20270   2.22045   2.22881   2.24778   2.27222
 Alpha virt. eigenvalues --    2.28884   2.31455   2.32191   2.33982   2.34335
 Alpha virt. eigenvalues --    2.35085   2.35235   2.41660   2.43427   2.45488
 Alpha virt. eigenvalues --    2.50409   2.59147   2.60481   2.62587   2.66216
 Alpha virt. eigenvalues --    2.67424   2.68698   2.69481   2.70593   2.74857
 Alpha virt. eigenvalues --    2.77147   2.79172   2.80124   2.80816   2.81368
 Alpha virt. eigenvalues --    2.82430   2.83497   2.84979   2.88369   2.91681
 Alpha virt. eigenvalues --    2.98822   3.03972   3.04880   3.14070   3.19564
 Alpha virt. eigenvalues --    3.33933   3.40544   3.47309   3.51277   4.24171
 Alpha virt. eigenvalues --    4.30088   4.31131   4.31602   4.33525   4.38780
 Alpha virt. eigenvalues --    4.40310   4.43813   4.45081   4.50504   4.53565
 Alpha virt. eigenvalues --    4.57233   4.58929   4.69411   4.77577   4.81790
          Condensed to atoms (all electrons):
               1          2          3          4          5          6
     1  C    5.408151   0.343687   0.323354   0.005987  -0.458245   0.195106
     2  C    0.343687   5.815459   0.583897  -0.669131   0.098176   0.168324
     3  C    0.323354   0.583897  10.683098  -3.506231  -0.134610  -0.973832
     4  C    0.005987  -0.669131  -3.506231  11.355228  -1.244762  -1.868435
     5  C   -0.458245   0.098176  -0.134610  -1.244762   9.463657  -0.071118
     6  C    0.195106   0.168324  -0.973832  -1.868435  -0.071118   9.532513
     7  N    0.008358   0.026080  -0.116767  -0.391189   0.430679   0.138457
     8  C    0.067852  -0.239752  -0.630494   0.933702  -1.152369  -0.311884
     9  O   -0.008570   0.016052   0.183994   0.117160  -0.108741  -0.124583
    10  N    0.006934  -0.016414  -0.050411   0.134721  -0.307158  -0.069655
    11  C    0.002142  -0.009827   0.017438   0.388475  -0.742062  -0.253258
    12  C    0.002070  -0.001651  -0.079285  -0.261758   0.329323   0.163953
    13  C    0.000087  -0.001093  -0.024974  -0.096049   0.058117   0.034349
    14  C   -0.000010   0.000031  -0.000485  -0.000740   0.003392  -0.000476
    15  C    0.000013  -0.000192  -0.000152   0.001398  -0.011173  -0.001835
    16  C   -0.000617  -0.001357   0.024450   0.126777  -0.167527  -0.068859
    17  H    0.371343  -0.069393  -0.059368   0.055347  -0.015114   0.026000
    18  H   -0.049869   0.367805   0.016069  -0.016236   0.020890  -0.031686
    19  H   -0.058862   0.020047   0.360876  -0.044022   0.045865  -0.009077
    20  H    0.021567  -0.015893  -0.006301   0.407241  -0.159491  -0.004353
    21  H    0.024263  -0.062891  -0.031220   0.031526  -0.048734   0.403580
    22  H   -0.000098  -0.000218   0.000593  -0.001057   0.002131   0.001540
    23  H   -0.000033   0.000013   0.000351  -0.000919   0.008099   0.000426
    24  H    0.000000  -0.000000   0.000013   0.000141  -0.000205  -0.000001
    25  H    0.000000   0.000000   0.000000   0.000003  -0.000008   0.000000
    26  H   -0.000000  -0.000000   0.000000   0.000003  -0.000002  -0.000001
    27  H    0.000001  -0.000000   0.000001   0.000066  -0.000058   0.000074
               7          8          9         10         11         12
     1  C    0.008358   0.067852  -0.008570   0.006934   0.002142   0.002070
     2  C    0.026080  -0.239752   0.016052  -0.016414  -0.009827  -0.001651
     3  C   -0.116767  -0.630494   0.183994  -0.050411   0.017438  -0.079285
     4  C   -0.391189   0.933702   0.117160   0.134721   0.388475  -0.261758
     5  C    0.430679  -1.152369  -0.108741  -0.307158  -0.742062   0.329323
     6  C    0.138457  -0.311884  -0.124583  -0.069655  -0.253258   0.163953
     7  N    7.863546   0.430910  -0.146286  -0.349510  -0.152862   0.053677
     8  C    0.430910   6.561776   0.315136   0.209960  -1.125886   0.869004
     9  O   -0.146286   0.315136   8.854729  -0.197419  -0.234967   0.131790
    10  N   -0.349510   0.209960  -0.197419   7.927245   0.045247  -0.520246
    11  C   -0.152862  -1.125886  -0.234967   0.045247  11.480042  -2.069156
    12  C    0.053677   0.869004   0.131790  -0.520246  -2.069156  12.714652
    13  C   -0.034506  -0.335213   0.162956  -0.039503  -1.312273  -2.149881
    14  C    0.000663   0.018116  -0.006879   0.019962  -0.479868  -0.110620
    15  C   -0.011878  -0.178543   0.007972   0.031918  -0.193665  -0.548193
    16  C   -0.063246  -0.454692  -0.097911   0.613515   0.563858  -3.760092
    17  H    0.000060  -0.000185   0.000013   0.000000  -0.000009   0.000004
    18  H    0.000720   0.001654   0.000000   0.000022   0.000007   0.000002
    19  H   -0.001524  -0.006457   0.000714  -0.000003  -0.000318   0.000169
    20  H   -0.010201   0.047509  -0.013586   0.001923   0.013957  -0.002563
    21  H   -0.000185  -0.014619   0.000151  -0.000183  -0.000798   0.000019
    22  H    0.016540  -0.003780   0.012053   0.240326  -0.030568  -0.016580
    23  H    0.001940   0.030465  -0.013012  -0.019307  -0.036946   0.301313
    24  H    0.000024  -0.003119   0.000580  -0.000851   0.027445  -0.013826
    25  H   -0.000000  -0.000294   0.000013   0.000063  -0.012583   0.046954
    26  H    0.000015   0.000755   0.000001   0.000432   0.006087  -0.021320
    27  H    0.001015   0.010953  -0.000062  -0.013714   0.029101   0.088060
              13         14         15         16         17         18
     1  C    0.000087  -0.000010   0.000013  -0.000617   0.371343  -0.049869
     2  C   -0.001093   0.000031  -0.000192  -0.001357  -0.069393   0.367805
     3  C   -0.024974  -0.000485  -0.000152   0.024450  -0.059368   0.016069
     4  C   -0.096049  -0.000740   0.001398   0.126777   0.055347  -0.016236
     5  C    0.058117   0.003392  -0.011173  -0.167527  -0.015114   0.020890
     6  C    0.034349  -0.000476  -0.001835  -0.068859   0.026000  -0.031686
     7  N   -0.034506   0.000663  -0.011878  -0.063246   0.000060   0.000720
     8  C   -0.335213   0.018116  -0.178543  -0.454692  -0.000185   0.001654
     9  O    0.162956  -0.006879   0.007972  -0.097911   0.000013   0.000000
    10  N   -0.039503   0.019962   0.031918   0.613515   0.000000   0.000022
    11  C   -1.312273  -0.479868  -0.193665   0.563858  -0.000009   0.000007
    12  C   -2.149881  -0.110620  -0.548193  -3.760092   0.000004   0.000002
    13  C   10.648195   0.495330   0.503668  -1.611992   0.000000   0.000000
    14  C    0.495330   5.318899   0.466162   0.131953   0.000000  -0.000000
    15  C    0.503668   0.466162   5.636697   0.390338   0.000000  -0.000000
    16  C   -1.611992   0.131953   0.390338  11.245677  -0.000000  -0.000000
    17  H    0.000000   0.000000   0.000000  -0.000000   0.481580  -0.004033
    18  H    0.000000  -0.000000  -0.000000  -0.000000  -0.004033   0.471215
    19  H    0.000012   0.000000  -0.000000  -0.000009  -0.003926  -0.000162
    20  H    0.000554  -0.000032  -0.000012   0.000793  -0.000155   0.000016
    21  H   -0.000016   0.000000   0.000005  -0.000037  -0.000155  -0.004282
    22  H    0.011785  -0.002871   0.014539  -0.006297  -0.000000  -0.000000
    23  H   -0.018615   0.015610  -0.015691   0.031159  -0.000000  -0.000000
    24  H    0.345690  -0.047600   0.014049  -0.011535   0.000000  -0.000000
    25  H   -0.052080   0.369095  -0.066344   0.025830  -0.000000   0.000000
    26  H    0.012747  -0.038485   0.363897  -0.012508   0.000000  -0.000000
    27  H   -0.031663   0.014732  -0.047391   0.245367  -0.000000   0.000000
              19         20         21         22         23         24
     1  C   -0.058862   0.021567   0.024263  -0.000098  -0.000033   0.000000
     2  C    0.020047  -0.015893  -0.062891  -0.000218   0.000013  -0.000000
     3  C    0.360876  -0.006301  -0.031220   0.000593   0.000351   0.000013
     4  C   -0.044022   0.407241   0.031526  -0.001057  -0.000919   0.000141
     5  C    0.045865  -0.159491  -0.048734   0.002131   0.008099  -0.000205
     6  C   -0.009077  -0.004353   0.403580   0.001540   0.000426  -0.000001
     7  N   -0.001524  -0.010201  -0.000185   0.016540   0.001940   0.000024
     8  C   -0.006457   0.047509  -0.014619  -0.003780   0.030465  -0.003119
     9  O    0.000714  -0.013586   0.000151   0.012053  -0.013012   0.000580
    10  N   -0.000003   0.001923  -0.000183   0.240326  -0.019307  -0.000851
    11  C   -0.000318   0.013957  -0.000798  -0.030568  -0.036946   0.027445
    12  C    0.000169  -0.002563   0.000019  -0.016580   0.301313  -0.013826
    13  C    0.000012   0.000554  -0.000016   0.011785  -0.018615   0.345690
    14  C    0.000000  -0.000032   0.000000  -0.002871   0.015610  -0.047600
    15  C   -0.000000  -0.000012   0.000005   0.014539  -0.015691   0.014049
    16  C   -0.000009   0.000793  -0.000037  -0.006297   0.031159  -0.011535
    17  H   -0.003926  -0.000155  -0.000155  -0.000000  -0.000000   0.000000
    18  H   -0.000162   0.000016  -0.004282  -0.000000  -0.000000  -0.000000
    19  H    0.476609  -0.005022   0.000017   0.000000   0.000000  -0.000000
    20  H   -0.005022   0.469800  -0.000138   0.000002  -0.000005   0.000000
    21  H    0.000017  -0.000138   0.485261   0.000004   0.000000  -0.000000
    22  H    0.000000   0.000002   0.000004   0.272975  -0.000206   0.000002
    23  H    0.000000  -0.000005   0.000000  -0.000206   0.452575  -0.004944
    24  H   -0.000000   0.000000  -0.000000   0.000002  -0.004944   0.461497
    25  H    0.000000   0.000000  -0.000000  -0.000000  -0.000145  -0.003764
    26  H   -0.000000  -0.000000   0.000000  -0.000011   0.000015  -0.000153
    27  H    0.000000  -0.000000  -0.000000   0.004720  -0.000128   0.000016
              25         26         27
     1  C    0.000000  -0.000000   0.000001
     2  C    0.000000  -0.000000  -0.000000
     3  C    0.000000   0.000000   0.000001
     4  C    0.000003   0.000003   0.000066
     5  C   -0.000008  -0.000002  -0.000058
     6  C    0.000000  -0.000001   0.000074
     7  N   -0.000000   0.000015   0.001015
     8  C   -0.000294   0.000755   0.010953
     9  O    0.000013   0.000001  -0.000062
    10  N    0.000063   0.000432  -0.013714
    11  C   -0.012583   0.006087   0.029101
    12  C    0.046954  -0.021320   0.088060
    13  C   -0.052080   0.012747  -0.031663
    14  C    0.369095  -0.038485   0.014732
    15  C   -0.066344   0.363897  -0.047391
    16  C    0.025830  -0.012508   0.245367
    17  H   -0.000000   0.000000  -0.000000
    18  H    0.000000  -0.000000   0.000000
    19  H    0.000000  -0.000000   0.000000
    20  H    0.000000  -0.000000  -0.000000
    21  H   -0.000000   0.000000  -0.000000
    22  H   -0.000000  -0.000011   0.004720
    23  H   -0.000145   0.000015  -0.000128
    24  H   -0.003764  -0.000153   0.000016
    25  H    0.469168  -0.003909  -0.000145
    26  H   -0.003909   0.458248  -0.004101
    27  H   -0.000145  -0.004101   0.465577
 Mulliken charges:
               1
     1  C   -0.204612
     2  C   -0.351759
     3  C   -0.580006
     4  C    0.542754
     5  C    0.161048
     6  C   -0.875268
     7  N   -0.694530
     8  C    0.959494
     9  O   -0.851300
    10  N   -0.647891
    11  C    0.081248
    12  C    0.854180
    13  C   -0.565632
    14  C   -0.165880
    15  C   -0.355586
    16  C   -1.143034
    17  H    0.217990
    18  H    0.227869
    19  H    0.225073
    20  H    0.254388
    21  H    0.218434
    22  H    0.484476
    23  H    0.267985
    24  H    0.236542
    25  H    0.228148
    26  H    0.238290
    27  H    0.237579
 Sum of Mulliken charges =  -1.00000
 Mulliken charges with hydrogens summed into heavy atoms:
               1
     1  C    0.013378
     2  C   -0.123890
     3  C   -0.354933
     4  C    0.797142
     5  C    0.161048
     6  C   -0.656834
     7  N   -0.694530
     8  C    0.959494
     9  O   -0.851300
    10  N   -0.163415
    11  C    0.081248
    12  C    1.122165
    13  C   -0.329090
    14  C    0.062268
    15  C   -0.117296
    16  C   -0.905455
 Electronic spatial extent (au):  <R**2>=           5471.7758
 Charge=             -1.0000 electrons
 Dipole moment (field-independent basis, Debye):
    X=             -5.6180    Y=              1.1677    Z=             -0.0000  Tot=              5.7380
 Quadrupole moment (field-independent basis, Debye-Ang):
   XX=           -104.4194   YY=            -92.3213   ZZ=           -105.1313
   XY=             -5.5294   XZ=             -0.0000   YZ=              0.0001
 Traceless Quadrupole moment (field-independent basis, Debye-Ang):
   XX=             -3.7954   YY=              8.3027   ZZ=             -4.5073
   XY=             -5.5294   XZ=             -0.0000   YZ=              0.0001
 Octapole moment (field-independent basis, Debye-Ang**2):
  XXX=            -64.4000  YYY=             -0.7974  ZZZ=             -0.0001  XYY=            -19.9994
  XXY=              5.8551  XXZ=             -0.0006  XZZ=             -4.4692  YZZ=             -0.5087
  YYZ=             -0.0002  XYZ=             -0.0007
 Hexadecapole moment (field-independent basis, Debye-Ang**3):
 XXXX=          -6548.1405 YYYY=           -675.6361 ZZZZ=           -130.0227 XXXY=             -3.0162
 XXXZ=             -0.0293 YYYX=            -27.6907 YYYZ=             -0.0010 ZZZX=             -0.0459
 ZZZY=             -0.0017 XXYY=          -1144.2121 XXZZ=          -1350.0411 YYZZ=           -161.9610
 XXYZ=              0.0014 YYXZ=             -0.0115 ZZXY=             -2.5191
 N-N= 9.494544452524D+02 E-N=-3.512251926596D+03  KE= 6.816008194336D+02
 D1PCM: PCM CHGder 1st derivatives, ID1Alg=3 FixD1E=F DoIter=F DoCFld=F I1PDM=0.
 Calling FoFJK, ICntrl=      2127 FMM=F ISym2X=0 I1Cent= 0 IOpClX= 0 NMat=1 NMatS=1 NMatT=0.
 ***** Axes restored to original set *****
 -------------------------------------------------------------------
 Center     Atomic                   Forces (Hartrees/Bohr)
 Number     Number              X              Y              Z
 -------------------------------------------------------------------
      1        6           0.033414200   -0.014878966   -0.000000121
      2        6           0.044309187    0.024364984    0.000000404
      3        6           0.003536172   -0.051716938   -0.000000180
      4        6          -0.044210426   -0.008195340    0.000000210
      5        6           0.054982700   -0.001465885   -0.000001671
      6        6          -0.014760331    0.041488167    0.000000439
      7        7          -0.003320100   -0.036375194    0.000001095
      8        6          -0.075422892   -0.009090080   -0.000000349
      9        8           0.026907363    0.061577282   -0.000000188
     10        7           0.034826890    0.009029925   -0.000000269
     11        6          -0.016172835    0.002418620    0.000000378
     12        6           0.030698492   -0.022447167   -0.000001800
     13        6          -0.013526901   -0.052966572    0.000003040
     14        6          -0.038225521   -0.008667105   -0.000000757
     15        6          -0.036991007    0.035384344    0.000000200
     16        6           0.016965291    0.038663035   -0.000000384
     17        1          -0.040308529    0.019492057    0.000000391
     18        1          -0.036785937   -0.025469097   -0.000000166
     19        1          -0.002540878    0.044926479    0.000000203
     20        1           0.030917201    0.021578966    0.000000164
     21        1           0.004388871   -0.044570802   -0.000000274
     22        1          -0.004173012   -0.027886479    0.000000314
     23        1          -0.025421327    0.027724734    0.000000194
     24        1           0.010907084    0.042834696   -0.000001069
     25        1           0.043249461    0.010340503   -0.000000543
     26        1           0.029769491   -0.032709199    0.000000150
     27        1          -0.013012705   -0.043384966    0.000000588
 -------------------------------------------------------------------
 Cartesian Forces:  Max     0.075422892 RMS     0.026465184

 GradGradGradGradGradGradGradGradGradGradGradGradGradGradGradGradGradGrad
 Berny optimization.
 FormGI is forming the generalized inverse of G from B-inverse, IUseBI=4.
 Internal  Forces:  Max     0.064106034 RMS     0.015859297
 Search for a local minimum.
 Step number   1 out of a maximum of  141
 All quantities printed in internal units (Hartrees-Bohrs-Radians)
 Mixed Optimization -- RFO/linear search
 Second derivative matrix not updated -- first step.
 ITU=  0
     Eigenvalues ---    0.01372   0.01372   0.01800   0.01842   0.01930
     Eigenvalues ---    0.02052   0.02052   0.02072   0.02072   0.02101
     Eigenvalues ---    0.02102   0.02110   0.02110   0.02119   0.02119
     Eigenvalues ---    0.02123   0.02123   0.02124   0.02124   0.02127
     Eigenvalues ---    0.02127   0.02229   0.02229   0.02229   0.16000
     Eigenvalues ---    0.16000   0.16000   0.16000   0.16000   0.16000
     Eigenvalues ---    0.16000   0.16000   0.16000   0.16000   0.16000
     Eigenvalues ---    0.22000   0.22000   0.22000   0.22000   0.22000
     Eigenvalues ---    0.23476   0.23476   0.25000   0.25000   0.25000
     Eigenvalues ---    0.25000   0.25000   0.41448   0.41448   0.41756
     Eigenvalues ---    0.41756   0.41833   0.41833   0.42477   0.42477
     Eigenvalues ---    0.42477   0.42477   0.42477   0.42477   0.42478
     Eigenvalues ---    0.42478   0.42478   0.42479   0.45214   0.45214
     Eigenvalues ---    0.45833   0.45833   0.45955   0.45956   0.46080
     Eigenvalues ---    0.46080   0.50522   0.53074   0.53074   0.94153
 RFO step:  Lambda=-6.99515147D-02 EMin= 1.37153008D-02
 Linear search not attempted -- first point.
 Maximum step size (   0.300) exceeded in Quadratic search.
    -- Step size scaled by   0.745
 Iteration  1 RMS(Cart)=  0.18528526 RMS(Int)=  0.00525581
 Iteration  2 RMS(Cart)=  0.03079239 RMS(Int)=  0.00014941
 Iteration  3 RMS(Cart)=  0.00035644 RMS(Int)=  0.00000728
 Iteration  4 RMS(Cart)=  0.00000001 RMS(Int)=  0.00000728
 Variable       Old X    -DE/DX   Delta X   Delta X   Delta X     New X
                                 (Linear)    (Quad)   (Total)
    R1        2.64026   0.00009   0.00000  -0.00044  -0.00046   2.63980
    R2        2.63999  -0.00050   0.00000  -0.00104  -0.00106   2.63893
    R3        1.95019   0.04477   0.00000   0.06741   0.06741   2.01760
    R4        2.64214  -0.00348   0.00000  -0.00513  -0.00513   2.63701
    R5        1.95020   0.04474   0.00000   0.06735   0.06735   2.01755
    R6        2.64146   0.00058   0.00000   0.00104   0.00104   2.64250
    R7        1.95020   0.04500   0.00000   0.06775   0.06775   2.01795
    R8        2.65610   0.01248   0.00000   0.01857   0.01858   2.67468
    R9        1.95020   0.03770   0.00000   0.05676   0.05676   2.00696
   R10        2.64533   0.00836   0.00000   0.01217   0.01218   2.65752
   R11        2.69136  -0.02634   0.00000  -0.04018  -0.04018   2.65119
   R12        1.95020   0.04475   0.00000   0.06738   0.06738   2.01758
   R13        2.56885  -0.01408   0.00000  -0.01745  -0.01745   2.55139
   R14        2.31076   0.06411   0.00000   0.04721   0.04721   2.35796
   R15        2.56884   0.02814   0.00000   0.03489   0.03489   2.60373
   R16        2.69137  -0.01209   0.00000  -0.01844  -0.01844   2.67293
   R17        1.86043   0.02818   0.00000   0.03649   0.03649   1.89692
   R18        2.65608   0.00131   0.00000   0.00217   0.00217   2.65825
   R19        2.64534   0.00283   0.00000   0.00414   0.00413   2.64947
   R20        2.64146  -0.00115   0.00000  -0.00148  -0.00148   2.63998
   R21        1.95021   0.03761   0.00000   0.05662   0.05662   2.00683
   R22        2.63997  -0.00138   0.00000  -0.00206  -0.00206   2.63792
   R23        1.95020   0.04418   0.00000   0.06651   0.06651   2.01672
   R24        2.64026  -0.00221   0.00000  -0.00337  -0.00337   2.63689
   R25        1.95020   0.04447   0.00000   0.06695   0.06695   2.01714
   R26        2.64217  -0.00492   0.00000  -0.00707  -0.00707   2.63510
   R27        1.95018   0.04421   0.00000   0.06656   0.06656   2.01674
   R28        1.95020   0.04529   0.00000   0.06819   0.06819   2.01838
    A1        2.09352  -0.00452   0.00000  -0.01367  -0.01370   2.07982
    A2        2.09483   0.00196   0.00000   0.00586   0.00588   2.10071
    A3        2.09483   0.00256   0.00000   0.00780   0.00782   2.10266
    A4        2.09462   0.00367   0.00000   0.00756   0.00754   2.10216
    A5        2.09427  -0.00116   0.00000  -0.00161  -0.00160   2.09267
    A6        2.09430  -0.00250   0.00000  -0.00595  -0.00594   2.08835
    A7        2.09373   0.00515   0.00000   0.01265   0.01264   2.10636
    A8        2.09473  -0.00218   0.00000  -0.00505  -0.00504   2.08969
    A9        2.09473  -0.00297   0.00000  -0.00761  -0.00760   2.08713
   A10        2.10309   0.00064   0.00000   0.00277   0.00278   2.10587
   A11        2.09005  -0.00092   0.00000  -0.00332  -0.00333   2.08672
   A12        2.09005   0.00028   0.00000   0.00056   0.00055   2.09060
   A13        2.07718  -0.00963   0.00000  -0.02122  -0.02119   2.05600
   A14        2.13981   0.02726   0.00000   0.06285   0.06283   2.20264
   A15        2.06619  -0.01762   0.00000  -0.04163  -0.04165   2.02455
   A16        2.10423   0.00470   0.00000   0.01191   0.01193   2.11616
   A17        2.08949  -0.00075   0.00000  -0.00078  -0.00079   2.08870
   A18        2.08947  -0.00395   0.00000  -0.01113  -0.01114   2.07833
   A19        2.21604  -0.01046   0.00000  -0.02436  -0.02436   2.19168
   A20        2.10852   0.04659   0.00000   0.10845   0.10845   2.21697
   A21        2.06615  -0.04660   0.00000  -0.10848  -0.10848   1.95767
   A22        2.10851   0.00001   0.00000   0.00003   0.00003   2.10854
   A23        2.21604   0.02143   0.00000   0.05506   0.05506   2.27110
   A24        2.03357  -0.00983   0.00000  -0.02466  -0.02466   2.00890
   A25        2.03357  -0.01160   0.00000  -0.03040  -0.03040   2.00318
   A26        2.13981   0.01817   0.00000   0.04199   0.04199   2.18180
   A27        2.06618  -0.01630   0.00000  -0.03826  -0.03826   2.02792
   A28        2.07719  -0.00187   0.00000  -0.00373  -0.00373   2.07346
   A29        2.10309  -0.00345   0.00000  -0.00816  -0.00815   2.09494
   A30        2.09005   0.00249   0.00000   0.00656   0.00656   2.09661
   A31        2.09004   0.00096   0.00000   0.00160   0.00159   2.09164
   A32        2.09372   0.00570   0.00000   0.01459   0.01460   2.10832
   A33        2.09473  -0.00418   0.00000  -0.01159  -0.01160   2.08313
   A34        2.09474  -0.00152   0.00000  -0.00299  -0.00300   2.09174
   A35        2.09354  -0.00414   0.00000  -0.01144  -0.01144   2.08210
   A36        2.09484   0.00242   0.00000   0.00685   0.00685   2.10168
   A37        2.09481   0.00172   0.00000   0.00459   0.00459   2.09941
   A38        2.09461   0.00208   0.00000   0.00452   0.00451   2.09912
   A39        2.09429   0.00015   0.00000   0.00160   0.00160   2.09589
   A40        2.09429  -0.00223   0.00000  -0.00612  -0.00611   2.08818
   A41        2.10422   0.00167   0.00000   0.00422   0.00421   2.10843
   A42        2.08949  -0.00151   0.00000  -0.00428  -0.00428   2.08521
   A43        2.08948  -0.00017   0.00000   0.00006   0.00006   2.08954
    D1       -0.00000  -0.00000   0.00000  -0.00000  -0.00000  -0.00000
    D2        3.14158   0.00000   0.00000   0.00000   0.00000   3.14158
    D3       -3.14159  -0.00000   0.00000  -0.00000  -0.00000  -3.14159
    D4       -0.00001   0.00000   0.00000   0.00000   0.00000  -0.00001
    D5       -0.00000   0.00000   0.00000   0.00000   0.00000   0.00000
    D6       -3.14159  -0.00000   0.00000  -0.00000  -0.00000  -3.14159
    D7        3.14159   0.00000   0.00000   0.00000   0.00000   3.14159
    D8       -0.00000   0.00000   0.00000   0.00000   0.00000   0.00000
    D9        0.00000  -0.00000   0.00000  -0.00000  -0.00000  -0.00000
   D10       -3.14159  -0.00000   0.00000  -0.00000  -0.00000  -3.14159
   D11       -3.14158  -0.00000   0.00000  -0.00000  -0.00000  -3.14158
   D12        0.00001  -0.00000   0.00000  -0.00000  -0.00000   0.00001
   D13       -0.00000  -0.00000   0.00000   0.00000   0.00000   0.00000
   D14        3.14158   0.00000   0.00000   0.00000   0.00000   3.14158
   D15        3.14159   0.00000   0.00000   0.00000   0.00000   3.14159
   D16       -0.00001   0.00000   0.00000   0.00000   0.00000  -0.00001
   D17        0.00000  -0.00000   0.00000  -0.00000  -0.00000  -0.00000
   D18        3.14158   0.00000   0.00000   0.00000   0.00000   3.14159
   D19       -3.14158  -0.00000   0.00000  -0.00000  -0.00000  -3.14158
   D20        0.00000  -0.00000   0.00000   0.00000   0.00000   0.00000
   D21       -0.00000   0.00000   0.00000   0.00000   0.00000   0.00000
   D22        3.14159   0.00000   0.00000   0.00000   0.00000   3.14159
   D23       -3.14158  -0.00000   0.00000  -0.00000  -0.00000  -3.14159
   D24        0.00000  -0.00000   0.00000  -0.00000  -0.00000   0.00000
   D25        0.00000  -0.00000   0.00000  -0.00000  -0.00000  -0.00000
   D26        3.14159  -0.00000   0.00000  -0.00000  -0.00000   3.14159
   D27       -0.00002  -0.00000   0.00000   0.00000   0.00000  -0.00002
   D28        3.14159  -0.00000   0.00000  -0.00000  -0.00000   3.14158
   D29        3.14159   0.00000   0.00000   0.00000   0.00000   3.14159
   D30       -0.00001   0.00000   0.00000   0.00000   0.00000  -0.00001
   D31        0.00000  -0.00000   0.00000  -0.00000  -0.00000  -0.00000
   D32        3.14159  -0.00000   0.00000  -0.00000  -0.00000   3.14159
   D33       -0.00001  -0.00000   0.00000  -0.00000  -0.00000  -0.00001
   D34        3.14159  -0.00000   0.00000  -0.00000  -0.00000   3.14159
   D35        3.14159  -0.00000   0.00000  -0.00000  -0.00000   3.14159
   D36       -0.00000  -0.00000   0.00000  -0.00000  -0.00000  -0.00000
   D37       -3.14158  -0.00000   0.00000  -0.00000  -0.00000  -3.14159
   D38       -0.00001   0.00000   0.00000   0.00000   0.00000  -0.00001
   D39        0.00001  -0.00000   0.00000  -0.00000  -0.00000   0.00001
   D40        3.14158   0.00000   0.00000   0.00000   0.00000   3.14158
   D41        3.14159  -0.00000   0.00000   0.00000   0.00000   3.14159
   D42       -0.00001   0.00000   0.00000   0.00000   0.00000  -0.00001
   D43       -0.00000  -0.00000   0.00000  -0.00000  -0.00000  -0.00000
   D44        3.14159   0.00000   0.00000   0.00000   0.00000   3.14159
   D45       -0.00002   0.00000   0.00000   0.00000   0.00000  -0.00001
   D46       -3.14159  -0.00000   0.00000  -0.00000  -0.00000  -3.14159
   D47       -3.14159  -0.00000   0.00000   0.00000   0.00000  -3.14159
   D48        0.00002  -0.00000   0.00000  -0.00000  -0.00000   0.00002
   D49        0.00002  -0.00000   0.00000  -0.00000  -0.00000   0.00001
   D50       -3.14159  -0.00000   0.00000  -0.00000  -0.00000  -3.14159
   D51        3.14159   0.00000   0.00000   0.00000   0.00000   3.14159
   D52       -0.00002   0.00000   0.00000   0.00000   0.00000  -0.00002
   D53       -0.00001   0.00000   0.00000   0.00000   0.00000  -0.00001
   D54        3.14158   0.00000   0.00000   0.00000   0.00000   3.14159
   D55       -3.14159  -0.00000   0.00000  -0.00000  -0.00000  -3.14159
   D56        0.00001  -0.00000   0.00000  -0.00000  -0.00000   0.00000
   D57        0.00000   0.00000   0.00000   0.00000   0.00000   0.00000
   D58       -3.14159  -0.00000   0.00000  -0.00000  -0.00000  -3.14159
   D59       -3.14159   0.00000   0.00000   0.00000   0.00000  -3.14159
   D60        0.00001  -0.00000   0.00000  -0.00000  -0.00000   0.00000
         Item               Value     Threshold  Converged?
 Maximum Force            0.064106     0.000450     NO 
 RMS     Force            0.015859     0.000300     NO 
 Maximum Displacement     0.625483     0.001800     NO 
 RMS     Displacement     0.211888     0.001200     NO 
 Predicted change in Energy=-3.584617D-02
 GradGradGradGradGradGradGradGradGradGradGradGradGradGradGradGradGradGrad

                          Input orientation:                          
 ---------------------------------------------------------------------
 Center     Atomic      Atomic             Coordinates (Angstroms)
 Number     Number       Type             X           Y           Z
 ---------------------------------------------------------------------
      1          6           0       -4.282148    2.025493    0.000108
      2          6           0       -4.022672    0.652883    0.000092
      3          6           0       -3.210362    2.920690    0.000109
      4          6           0       -1.891767    2.455192    0.000093
      5          6           0       -1.616534    1.066829    0.000076
      6          6           0       -2.709229    0.181567    0.000076
      7          7           0       -0.344917    0.474164    0.000053
      8          6           0        0.830915    1.137710    0.000040
      9          8           0        0.995640    2.374570    0.000030
     10          7           0        1.910764    0.281933    0.000034
     11          6           0        3.296927    0.563412    0.000016
     12          6           0        3.858506    1.853139   -0.000009
     13          6           0        5.246540    2.011328   -0.000033
     14          6           0        6.092446    0.900899   -0.000018
     15          6           0        5.538162   -0.379670    0.000007
     16          6           0        4.153728   -0.546365    0.000024
     17          1           0       -5.287598    2.384640    0.000122
     18          1           0       -4.833229   -0.041998    0.000100
     19          1           0       -3.398350    3.971864    0.000123
     20          1           0       -1.090184    3.151886    0.000086
     21          1           0       -2.525050   -0.870087    0.000062
     22          1           0        1.679922   -0.694971    0.000048
     23          1           0        3.229156    2.708528   -0.000024
     24          1           0        5.661001    2.994759   -0.000048
     25          1           0        7.152181    1.028805   -0.000036
     26          1           0        6.173108   -1.237453    0.000013
     27          1           0        3.738863   -1.530584    0.000048
 ---------------------------------------------------------------------
                    Distance matrix (angstroms):
                    1          2          3          4          5
     1  C    0.000000
     2  C    1.396920   0.000000
     3  C    1.396461   2.408899   0.000000
     4  C    2.428696   2.790891   1.398350   0.000000
     5  C    2.832762   2.441485   2.444809   1.415382   0.000000
     6  C    2.423662   1.395446   2.784588   2.416116   1.406297
     7  N    4.231833   3.682094   3.767793   2.513407   1.402947
     8  C    5.189564   4.877741   4.417119   3.024690   2.448475
     9  O    5.289319   5.305436   4.241309   2.888532   2.921239
    10  N    6.433674   5.945020   5.760987   4.379760   3.613570
    11  C    7.718812   7.320145   6.921096   5.522805   4.939182
    12  C    8.142479   7.972050   7.149026   5.781705   5.531216
    13  C    9.528698   9.368226   8.505653   7.152093   6.927760
    14  C   10.435369  10.118158   9.519549   8.134094   7.710766
    15  C   10.110553   9.616428   9.350350   7.952375   7.299454
    16  C    8.819210   8.263879   8.139428   6.749618   5.991520
    17  H    1.067668   2.144532   2.145287   3.396564   3.900428
    18  H    2.139675   1.067644   3.378049   3.858518   3.402444
    19  H    2.137629   3.377190   1.067851   2.137776   3.407946
    20  H    3.384878   3.852856   2.132747   1.062035   2.150467
    21  H    3.387001   2.135956   3.852226   3.385045   2.139402
    22  H    6.553412   5.859717   6.081767   4.762404   3.737721
    23  H    7.542296   7.537551   6.443012   5.127185   5.116237
    24  H    9.990280   9.962826   8.871673   7.572017   7.528574
    25  H   11.477686  11.181174  10.533828   9.155740   8.768797
    26  H   10.952588  10.369536  10.263511   8.870052   8.123314
    27  H    8.773956   8.062813   8.252610   6.898580   5.952044
                    6          7          8          9         10
     6  C    0.000000
     7  N    2.382348   0.000000
     8  C    3.666992   1.350139   0.000000
     9  O    4.305266   2.325648   1.247781   0.000000
    10  N    4.621083   2.263858   1.377835   2.283984   0.000000
    11  C    6.018282   3.642938   2.532002   2.928518   1.414453
    12  C    6.777116   4.423838   3.110972   2.909965   2.502477
    13  C    8.163472   5.798902   4.501216   4.266391   3.757420
    14  C    8.831021   6.451492   5.266858   5.305577   4.227243
    15  C    8.266464   5.944716   4.945767   5.312282   3.687239
    16  C    6.901453   4.612948   3.725211   4.301789   2.391017
    17  H    3.391388   5.299057   6.244280   6.283245   7.499186
    18  H    2.135734   4.517894   5.785693   6.309954   6.751768
    19  H    3.852433   4.642990   5.091081   4.675307   6.465469
    20  H    3.382914   2.779500   2.783438   2.225956   4.152387
    21  H    1.067660   2.561247   3.910722   4.787803   4.582968
    22  H    4.475820   2.338130   2.019786   3.144889   1.003808
    23  H    6.453677   4.215019   2.866885   2.258345   2.761616
    24  H    8.830334   6.513406   5.174782   4.706403   4.628575
    25  H    9.897738   7.517587   6.322204   6.301911   5.294362
    26  H    8.994972   6.739012   5.846403   6.312914   4.525053
    27  H    6.671533   4.549316   3.946639   4.772369   2.574328
                   11         12         13         14         15
    11  C    0.000000
    12  C    1.406687   0.000000
    13  C    2.428467   1.397018   0.000000
    14  C    2.815817   2.428425   1.395926   0.000000
    15  C    2.431571   2.794043   2.408716   1.395381   0.000000
    16  C    1.402039   2.417597   2.781372   2.419340   1.394433
    17  H    8.775587   9.161534  10.540750  11.476362  11.173114
    18  H    8.152666   8.895944  10.286782  10.966287  10.376886
    19  H    7.512941   7.559825   8.864413   9.975272   9.939672
    20  H    5.093814   5.116276   6.438551   7.527092   7.510449
    21  H    5.995859   6.940155   8.288555   8.797592   8.078111
    22  H    2.048959   3.352476   4.477144   4.692246   3.871102
    23  H    2.146187   1.061966   2.134462   3.386142   3.855966
    24  H    3.391209   2.133608   1.067200   2.137848   3.376664
    25  H    3.883243   3.395264   2.144020   1.067425   2.142163
    26  H    3.393454   3.861235   3.378328   2.139873   1.067215
    27  H    2.140123   3.385838   3.849445   3.384001   2.135902
                   16         17         18         19         20
    16  C    0.000000
    17  H    9.885819   0.000000
    18  H    9.001099   2.468810   0.000000
    19  H    8.800470   2.467496   4.262624   0.000000
    20  H    6.416827   4.266960   4.920497   2.449489   0.000000
    21  H    6.686618   4.269065   2.452228   4.920075   4.270259
    22  H    2.478265   7.617764   6.545801   6.896970   4.740443
    23  H    3.383661   8.522910   8.518653   6.746840   4.342034
    24  H    3.848563  10.965585  10.924778   9.111892   6.753013
    25  H    3.387017  12.513448  12.033149  10.953324   8.511407
    26  H    2.134361  12.019456  11.071069  10.897237   8.486560
    27  H    1.068082   9.839003   8.700383   9.012033   6.726457
                   21         22         23         24         25
    21  H    0.000000
    22  H    4.208616   0.000000
    23  H    6.776235   3.739510   0.000000
    24  H    9.052539   5.427993   2.448632   0.000000
    25  H    9.861774   5.737336   4.267505   2.467507   0.000000
    26  H    8.705912   4.525815   4.923172   4.263082   2.468706
    27  H    6.298640   2.222046   4.269646   4.916640   4.266288
                   26         27
    26  H    0.000000
    27  H    2.451831   0.000000
 Stoichiometry    C13H11N2O(1-)
 Framework group  C1[X(C13H11N2O)]
 Deg. of freedom    75
 Full point group                 C1      NOp   1
 Largest Abelian subgroup         C1      NOp   1
 Largest concise Abelian subgroup C1      NOp   1
                         Standard orientation:                         
 ---------------------------------------------------------------------
 Center     Atomic      Atomic             Coordinates (Angstroms)
 Number     Number       Type             X           Y           Z
 ---------------------------------------------------------------------
      1          6           0        5.223772   -0.338423    0.000064
      2          6           0        4.818392    0.998384    0.000048
      3          6           0        4.254319   -1.343542    0.000065
      4          6           0        2.893359   -1.022340    0.000050
      5          6           0        2.470622    0.328438    0.000033
      6          6           0        3.461930    1.325924    0.000033
      7          7           0        1.142713    0.781117    0.000009
      8          6           0        0.044939   -0.004865   -0.000003
      9          8           0        0.013993   -1.252262   -0.000013
     10          7           0       -1.120567    0.729999   -0.000009
     11          6           0       -2.468486    0.301288   -0.000027
     12          6           0       -2.888314   -1.041289   -0.000053
     13          6           0       -4.251333   -1.347623   -0.000077
     14          6           0       -5.211596   -0.334458   -0.000062
     15          6           0       -4.798037    0.998230   -0.000037
     16          6           0       -3.439511    1.312636   -0.000019
     17          1           0        6.261975   -0.587518    0.000078
     18          1           0        5.549639    1.776292    0.000056
     19          1           0        4.554105   -2.368449    0.000080
     20          1           0        2.171230   -1.801087    0.000042
     21          1           0        3.165879    2.351717    0.000018
     22          1           0       -0.995969    1.726044    0.000004
     23          1           0       -2.170743   -1.824145   -0.000067
     24          1           0       -4.557787   -2.369876   -0.000092
     25          1           0       -6.251467   -0.575428   -0.000079
     26          1           0       -5.521428    1.782866   -0.000031
     27          1           0       -3.132740    2.335715    0.000004
 ---------------------------------------------------------------------
 Rotational constants (GHZ):      2.2975604      0.2002352      0.1841834
 Basis read from rwf:  (6D, 7F)
 There are   326 symmetry adapted cartesian basis functions of A   symmetry.
 There are   326 symmetry adapted basis functions of A   symmetry.
   326 basis functions,   556 primitive gaussians,   326 cartesian basis functions
    56 alpha electrons       56 beta electrons
       nuclear repulsion energy       942.7985325838 Hartrees.
 NAtoms=   27 NActive=   27 NUniq=   27 SFac= 1.00D+00 NAtFMM=   60 NAOKFM=F Big=F
 Integral buffers will be    131072 words long.
 Raffenetti 2 integral format.
 Two-electron integral symmetry is turned on.
 ------------------------------------------------------------------------------
 Polarizable Continuum Model (PCM)
 =================================
 Model                : PCM (using non-symmetric T matrix).
 Atomic radii         : SMD-Coulomb.
 Polarization charges : Total charges.
 Charge compensation  : None.
 Solution method      : On-the-fly selection.
 Cavity type          : VdW (van der Waals Surface) (Alpha=1.000).
 Cavity algorithm     : GePol (No added spheres)
                        Default sphere list used, NSphG=   27.
                        Lebedev-Laikov grids with approx.  5.0 points / Ang**2.
                        Smoothing algorithm: York/Karplus (Gamma=1.0000).
                        Polarization charges: spherical gaussians, with
                                              point-specific exponents (IZeta= 3).
                        Self-potential: point-specific (ISelfS= 7).
                        Self-field    : sphere-specific E.n sum rule (ISelfD= 2).
 1st derivatives      : Analytical E(r).r(x)/FMM algorithm (CHGder, D1EAlg=3).
                        Cavity 1st derivative terms included.
 Solvent              : Water, Eps=  78.355300 Eps(inf)=   1.777849
 ------------------------------------------------------------------------------
 ------------------------------------------------------------------------------
 Atomic radii for non-electrostatic terms: SMD-CDS.
 ------------------------------------------------------------------------------
 Nuclear repulsion after PCM non-electrostatic terms =      942.8057810092 Hartrees.
 One-electron integrals computed using PRISM.
 NBasis=   326 RedAO= T EigKep=  1.81D-06  NBF=   326
 NBsUse=   326 1.00D-06 EigRej= -1.00D+00 NBFU=   326
 Initial guess from the checkpoint file:  "diph_a1.M062X.SMD.h2o.opt.chk"
 B after Tr=    -0.000000   -0.000000    0.000000
         Rot=    1.000000    0.000000    0.000000    0.000522 Ang=   0.06 deg.
 ExpMin= 4.38D-02 ExpMax= 5.48D+03 ExpMxC= 8.25D+02 IAcc=2 IRadAn=         4 AccDes= 0.00D+00
 Harris functional with IExCor= 1009 and IRadAn=       4 diagonalized for initial guess.
 HarFok:  IExCor= 1009 AccDes= 0.00D+00 IRadAn=         4 IDoV= 1 UseB2=F ITyADJ=14
 ICtDFT=  3500011 ScaDFX=  1.000000  1.000000  1.000000  1.000000
[...]
 ,-0.00044264,-0.00079995,-0.00074032,-0.00225175,-0.00312715,-0.112354
 49,-0.07832390,0.09707378,-0.00444851,0.00207584,0.00161233,0.00034248
 ,0.02596825,-0.01341556,-0.00115577,-0.00007729,0.00015154,-0.00345407
 ,-0.00139031,0.00295999,0.00614692,-0.02090032,0.01090282,-0.06197913,
 0.03601242,-0.01317191,0.00232232,-0.00062795,-0.00086331,-0.00047991,
 -0.00041385,-0.00034404,0.00004677,0.00028808,0.00014474,0.00023071,-0
 .00004952,0.00005657,-0.00011878,-0.00003597,-0.00000476,0.00002862,0.
 00001817,0.00001134,-0.00000912,0.00000066,-0.00000360,0.00001732,0.00
 000352,0.00000019,-0.00000976,-0.00000363,-0.00000240,0.00003394,-0.00
 000836,-0.00000567,-0.00011478,0.00136032,-0.00060344,0.00112526,-0.00
 105689,-0.00073209,0.00018061,-0.00005279,-0.00023735,0.00027533,-0.00
 123961,0.00051870,0.06101955,0.00307440,0.00256090,0.00183099,-0.00052
 663,-0.00689821,0.00529623,-0.00051139,0.00029815,-0.00041601,-0.00251
 665,0.00101020,0.00314337,0.00586946,-0.00980787,0.00650018,0.03463084
 ,-0.27772225,0.12128536,0.00051680,0.00083684,-0.00233845,-0.00032069,
 0.00015739,-0.00044185,-0.00004910,0.00015631,0.00003116,-0.00009662,-
 0.00013810,0.00009481,0.00000247,0.00001677,0.00005134,-0.00000482,0.0
 0000178,-0.00000679,0.00000152,-0.00000056,-0.00000753,-0.00000021,0.0
 0000059,0.00000135,-0.00000278,0.00000874,-0.00000186,-0.00001503,-0.0
 0000559,-0.00000420,-0.00000438,-0.00040923,0.00044158,-0.00036476,-0.
 00031267,-0.00214212,-0.00005412,-0.00032139,-0.00031735,0.00023769,-0
 .00067209,0.00025716,-0.03988054,0.29124773,0.00110239,0.00211066,0.00
 612891,0.00058770,-0.00064397,0.00287030,0.00046139,-0.00049513,-0.000
 58751,0.00325356,0.00303501,0.00356262,-0.00236684,0.01214206,-0.00123
 512,-0.01224680,0.12070715,-0.09774807,-0.00183105,-0.00120298,-0.0017
 9986,-0.00095910,-0.00065608,-0.00038492,0.00005525,0.00016201,0.00001
 368,0.00032279,-0.00011581,0.00010464,-0.00011292,-0.00004070,0.000043
 85,0.00003357,0.00002082,0.00000857,-0.00001057,0.00000117,-0.00000798
 ,0.00001940,0.00000309,0.00000180,-0.00000983,0.00000010,-0.00000540,0
 .00003179,-0.00000766,-0.00000511,0.00013177,0.00012486,0.00032532,-0.
 00106412,-0.00203437,-0.00321733,-0.00022954,-0.00036438,-0.00073657,-
 0.00018764,0.00046747,-0.00047676,0.01301800,-0.13324737,0.09316006,0.
 00005440,0.00003760,-0.00002543,0.00001090,-0.00002679,-0.00003130,-0.
 00008999,-0.00002048,0.00014777,0.00035869,-0.00000229,-0.00000779,0.0
 0000973,-0.00091333,-0.00030249,-0.00002143,-0.00002674,0.00010939,-0.
 00163684,-0.00062866,-0.00059784,0.01441190,0.02434995,0.01014488,-0.0
 0557894,0.00698888,0.00140433,-0.08115031,-0.06448029,-0.02475734,-0.0
 0738864,-0.03205144,-0.01293104,-0.00538027,0.00081178,0.00117567,0.00
 048985,-0.00133963,-0.00087420,-0.00000316,0.00041445,0.00025700,-0.00
 024845,0.00001988,-0.00006032,0.00098281,-0.00206763,-0.00117379,0.000
 00078,-0.00000404,-0.00000448,0.00001046,-0.00000215,-0.00000441,0.000
 01826,-0.00001811,-0.00000630,-0.00004551,-0.00005632,-0.00002295,-0.0
 0000216,0.00001558,-0.00000426,0.08634594,-0.00018953,0.00019756,-0.00
 007172,0.00017544,-0.00023753,-0.00000398,0.00003993,-0.00001517,0.000
 00268,-0.00019559,0.00038193,-0.00009050,0.00164588,-0.00047066,0.0008
 2623,-0.00073737,0.00001546,0.00004813,-0.00541132,0.00181811,0.000590
 08,-0.00312451,-0.01799369,-0.00522254,0.00307411,0.00032472,-0.001482
 90,-0.06507029,-0.37978884,-0.14199464,-0.00364583,-0.00374148,-0.0005
 0346,0.00141343,0.00233147,0.00016237,-0.00003936,0.00005980,-0.000441
 78,0.00049029,0.00032568,0.00009566,-0.00037468,-0.00044929,0.00003804
 ,0.00366369,0.00152559,0.00096442,-0.00001204,0.00000936,-0.00000052,-
 0.00003896,0.00000324,0.00002018,-0.00002620,0.00003081,-0.00001298,0.
 00004012,0.00001804,-0.00002068,0.00001423,-0.00000174,0.00004016,0.06
 807129,0.39564418,0.00001394,-0.00009583,0.00003677,-0.00005452,0.0001
 3369,0.00002795,0.00007965,0.00009559,-0.00004837,-0.00024285,-0.00004
 959,0.00005850,-0.00032042,0.00087806,-0.00089727,0.00030140,-0.000022
 29,-0.00000227,-0.00041191,0.00068871,-0.00003434,-0.00385995,-0.00031
 497,-0.00476232,0.00029705,-0.00145698,0.00469917,-0.02244549,-0.14950
 951,-0.06443099,-0.00224727,0.00190405,-0.00314038,0.00047031,-0.00001
 136,0.00220664,0.00006263,-0.00082516,0.00088623,0.00043104,0.00028738
 ,0.00017522,-0.00062291,0.00014860,-0.00066493,0.00159024,0.00113931,-
 0.00055621,-0.00000027,-0.00000216,-0.00000050,0.00000294,-0.00000235,
 -0.00000925,-0.00002016,0.00000330,-0.00000772,0.00002239,0.00003238,-
 0.00001136,0.00000377,-0.00001929,-0.00001778,0.02679525,0.14692360,0.
 06662942,0.00001277,-0.00000481,-0.00000119,-0.00000586,0.00000545,0.0
 0000250,-0.00000988,0.00000019,0.00001025,0.00002333,-0.00002064,-0.00
 003043,-0.00012509,0.00003370,0.00008564,0.00002264,-0.00000211,-0.000
 00946,0.00022785,0.00029158,0.00005433,-0.00073351,-0.00204983,-0.0006
 3462,-0.00509478,0.00110354,-0.00051421,-0.00036555,0.00147976,0.00054
 658,0.01267168,-0.00887776,-0.00565760,-0.17184472,0.12881867,0.079567
 07,-0.01414888,0.01986840,0.01155256,-0.00398623,-0.00244245,-0.000532
 02,-0.00020645,-0.00063354,-0.00037013,-0.00069229,-0.00244525,-0.0009
 3415,0.00000070,-0.00000127,-0.00000081,0.00000137,-0.00000052,-0.0000
 0301,0.00000231,-0.00000255,0.00000082,-0.00000928,-0.00000546,0.00000
 046,-0.00000175,0.00000128,0.00000068,0.00005346,0.00008787,0.00009155
 ,0.18280327,0.00004284,0.00000779,-0.00002571,0.00002058,-0.00000455,0
 .00002154,-0.00004498,0.00002125,0.00002576,0.00006489,-0.00005736,0.0
 0004109,-0.00020174,0.00014875,-0.00003860,0.00003816,-0.00002564,-0.0
 0000213,0.00038697,0.00060119,-0.00010541,-0.00048684,-0.00221103,-0.0
 0026029,0.00298422,0.00113771,0.00109196,0.00067144,0.00084358,0.00191
 854,0.01777878,-0.01216417,-0.00976683,0.12509011,-0.19331432,-0.09232
 539,-0.00560657,0.00877645,0.00350159,-0.00218685,0.00236987,-0.002509
 01,-0.00102743,-0.00048055,0.00020534,-0.00304671,-0.00195442,-0.00408
 572,0.00000298,-0.00000306,-0.00000432,0.00000711,0.00000046,-0.000000
 60,0.00000396,-0.00000333,0.00000566,0.00001439,0.00000446,-0.00001461
 ,-0.00000427,-0.00000375,-0.00000437,-0.00000983,-0.00008457,0.0001394
 9,-0.13566550,0.19735002,0.00001188,-0.00002231,0.00001223,-0.00001633
 ,0.00001757,-0.00001545,0.00001803,-0.00000094,-0.00001969,0.00002251,
 -0.00004446,0.00002939,-0.00021022,0.00009523,0.00009820,0.00003826,0.
 00000524,-0.00001234,0.00027709,0.00039964,0.00032214,-0.00044012,-0.0
 0230846,-0.00109296,0.00165511,0.00128378,0.00091322,-0.00055988,0.001
 88071,-0.00254673,0.00829316,-0.00759482,-0.00029119,0.07736027,-0.090
 74226,-0.08965206,-0.00166086,0.00102525,0.00353178,-0.00012852,-0.002
 39516,0.00636733,-0.00060124,0.00024970,-0.00064914,-0.00109844,-0.004
 13689,0.00441034,0.00000348,0.00000070,0.00000126,0.00000150,0.0000013
 7,-0.00000214,0.00000245,-0.00000306,0.00000096,0.00001998,0.00002547,
 -0.00000479,0.00000256,0.00000488,0.00000044,0.00001461,0.00006950,-0.
 00023383,-0.08312906,0.09992263,0.08315103,-0.00001848,0.00000946,0.00
 000040,0.00000561,-0.00001190,-0.00000043,0.00001056,0.00000069,-0.000
 00203,-0.00003593,0.00003156,-0.00001029,0.00012387,-0.00006208,0.0000
 0532,-0.00004775,0.00000915,0.00000079,-0.00041871,0.00002446,0.000017
 32,0.00068533,-0.00040722,-0.00008757,-0.00014059,0.00019805,0.0000617
 1,-0.00034152,-0.00150816,-0.00078323,-0.00511823,-0.00017723,0.000995
 16,-0.00642139,-0.02650227,-0.01321606,-0.09155587,-0.08187313,-0.0390
 1860,0.01147102,0.01787747,0.00875127,-0.00221299,0.00277341,0.0020396
 3,-0.00103376,0.00040032,0.00022276,-0.00000163,0.00000078,0.00000019,
 -0.00000403,0.00000007,0.00000111,-0.00000308,0.00000310,-0.00000189,-
 0.00000026,-0.00000206,0.00000078,0.00000156,-0.00000077,0.00000185,-0
 .00043657,0.00002325,-0.00003068,0.00149778,0.00055631,-0.00017562,0.0
 9247943,-0.00001680,0.00000811,0.00000055,0.00000434,-0.00000940,-0.00
 000117,0.00001086,-0.00000001,-0.00000129,-0.00002928,0.00002867,-0.00
 000465,0.00010936,-0.00006199,-0.00001140,-0.00004022,0.00000699,0.000
 00133,-0.00032329,-0.00001201,0.00003157,0.00052874,-0.00029003,-0.000
 12659,-0.00011736,0.00013851,0.00001406,-0.00057868,-0.00006687,-0.000
 09342,-0.00002723,0.00305158,-0.00236078,0.00024355,-0.00035637,-0.002
 23861,-0.08247272,-0.26061019,-0.10902812,-0.00902358,-0.01234508,-0.0
 0800069,0.00362785,0.00025384,-0.00384479,0.00019393,0.00018708,0.0005
 4392,-0.00000165,0.00000083,0.00000016,-0.00000357,-0.00000021,0.00000
 112,-0.00000241,0.00000300,-0.00000161,-0.00000080,-0.00000151,-0.0000
 0132,0.00000140,-0.00000065,0.00000157,-0.00003966,0.00002845,0.000099
 15,0.00006265,-0.00039928,0.00218675,0.08837472,0.27151478,-0.00000967
 ,0.00000661,-0.00000044,0.00000408,-0.00000669,-0.00000116,0.00000323,
 -0.00000049,0.00000167,-0.00001431,0.00001604,-0.00000464,0.00007176,-
 0.00004188,0.00000538,-0.00002623,0.00000467,0.00000237,-0.00019043,-0
 .00001312,-0.00001423,0.00027107,-0.00014063,-0.00004247,-0.00013583,0
 .00002064,0.00003539,-0.00039327,-0.00015774,0.00005256,0.00102554,-0.
 00212094,0.00644554,0.00050557,-0.00046060,0.00376305,-0.03884489,-0.1
 0923479,-0.09308800,-0.00537552,-0.00950434,-0.00020447,0.00241946,-0.
 00389574,0.00497221,0.00019160,0.00056066,-0.00064697,-0.00000090,0.00
 000051,0.00000019,-0.00000188,0.,0.00000083,-0.00000146,0.00000181,-0.
 00000104,-0.00000085,-0.00000115,-0.00000069,0.00000090,0.00000008,0.0
 0000107,-0.00003159,0.00011185,-0.00013711,-0.00029148,0.00213252,-0.0
 0346313,0.04152728,0.12069450,0.08629946,-0.00001336,0.00000573,0.0000
 0109,0.00000255,-0.00000687,-0.00000155,0.00000872,-0.00000128,-0.0000
 0147,-0.00002259,0.00002233,-0.00000774,0.00008677,-0.00005096,-0.0000
 0181,-0.00003068,0.00000630,0.00000132,-0.00025466,-0.00003636,0.00000
 949,0.00036026,-0.00008060,-0.00003900,-0.00029997,0.00002711,-0.00003
 555,-0.00034776,0.00002446,-0.00006493,0.00067912,0.00037854,0.0001248
 8,-0.00019377,0.00299809,0.00208015,-0.01412034,-0.00567261,-0.0017965
 0,-0.34114270,-0.05185374,-0.00536159,-0.00555772,0.00055708,0.0007937
 5,0.00126712,-0.00181248,-0.00053706,-0.00000141,0.00000075,0.00000038
 ,-0.00000287,-0.00000018,0.00000092,-0.00000182,0.00000226,-0.00000136
 ,-0.00000142,-0.00000168,0.00000090,0.00000120,-0.00000036,0.00000141,
 -0.00000832,0.00001917,-0.00000208,-0.00065487,-0.00040563,-0.00010623
 ,0.00090985,0.00011319,-0.00029350,0.35915523,0.00000135,0.00000350,-0
 .00000362,0.00000422,-0.00000283,0.00000371,-0.00000447,0.00000302,0.0
 0000449,0.00000066,0.00000171,0.00000247,0.00000827,-0.00000330,-0.000
 01718,-0.00000501,-0.00000146,0.00000126,-0.00003240,0.00003848,-0.000
 03152,0.00007536,-0.00019372,0.00004962,0.00012813,0.00010591,0.000074
 26,-0.00018828,0.00020913,0.00055794,0.00032674,-0.00103858,-0.0003508
 0,0.00183620,-0.00136654,-0.00437488,0.02192490,0.00766433,0.00126430,
 -0.05181137,-0.06279306,-0.01101340,-0.02697262,-0.00030132,0.00054932
 ,-0.00076504,-0.00273740,-0.00476250,-0.00000021,-0.00000035,-0.000000
 67,0.00000004,-0.00000008,0.00000016,-0.00000018,0.00000030,0.00000025
 ,-0.00000047,-0.00000204,-0.00000229,-0.00000033,-0.00000100,-0.000000
 60,0.00009068,-0.00000173,-0.00001615,0.00092118,0.00040049,-0.0001015
 8,-0.00064204,-0.00003879,0.00219418,0.05569897,0.05983571,-0.00000295
 ,-0.00000654,0.00000520,-0.00000623,0.00000499,-0.00000449,0.00000890,
 -0.00000326,-0.00000680,-0.00000240,-0.00000352,-0.00000181,-0.0000227
 6,0.00000344,0.00003245,0.00000402,0.00000353,-0.00000426,0.00002386,0
 .00001107,0.00007481,-0.00005629,-0.00009674,-0.00019669,0.00021385,0.
 00006074,0.00003322,-0.00014184,0.00043625,-0.00070576,0.00005557,-0.0
 0027028,-0.00057208,0.00165127,-0.00436020,0.00449578,0.01215440,0.003
 23542,0.00317930,-0.00536361,-0.01117359,-0.03941888,-0.01309554,-0.00
 120651,0.00250011,-0.00020591,-0.00475241,0.00434563,0.00000038,0.0000
 0059,0.00000091,-0.00000043,0.00000021,-0.00000027,0.00000019,-0.00000
 028,-0.00000037,0.00000263,0.00000538,0.00000216,0.00000078,0.00000158
 ,0.00000088,0.00006363,0.00000587,0.00000512,0.00050541,0.00001623,0.0
 0033091,-0.00065741,0.00216843,-0.00307403,0.00546126,0.01395255,0.031
 63146,-0.00002396,0.00001288,-0.00000084,0.00000697,-0.00001635,0.0000
 0256,0.00001337,0.00000259,-0.00000078,-0.00004364,0.00004075,-0.00000
 837,0.00013985,-0.00011073,-0.00001795,-0.00006673,0.00001761,0.000001
 21,-0.00059430,0.00007058,0.00000962,0.00059046,-0.00086969,-0.0001152
 5,-0.00008651,0.00027323,0.00008152,-0.00152464,0.00162059,0.00062920,
 -0.00372195,-0.00257504,-0.00054036,-0.00064309,-0.00065762,-0.0003802
 3,0.00021107,-0.00260955,-0.00083429,0.01147885,-0.00859431,-0.0048533
 4,-0.17199395,0.12119879,0.07095047,-0.01449980,0.02182250,0.01253165,
 -0.00000226,0.00000110,0.00000014,-0.00000597,0.00000024,0.00000166,-0
 .00000386,0.00000427,-0.00000195,-0.00000091,-0.00000238,-0.00000135,0
 .00000207,-0.00000175,0.00000224,0.00006753,0.00008684,-0.00001562,0.0
 0010689,0.00016931,0.00000150,0.00043894,-0.00049595,-0.00029266,0.000
 62509,0.00079294,0.00006563,0.17813763,0.00000940,-0.00000418,0.000000
 18,-0.00000272,0.00000505,0.00000235,-0.00000613,0.00000066,-0.0000009
 7,0.00001391,-0.00001417,0.00000623,-0.00006714,0.00003362,-0.00000739
 ,0.00002165,-0.00000321,-0.00000054,0.00014446,0.00001959,-0.00000384,
 -0.00037357,0.00011080,0.00016962,0.00006413,-0.00006780,-0.00003835,0
 .00039593,0.00034236,0.00005140,-0.00251134,0.00221955,-0.00271681,-0.
 00055137,-0.00018900,0.00038336,-0.00350759,-0.00207315,-0.00443838,0.
 01820177,-0.01198810,-0.00949358,0.12174791,-0.18784209,-0.08399660,-0
 .00508341,0.00749281,0.00220074,0.00000077,-0.00000052,-0.00000029,0.0
 0000173,0.00000015,-0.00000063,0.00000103,-0.00000145,0.00000077,-0.00
 000007,0.00000023,-0.00000035,-0.00000103,-0.00000010,-0.00000117,0.00
 001946,-0.00003266,-0.00003655,0.00014192,-0.00016580,0.00043829,0.000
 97269,-0.00077999,-0.00049425,0.00002257,0.00027905,0.00221164,-0.1301
 7667,0.19305341,0.00000685,-0.00000368,-0.00000012,-0.00000230,0.00000
 272,0.00000053,-0.00000339,0.00000015,-0.00000018,0.00001262,-0.000012
 79,0.00000172,-0.00004919,0.00001880,0.00001877,0.00001426,-0.00000077
 ,-0.00000065,0.00012533,0.00001996,-0.00002859,-0.00023693,0.00009392,
 -0.00011681,0.00007143,-0.00005264,0.00002892,0.00029645,-0.00000669,0
 .00007929,-0.00055749,-0.00283111,0.00655619,-0.00021558,0.00051260,-0
 .00063861,-0.00123073,-0.00455920,0.00482124,0.00885094,-0.00745129,-0
 .00018017,0.07120026,-0.08404564,-0.08699768,-0.00150934,0.00030724,0.
 00424008,0.00000074,-0.00000019,0.00000010,0.00000131,0.00000015,-0.00
 000067,0.00000096,-0.00000113,0.00000048,0.00000075,0.00000152,0.00000
 034,-0.00000040,0.00000035,-0.00000073,0.00000692,-0.00002054,-0.00000
 128,0.00001549,0.00044847,-0.00084557,0.00045851,-0.00037455,-0.000181
 33,-0.00030703,0.00215279,-0.00294862,-0.07683853,0.09362555,0.0797106
 6,0.00000965,-0.00000607,0.00000322,-0.00000539,0.00000796,-0.00000286
 ,-0.00000407,-0.00000626,-0.00000453,0.00002042,-0.00001582,0.00000885
 ,-0.00007296,0.00005028,0.00000391,0.00003427,-0.00000307,-0.00000129,
 0.00025564,-0.00003617,0.00000627,-0.00025173,0.00033500,0.00001750,-0
 .00006371,-0.00018269,-0.00004704,0.00268820,0.00158761,0.00048443,0.0
 0821773,0.01682724,0.00840110,-0.00221248,0.00244148,0.00179714,-0.001
 09731,0.00035861,0.00019851,-0.00534068,-0.00003923,0.00081172,-0.0060
 6467,-0.02718349,-0.01328399,-0.09305276,-0.08383758,-0.03922233,0.000
 00100,-0.00000045,0.00000012,0.00000242,0.00000004,-0.00000096,0.00000
 151,-0.00000172,0.00000100,0.00000022,0.00000078,0.00000142,-0.0000009
 0,0.00000053,-0.00000112,-0.00082413,0.00002015,0.00011198,0.00045506,
 0.00085432,0.00040414,0.00016685,-0.00009741,-0.00011604,-0.00044163,-
 0.00138724,-0.00065641,0.00139287,0.00052171,-0.00011190,0.09618659,-0
 .00000014,0.00000423,-0.00000099,0.00000547,-0.00000069,0.00000062,-0.
 00000251,0.00000243,0.00000404,-0.00000638,0.00001190,0.00000603,0.000
 03545,0.00000628,-0.00007296,0.00000058,-0.00000587,0.00000723,-0.0000
 0144,-0.00004819,-0.00001555,0.00041060,-0.00009752,0.00049836,0.00003
 584,0.00031426,-0.00000165,-0.00180900,0.00081411,0.00192825,-0.009863
 90,-0.01310159,-0.00831701,0.00346153,-0.00043514,-0.00324826,0.000850
 56,0.00009838,0.00036041,-0.00089143,0.00318515,-0.00210718,-0.0000632
 6,-0.00022673,-0.00160008,-0.08212752,-0.25748108,-0.10870189,-0.00000
 028,-0.00000062,-0.00000083,0.00000057,-0.00000031,-0.00000006,-0.0000
 0059,0.00000008,-0.00000013,-0.00000216,-0.00000399,-0.00000262,-0.000
 00021,-0.00000017,-0.00000156,0.00086786,0.00010297,-0.00011112,-0.000
 66448,-0.00079018,-0.00025679,-0.00006862,-0.00024945,0.00032829,0.000
 04620,-0.00005946,-0.00024458,-0.00000420,-0.00039505,0.00217598,0.089
 79146,0.26835622,0.00000050,-0.00000476,-0.00000043,-0.00000361,0.0000
 0161,-0.00000076,0.00000105,-0.00000593,-0.00000318,0.00001734,-0.0000
 1479,-0.00000922,-0.00004950,-0.00001538,0.00011954,-0.00000255,0.0000
 0213,-0.00000554,0.00013965,0.00005376,0.00001171,-0.00011251,0.000362
 31,-0.00060488,-0.00001298,0.00007375,0.00014870,-0.00130811,0.0013879
 6,-0.00207123,-0.00460696,-0.00989620,-0.00032581,0.00219111,-0.003131
 25,0.00380206,0.00036639,0.00042422,-0.00057938,0.00039646,-0.00225648
 ,0.00625656,0.00066456,0.00010577,0.00305686,-0.03887940,-0.10846123,-
 0.08858122,0.00000079,0.00000069,0.00000097,0.00000024,0.00000043,-0.0
 0000036,0.00000163,-0.00000091,0.00000026,0.00000185,0.00000496,0.0000
 0375,0.00000031,0.00000241,0.00000102,0.00071609,-0.00003252,0.0002309
 0,-0.00032518,-0.00032786,-0.00034019,-0.00010030,0.00034587,-0.000720
 00,0.00008183,-0.00013211,0.00029611,-0.00037585,0.00213956,-0.0035173
 1,0.04119713,0.11937403,0.08283105\\0.00000502,-0.00000681,0.00000211,
 -0.00000553,0.00000472,-0.00000743,0.00000083,0.00000827,0.00000737,-0
 .00000208,0.00000905,0.00000432,-0.00001944,0.00000739,-0.00000678,0.0
 0001447,-0.00000768,-0.00001213,0.00001449,-0.00000850,-0.00000913,-0.
 00000429,-0.00001933,-0.00000098,0.00000082,0.00001083,0.00001160,0.00
 000235,0.00000661,-0.00000142,-0.00000559,-0.00000016,-0.00000230,-0.0
 0000230,-0.00000423,0.00000747,0.00000360,-0.00000662,0.00000982,-0.00
 000236,0.00000348,0.00000724,-0.00000407,0.00000310,-0.00000404,0.0000
 0895,0.00000358,-0.00000742,-0.00000291,-0.00000036,0.00000475,-0.0000
 0237,-0.00000900,-0.00001201,0.00000197,0.00000835,0.00001443,0.000002
 54,0.00000528,0.00001071,-0.00000244,-0.00000936,-0.00001594,-0.000001
 03,0.00000193,-0.00001345,-0.00000236,-0.00000626,0.00001129,-0.000001
 09,-0.00000586,0.00001878,0.00000176,-0.00000112,0.00000800,0.00000289
 ,0.00000655,-0.00000938,-0.00000183,0.00000614,-0.00001549\\\@


 NEVER LOSE YOUR IGNORANCE, IT CAN'T BE REPLACED.
   -- ANDY CAPP
 Job cpu time:       0 days  2 hours 13 minutes 56.6 seconds.
 File lengths (MBytes):  RWF=    389 Int=      0 D2E=      0 Chk=     16 Scr=      1
 Normal termination of Gaussian 09 at Tue Aug 21 18:50:39 2018.
WARNING: pbs_rusage is deprecated and values produced may not be accurate


=============================================================================
                                     Resource usage:
                                       CPU time:              12:39:59
   JobId:    9354123.r-man2            Elapsed time:          03:12:04
   Project:             q95            Requested time:        96:00:00
   Service Units:     12.80 
                                       Max physical memory:      577MB
                                       Max virtual memory:      1111MB
                                       Requested memory:           0MB

                                       Number of cpus:               4

                                       Max jobfs disk use:       0.4GB
                                       Requested jobfs:         16.0GB
=============================================================================

