 Entering Gaussian System, Link 0=/apps/gaussian/g09e01/g09/g09
 AtFile(1): /home/507/hio507/Basis/6-31pGd.gbs
 Initial command:
 /apps/gaussian/g09e01/g09/l1.exe "/jobfs/local/8296099.r-man2/Gau-15190.inp" -scrdir="/jobfs/local/8296099.r-man2/"
 Entering Link 1 = /apps/gaussian/g09e01/g09/l1.exe PID=     15191.
  
 Copyright (c) 1988,1990,1992,1993,1995,1998,2003,2009,2015,
            Gaussian, Inc.  All Rights Reserved.
  
 This is part of the Gaussian(R) 09 program.  It is based on
 the Gaussian(R) 03 system (copyright 2003, Gaussian, Inc.),
 the Gaussian(R) 98 system (copyright 1998, Gaussian, Inc.),
 the Gaussian(R) 94 system (copyright 1995, Gaussian, Inc.),
 the Gaussian 92(TM) system (copyright 1992, Gaussian, Inc.),
 the Gaussian 90(TM) system (copyright 1990, Gaussian, Inc.),
 the Gaussian 88(TM) system (copyright 1988, Gaussian, Inc.),
 the Gaussian 86(TM) system (copyright 1986, Carnegie Mellon
 University), and the Gaussian 82(TM) system (copyright 1983,
 Carnegie Mellon University). Gaussian is a federally registered
 trademark of Gaussian, Inc.
  
 This software contains proprietary and confidential information,
 including trade secrets, belonging to Gaussian, Inc.
  
 This software is provided under written license and may be
 used, copied, transmitted, or stored only in accord with that
 written license.
  
 The following legend is applicable only to US Government
 contracts under FAR:
  
                    RESTRICTED RIGHTS LEGEND
  
 Use, reproduction and disclosure by the US Government is
 subject to restrictions as set forth in subparagraphs (a)
 and (c) of the Commercial Computer Software - Restricted
 Rights clause in FAR 52.227-19.
  
 Gaussian, Inc.
 340 Quinnipiac St., Bldg. 40, Wallingford CT 06492
  
  
 ---------------------------------------------------------------
 Warning -- This program may not be used in any manner that
 competes with the business of Gaussian, Inc. or will provide
 assistance to any competitor of Gaussian, Inc.  The licensee
 of this program is prohibited from giving any competitor of
 Gaussian, Inc. access to this program.  By using this program,
 the user acknowledges that Gaussian, Inc. is engaged in the
 business of creating and licensing software in the field of
 computational chemistry and represents and warrants to the
 licensee that it is not a competitor of Gaussian, Inc. and that
 it will not use this program in any manner prohibited above.
 ---------------------------------------------------------------
  

 Cite this work as:
 Gaussian 09, Revision E.01,
 M. J. Frisch, G. W. Trucks, H. B. Schlegel, G. E. Scuseria, 
 M. A. Robb, J. R. Cheeseman, G. Scalmani, V. Barone, B. Mennucci, 
 G. A. Petersson, H. Nakatsuji, M. Caricato, X. Li, H. P. Hratchian, 
 A. F. Izmaylov, J. Bloino, G. Zheng, J. L. Sonnenberg, M. Hada, 
 M. Ehara, K. Toyota, R. Fukuda, J. Hasegawa, M. Ishida, T. Nakajima, 
 Y. Honda, O. Kitao, H. Nakai, T. Vreven, J. A. Montgomery, Jr., 
 J. E. Peralta, F. Ogliaro, M. Bearpark, J. J. Heyd, E. Brothers, 
 K. N. Kudin, V. N. Staroverov, T. Keith, R. Kobayashi, J. Normand, 
 K. Raghavachari, A. Rendell, J. C. Burant, S. S. Iyengar, J. Tomasi, 
 M. Cossi, N. Rega, J. M. Millam, M. Klene, J. E. Knox, J. B. Cross, 
 V. Bakken, C. Adamo, J. Jaramillo, R. Gomperts, R. E. Stratmann, 
 O. Yazyev, A. J. Austin, R. Cammi, C. Pomelli, J. W. Ochterski, 
 R. L. Martin, K. Morokuma, V. G. Zakrzewski, G. A. Voth, 
 P. Salvador, J. J. Dannenberg, S. Dapprich, A. D. Daniels, 
 O. Farkas, J. B. Foresman, J. V. Ortiz, J. Cioslowski, 
 and D. J. Fox, Gaussian, Inc., Wallingford CT, 2013.
 
 ******************************************
 Gaussian 09:  ES64L-G09RevE.01 30-Nov-2015
                10-Jul-2018 
 ******************************************
 %chk=aryl_urea_dichloro_CF3.M062X.SMD.h2o.opt.chk
 %mem=196608000
 %nproc=4
 Will use up to    4 processors via shared memory.
 ----------------------------------------------------------------------
 # M062X/Gen 6D SCF=Tight INT(grid=ultrafine) OPT IOP(2/17=4) Freq=Nora
 man SCRF=(SMD,Solvent=h2o) maxdisk=2147483648
 ----------------------------------------------------------------------
 1/14=-1,18=20,19=15,26=4,38=1/1,3;
 2/9=110,12=2,17=4,18=5,40=1/2;
 3/5=7,8=2,11=2,16=1,25=1,30=1,70=32201,71=1,72=1,74=-55,75=-5/1,2,3;
 4//1;
 5/5=2,32=2,38=5,53=1/2;
 6/7=2,8=2,9=2,10=2,28=1/1;
 7//1,2,3,16;
 1/14=-1,18=20,19=15,26=4/3(2);
 2/9=110,17=4/2;
 99//99;
 2/9=110,17=4/2;
 3/5=7,6=1,8=2,11=2,16=1,25=1,30=1,70=32205,71=1,72=1,74=-55,75=-5,82=7/1,2,3;
 4/5=5,16=3,69=1/1;
 5/5=2,32=2,38=5,53=1/2;
 7//1,2,3,16;
 1/14=-1,18=20,19=15,26=4/3(-5);
 2/9=110,17=4/2;
 6/7=2,8=2,9=2,10=2,19=2,28=1/1;
 99/9=1/99;
 ----------------------------------------
 aryl_urea_dichloro_CF3.M062X.SMD.h2o.opt
 ----------------------------------------
 Symbolic Z-matrix:
 Charge =  0 Multiplicity = 1
 C                    -4.19878   3.52106  -1.09495 
 C                    -4.2755    2.27429  -0.46896 
 C                    -3.11989   1.60208  -0.06392 
 C                    -1.83931   2.17399  -0.25973 
 C                    -1.76514   3.43673  -0.92071 
 C                    -2.93852   4.08859  -1.32282 
 N                    -0.69115   1.42839   0.18017 
 C                     0.45047   1.93866   0.73166 
 N                     1.45815   1.096     1.09449 
 O                     0.55923   3.13504   0.95315 
 C                     2.68023   1.58329   1.7101 
 C                     3.64265   0.4283    2.00985 
 C                     4.92961   0.93439   2.65476 
 H                    -0.76599   0.40065   0.15701 
 H                     1.35111   0.08357   0.92387 
 H                     2.42922   2.10626   2.65937 
 H                     3.17562   2.3022    1.02058 
 H                     3.89637  -0.09758   1.06365 
 H                     3.15272  -0.29294   2.69976 
 H                     5.44943   1.64276   1.97497 
 H                     5.60537   0.07738   2.8593 
 H                     4.70502   1.44728   3.61422 
 H                    -5.24364   1.81957  -0.29449 
 H                    -2.85764   5.04137  -1.83098 
 C                    -5.47029   4.21213  -1.52218 
 F                    -5.21619   5.42963  -2.13008 
 F                    -6.153     3.40831  -2.41709 
 F                    -6.26859   4.43259  -0.41448 
 Cl                   -0.2668    4.23843  -1.3923 
 Cl                   -3.32969   0.0412    0.72716 
 

 GradGradGradGradGradGradGradGradGradGradGradGradGradGradGradGradGradGrad
 Berny optimization.
 Initialization pass.
                           ----------------------------
                           !    Initial Parameters    !
                           ! (Angstroms and Degrees)  !
 --------------------------                            --------------------------
 ! Name  Definition              Value          Derivative Info.                !
 --------------------------------------------------------------------------------
 ! R1    R(1,2)                  1.3972         estimate D2E/DX2                !
 ! R2    R(1,6)                  1.4008         estimate D2E/DX2                !
 ! R3    R(1,25)                 1.5089         estimate D2E/DX2                !
 ! R4    R(2,3)                  1.3969         estimate D2E/DX2                !
 ! R5    R(2,23)                 1.0837         estimate D2E/DX2                !
 ! R6    R(3,4)                  1.4161         estimate D2E/DX2                !
 ! R7    R(3,30)                 1.7624         estimate D2E/DX2                !
 ! R8    R(4,5)                  1.4272         estimate D2E/DX2                !
 ! R9    R(4,7)                  1.438          estimate D2E/DX2                !
 ! R10   R(5,6)                  1.4012         estimate D2E/DX2                !
 ! R11   R(5,29)                 1.7636         estimate D2E/DX2                !
 ! R12   R(6,24)                 1.0828         estimate D2E/DX2                !
 ! R13   R(7,8)                  1.3667         estimate D2E/DX2                !
 ! R14   R(7,14)                 1.0307         estimate D2E/DX2                !
 ! R15   R(8,9)                  1.3628         estimate D2E/DX2                !
 ! R16   R(8,10)                 1.2216         estimate D2E/DX2                !
 ! R17   R(9,11)                 1.4526         estimate D2E/DX2                !
 ! R18   R(9,15)                 1.0323         estimate D2E/DX2                !
 ! R19   R(11,12)                1.533          estimate D2E/DX2                !
 ! R20   R(11,16)                1.1125         estimate D2E/DX2                !
 ! R21   R(11,17)                1.1125         estimate D2E/DX2                !
 ! R22   R(12,13)                1.5259         estimate D2E/DX2                !
 ! R23   R(12,18)                1.1119         estimate D2E/DX2                !
 ! R24   R(12,19)                1.1118         estimate D2E/DX2                !
 ! R25   R(13,20)                1.1109         estimate D2E/DX2                !
 ! R26   R(13,21)                1.1104         estimate D2E/DX2                !
 ! R27   R(13,22)                1.1109         estimate D2E/DX2                !
 ! R28   R(25,26)                1.3843         estimate D2E/DX2                !
 ! R29   R(25,27)                1.3831         estimate D2E/DX2                !
 ! R30   R(25,28)                1.3831         estimate D2E/DX2                !
 ! A1    A(2,1,6)              118.9341         estimate D2E/DX2                !
 ! A2    A(2,1,25)             119.2921         estimate D2E/DX2                !
 ! A3    A(6,1,25)             121.7695         estimate D2E/DX2                !
 ! A4    A(1,2,3)              120.9229         estimate D2E/DX2                !
 ! A5    A(1,2,23)             119.7084         estimate D2E/DX2                !
 ! A6    A(3,2,23)             119.3688         estimate D2E/DX2                !
 ! A7    A(2,3,4)              120.9079         estimate D2E/DX2                !
 ! A8    A(2,3,30)             117.2485         estimate D2E/DX2                !
 ! A9    A(4,3,30)             121.8296         estimate D2E/DX2                !
 ! A10   A(3,4,5)              117.928          estimate D2E/DX2                !
 ! A11   A(3,4,7)              118.057          estimate D2E/DX2                !
 ! A12   A(5,4,7)              123.9833         estimate D2E/DX2                !
 ! A13   A(4,5,6)              120.0652         estimate D2E/DX2                !
 ! A14   A(4,5,29)             124.7645         estimate D2E/DX2                !
 ! A15   A(6,5,29)             115.0395         estimate D2E/DX2                !
 ! A16   A(1,6,5)              121.2128         estimate D2E/DX2                !
 ! A17   A(1,6,24)             120.001          estimate D2E/DX2                !
 ! A18   A(5,6,24)             118.7802         estimate D2E/DX2                !
 ! A19   A(4,7,8)              126.6434         estimate D2E/DX2                !
 ! A20   A(4,7,14)             116.8827         estimate D2E/DX2                !
 ! A21   A(8,7,14)             116.2318         estimate D2E/DX2                !
 ! A22   A(7,8,9)              119.6194         estimate D2E/DX2                !
 ! A23   A(7,8,10)             120.8776         estimate D2E/DX2                !
 ! A24   A(9,8,10)             119.4384         estimate D2E/DX2                !
 ! A25   A(8,9,11)             121.8375         estimate D2E/DX2                !
 ! A26   A(8,9,15)             119.0634         estimate D2E/DX2                !
 ! A27   A(11,9,15)            119.0987         estimate D2E/DX2                !
 ! A28   A(9,11,12)            110.9963         estimate D2E/DX2                !
 ! A29   A(9,11,16)            109.2389         estimate D2E/DX2                !
 ! A30   A(9,11,17)            109.1927         estimate D2E/DX2                !
 ! A31   A(12,11,16)           109.207          estimate D2E/DX2                !
 ! A32   A(12,11,17)           109.1775         estimate D2E/DX2                !
 ! A33   A(16,11,17)           108.9991         estimate D2E/DX2                !
 ! A34   A(11,12,13)           111.2388         estimate D2E/DX2                !
 ! A35   A(11,12,18)           109.4637         estimate D2E/DX2                !
 ! A36   A(11,12,19)           109.4767         estimate D2E/DX2                !
 ! A37   A(13,12,18)           108.9102         estimate D2E/DX2                !
 ! A38   A(13,12,19)           108.938          estimate D2E/DX2                !
 ! A39   A(18,12,19)           108.7719         estimate D2E/DX2                !
 ! A40   A(12,13,20)           110.3357         estimate D2E/DX2                !
 ! A41   A(12,13,21)           109.5821         estimate D2E/DX2                !
 ! A42   A(12,13,22)           110.3438         estimate D2E/DX2                !
 ! A43   A(20,13,21)           108.6688         estimate D2E/DX2                !
 ! A44   A(20,13,22)           109.1907         estimate D2E/DX2                !
 ! A45   A(21,13,22)           108.6801         estimate D2E/DX2                !
 ! A46   A(1,25,26)            111.8668         estimate D2E/DX2                !
 ! A47   A(1,25,27)            109.4487         estimate D2E/DX2                !
 ! A48   A(1,25,28)            109.4278         estimate D2E/DX2                !
 ! A49   A(26,25,27)           108.5174         estimate D2E/DX2                !
 ! A50   A(26,25,28)           108.5089         estimate D2E/DX2                !
 ! A51   A(27,25,28)           109.0218         estimate D2E/DX2                !
 ! D1    D(6,1,2,3)              0.5019         estimate D2E/DX2                !
 ! D2    D(6,1,2,23)          -179.4547         estimate D2E/DX2                !
 ! D3    D(25,1,2,3)           179.7627         estimate D2E/DX2                !
 ! D4    D(25,1,2,23)           -0.194          estimate D2E/DX2                !
 ! D5    D(2,1,6,5)             -0.7799         estimate D2E/DX2                !
 ! D6    D(2,1,6,24)           178.3205         estimate D2E/DX2                !
 ! D7    D(25,1,6,5)           179.9785         estimate D2E/DX2                !
 ! D8    D(25,1,6,24)           -0.9211         estimate D2E/DX2                !
 ! D9    D(2,1,25,26)         -179.7            estimate D2E/DX2                !
 ! D10   D(2,1,25,27)          -59.3929         estimate D2E/DX2                !
 ! D11   D(2,1,25,28)           60.0175         estimate D2E/DX2                !
 ! D12   D(6,1,25,26)           -0.4611         estimate D2E/DX2                !
 ! D13   D(6,1,25,27)          119.8461         estimate D2E/DX2                !
 ! D14   D(6,1,25,28)         -120.7435         estimate D2E/DX2                !
 ! D15   D(1,2,3,4)              0.886          estimate D2E/DX2                !
 ! D16   D(1,2,3,30)           179.5503         estimate D2E/DX2                !
 ! D17   D(23,2,3,4)          -179.1572         estimate D2E/DX2                !
 ! D18   D(23,2,3,30)           -0.4928         estimate D2E/DX2                !
 ! D19   D(2,3,4,5)             -1.9426         estimate D2E/DX2                !
 ! D20   D(2,3,4,7)           -179.9766         estimate D2E/DX2                !
 ! D21   D(30,3,4,5)           179.455          estimate D2E/DX2                !
 ! D22   D(30,3,4,7)             1.421          estimate D2E/DX2                !
 ! D23   D(3,4,5,6)              1.6554         estimate D2E/DX2                !
 ! D24   D(3,4,5,29)          -173.9746         estimate D2E/DX2                !
 ! D25   D(7,4,5,6)            179.563          estimate D2E/DX2                !
 ! D26   D(7,4,5,29)             3.933          estimate D2E/DX2                !
 ! D27   D(3,4,7,8)           -143.5644         estimate D2E/DX2                !
 ! D28   D(3,4,7,14)            30.5391         estimate D2E/DX2                !
 ! D29   D(5,4,7,8)             38.5305         estimate D2E/DX2                !
 ! D30   D(5,4,7,14)          -147.366          estimate D2E/DX2                !
 ! D31   D(4,5,6,1)             -0.3188         estimate D2E/DX2                !
 ! D32   D(4,5,6,24)          -179.43           estimate D2E/DX2                !
 ! D33   D(29,5,6,1)           175.7195         estimate D2E/DX2                !
 ! D34   D(29,5,6,24)           -3.3917         estimate D2E/DX2                !
 ! D35   D(4,7,8,9)           -179.7319         estimate D2E/DX2                !
 ! D36   D(4,7,8,10)             3.2053         estimate D2E/DX2                !
 ! D37   D(14,7,8,9)             6.1312         estimate D2E/DX2                !
 ! D38   D(14,7,8,10)         -170.9317         estimate D2E/DX2                !
 ! D39   D(7,8,9,11)          -178.6917         estimate D2E/DX2                !
 ! D40   D(7,8,9,15)             1.5311         estimate D2E/DX2                !
 ! D41   D(10,8,9,11)           -1.5863         estimate D2E/DX2                !
 ! D42   D(10,8,9,15)          178.6366         estimate D2E/DX2                !
 ! D43   D(8,9,11,12)         -179.7812         estimate D2E/DX2                !
 ! D44   D(8,9,11,16)           59.7438         estimate D2E/DX2                !
 ! D45   D(8,9,11,17)          -59.3727         estimate D2E/DX2                !
 ! D46   D(15,9,11,12)          -0.0041         estimate D2E/DX2                !
 ! D47   D(15,9,11,16)        -120.4792         estimate D2E/DX2                !
 ! D48   D(15,9,11,17)         120.4043         estimate D2E/DX2                !
 ! D49   D(9,11,12,13)         179.9077         estimate D2E/DX2                !
 ! D50   D(9,11,12,18)          59.5014         estimate D2E/DX2                !
 ! D51   D(9,11,12,19)         -59.6427         estimate D2E/DX2                !
 ! D52   D(16,11,12,13)        -59.5983         estimate D2E/DX2                !
 ! D53   D(16,11,12,18)        179.9954         estimate D2E/DX2                !
 ! D54   D(16,11,12,19)         60.8513         estimate D2E/DX2                !
 ! D55   D(17,11,12,13)         59.4902         estimate D2E/DX2                !
 ! D56   D(17,11,12,18)        -60.9161         estimate D2E/DX2                !
 ! D57   D(17,11,12,19)        179.9399         estimate D2E/DX2                !
 ! D58   D(11,12,13,20)        -60.3626         estimate D2E/DX2                !
 ! D59   D(11,12,13,21)       -179.9778         estimate D2E/DX2                !
 ! D60   D(11,12,13,22)         60.3881         estimate D2E/DX2                !
 ! D61   D(18,12,13,20)         60.3698         estimate D2E/DX2                !
 ! D62   D(18,12,13,21)        -59.2454         estimate D2E/DX2                !
 ! D63   D(18,12,13,22)       -178.8795         estimate D2E/DX2                !
 ! D64   D(19,12,13,20)        178.8706         estimate D2E/DX2                !
 ! D65   D(19,12,13,21)         59.2554         estimate D2E/DX2                !
 ! D66   D(19,12,13,22)        -60.3787         estimate D2E/DX2                !
 --------------------------------------------------------------------------------
 Trust Radius=3.00D-01 FncErr=1.00D-07 GrdErr=1.00D-06
 Number of steps in this run=    157 maximum allowed number of steps=    180.
 GradGradGradGradGradGradGradGradGradGradGradGradGradGradGradGradGradGrad

                          Input orientation:                          
 ---------------------------------------------------------------------
 Center     Atomic      Atomic             Coordinates (Angstroms)
 Number     Number       Type             X           Y           Z
 ---------------------------------------------------------------------
      1          6           0       -4.198780    3.521060   -1.094950
      2          6           0       -4.275500    2.274290   -0.468960
      3          6           0       -3.119890    1.602080   -0.063920
      4          6           0       -1.839310    2.173990   -0.259730
      5          6           0       -1.765140    3.436730   -0.920710
      6          6           0       -2.938520    4.088590   -1.322820
      7          7           0       -0.691150    1.428390    0.180170
      8          6           0        0.450470    1.938660    0.731660
      9          7           0        1.458150    1.096000    1.094490
     10          8           0        0.559230    3.135040    0.953150
     11          6           0        2.680230    1.583290    1.710100
     12          6           0        3.642650    0.428300    2.009850
     13          6           0        4.929610    0.934390    2.654760
     14          1           0       -0.765990    0.400650    0.157010
     15          1           0        1.351110    0.083570    0.923870
     16          1           0        2.429220    2.106260    2.659370
     17          1           0        3.175620    2.302200    1.020580
     18          1           0        3.896370   -0.097580    1.063650
     19          1           0        3.152720   -0.292940    2.699760
     20          1           0        5.449430    1.642760    1.974970
     21          1           0        5.605370    0.077380    2.859300
     22          1           0        4.705020    1.447280    3.614220
     23          1           0       -5.243640    1.819570   -0.294490
     24          1           0       -2.857640    5.041370   -1.830980
     25          6           0       -5.470290    4.212130   -1.522180
     26          9           0       -5.216190    5.429630   -2.130080
     27          9           0       -6.153000    3.408310   -2.417090
     28          9           0       -6.268590    4.432590   -0.414480
     29         17           0       -0.266800    4.238430   -1.392300
     30         17           0       -3.329690    0.041200    0.727160
 ---------------------------------------------------------------------
                    Distance matrix (angstroms):
                    1          2          3          4          5
     1  C    0.000000
     2  C    1.397206   0.000000
     3  C    2.430949   1.396910   0.000000
     4  C    2.842409   2.447215   1.416089   0.000000
     5  C    2.441326   2.803079   2.436263   1.427203   0.000000
     6  C    1.400811   2.410037   2.792930   2.450330   1.401226
     7  N    4.278863   3.739583   2.447147   1.437951   2.529589
     8  C    5.239849   4.887630   3.673378   2.506258   3.143798
     9  N    6.532643   6.058670   4.749366   3.724140   4.464263
    10  O    5.194457   5.112524   4.113432   2.854416   3.000844
    11  C    7.677502   7.321746   6.065385   4.965420   5.487961
    12  C    8.982927   8.499958   7.170093   6.184684   6.847118
    13  C   10.201896   9.812594   8.522411   7.473228   7.991581
    14  H    4.805040   4.027285   2.651997   2.114337   3.373064
    15  H    6.833246   6.196610   4.824048   3.993688   4.935299
    16  H    7.747707   7.400537   6.201865   5.171661   5.672722
    17  H    7.768067   7.598598   6.426488   5.177369   5.428340
    18  H    9.126092   8.646046   7.306720   6.309468   6.962882
    19  H    9.109938   8.474073   7.111587   6.305925   7.155668
    20  H   10.297591  10.047183   8.808631   7.642108   7.978303
    21  H   11.118290  10.655295   9.327384   8.339507   8.938575
    22  H   10.283701   9.899800   8.647652   7.639624   8.147789
    23  H    2.151171   1.083746   2.147272   3.422906   3.886814
    24  H    2.156789   3.394430   3.875563   3.424572   2.144066
    25  C    1.508920   2.508390   3.803060   4.351070   3.832903
    26  F    2.397761   3.687870   4.828419   5.049824   4.164610
    27  F    2.362148   2.933636   4.242597   4.978521   4.636084
    28  F    2.361787   2.938305   4.248410   4.974308   4.639943
    29  Cl   4.007930   4.558517   4.105491   2.831504   1.763560
    30  Cl   4.023037   2.704062   1.762433   2.782800   4.085697
                    6          7          8          9         10
     6  C    0.000000
     7  N    3.792930   0.000000
     8  C    4.508696   1.366680   0.000000
     9  N    5.842062   2.359228   1.362769   0.000000
    10  O    4.280602   2.252466   1.221561   2.232872   0.000000
    11  C    6.858971   3.705521   2.460785   1.452552   2.734875
    12  C    8.235060   4.809338   3.755658   2.460843   4.236807
    13  C    9.363631   6.161215   4.976903   3.809409   5.180594
    14  H    4.528872   1.030722   2.043397   2.511808   3.141168
    15  H    6.284006   2.555867   2.071100   1.032271   3.152681
    16  H    6.971377   4.042604   2.767600   2.100584   2.732478
    17  H    6.787151   4.052375   2.764431   2.100020   2.746573
    18  H    8.362714   4.914719   4.016306   2.714867   4.647424
    19  H    8.513646   4.907815   4.019404   2.716176   4.639815
    20  H    9.338908   6.401092   5.159746   4.123652   5.213931
    21  H   10.323662   6.974893   5.879133   4.620776   6.200502
    22  H    9.474945   6.396226   5.162538   4.124876   5.207437
    23  H    3.394038   4.593853   5.787059   6.882355   6.079504
    24  H    1.082847   4.668193   5.209369   6.538376   4.802132
    25  C    2.542610   5.786828   6.730814   8.034955   6.606247
    26  F    2.763664   6.467083   7.244823   8.586327   6.937357
    27  F    3.463104   6.363776   7.461924   8.695262   7.515798
    28  F    3.468830   6.362913   7.258036   8.550575   7.083302
    29  Cl   2.676820   3.247932   3.211639   4.362848   2.720465
    30  Cl   4.553767   3.030740   4.229655   4.916396   4.974597
                   11         12         13         14         15
    11  C    0.000000
    12  C    1.533005   0.000000
    13  C    2.524513   1.525877   0.000000
    14  H    3.960702   4.782247   6.242074   0.000000
    15  H    2.152644   2.559169   4.065161   2.273923   0.000000
    16  H    1.112482   2.170216   2.761386   4.402304   2.874988
    17  H    1.112511   2.169856   2.760060   4.460710   2.874110
    18  H    2.173067   1.111853   2.159671   4.775754   2.555524
    19  H    2.173226   1.111843   2.160024   4.722598   2.557605
    20  H    2.782474   2.177288   1.110907   6.593881   4.509114
    21  H    3.484949   2.167252   1.110385   6.928283   4.673827
    22  H    2.782795   2.177373   1.110883   6.555889   4.510698
    23  H    8.176914   9.285029  10.629047   4.718743   6.927397
    24  H    7.427353   8.847947   9.880810   5.464740   7.062758
    25  C    9.153656  10.480376  11.676829   6.283112   8.340244
    26  F    9.586176  10.983231  12.084665   7.094061   9.002022
    27  F    9.919191  11.154955  12.436567   6.685199   8.861579
    28  F    9.628797  10.961040  12.126719   6.845564   8.874964
    29  Cl   5.035836   6.432380   7.368721   4.168706   5.024454
    30  Cl   6.281986   7.099906   8.528157   2.650817   4.685123
                   16         17         18         19         20
    16  H    0.000000
    17  H    1.811391   0.000000
    18  H    3.091240   2.506049   0.000000
    19  H    2.506241   3.091104   1.807771   0.000000
    20  H    3.131278   2.552633   2.504253   3.089843   0.000000
    21  H    3.774156   3.772850   2.485086   2.485575   1.804653
    22  H    2.554459   3.130003   3.089646   2.504843   1.810939
    23  H    8.226801   8.535003   9.437150   9.161173  10.932678
    24  H    7.531866   7.213506   8.966847   9.225340   9.749011
    25  C    9.182718   9.212232  10.629884  10.605505  11.750404
    26  F    9.614360   9.493680  11.126038  11.230041  12.039405
    27  F   10.055858  10.003210  11.198065  11.246236  12.530911
    28  F    9.513793   9.787291  11.226474  10.990460  12.280253
    29  Cl   5.313257   4.628308   6.493432   6.997956   7.123994
    30  Cl   6.415836   6.893277   7.235221   6.784131   9.010825
                   21         22         23         24         25
    21  H    0.000000
    22  H    1.804760   0.000000
    23  H   11.431651  10.695441   0.000000
    24  H   10.874855   9.988068   4.293459   0.000000
    25  C   12.608083  11.728765   2.698692   2.758430   0.000000
    26  F   13.063179  12.136165   4.050022   2.408934   1.384347
    27  F   13.311448  12.574535   2.802938   3.724219   1.383143
    28  F   13.064318  12.064933   2.809412   3.743216   1.383071
    29  Cl   8.358996   7.587803   5.641366   2.747654   5.205177
    30  Cl   9.186002   8.652672   2.805276   5.636365   5.199842
                   26         27         28         29         30
    26  F    0.000000
    27  F    2.246269   0.000000
    28  F    2.246089   2.252323   0.000000
    29  Cl   5.143903   6.032134   6.084021   0.000000
    30  Cl   6.384190   5.403223   5.405995   5.611608   0.000000
 Stoichiometry    C11H11Cl2F3N2O
 Framework group  C1[X(C11H11Cl2F3N2O)]
 Deg. of freedom    84
 Full point group                 C1      NOp   1
 Largest Abelian subgroup         C1      NOp   1
 Largest concise Abelian subgroup C1      NOp   1
                         Standard orientation:                         
 ---------------------------------------------------------------------
 Center     Atomic      Atomic             Coordinates (Angstroms)
 Number     Number       Type             X           Y           Z
 ---------------------------------------------------------------------
      1          6           0        2.921978   -0.128854    0.054986
      2          6           0        2.416009    1.173281    0.029988
      3          6           0        1.049701    1.409379   -0.139771
      4          6           0        0.136869    0.334954   -0.272645
      5          6           0        0.661676   -0.992253   -0.270060
      6          6           0        2.036984   -1.202986   -0.104059
      7          7           0       -1.255920    0.648178   -0.445072
      8          6           0       -2.317191   -0.045106    0.065686
      9          7           0       -3.586173    0.378719   -0.193541
     10          8           0       -2.143498   -1.009040    0.795667
     11          6           0       -4.747924   -0.304937    0.347620
     12          6           0       -6.045374    0.375530   -0.103705
     13          6           0       -7.269696   -0.339745    0.459960
     14          1           0       -1.478746    1.529589   -0.930717
     15          1           0       -3.725477    1.206727   -0.794024
     16          1           0       -4.695720   -0.292911    1.458812
     17          1           0       -4.747594   -1.360562   -0.003573
     18          1           0       -6.101891    0.365946   -1.214080
     19          1           0       -6.051395    1.431007    0.245760
     20          1           0       -7.297585   -1.393021    0.107901
     21          1           0       -8.192007    0.174367    0.116470
     22          1           0       -7.247514   -0.326403    1.570541
     23          1           0        3.090638    2.013891    0.142930
     24          1           0        2.413901   -2.218061   -0.114747
     25          6           0        4.404967   -0.341311    0.235109
     26          9           0        4.737655   -1.685079    0.230308
     27          9           0        5.087929    0.283988   -0.792339
     28          9           0        4.804979    0.205733    1.440770
     29         17           0       -0.285298   -2.448655   -0.573833
     30         17           0        0.515473    3.088888   -0.144263
 ---------------------------------------------------------------------
 Rotational constants (GHZ):      0.6221456      0.1284847      0.1108227
 General basis read from cards:  (6D, 7F)
 There are   391 symmetry adapted cartesian basis functions of A   symmetry.
 There are   391 symmetry adapted basis functions of A   symmetry.
   391 basis functions,   700 primitive gaussians,   391 cartesian basis functions
    80 alpha electrons       80 beta electrons
       nuclear repulsion energy      1697.2666723101 Hartrees.
 NAtoms=   30 NActive=   30 NUniq=   30 SFac= 1.00D+00 NAtFMM=   60 NAOKFM=F Big=F
 Integral buffers will be    131072 words long.
 Raffenetti 2 integral format.
 Two-electron integral symmetry is turned on.
 ------------------------------------------------------------------------------
 Polarizable Continuum Model (PCM)
 =================================
 Model                : PCM (using non-symmetric T matrix).
 Atomic radii         : SMD-Coulomb.
 Polarization charges : Total charges.
 Charge compensation  : None.
 Solution method      : On-the-fly selection.
 Cavity type          : VdW (van der Waals Surface) (Alpha=1.000).
 Cavity algorithm     : GePol (No added spheres)
                        Default sphere list used, NSphG=   30.
                        Lebedev-Laikov grids with approx.  5.0 points / Ang**2.
                        Smoothing algorithm: York/Karplus (Gamma=1.0000).
                        Polarization charges: spherical gaussians, with
                                              point-specific exponents (IZeta= 3).
                        Self-potential: point-specific (ISelfS= 7).
                        Self-field    : sphere-specific E.n sum rule (ISelfD= 2).
 1st derivatives      : Analytical E(r).r(x)/FMM algorithm (CHGder, D1EAlg=3).
                        Cavity 1st derivative terms included.
 Solvent              : Water, Eps=  78.355300 Eps(inf)=   1.777849
 ------------------------------------------------------------------------------
 ------------------------------------------------------------------------------
 Atomic radii for non-electrostatic terms: SMD-CDS.
 ------------------------------------------------------------------------------
 Nuclear repulsion after PCM non-electrostatic terms =     1697.2778706037 Hartrees.
 One-electron integrals computed using PRISM.
 NBasis=   391 RedAO= T EigKep=  1.13D-06  NBF=   391
 NBsUse=   390 1.00D-06 EigRej=  7.74D-07 NBFU=   390
 ExpMin= 4.38D-02 ExpMax= 2.52D+04 ExpMxC= 3.78D+03 IAcc=3 IRadAn=         5 AccDes= 0.00D+00
 Harris functional with IExCor= 1009 and IRadAn=       5 diagonalized for initial guess.
 HarFok:  IExCor= 1009 AccDes= 0.00D+00 IRadAn=         5 IDoV= 1 UseB2=F ITyADJ=14
 ICtDFT=  3500011 ScaDFX=  1.000000  1.000000  1.000000  1.000000
 FoFCou: FMM=F IPFlag=           0 FMFlag=      100000 FMFlg1=           0
         NFxFlg=           0 DoJE=T BraDBF=F KetDBF=T FulRan=T
         wScrn=  0.000000 ICntrl=     500 IOpCl=  0 I1Cent=   200000004 NGrid=           0
         NMat0=    1 NMatS0=      1 NMatT0=    0 NMatD0=    1 NMtDS0=    0 NMtDT0=    0
 Petite list used in FoFCou.
 Requested convergence on RMS density matrix=1.00D-08 within 128 cycles.
 Requested convergence on MAX density matrix=1.00D-06.
 Requested convergence on             energy=1.00D-06.
 No special actions if energy rises.
 Inv3:  Mode=1 IEnd=    20108763.
 Iteration    1 A*A^-1 deviation from unit magnitude is 5.55D-15 for   2545.
 Iteration    1 A*A^-1 deviation from orthogonality  is 2.74D-15 for   2415   1521.
 Iteration    1 A^-1*A deviation from unit magnitude is 5.22D-15 for   2578.
 Iteration    1 A^-1*A deviation from orthogonality  is 2.01D-11 for   1357   1332.
 Error on total polarization charges =  0.03906
 SCF Done:  E(RM062X) =  -1830.09462718     A.U. after   15 cycles
            NFock= 15  Conv=0.59D-08     -V/T= 2.0058
 SMD-CDS (non-electrostatic) energy       (kcal/mol) =       7.03
 (included in total energy above)

 **********************************************************************

            Population analysis using the SCF density.

 **********************************************************************

 Orbital symmetries:
       Occupied  (A) (A) (A) (A) (A) (A) (A) (A) (A) (A) (A) (A)
                 (A) (A) (A) (A) (A) (A) (A) (A) (A) (A) (A) (A)
                 (A) (A) (A) (A) (A) (A) (A) (A) (A) (A) (A) (A)
                 (A) (A) (A) (A) (A) (A) (A) (A) (A) (A) (A) (A)
                 (A) (A) (A) (A) (A) (A) (A) (A) (A) (A) (A) (A)
                 (A) (A) (A) (A) (A) (A) (A) (A) (A) (A) (A) (A)
                 (A) (A) (A) (A) (A) (A) (A) (A)
       Virtual   (A) (A) (A) (A) (A) (A) (A) (A) (A) (A) (A) (A)
                 (A) (A) (A) (A) (A) (A) (A) (A) (A) (A) (A) (A)
                 (A) (A) (A) (A) (A) (A) (A) (A) (A) (A) (A) (A)
                 (A) (A) (A) (A) (A) (A) (A) (A) (A) (A) (A) (A)
                 (A) (A) (A) (A) (A) (A) (A) (A) (A) (A) (A) (A)
                 (A) (A) (A) (A) (A) (A) (A) (A) (A) (A) (A) (A)
                 (A) (A) (A) (A) (A) (A) (A) (A) (A) (A) (A) (A)
                 (A) (A) (A) (A) (A) (A) (A) (A) (A) (A) (A) (A)
                 (A) (A) (A) (A) (A) (A) (A) (A) (A) (A) (A) (A)
                 (A) (A) (A) (A) (A) (A) (A) (A) (A) (A) (A) (A)
                 (A) (A) (A) (A) (A) (A) (A) (A) (A) (A) (A) (A)
                 (A) (A) (A) (A) (A) (A) (A) (A) (A) (A) (A) (A)
                 (A) (A) (A) (A) (A) (A) (A) (A) (A) (A) (A) (A)
                 (A) (A) (A) (A) (A) (A) (A) (A) (A) (A) (A) (A)
                 (A) (A) (A) (A) (A) (A) (A) (A) (A) (A) (A) (A)
                 (A) (A) (A) (A) (A) (A) (A) (A) (A) (A) (A) (A)
                 (A) (A) (A) (A) (A) (A) (A) (A) (A) (A) (A) (A)
                 (A) (A) (A) (A) (A) (A) (A) (A) (A) (A) (A) (A)
                 (A) (A) (A) (A) (A) (A) (A) (A) (A) (A) (A) (A)
                 (A) (A) (A) (A) (A) (A) (A) (A) (A) (A) (A) (A)
                 (A) (A) (A) (A) (A) (A) (A) (A) (A) (A) (A) (A)
                 (A) (A) (A) (A) (A) (A) (A) (A) (A) (A) (A) (A)
                 (A) (A) (A) (A) (A) (A) (A) (A) (A) (A) (A) (A)
                 (A) (A) (A) (A) (A) (A) (A) (A) (A) (A) (A) (A)
                 (A) (A) (A) (A) (A) (A) (A) (A) (A) (A) (A) (A)
                 (A) (A) (A) (A) (A) (A) (A) (A) (A) (A)
 The electronic state is 1-A.
 Alpha  occ. eigenvalues -- -102.69571-102.68358 -25.31712 -25.31462 -25.31460
 Alpha  occ. eigenvalues --  -19.61646 -14.81651 -14.78708 -10.83548 -10.69225
 Alpha  occ. eigenvalues --  -10.65448 -10.64809 -10.64771 -10.60395 -10.59410
 Alpha  occ. eigenvalues --  -10.59354 -10.58114 -10.54577 -10.53460  -9.84144
 Alpha  occ. eigenvalues --   -9.82912  -7.56559  -7.55877  -7.55864  -7.55340
 Alpha  occ. eigenvalues --   -7.54652  -7.54602  -1.45485  -1.37757  -1.37679
 Alpha  occ. eigenvalues --   -1.19196  -1.06870  -1.03318  -1.00614  -0.98666
 Alpha  occ. eigenvalues --   -0.95137  -0.89075  -0.87250  -0.84645  -0.82392
 Alpha  occ. eigenvalues --   -0.77518  -0.73553  -0.72186  -0.69133  -0.69118
 Alpha  occ. eigenvalues --   -0.67650  -0.67369  -0.65273  -0.64083  -0.62081
 Alpha  occ. eigenvalues --   -0.58438  -0.57820  -0.57062  -0.55517  -0.54812
 Alpha  occ. eigenvalues --   -0.54432  -0.54258  -0.53833  -0.52555  -0.52397
 Alpha  occ. eigenvalues --   -0.51774  -0.51283  -0.51164  -0.49387  -0.46880
 Alpha  occ. eigenvalues --   -0.46182  -0.45779  -0.45008  -0.44372  -0.41763
 Alpha  occ. eigenvalues --   -0.40444  -0.40182  -0.39487  -0.39405  -0.39303
 Alpha  occ. eigenvalues --   -0.37764  -0.35207  -0.32396  -0.31549  -0.29726
 Alpha virt. eigenvalues --   -0.02058  -0.01267   0.00506   0.01912   0.02395
 Alpha virt. eigenvalues --    0.03093   0.03771   0.04025   0.04280   0.04669
 Alpha virt. eigenvalues --    0.05198   0.05622   0.05943   0.06564   0.07190
 Alpha virt. eigenvalues --    0.07354   0.07433   0.08447   0.08606   0.08901
 Alpha virt. eigenvalues --    0.09150   0.09591   0.09752   0.10157   0.10637
 Alpha virt. eigenvalues --    0.10905   0.11509   0.11911   0.12292   0.12677
 Alpha virt. eigenvalues --    0.13317   0.13516   0.14500   0.14581   0.15524
 Alpha virt. eigenvalues --    0.15847   0.16098   0.16465   0.16979   0.17341
 Alpha virt. eigenvalues --    0.18061   0.18412   0.18683   0.18990   0.19289
 Alpha virt. eigenvalues --    0.20052   0.20397   0.20974   0.21139   0.21682
 Alpha virt. eigenvalues --    0.22503   0.22616   0.22901   0.23287   0.23560
 Alpha virt. eigenvalues --    0.23964   0.24239   0.24862   0.25218   0.25533
 Alpha virt. eigenvalues --    0.25895   0.26217   0.26629   0.26785   0.27280
 Alpha virt. eigenvalues --    0.27841   0.28705   0.28814   0.29424   0.29615
 Alpha virt. eigenvalues --    0.30377   0.30670   0.31001   0.31382   0.31581
 Alpha virt. eigenvalues --    0.31745   0.32190   0.32284   0.33247   0.33549
 Alpha virt. eigenvalues --    0.34116   0.34570   0.35192   0.35607   0.36222
 Alpha virt. eigenvalues --    0.37027   0.37243   0.37659   0.38029   0.39019
 Alpha virt. eigenvalues --    0.39439   0.39951   0.40546   0.41004   0.41437
 Alpha virt. eigenvalues --    0.42083   0.42143   0.44699   0.45471   0.45867
 Alpha virt. eigenvalues --    0.46813   0.47370   0.48708   0.49598   0.52560
 Alpha virt. eigenvalues --    0.53813   0.56185   0.56959   0.58068   0.61825
 Alpha virt. eigenvalues --    0.65799   0.66554   0.66797   0.67277   0.69638
 Alpha virt. eigenvalues --    0.69789   0.70659   0.72035   0.72446   0.72735
 Alpha virt. eigenvalues --    0.73826   0.74253   0.74309   0.75709   0.76244
 Alpha virt. eigenvalues --    0.77027   0.77329   0.79124   0.79923   0.80715
 Alpha virt. eigenvalues --    0.81230   0.82002   0.82926   0.84352   0.84767
 Alpha virt. eigenvalues --    0.85540   0.86307   0.87015   0.88873   0.89426
 Alpha virt. eigenvalues --    0.91033   0.92154   0.93631   0.94465   0.95604
 Alpha virt. eigenvalues --    0.96376   0.96785   0.97606   0.97800   0.99329
 Alpha virt. eigenvalues --    1.00142   1.01548   1.02276   1.03083   1.04233
 Alpha virt. eigenvalues --    1.05091   1.05933   1.07320   1.07870   1.08869
 Alpha virt. eigenvalues --    1.10128   1.11735   1.12978   1.13706   1.14896
 Alpha virt. eigenvalues --    1.15584   1.16429   1.18526   1.18544   1.19547
 Alpha virt. eigenvalues --    1.20231   1.21077   1.21641   1.22646   1.24182
 Alpha virt. eigenvalues --    1.24846   1.26934   1.28171   1.31372   1.32827
 Alpha virt. eigenvalues --    1.35590   1.38117   1.39358   1.40799   1.40957
 Alpha virt. eigenvalues --    1.43012   1.44858   1.46007   1.46902   1.48464
 Alpha virt. eigenvalues --    1.49093   1.50353   1.50906   1.52281   1.54386
 Alpha virt. eigenvalues --    1.57352   1.58250   1.58910   1.60212   1.61828
 Alpha virt. eigenvalues --    1.65208   1.65656   1.67330   1.68249   1.70688
 Alpha virt. eigenvalues --    1.72040   1.73332   1.73580   1.74354   1.74748
 Alpha virt. eigenvalues --    1.76072   1.77990   1.79234   1.82598   1.83138
 Alpha virt. eigenvalues --    1.84607   1.85020   1.87018   1.87519   1.88042
 Alpha virt. eigenvalues --    1.88749   1.89524   1.89584   1.90415   1.91209
 Alpha virt. eigenvalues --    1.91682   1.92922   1.95246   1.96904   1.98229
 Alpha virt. eigenvalues --    2.00960   2.01816   2.02030   2.03089   2.04049
 Alpha virt. eigenvalues --    2.04543   2.04872   2.05900   2.07009   2.07659
 Alpha virt. eigenvalues --    2.08188   2.10421   2.12027   2.13899   2.15479
 Alpha virt. eigenvalues --    2.16475   2.19270   2.20225   2.20656   2.21605
 Alpha virt. eigenvalues --    2.23559   2.26804   2.27468   2.28971   2.29154
 Alpha virt. eigenvalues --    2.34865   2.36310   2.36625   2.37665   2.40269
 Alpha virt. eigenvalues --    2.41114   2.43249   2.46330   2.48259   2.50154
 Alpha virt. eigenvalues --    2.56349   2.58104   2.61435   2.64624   2.65005
 Alpha virt. eigenvalues --    2.65919   2.68241   2.72267   2.73244   2.76388
 Alpha virt. eigenvalues --    2.76912   2.77688   2.78914   2.81149   2.84542
 Alpha virt. eigenvalues --    2.92327   2.93495   2.96837   3.09457   3.11142
 Alpha virt. eigenvalues --    3.13222   3.24678   3.25207   3.26351   3.30144
 Alpha virt. eigenvalues --    3.34930   4.16057   4.23618   4.26865   4.28161
 Alpha virt. eigenvalues --    4.31864   4.33943   4.37230   4.41784   4.44251
 Alpha virt. eigenvalues --    4.45891   4.46452   4.48089   4.57805   4.59507
 Alpha virt. eigenvalues --    4.67677   4.75761   5.46904   5.96519   6.82242
          Condensed to atoms (all electrons):
               1          2          3          4          5          6
     1  C   12.460637  -0.836506  -0.358955   0.569768  -0.917572  -2.034932
     2  C   -0.836506  24.088338  -0.814196  -4.696874  -1.905242  -9.983970
     3  C   -0.358955  -0.814196  15.512892  -2.729723  -6.641420   2.257476
     4  C    0.569768  -4.696874  -2.729723  21.203513   0.253147  -6.525161
     5  C   -0.917572  -1.905242  -6.641420   0.253147  16.577470  -1.405535
     6  C   -2.034932  -9.983970   2.257476  -6.525161  -1.405535  23.279395
     7  N   -0.044736   0.156997   0.257159  -0.293764  -0.029139   0.043013
     8  C   -0.267207   0.087642  -0.640289  -0.456980   0.248994  -0.303914
     9  N   -0.003496   0.019239   0.075404  -0.177672  -0.048403   0.002738
    10  O   -0.015214  -0.018982  -0.243744  -0.096392   0.340004  -0.011374
    11  C   -0.020863   0.009178  -0.072048  -0.366742  -0.004723  -0.020535
    12  C    0.000229  -0.001133  -0.007690   0.008876  -0.002995  -0.000731
    13  C   -0.000126   0.000152  -0.000433  -0.006646  -0.002296  -0.000504
    14  H   -0.002238  -0.028462  -0.123634  -0.012191   0.116065   0.018274
    15  H    0.000114  -0.002060  -0.016643   0.008323   0.018829   0.001378
    16  H   -0.000010  -0.000318  -0.005299  -0.008000   0.008981   0.000642
    17  H   -0.000038   0.000116   0.002478   0.005769  -0.007604  -0.000577
    18  H   -0.000000   0.000002   0.000145  -0.000359   0.000154   0.000042
    19  H   -0.000004   0.000029   0.000415  -0.000430  -0.000805  -0.000050
    20  H   -0.000000   0.000001   0.000022   0.000089  -0.000112  -0.000005
    21  H   -0.000000   0.000000   0.000001  -0.000021  -0.000001   0.000000
    22  H    0.000000  -0.000000  -0.000007   0.000020   0.000022   0.000002
    23  H    0.155538   0.058062  -0.008501  -0.003156  -0.011798   0.107097
    24  H    0.038672   0.024345  -0.015388   0.045765  -0.016190   0.221554
    25  C   -1.369635   0.152633   0.024987  -0.868951  -0.518343   0.184453
    26  F   -0.028772   0.009151  -0.002250   0.033939   0.088423  -0.055871
    27  F    0.155879  -0.214393   0.033521   0.027760  -0.009156  -0.000110
    28  F    0.170049  -0.231146   0.050242   0.045915   0.009489  -0.004266
    29  Cl  -0.102579   0.051321   0.120864  -0.364115  -0.042545   0.096912
    30  Cl  -0.014375  -0.403055  -0.389361   0.218720   0.225810   0.113072
               7          8          9         10         11         12
     1  C   -0.044736  -0.267207  -0.003496  -0.015214  -0.020863   0.000229
     2  C    0.156997   0.087642   0.019239  -0.018982   0.009178  -0.001133
     3  C    0.257159  -0.640289   0.075404  -0.243744  -0.072048  -0.007690
     4  C   -0.293764  -0.456980  -0.177672  -0.096392  -0.366742   0.008876
     5  C   -0.029139   0.248994  -0.048403   0.340004  -0.004723  -0.002995
     6  C    0.043013  -0.303914   0.002738  -0.011374  -0.020535  -0.000731
     7  N    7.717919   0.174040  -0.321410  -0.219162  -0.048180  -0.016777
     8  C    0.174040   6.189887   0.349914   0.695490  -0.518554   0.056580
     9  N   -0.321410   0.349914   7.548208  -0.181758   0.268405  -0.047681
    10  O   -0.219162   0.695490  -0.181758   8.629546  -0.064899   0.004019
    11  C   -0.048180  -0.518554   0.268405  -0.064899   6.586313  -0.224943
    12  C   -0.016777   0.056580  -0.047681   0.004019  -0.224943   6.048869
    13  C   -0.000271  -0.054832   0.000028  -0.003522  -0.001433  -0.026305
    14  H    0.230791   0.002195   0.021870   0.008199   0.005349   0.000692
    15  H    0.016296   0.009675   0.253944   0.008486  -0.039721  -0.008064
    16  H    0.002496  -0.024572  -0.052459   0.005235   0.416388  -0.037459
    17  H   -0.004110  -0.027527  -0.056056   0.003734   0.436823  -0.045615
    18  H    0.000469   0.001271   0.006967  -0.000144  -0.088981   0.433990
    19  H   -0.000309  -0.007927   0.006350  -0.000213  -0.072732   0.427096
    20  H    0.000031   0.000704   0.000670  -0.000048  -0.012469  -0.058480
    21  H    0.000008  -0.001404   0.000503   0.000007   0.027252  -0.086130
    22  H    0.000026   0.002114   0.000610  -0.000049  -0.008259  -0.062327
    23  H   -0.000219   0.000780   0.000001  -0.000006   0.000006   0.000000
    24  H   -0.000481   0.000237  -0.000012  -0.000015   0.000010   0.000000
    25  C    0.005425  -0.089145   0.000660  -0.003747  -0.002706   0.000000
    26  F   -0.000056   0.000107  -0.000001  -0.000006  -0.000002   0.000000
    27  F    0.000005  -0.000580  -0.000000   0.000000  -0.000004   0.000000
    28  F   -0.000071   0.000675  -0.000001  -0.000002   0.000005  -0.000000
    29  Cl   0.062761   0.021484  -0.001987  -0.128956   0.010587  -0.000839
    30  Cl  -0.001781   0.058403  -0.004892   0.004723   0.004466   0.000987
              13         14         15         16         17         18
     1  C   -0.000126  -0.002238   0.000114  -0.000010  -0.000038  -0.000000
     2  C    0.000152  -0.028462  -0.002060  -0.000318   0.000116   0.000002
     3  C   -0.000433  -0.123634  -0.016643  -0.005299   0.002478   0.000145
     4  C   -0.006646  -0.012191   0.008323  -0.008000   0.005769  -0.000359
     5  C   -0.002296   0.116065   0.018829   0.008981  -0.007604   0.000154
     6  C   -0.000504   0.018274   0.001378   0.000642  -0.000577   0.000042
     7  N   -0.000271   0.230791   0.016296   0.002496  -0.004110   0.000469
     8  C   -0.054832   0.002195   0.009675  -0.024572  -0.027527   0.001271
     9  N    0.000028   0.021870   0.253944  -0.052459  -0.056056   0.006967
    10  O   -0.003522   0.008199   0.008486   0.005235   0.003734  -0.000144
    11  C   -0.001433   0.005349  -0.039721   0.416388   0.436823  -0.088981
    12  C   -0.026305   0.000692  -0.008064  -0.037459  -0.045615   0.433990
    13  C    5.658362  -0.000037  -0.002889   0.004404   0.002730  -0.038342
    14  H   -0.000037   0.257105   0.002002   0.000009   0.000000   0.000000
    15  H   -0.002889   0.002002   0.263352   0.002140   0.001968   0.000668
    16  H    0.004404   0.000009   0.002140   0.492247  -0.038167   0.003608
    17  H    0.002730   0.000000   0.001968  -0.038167   0.493944  -0.005272
    18  H   -0.038342   0.000000   0.000668   0.003608  -0.005272   0.488622
    19  H   -0.036402   0.000001   0.000595  -0.005275   0.003659  -0.030521
    20  H    0.413556   0.000000   0.000001  -0.000325   0.002603  -0.004576
    21  H    0.410864  -0.000000  -0.000003  -0.000057  -0.000052  -0.003013
    22  H    0.411842  -0.000000   0.000001   0.002602  -0.000332   0.003768
    23  H    0.000000  -0.000002   0.000000  -0.000000   0.000000  -0.000000
    24  H   -0.000000   0.000001  -0.000000   0.000000  -0.000000  -0.000000
    25  C   -0.000007   0.000028  -0.000000  -0.000003   0.000001  -0.000000
    26  F   -0.000000   0.000000   0.000000  -0.000000  -0.000000   0.000000
    27  F   -0.000000  -0.000000  -0.000000  -0.000000  -0.000000   0.000000
    28  F    0.000000   0.000000   0.000000  -0.000000   0.000000  -0.000000
    29  Cl   0.000373  -0.002658  -0.000658   0.000364  -0.000766   0.000077
    30  Cl   0.000024   0.016107   0.000653   0.000126  -0.000045  -0.000006
              19         20         21         22         23         24
     1  C   -0.000004  -0.000000  -0.000000   0.000000   0.155538   0.038672
     2  C    0.000029   0.000001   0.000000  -0.000000   0.058062   0.024345
     3  C    0.000415   0.000022   0.000001  -0.000007  -0.008501  -0.015388
     4  C   -0.000430   0.000089  -0.000021   0.000020  -0.003156   0.045765
     5  C   -0.000805  -0.000112  -0.000001   0.000022  -0.011798  -0.016190
     6  C   -0.000050  -0.000005   0.000000   0.000002   0.107097   0.221554
     7  N   -0.000309   0.000031   0.000008   0.000026  -0.000219  -0.000481
     8  C   -0.007927   0.000704  -0.001404   0.002114   0.000780   0.000237
     9  N    0.006350   0.000670   0.000503   0.000610   0.000001  -0.000012
    10  O   -0.000213  -0.000048   0.000007  -0.000049  -0.000006  -0.000015
    11  C   -0.072732  -0.012469   0.027252  -0.008259   0.000006   0.000010
    12  C    0.427096  -0.058480  -0.086130  -0.062327   0.000000   0.000000
    13  C   -0.036402   0.413556   0.410864   0.411842   0.000000  -0.000000
    14  H    0.000001   0.000000  -0.000000  -0.000000  -0.000002   0.000001
    15  H    0.000595   0.000001  -0.000003   0.000001   0.000000  -0.000000
    16  H   -0.005275  -0.000325  -0.000057   0.002602  -0.000000   0.000000
    17  H    0.003659   0.002603  -0.000052  -0.000332   0.000000  -0.000000
    18  H   -0.030521  -0.004576  -0.003013   0.003768  -0.000000  -0.000000
    19  H    0.488892   0.003762  -0.002983  -0.004562  -0.000000   0.000000
    20  H    0.003762   0.486682  -0.023813  -0.028307  -0.000000  -0.000000
    21  H   -0.002983  -0.023813   0.480884  -0.023788  -0.000000  -0.000000
    22  H   -0.004562  -0.028307  -0.023788   0.486498   0.000000   0.000000
    23  H   -0.000000  -0.000000  -0.000000   0.000000   0.397375  -0.000101
    24  H    0.000000  -0.000000  -0.000000   0.000000  -0.000101   0.400400
    25  C   -0.000000  -0.000000  -0.000000   0.000000   0.004967   0.003536
    26  F   -0.000000  -0.000000  -0.000000   0.000000   0.000252   0.007814
    27  F   -0.000000  -0.000000   0.000000   0.000000   0.000640  -0.000010
    28  F   -0.000000   0.000000  -0.000000   0.000000   0.000587  -0.000050
    29  Cl   0.000000   0.000015   0.000000  -0.000001   0.000458  -0.003163
    30  Cl  -0.000008   0.000000  -0.000000  -0.000000  -0.000595   0.000324
              25         26         27         28         29         30
     1  C   -1.369635  -0.028772   0.155879   0.170049  -0.102579  -0.014375
     2  C    0.152633   0.009151  -0.214393  -0.231146   0.051321  -0.403055
     3  C    0.024987  -0.002250   0.033521   0.050242   0.120864  -0.389361
     4  C   -0.868951   0.033939   0.027760   0.045915  -0.364115   0.218720
     5  C   -0.518343   0.088423  -0.009156   0.009489  -0.042545   0.225810
     6  C    0.184453  -0.055871  -0.000110  -0.004266   0.096912   0.113072
     7  N    0.005425  -0.000056   0.000005  -0.000071   0.062761  -0.001781
     8  C   -0.089145   0.000107  -0.000580   0.000675   0.021484   0.058403
     9  N    0.000660  -0.000001  -0.000000  -0.000001  -0.001987  -0.004892
    10  O   -0.003747  -0.000006   0.000000  -0.000002  -0.128956   0.004723
    11  C   -0.002706  -0.000002  -0.000004   0.000005   0.010587   0.004466
    12  C    0.000000   0.000000   0.000000  -0.000000  -0.000839   0.000987
    13  C   -0.000007  -0.000000  -0.000000   0.000000   0.000373   0.000024
    14  H    0.000028   0.000000  -0.000000   0.000000  -0.002658   0.016107
    15  H   -0.000000   0.000000  -0.000000   0.000000  -0.000658   0.000653
    16  H   -0.000003  -0.000000  -0.000000  -0.000000   0.000364   0.000126
    17  H    0.000001  -0.000000  -0.000000   0.000000  -0.000766  -0.000045
    18  H   -0.000000   0.000000   0.000000  -0.000000   0.000077  -0.000006
    19  H   -0.000000  -0.000000  -0.000000  -0.000000   0.000000  -0.000008
    20  H   -0.000000  -0.000000  -0.000000   0.000000   0.000015   0.000000
    21  H   -0.000000  -0.000000   0.000000  -0.000000   0.000000  -0.000000
    22  H    0.000000   0.000000   0.000000   0.000000  -0.000001  -0.000000
    23  H    0.004967   0.000252   0.000640   0.000587   0.000458  -0.000595
    24  H    0.003536   0.007814  -0.000010  -0.000050  -0.003163   0.000324
    25  C    6.720872   0.078184   0.139200   0.092541   0.003914  -0.040207
    26  F    0.078184   9.277594  -0.037095  -0.036858  -0.000460  -0.000044
    27  F    0.139200  -0.037095   9.226782  -0.048987  -0.000230  -0.000616
    28  F    0.092541  -0.036858  -0.048987   9.223613  -0.000265   0.000479
    29  Cl   0.003914  -0.000460  -0.000230  -0.000265  16.996464  -0.005758
    30  Cl  -0.040207  -0.000044  -0.000616   0.000479  -0.005758  16.980715
 Mulliken charges:
               1
     1  C   -1.533628
     2  C    0.479132
     3  C   -0.266025
     4  C    0.185573
     5  C   -0.323507
     6  C    0.021488
     7  N   -0.686970
     8  C    0.492738
     9  N   -0.659685
    10  O   -0.711208
    11  C   -0.196987
    12  C   -0.354169
    13  C   -0.728289
    14  H    0.490533
    15  H    0.481613
    16  H    0.232703
    17  H    0.232335
    18  H    0.231431
    19  H    0.231422
    20  H    0.220000
    21  H    0.221747
    22  H    0.220127
    23  H    0.298614
    24  H    0.292753
    25  C    1.481344
    26  F   -0.334051
    27  F   -0.272605
    28  F   -0.271950
    29  Cl   0.289385
    30  Cl   0.236136
 Sum of Mulliken charges =  -0.00000
 Mulliken charges with hydrogens summed into heavy atoms:
               1
     1  C   -1.533628
     2  C    0.777746
     3  C   -0.266025
     4  C    0.185573
     5  C   -0.323507
     6  C    0.314241
     7  N   -0.196436
     8  C    0.492738
     9  N   -0.178073
    10  O   -0.711208
    11  C    0.268050
    12  C    0.108684
    13  C   -0.066415
    25  C    1.481344
    26  F   -0.334051
    27  F   -0.272605
    28  F   -0.271950
    29  Cl   0.289385
    30  Cl   0.236136
 Electronic spatial extent (au):  <R**2>=           9051.2039
 Charge=             -0.0000 electrons
 Dipole moment (field-independent basis, Debye):
    X=             -4.3292    Y=              5.1054    Z=             -3.4396  Tot=              7.5258
 Quadrupole moment (field-independent basis, Debye-Ang):
   XX=           -112.5817   YY=           -122.9029   ZZ=           -128.0476
   XY=            -10.0124   XZ=              7.1554   YZ=             -0.5802
 Traceless Quadrupole moment (field-independent basis, Debye-Ang):
   XX=              8.5957   YY=             -1.7255   ZZ=             -6.8702
   XY=            -10.0124   XZ=              7.1554   YZ=             -0.5802
 Octapole moment (field-independent basis, Debye-Ang**2):
  XXX=           -135.2628  YYY=              6.2023  ZZZ=              0.9376  XYY=             24.4103
  XXY=             40.5590  XXZ=            -23.1054  XZZ=             14.7275  YZZ=              4.0772
  YYZ=             -6.7744  XYZ=              2.3753
 Hexadecapole moment (field-independent basis, Debye-Ang**3):
 XXXX=          -9094.3629 YYYY=          -1678.4234 ZZZZ=           -325.0864 XXXY=           -105.3808
 XXXZ=             87.8211 YYYX=            -42.3918 YYYZ=             -1.6690 ZZZX=             24.5619
 ZZZY=             -4.6850 XXYY=          -1807.1851 XXZZ=          -1642.4950 YYZZ=           -349.3298
 XXYZ=              5.0935 YYXZ=             36.4887 ZZXY=            -28.7411
 N-N= 1.697277870604D+03 E-N=-7.711042202049D+03  KE= 1.819459047501D+03
 D1PCM: PCM CHGder 1st derivatives, ID1Alg=3 FixD1E=F DoIter=F DoCFld=F I1PDM=0.
 Calling FoFJK, ICntrl=      2127 FMM=F ISym2X=0 I1Cent= 0 IOpClX= 0 NMat=1 NMatS=1 NMatT=0.
 ***** Axes restored to original set *****
 -------------------------------------------------------------------
 Center     Atomic                   Forces (Hartrees/Bohr)
 Number     Number              X              Y              Z
 -------------------------------------------------------------------
      1        6           0.016805850   -0.001380027    0.001721625
      2        6           0.000404095   -0.002305350   -0.000651812
      3        6          -0.005225095    0.010640612   -0.002945063
      4        6           0.026750593   -0.007182942    0.007355932
      5        6          -0.006684789   -0.005319378   -0.000075511
      6        6          -0.004483152   -0.002802724    0.003056796
      7        7          -0.024016317   -0.015909800   -0.017616759
      8        6           0.017926274    0.000540242    0.015681934
      9        7          -0.018741952   -0.026639646   -0.014550845
     10        8           0.000662152    0.025791902    0.011754588
     11        6           0.006288041    0.005780855    0.003735517
     12        6          -0.004579637   -0.004835643   -0.002703195
     13        6           0.004637567    0.001085818    0.002262119
     14        1          -0.002832841    0.012213683   -0.001076914
     15        1           0.003496644    0.013873352    0.002345066
     16        1           0.003214199   -0.002423057   -0.009639163
     17        1          -0.004865367   -0.004646303    0.008252744
     18        1          -0.004650886    0.002923150    0.008433817
     19        1           0.002956962    0.004935645   -0.008242852
     20        1          -0.003392155   -0.005789083    0.007813412
     21        1          -0.004805418    0.009743596   -0.000994303
     22        1           0.004100728   -0.003808698   -0.008622702
     23        1          -0.001408258   -0.001789131    0.000768662
     24        1           0.000599812    0.001240806   -0.000499571
     25        6           0.003039566    0.002447614   -0.000946855
     26        9          -0.015382160   -0.034014499    0.016397409
     27        9           0.007043070    0.027631600    0.022867241
     28        9           0.010218349   -0.001861567   -0.034913111
     29       17          -0.012958941   -0.009107173   -0.003638776
     30       17           0.005883066    0.010966145   -0.005329430
 -------------------------------------------------------------------
 Cartesian Forces:  Max     0.034913111 RMS     0.011178137

 GradGradGradGradGradGradGradGradGradGradGradGradGradGradGradGradGradGrad
 Berny optimization.
 FormGI is forming the generalized inverse of G from B-inverse, IUseBI=4.
 GSVD:  received Info=                   1 from GESDD.
 Internal  Forces:  Max     0.039938639 RMS     0.009358513
 Search for a local minimum.
 Step number   1 out of a maximum of  157
 All quantities printed in internal units (Hartrees-Bohrs-Radians)
 Mixed Optimization -- RFO/linear search
 Second derivative matrix not updated -- first step.
 ITU=  0
     Eigenvalues ---    0.00329   0.00424   0.00648   0.00997   0.01190
     Eigenvalues ---    0.01472   0.01495   0.01632   0.01677   0.01840
     Eigenvalues ---    0.01907   0.01997   0.02046   0.02076   0.02107
     Eigenvalues ---    0.02128   0.02133   0.02165   0.02184   0.03755
     Eigenvalues ---    0.04438   0.04933   0.05553   0.05673   0.05783
     Eigenvalues ---    0.08034   0.09179   0.11011   0.11435   0.11976
     Eigenvalues ---    0.12668   0.15962   0.15998   0.16000   0.16000
     Eigenvalues ---    0.16000   0.16000   0.16000   0.21964   0.22000
     Eigenvalues ---    0.22003   0.22014   0.23458   0.23486   0.24928
     Eigenvalues ---    0.24980   0.24983   0.24992   0.24995   0.24998
     Eigenvalues ---    0.25000   0.25000   0.25000   0.25000   0.29148
     Eigenvalues ---    0.29211   0.29314   0.29807   0.31459   0.32336
     Eigenvalues ---    0.32339   0.32405   0.32406   0.32504   0.32507
     Eigenvalues ---    0.32559   0.35546   0.35653   0.37913   0.39669
     Eigenvalues ---    0.39868   0.40878   0.42437   0.42671   0.43547
     Eigenvalues ---    0.44647   0.45660   0.45983   0.48316   0.48532
     Eigenvalues ---    0.48545   0.51620   0.52392   0.94695
 RFO step:  Lambda=-4.36699741D-02 EMin= 3.29355040D-03
 Linear search not attempted -- first point.
 Iteration  1 RMS(Cart)=  0.23511326 RMS(Int)=  0.01310966
 Iteration  2 RMS(Cart)=  0.02556561 RMS(Int)=  0.00035416
 Iteration  3 RMS(Cart)=  0.00033526 RMS(Int)=  0.00033141
 Iteration  4 RMS(Cart)=  0.00000009 RMS(Int)=  0.00033141
 Variable       Old X    -DE/DX   Delta X   Delta X   Delta X     New X
                                 (Linear)    (Quad)   (Total)
    R1        2.64034  -0.00929   0.00000  -0.01832  -0.01839   2.62195
    R2        2.64715  -0.01276   0.00000  -0.02546  -0.02547   2.62167
    R3        2.85145  -0.00776   0.00000  -0.02167  -0.02167   2.82978
    R4        2.63978  -0.01335   0.00000  -0.02647  -0.02654   2.61324
    R5        2.04798   0.00213   0.00000   0.00535   0.00535   2.05333
    R6        2.67602  -0.01114   0.00000  -0.02363  -0.02363   2.65239
    R7        3.33052  -0.01280   0.00000  -0.03801  -0.03801   3.29250
    R8        2.69702  -0.01308   0.00000  -0.02868  -0.02859   2.66843
    R9        2.71733  -0.02727   0.00000  -0.06165  -0.06165   2.65569
   R10        2.64793  -0.00909   0.00000  -0.01822  -0.01815   2.62978
   R11        3.33264  -0.01418   0.00000  -0.04222  -0.04222   3.29042
   R12        2.04628   0.00137   0.00000   0.00342   0.00342   2.04971
   R13        2.58265   0.01432   0.00000   0.02557   0.02557   2.60822
   R14        1.94778  -0.01195   0.00000  -0.02540  -0.02540   1.92238
   R15        2.57526  -0.00920   0.00000  -0.01620  -0.01620   2.55906
   R16        2.30842   0.02745   0.00000   0.02771   0.02771   2.33613
   R17        2.74493   0.00020   0.00000   0.00047   0.00047   2.74539
   R18        1.95071  -0.01436   0.00000  -0.03067  -0.03067   1.92003
   R19        2.89696  -0.00721   0.00000  -0.02150  -0.02150   2.87546
   R20        2.10229  -0.01009   0.00000  -0.02750  -0.02750   2.07479
   R21        2.10234  -0.01028   0.00000  -0.02801  -0.02801   2.07433
   R22        2.88349   0.00106   0.00000   0.00310   0.00310   2.88659
   R23        2.10110  -0.00962   0.00000  -0.02617  -0.02617   2.07493
   R24        2.10108  -0.00962   0.00000  -0.02616  -0.02616   2.07492
   R25        2.09931  -0.01006   0.00000  -0.02727  -0.02727   2.07204
   R26        2.09832  -0.01063   0.00000  -0.02878  -0.02878   2.06954
   R27        2.09926  -0.01004   0.00000  -0.02723  -0.02723   2.07204
   R28        2.61604  -0.03994   0.00000  -0.07581  -0.07581   2.54023
   R29        2.61376  -0.03433   0.00000  -0.06490  -0.06490   2.54886
   R30        2.61363  -0.03416   0.00000  -0.06455  -0.06455   2.54907
    A1        2.07579   0.00546   0.00000   0.01978   0.01975   2.09554
    A2        2.08204  -0.00288   0.00000  -0.01049  -0.01051   2.07152
    A3        2.12528  -0.00258   0.00000  -0.00946  -0.00948   2.11580
    A4        2.11050  -0.00886   0.00000  -0.03255  -0.03261   2.07789
    A5        2.08930   0.00556   0.00000   0.02184   0.02186   2.11117
    A6        2.08338   0.00330   0.00000   0.01072   0.01074   2.09412
    A7        2.11024   0.00942   0.00000   0.03259   0.03257   2.14281
    A8        2.04637   0.00259   0.00000   0.00846   0.00843   2.05480
    A9        2.12633  -0.01202   0.00000  -0.04130  -0.04130   2.08502
   A10        2.05823  -0.00594   0.00000  -0.01997  -0.01988   2.03835
   A11        2.06048  -0.01253   0.00000  -0.04318  -0.04333   2.01716
   A12        2.16392   0.01842   0.00000   0.06229   0.06202   2.22593
   A13        2.09553   0.00296   0.00000   0.00958   0.00898   2.10451
   A14        2.17755   0.00086   0.00000   0.00129   0.00033   2.17788
   A15        2.00782  -0.00413   0.00000  -0.01574  -0.01676   1.99106
   A16        2.11556  -0.00309   0.00000  -0.01045  -0.01037   2.10519
   A17        2.09441   0.00202   0.00000   0.00746   0.00731   2.10172
   A18        2.07311   0.00105   0.00000   0.00269   0.00255   2.07566
   A19        2.21034   0.01150   0.00000   0.04234   0.04153   2.25188
   A20        2.03999  -0.00893   0.00000  -0.03917  -0.03994   2.00005
   A21        2.02863  -0.00294   0.00000  -0.00987  -0.01074   2.01789
   A22        2.08775  -0.03074   0.00000  -0.10506  -0.10526   1.98250
   A23        2.10971   0.01646   0.00000   0.05567   0.05547   2.16518
   A24        2.08459   0.01417   0.00000   0.04785   0.04766   2.13226
   A25        2.12647  -0.00356   0.00000  -0.01350  -0.01350   2.11297
   A26        2.07805   0.00357   0.00000   0.01555   0.01555   2.09360
   A27        2.07866  -0.00001   0.00000  -0.00205  -0.00205   2.07661
   A28        1.93725  -0.00418   0.00000  -0.01387  -0.01383   1.92342
   A29        1.90658   0.00145   0.00000   0.00630   0.00632   1.91290
   A30        1.90577   0.00152   0.00000   0.00691   0.00694   1.91271
   A31        1.90602   0.00174   0.00000   0.00782   0.00784   1.91386
   A32        1.90551   0.00175   0.00000   0.00811   0.00813   1.91364
   A33        1.90239  -0.00228   0.00000  -0.01544  -0.01546   1.88694
   A34        1.94148  -0.00192   0.00000  -0.00505  -0.00503   1.93646
   A35        1.91050  -0.00009   0.00000  -0.00328  -0.00328   1.90722
   A36        1.91073  -0.00012   0.00000  -0.00356  -0.00355   1.90718
   A37        1.90084   0.00188   0.00000   0.01268   0.01266   1.91350
   A38        1.90133   0.00187   0.00000   0.01247   0.01246   1.91378
   A39        1.89843  -0.00161   0.00000  -0.01339  -0.01350   1.88493
   A40        1.92572   0.00203   0.00000   0.00954   0.00948   1.93520
   A41        1.91257   0.00285   0.00000   0.01482   0.01473   1.92729
   A42        1.92586   0.00209   0.00000   0.00985   0.00979   1.93565
   A43        1.89663  -0.00227   0.00000  -0.01031  -0.01039   1.88624
   A44        1.90574  -0.00256   0.00000  -0.01419  -0.01421   1.89153
   A45        1.89683  -0.00229   0.00000  -0.01041  -0.01050   1.88633
   A46        1.95244   0.00823   0.00000   0.02890   0.02800   1.98045
   A47        1.91024   0.01679   0.00000   0.05665   0.05547   1.96571
   A48        1.90988   0.01709   0.00000   0.05786   0.05664   1.96652
   A49        1.89399  -0.01291   0.00000  -0.04331  -0.04408   1.84990
   A50        1.89384  -0.01291   0.00000  -0.04293  -0.04374   1.85009
   A51        1.90279  -0.01752   0.00000  -0.06142  -0.06278   1.84001
    D1        0.00876   0.00101   0.00000   0.01586   0.01601   0.02477
    D2       -3.13208   0.00067   0.00000   0.01156   0.01155  -3.12053
    D3        3.13745   0.00021   0.00000   0.00209   0.00210   3.13955
    D4       -0.00339  -0.00013   0.00000  -0.00221  -0.00236  -0.00574
    D5       -0.01361  -0.00066   0.00000  -0.01178  -0.01178  -0.02539
    D6        3.11228  -0.00213   0.00000  -0.03406  -0.03428   3.07800
    D7        3.14122   0.00016   0.00000   0.00236   0.00249  -3.13948
    D8       -0.01608  -0.00131   0.00000  -0.01993  -0.02002  -0.03609
    D9       -3.13636   0.00051   0.00000   0.00858   0.00854  -3.12782
   D10       -1.03660   0.00087   0.00000   0.01085   0.01056  -1.02604
   D11        1.04750  -0.00005   0.00000   0.00507   0.00523   1.05273
   D12       -0.00805  -0.00026   0.00000  -0.00538  -0.00531  -0.01336
   D13        2.09171   0.00010   0.00000  -0.00311  -0.00329   2.08842
   D14       -2.10737  -0.00081   0.00000  -0.00889  -0.00862  -2.11599
   D15        0.01546   0.00035   0.00000   0.00613   0.00610   0.02157
   D16        3.13374  -0.00056   0.00000  -0.00634  -0.00672   3.12702
   D17       -3.12688   0.00069   0.00000   0.01042   0.01052  -3.11636
   D18       -0.00860  -0.00022   0.00000  -0.00205  -0.00230  -0.01091
   D19       -0.03390  -0.00180   0.00000  -0.03074  -0.03046  -0.06436
   D20       -3.14118  -0.00059   0.00000  -0.00524  -0.00620   3.13580
   D21        3.13208  -0.00107   0.00000  -0.01842  -0.01811   3.11397
   D22        0.02480   0.00014   0.00000   0.00708   0.00614   0.03094
   D23        0.02889   0.00198   0.00000   0.03403   0.03374   0.06263
   D24       -3.03643   0.00725   0.00000   0.11586   0.11600  -2.92043
   D25        3.13397  -0.00001   0.00000   0.00452   0.00362   3.13759
   D26        0.06864   0.00526   0.00000   0.08635   0.08588   0.15452
   D27       -2.50567   0.01208   0.00000   0.21746   0.21702  -2.28866
   D28        0.53301   0.00726   0.00000   0.13507   0.13523   0.66823
   D29        0.67248   0.01394   0.00000   0.24655   0.24640   0.91888
   D30       -2.57202   0.00912   0.00000   0.16416   0.16461  -2.40742
   D31       -0.00556  -0.00096   0.00000  -0.01392  -0.01435  -0.01992
   D32       -3.13164   0.00047   0.00000   0.00806   0.00778  -3.12387
   D33        3.06688  -0.00556   0.00000  -0.08751  -0.08770   2.97918
   D34       -0.05920  -0.00412   0.00000  -0.06553  -0.06557  -0.12477
   D35       -3.13691   0.00199   0.00000   0.02851   0.02821  -3.10870
   D36        0.05594   0.00423   0.00000   0.06222   0.06204   0.11798
   D37        0.10701   0.00709   0.00000   0.11197   0.11215   0.21916
   D38       -2.98332   0.00933   0.00000   0.14568   0.14599  -2.83734
   D39       -3.11876   0.00159   0.00000   0.02450   0.02443  -3.09433
   D40        0.02672   0.00166   0.00000   0.02570   0.02563   0.05236
   D41       -0.02769  -0.00053   0.00000  -0.00840  -0.00833  -0.03602
   D42        3.11780  -0.00045   0.00000  -0.00720  -0.00713   3.11067
   D43       -3.13777  -0.00002   0.00000  -0.00035  -0.00035  -3.13812
   D44        1.04273  -0.00049   0.00000  -0.00542  -0.00542   1.03731
   D45       -1.03625   0.00051   0.00000   0.00549   0.00548  -1.03077
   D46       -0.00007  -0.00009   0.00000  -0.00151  -0.00150  -0.00157
   D47       -2.10276  -0.00056   0.00000  -0.00658  -0.00657  -2.10933
   D48        2.10145   0.00044   0.00000   0.00433   0.00433   2.10578
   D49        3.13998   0.00003   0.00000   0.00025   0.00025   3.14023
   D50        1.03850  -0.00103   0.00000  -0.01020  -0.01018   1.02831
   D51       -1.04096   0.00106   0.00000   0.01025   0.01024  -1.03072
   D52       -1.04019   0.00033   0.00000   0.00442   0.00441  -1.03578
   D53        3.14151  -0.00073   0.00000  -0.00602  -0.00602   3.13549
   D54        1.06206   0.00136   0.00000   0.01443   0.01441   1.07646
   D55        1.03830  -0.00036   0.00000  -0.00488  -0.00487   1.03343
   D56       -1.06319  -0.00142   0.00000  -0.01532  -0.01530  -1.07849
   D57        3.14054   0.00067   0.00000   0.00513   0.00513  -3.13752
   D58       -1.05353   0.00023   0.00000   0.00220   0.00222  -1.05131
   D59       -3.14120  -0.00002   0.00000  -0.00031  -0.00031  -3.14152
   D60        1.05397  -0.00028   0.00000  -0.00289  -0.00291   1.05106
   D61        1.05365   0.00014   0.00000   0.00325   0.00325   1.05690
   D62       -1.03403  -0.00011   0.00000   0.00074   0.00072  -1.03330
   D63       -3.12204  -0.00037   0.00000  -0.00184  -0.00188  -3.12391
   D64        3.12188   0.00036   0.00000   0.00162   0.00166   3.12354
   D65        1.03420   0.00011   0.00000  -0.00089  -0.00087   1.03333
   D66       -1.05381  -0.00015   0.00000  -0.00347  -0.00347  -1.05728
         Item               Value     Threshold  Converged?
 Maximum Force            0.039939     0.000450     NO 
 RMS     Force            0.009359     0.000300     NO 
 Maximum Displacement     0.970883     0.001800     NO 
 RMS     Displacement     0.241383     0.001200     NO 
 Predicted change in Energy=-2.871590D-02
 GradGradGradGradGradGradGradGradGradGradGradGradGradGradGradGradGradGrad

                          Input orientation:                          
 ---------------------------------------------------------------------
 Center     Atomic      Atomic             Coordinates (Angstroms)
 Number     Number       Type             X           Y           Z
 ---------------------------------------------------------------------
      1          6           0       -4.189939    3.467107   -1.093142
      2          6           0       -4.164920    2.293500   -0.353477
      3          6           0       -2.944292    1.753347    0.007934
      4          6           0       -1.719769    2.355778   -0.320197
      5          6           0       -1.776525    3.519019   -1.118697
      6          6           0       -3.002063    4.066876   -1.485459
      7          7           0       -0.571938    1.680799    0.129066
      8          6           0        0.522009    2.181832    0.805250
      9          7           0        1.477254    1.254505    1.053081
     10          8           0        0.600232    3.338385    1.234806
     11          6           0        2.672457    1.592385    1.806708
     12          6           0        3.575352    0.374219    1.933974
     13          6           0        4.839379    0.711248    2.722614
     14          1           0       -0.628712    0.666561    0.074689
     15          1           0        1.365785    0.306092    0.706060
     16          1           0        2.389423    1.948323    2.806036
     17          1           0        3.212784    2.400540    1.296950
     18          1           0        3.849403    0.019846    0.931509
     19          1           0        3.027783   -0.431399    2.440680
     20          1           0        5.411916    1.502241    2.223823
     21          1           0        5.482615   -0.170887    2.808914
     22          1           0        4.590034    1.050887    3.734904
     23          1           0       -5.086390    1.801002   -0.055174
     24          1           0       -3.014547    4.951315   -2.113229
     25          6           0       -5.516120    4.043424   -1.482332
     26          9           0       -5.417809    5.169557   -2.209733
     27          9           0       -6.257303    3.189555   -2.217735
     28          9           0       -6.280753    4.355247   -0.415718
     29         17           0       -0.406909    4.251160   -1.906069
     30         17           0       -2.953354    0.291155    0.955343
 ---------------------------------------------------------------------
                    Distance matrix (angstroms):
                    1          2          3          4          5
     1  C    0.000000
     2  C    1.387474   0.000000
     3  C    2.387673   1.382865   0.000000
     4  C    2.816778   2.446170   1.403584   0.000000
     5  C    2.414108   2.791396   2.398036   1.412074   0.000000
     6  C    1.387330   2.403847   2.754265   2.435153   1.391620
     7  N    4.215996   3.676652   2.376552   1.405329   2.527251
     8  C    5.240065   4.829330   3.582535   2.514450   3.282210
     9  N    6.451276   5.906949   4.570694   3.649610   4.520146
    10  O    5.327443   5.130409   4.072003   2.960736   3.349713
    11  C    7.682200   7.204699   5.899946   4.939448   5.662451
    12  C    8.889833   8.296257   6.936669   6.086557   6.917453
    13  C   10.182502   9.645894   8.309091   7.415228   8.149198
    14  H    4.678593   3.915996   2.558803   2.049340   3.298206
    15  H    6.640423   5.971692   4.599857   3.843834   4.850438
    16  H    7.797327   7.284304   6.026268   5.179267   5.935127
    17  H    7.851778   7.560813   6.323765   5.191074   5.655047
    18  H    8.978521   8.429120   7.071938   6.167578   6.935317
    19  H    8.932064   8.183359   6.808601   6.158737   7.166334
    20  H   10.346912   9.949089   8.648667   7.619810   8.180069
    21  H   11.046237  10.447433   9.086304   8.249225   9.040832
    22  H   10.307089   9.742083   8.435036   7.613160   8.377481
    23  H    2.157987   1.086575   2.143557   3.422302   3.877869
    24  H    2.150580   3.388815   3.838134   3.410019   2.138519
    25  C    1.497453   2.482396   3.752285   4.314045   3.793653
    26  F    2.377557   3.645151   4.765168   5.016294   4.144103
    27  F    2.369755   2.942183   4.241738   4.988492   4.625344
    28  F    2.370484   2.954898   4.252215   4.980921   4.634816
    29  Cl   3.948025   4.512828   4.042374   2.798404   1.741216
    30  Cl   3.976444   2.681471   1.742318   2.722389   4.013188
                    6          7          8          9         10
     6  C    0.000000
     7  N    3.769027   0.000000
     8  C    4.606498   1.380210   0.000000
     9  N    5.866677   2.287951   1.354196   0.000000
    10  O    4.572425   2.311760   1.236225   2.268204   0.000000
    11  C    7.011537   3.653546   2.444339   1.452800   2.769423
    12  C    8.281946   4.707957   3.723491   2.439855   4.257517
    13  C    9.510853   6.078559   4.947584   3.792935   5.204401
    14  H    4.430463   1.017280   2.038118   2.395416   3.161458
    15  H    6.166388   2.444895   2.059173   1.016039   3.171820
    16  H    7.209252   4.000924   2.746799   2.094346   2.757216
    17  H    7.010193   4.025681   2.744061   2.094024   2.776481
    18  H    8.316416   4.790714   3.970097   2.676986   4.654224
    19  H    8.485758   4.771051   3.972721   2.678030   4.643103
    20  H    9.546265   6.342429   5.136670   4.112612   5.244224
    21  H   10.411053   6.875168   5.844447   4.599740   6.215341
[...]
     ,0.00000362,0.00000647,-0.00030453,-0.00168860,0.00038040,-0.00003589,
     0.00004811,-0.00047758,0.58046044,0.05923787,-0.11482699,0.02626304,0.
     02201531,-0.01442393,0.00674216,-0.00074323,-0.00241130,0.00541167,0.0
     0043965,-0.00256567,0.00150003,-0.00145304,0.00412958,0.00281233,-0.00
     197242,0.01114122,-0.00704099,-0.00343788,0.00057855,-0.00167924,0.002
     75882,0.00171341,0.00120214,-0.00109821,0.00019084,-0.00044254,-0.0006
     1386,-0.00081157,-0.00069395,0.00016152,0.00018295,0.00020961,-0.00002
     421,-0.00009502,-0.00005367,-0.00001976,0.00004563,0.00000998,-0.00050
     267,-0.00032258,0.00035958,0.00004647,-0.00010667,-0.00003908,-0.00005
     095,-0.00001556,-0.00005587,-0.00007155,-0.00002572,-0.00003870,-0.000
     00031,0.00000637,0.00000604,0.00000222,0.00000711,0.00000177,-0.000002
     55,-0.00000349,0.00000032,-0.00001834,-0.00000367,-0.00001383,-0.00000
     046,-0.00000117,-0.00000464,-0.00025242,-0.00119176,-0.00144556,-0.002
     05078,-0.00229416,-0.00073441,-0.04202196,0.54486933,-0.02126681,0.025
     82312,-0.08118466,-0.01636495,0.00711395,-0.00363893,0.00034486,0.0061
     9526,0.00219055,0.00025454,0.00125122,-0.00187543,0.00352891,0.0020062
     5,0.00441793,0.00648829,-0.00808541,0.00744914,0.00141181,-0.00054020,
     0.00014899,-0.00126083,-0.00056319,-0.00045929,0.00047583,-0.00011552,
     0.00018252,0.00031866,0.00027785,0.00027445,-0.00007144,-0.00007139,-0
     .00009374,0.00000640,0.00004285,0.00002232,0.00000833,-0.00001942,-0.0
     0000235,0.00028079,0.00014403,-0.00012926,-0.00001992,0.00004852,0.000
     02144,0.00002460,0.00000570,0.00002158,0.00002885,0.00001082,0.0000183
     5,0.00000310,-0.00000392,-0.00000456,-0.00000039,-0.00000400,0.0000007
     2,0.00000010,0.00000159,0.00000046,0.00000918,0.00000002,0.00000634,-0
     .00000048,0.00000087,-0.00000086,-0.00052482,-0.00073003,-0.00270419,0
     .00059355,-0.00122162,-0.00308326,0.00947137,-0.03773009,0.50368303,0.
     00763906,0.02563759,-0.01401634,-0.00481315,0.00094557,0.00075296,-0.0
     0018839,0.00026720,-0.00058975,0.00048345,0.00015470,-0.00014095,0.001
     38148,0.00067763,-0.00062014,-0.00292954,0.00119365,-0.00001831,-0.000
     80745,0.00019989,-0.00033428,0.00067731,0.00040240,0.00037892,-0.00028
     242,0.00005858,-0.00011936,-0.00013879,-0.00019762,-0.00017767,0.00004
     288,0.00004532,0.00005435,-0.00000528,-0.00002428,-0.00001354,-0.00000
     488,0.00001116,0.00000241,-0.00009231,-0.00007221,-0.00000154,0.000010
     98,-0.00002840,-0.00000960,-0.00001327,-0.00000419,-0.00001453,-0.0000
     1720,-0.00000644,-0.00001036,-0.00000055,0.00000151,0.00000161,0.00000
     063,0.00000234,0.00000008,-0.00000022,-0.00000083,-0.00000002,-0.00000
     500,-0.00000060,-0.00000350,0.00000006,-0.00000053,-0.00000083,0.00016
     591,0.00004992,0.00004569,-0.00157228,0.00229219,-0.00110993,-0.076586
     17,-0.00910831,0.00619609,0.09089315,-0.00454375,-0.03220933,0.0226980
     4,0.00802999,-0.00069669,-0.00050334,-0.00058132,-0.00021414,0.0005354
     2,-0.00073983,0.00046117,-0.00029518,-0.00056505,-0.00051380,0.0004467
     6,-0.00272194,-0.00103866,0.00103523,0.00146806,-0.00020575,0.00049205
     ,-0.00116959,-0.00072307,-0.00058048,0.00046791,-0.00008540,0.00019992
     ,0.00025647,0.00035982,0.00029278,-0.00007105,-0.00007856,-0.00008902,
     0.00000969,0.00004040,0.00002313,0.00000817,-0.00001938,-0.00000368,0.
     00016145,0.00013360,-0.00008244,-0.00002010,0.00004578,0.00001541,0.00
     002286,0.00000663,0.00002424,0.00002961,0.00001104,0.00001655,0.000000
     53,-0.00000275,-0.00000280,-0.00000073,-0.00000292,-0.00000060,0.00000
     109,0.00000163,-0.00000009,0.00000800,0.00000126,0.00000591,0.,0.00000
     049,0.00000147,-0.00015357,0.00032205,-0.00025828,0.00144941,-0.000091
     32,-0.00061382,0.00428723,-0.23331783,0.08957641,0.04870828,0.33170933
     ,0.00240011,0.02102579,-0.00304918,-0.00352861,0.00108595,0.00169377,-
     0.00003003,-0.00029441,-0.00061532,0.00058547,-0.00017519,0.00015004,0
     .00021486,0.00014945,-0.00010318,0.00162134,-0.00000188,-0.00117887,-0
     .00089889,0.00009285,-0.00028723,0.00067241,0.00041785,0.00030184,-0.0
     0026998,0.00005041,-0.00010870,-0.00014172,-0.00019839,-0.00015553,0.0
     0004033,0.00004373,0.00005060,-0.00000514,-0.00002355,-0.00001301,-0.0
     0000464,0.00001112,0.00000216,-0.00009075,-0.00008303,0.00005977,0.000
     01121,-0.00002742,-0.00001154,-0.00001285,-0.00000351,-0.00001312,-0.0
     0001712,-0.00000629,-0.00000975,-0.00000069,0.00000181,0.00000203,0.00
     000058,0.00000170,0.00000013,-0.00000043,-0.00000105,-0.00000005,-0.00
     000472,-0.00000066,-0.00000347,0.00000003,-0.00000035,-0.00000049,0.00
     011037,-0.00016999,0.00029324,-0.00035371,-0.00060327,0.00037993,-0.00
     069192,0.09097953,-0.11539791,-0.02770336,-0.13946214,0.15501820,-0.03
     184944,-0.02054460,-0.02926565,-0.00118076,-0.00187389,0.00155297,-0.0
     0115086,-0.00039892,0.00173551,0.00120654,-0.00111709,0.00043700,0.000
     41766,0.00297355,0.00099807,0.00035673,0.00249621,-0.00375820,-0.00259
     630,0.00056029,-0.00112207,0.00205663,0.00123348,0.00086284,-0.0008095
     1,0.00015779,-0.00032871,-0.00043338,-0.00058217,-0.00047873,0.0001158
     0,0.00012823,0.00015532,-0.00001587,-0.00007158,-0.00003863,-0.0000156
     4,0.00003384,0.00000688,-0.00036796,-0.00024237,0.00024404,0.00003353,
     -0.00008119,-0.00003085,-0.00003831,-0.00001183,-0.00003947,-0.0000516
     6,-0.00001798,-0.00003013,-0.00000160,0.00000473,0.00000521,0.00000173
     ,0.00000670,0.00000023,-0.00000077,-0.00000218,-0.00000023,-0.00001424
     ,-0.00000182,-0.00001029,-0.00000009,-0.00000142,-0.00000221,0.0000010
     4,-0.00023490,-0.00079970,0.00006242,-0.00071356,-0.00085268,-0.159464
     93,-0.05467246,-0.07720013,-0.00859872,-0.03859930,-0.00184148,0.18372
     446,0.00245799,0.00864799,-0.00035093,-0.00014091,-0.00053555,0.000685
     63,-0.00089024,0.00063408,0.00008205,0.00049972,0.00038641,-0.00041938
     ,0.00038183,-0.00048521,0.00000930,-0.00035419,0.00007682,0.00060444,-
     0.00007876,0.00000809,-0.00004291,0.00004465,0.00002435,0.00002255,-0.
     00002171,0.00000615,-0.00000753,0.00000062,-0.00000335,-0.00000395,0.0
     0000132,0.00000099,0.00000556,0.00000011,-0.00000204,-0.00000122,-0.00
     000037,0.00000092,-0.00000006,0.00000731,-0.00000915,-0.00000865,-0.00
     000017,-0.00000258,-0.00000146,-0.00000078,-0.00000042,-0.00000025,-0.
     00000068,-0.00000001,-0.00000124,-0.00000036,0.,0.00000058,0.00000002,
     0.00000053,-0.00000039,0.00000034,0.00000004,-0.00000015,-0.00000055,0
     .00000011,-0.00000030,0.00000001,-0.00000019,0.00000029,0.00004306,-0.
     00001902,-0.00025661,0.00027032,0.00007701,-0.00008466,-0.05935328,-0.
     10873860,-0.05082834,-0.04706263,-0.06523175,-0.01392734,0.10891825,0.
     17628785,-0.01992046,-0.01198457,-0.00314054,0.00018802,-0.00018235,0.
     00108601,0.00004188,-0.00071948,0.00045956,0.00031191,-0.00077385,0.00
     044093,-0.00028616,0.00113819,0.00036328,-0.00081594,0.00198797,-0.003
     01612,-0.00110452,0.00028524,-0.00046362,0.00090726,0.00050112,0.00040
     123,-0.00036362,0.00007933,-0.00014241,-0.00020574,-0.00023592,-0.0002
     1735,0.00005374,0.00005678,0.00006446,-0.00000636,-0.00003179,-0.00001
     719,-0.00000750,0.00001539,0.00000318,-0.00015663,-0.00010586,0.000080
     34,0.00001454,-0.00003692,-0.00001527,-0.00001755,-0.00000527,-0.00001
     711,-0.00002241,-0.00000809,-0.00001337,-0.00000106,0.00000238,0.00000
     281,0.00000072,0.00000286,-0.00000002,-0.00000024,-0.00000103,-0.00000
     025,-0.00000642,-0.00000075,-0.00000463,-0.00000009,-0.00000056,-0.000
     00067,0.00014802,-0.00018221,-0.00018398,0.00006065,-0.00018352,-0.000
     27294,-0.07863102,-0.04714514,-0.12962063,0.00347990,-0.00331343,0.017
     11069,0.10920109,0.10553283,0.18512541,-0.02631220,0.01298983,0.037077
     74,-0.00182891,-0.00129892,0.00070798,-0.00064914,-0.00191386,-0.00014
     261,0.00089798,-0.00092494,0.00090166,-0.00076876,0.00044089,-0.002037
     74,-0.00018237,0.00539728,-0.00166921,-0.00215156,0.00054558,-0.000807
     02,0.00178621,0.00105193,0.00076730,-0.00069469,0.00012934,-0.00027921
     ,-0.00038446,-0.00050389,-0.00043063,0.00009968,0.00011020,0.00013791,
     -0.00001438,-0.00006095,-0.00003327,-0.00001258,0.00002867,0.00000602,
     -0.00033658,-0.00020168,0.00019495,0.00002911,-0.00006947,-0.00002361,
     -0.00003294,-0.00000977,-0.00003571,-0.00004376,-0.00001518,-0.0000261
     1,-0.00000084,0.00000369,0.00000388,0.00000129,0.00000587,0.00000037,-
     0.00000084,-0.00000182,-0.00000001,-0.00001209,-0.00000180,-0.00000879
     ,-0.00000011,-0.00000120,-0.00000251,-0.00024696,0.00102538,0.00036530
     ,0.00045016,0.00034136,0.00058068,-0.14270711,0.03548867,0.08594320,-0
     .00456580,-0.01696009,0.03059362,0.01978339,-0.00462225,-0.01211248,0.
     15924656,0.01715596,0.00424524,-0.01781007,0.00017432,0.00059790,0.000
     06599,-0.00024254,0.00078541,-0.00065837,-0.00012263,0.00042057,-0.000
     43797,0.00052647,0.00010708,0.00036100,0.00112324,-0.00377061,0.001058
     28,0.00075781,-0.00012618,0.00034853,-0.00063761,-0.00038592,-0.000318
     74,0.00026368,-0.00004561,0.00010912,0.00014518,0.00018455,0.00017465,
     -0.00003930,-0.00004506,-0.00005127,0.00000574,0.00002256,0.00001330,0
     .00000477,-0.00001069,-0.00000235,0.00010140,0.00007253,-0.00004465,-0
     .00001116,0.00002574,0.00000830,0.00001242,0.00000369,0.00001401,0.000
     01609,0.00000611,0.00000937,0.00000021,-0.00000135,-0.00000134,-0.0000
     0040,-0.00000200,-0.00000033,0.00000054,0.00000076,-0.00000011,0.00000
     449,0.00000076,0.00000331,0.00000003,0.00000033,0.00000105,0.00074902,
     -0.00049160,0.00004440,0.00003916,-0.00000524,-0.00015455,0.03364049,-
     0.08239691,-0.03294273,-0.02478237,0.00239161,0.04066800,0.00186643,-0
     .01121513,-0.04513000,-0.03150904,0.08986071,0.01069169,-0.00350664,-0
     .00600372,-0.00008890,0.00234640,-0.00041725,0.00095703,0.00037224,0.0
     0037001,-0.00082400,-0.00003909,0.00006939,-0.00018033,0.00021591,0.00
     006157,0.00104498,-0.00227416,0.00091894,0.00083200,-0.00027359,0.0003
     1117,-0.00069050,-0.00043060,-0.00032603,0.00025669,-0.00004552,0.0001
     0893,0.00012763,0.00021405,0.00017652,-0.00003660,-0.00003959,-0.00005
     444,0.00000571,0.00002239,0.00001214,0.00000453,-0.00001035,-0.0000023
     5,0.00012047,0.00007330,-0.00006884,-0.00001063,0.00002668,0.00000698,
     0.00001246,0.00000374,0.00001490,0.00001703,0.00000520,0.00000975,-0.0
     0000030,-0.00000102,-0.00000080,-0.00000048,-0.00000238,-0.00000048,0.
     00000039,0.00000042,-0.00000014,0.00000426,0.00000089,0.00000315,0.000
     00016,0.00000039,0.00000154,-0.00046783,-0.00044744,-0.00003448,-0.000
     37835,-0.00011980,0.00003493,0.09252376,-0.03889217,-0.18000109,0.0343
     1172,0.02942882,-0.05384686,0.00069482,-0.04091712,-0.06801696,-0.1395
     4503,0.05461668,0.30659322,-0.00030686,0.00630593,-0.00348384,-0.00164
     884,-0.00218632,0.00153990,0.00216952,0.00142497,-0.00001940,-0.018316
     69,-0.00499232,0.00968579,-0.13979859,-0.03531059,0.05285635,-0.041872
     34,-0.01298241,0.01930033,0.00273711,0.00188902,-0.00223981,-0.0004503
     8,-0.00335064,-0.00122441,0.00028659,0.00025678,0.00065967,-0.00014914
     ,0.00361180,-0.00187205,-0.00004059,-0.00007728,-0.00002450,0.00001810
     ,0.00003098,0.00002755,0.00000944,-0.00001583,-0.00000255,0.00060597,0
     .00008652,-0.00050778,-0.00006326,0.00007149,-0.00000287,0.00003104,0.
     00000580,0.00001788,0.00003105,0.00000743,0.00000237,-0.00000211,0.000
     00043,-0.00000355,-0.00000240,0.00000183,-0.00000101,0.00000102,0.0000
     0081,0.00000044,0.00000495,0.00000141,0.00000414,-0.00000057,-0.000000
     18,-0.00000064,0.00008982,-0.00009245,-0.00000771,0.00093554,-0.001027
     60,0.00016088,0.00213370,-0.00239887,0.00156527,-0.00037345,0.00073067
     ,-0.00039699,-0.00106924,-0.00005786,-0.00069743,-0.00125774,0.0007431
     8,0.00054989,0.19668549,0.00169370,0.00070120,0.00255615,-0.00125238,-
     0.00014758,-0.00047133,0.00413129,-0.00029356,0.00264129,-0.02529772,-
     0.00699874,0.01464415,-0.03102645,-0.04695129,0.02418969,0.00652251,0.
     00637649,-0.00362088,-0.00343767,-0.00257311,0.00185008,-0.00089745,-0
     .00194125,0.00005027,0.00019573,0.00032477,-0.00018617,0.00102593,0.00
     051748,-0.00013403,0.00002675,-0.00002144,0.00003831,0.00000912,0.0000
     0681,0.00001273,0.00000109,-0.00000471,0.00000210,-0.00001424,0.000123
     16,0.00022871,-0.00007647,0.00001127,-0.00001075,-0.00000897,-0.000001
     77,0.00000409,-0.00001042,-0.00001113,0.00001379,-0.00000030,-0.000001
     28,-0.00000335,-0.00000017,0.00000079,-0.00000044,0.00000061,0.0000003
     2,-0.00000018,0.00000031,0.00000046,0.00000040,0.00000024,-0.00000032,
     -0.00000078,-0.00007042,-0.00000526,-0.00021132,0.00080523,-0.00009481
     ,-0.00194791,0.00072107,-0.00000715,0.00012097,-0.00012149,0.00015839,
     -0.00006027,-0.00006635,-0.00003648,0.00001485,-0.00022862,0.00011055,
     0.00005111,0.04839105,0.05179400,-0.00040617,0.00103557,0.00386071,0.0
     0092575,0.00026559,-0.00120172,-0.00212384,0.00293221,0.00256519,0.022
     51182,0.00916631,-0.00865862,0.04897067,0.02380637,-0.05280619,0.00614
     470,0.00134996,0.00210808,0.00066111,-0.00095511,-0.00289383,0.0009444
     3,0.00008454,-0.00222673,-0.00138156,0.00048082,0.00029603,0.00067267,
     0.00290373,-0.00302742,0.00016076,0.00015959,0.00027048,-0.00002236,-0
     .00007105,-0.00004974,-0.00001117,0.00003955,0.00000346,0.00031746,-0.
     00011306,-0.00016622,-0.00007673,-0.00008815,-0.00003431,0.00000825,-0
     .00003431,-0.00005957,-0.00005659,-0.00000939,-0.00006053,-0.00000267,
     0.00000669,0.00000270,0.00000132,0.00000674,0.00000182,-0.00000246,-0.
     00000378,0.00000039,-0.00001541,-0.00000298,-0.00001169,-0.00000103,-0
     .00000128,-0.00000327,-0.00005593,-0.00025767,-0.00027006,-0.00122312,
     -0.00144556,-0.00136170,-0.00123553,0.00085690,-0.00041969,0.00021220,
     -0.00033449,0.00020600,0.00050118,-0.00001262,0.00033099,0.00037180,-0
     .00014936,-0.00016388,-0.07661701,-0.04067394,0.06460947,-0.00363412,0
     .00042220,0.00103453,0.00412520,0.02056077,-0.01540987,-0.03919396,-0.
     00105617,0.00344073,-0.00122860,-0.01956830,0.01571732,-0.00348806,0.0
     0212682,-0.00013770,0.00109499,-0.00024414,-0.00018245,-0.00199015,-0.
     00515928,0.00364362,0.00090775,0.00052915,0.00105206,-0.00008298,0.000
     22001,-0.00020420,0.00004677,-0.00019861,-0.00046723,0.00002301,0.0000
     3663,-0.00002196,-0.00000624,-0.00001129,-0.00000018,-0.00000333,0.000
     00539,0.00000384,-0.00166000,-0.00119169,0.00069721,0.00000482,-0.0000
     1295,0.00001548,-0.00001585,-0.00000344,0.00000119,-0.00000161,-0.0000
     0351,0.00000493,0.00000096,0.00000114,0.00000185,0.00000194,0.00000105
     ,-0.00000041,-0.00000055,-0.00000104,-0.00000024,-0.00000194,-0.000000
     41,-0.00000095,0.00000077,-0.00000067,-0.00000066,0.00026831,0.0009964
     5,-0.00133464,0.00014981,-0.00003570,-0.00006294,0.00077255,0.00036371
     ,-0.00024396,-0.00030004,0.00048692,-0.00025730,-0.00010064,-0.0000408
     3,-0.00005209,-0.00009056,0.00001442,0.00006774,-0.00038714,-0.0010155
     0,0.00082746,0.04478891,0.00531181,0.00342016,0.00040734,0.00082992,-0
     .02709708,0.02213773,-0.00496860,-0.11987632,0.07253984,0.00028207,-0.
     02103102,0.01980964,-0.00083409,0.00412824,0.00070316,-0.00092758,-0.0
     0221951,0.00102156,0.00141044,-0.00052640,-0.00227730,0.00100754,0.001
     26608,-0.00019400,-0.00067650,-0.00005367,-0.00022553,-0.00031370,-0.0
     0025373,-0.00035552,0.00004276,0.00010156,0.00017594,-0.00001857,-0.00
     005889,-0.00003140,-0.00001265,0.00003000,0.00000658,-0.00099006,0.000
     22246,0.00046890,0.00003281,-0.00006460,-0.00002651,-0.00001165,-0.000
     00995,-0.00002936,-0.00003685,-0.00001165,-0.00002957,-0.00000049,0.00
     000221,0.00000314,0.00000024,0.00000816,-0.00000114,0.00000077,-0.0000
     0083,-0.00000006,-0.00001077,-0.00000207,-0.00000837,-0.00000044,-0.00
     000202,-0.00000307,-0.00087817,-0.00035526,-0.00153302,-0.00007715,-0.
     00010154,-0.00021201,-0.00325316,0.00069475,0.00023646,0.00076200,-0.0
     0121185,0.00051054,0.00085412,0.00012815,0.00042380,0.00076480,-0.0003
     3982,-0.00037876,-0.00106774,-0.00103579,0.00105819,0.00277887,0.16425
     023,-0.00229290,0.00112010,0.00431049,-0.00020420,0.01893378,-0.009572
     46,0.00435792,0.07246235,-0.07775344,0.00229167,0.02191333,-0.01228524
     ,0.00197691,-0.00055110,0.00365099,0.00012038,0.00106109,-0.00147548,-
     0.00164458,-0.00029576,-0.00062278,-0.00041235,-0.00004350,-0.00037155
     ,0.00037721,-0.00006178,0.00008481,0.00040409,-0.00003326,0.00025602,-
     0.00005615,-0.00005153,-0.00007593,0.00000734,0.00003010,0.00001350,0.
     00000653,-0.00001476,-0.00000135,0.00181570,0.00019220,-0.00046723,-0.
     00002618,0.00003521,0.00000495,0.00001963,0.00000423,0.00001866,0.0000
     1993,0.00001020,0.00001536,-0.00000072,-0.00000152,-0.00000190,0.00000
     143,-0.00000480,0.00000060,-0.00000054,-0.00000012,0.00000006,0.000005
     52,0.00000120,0.00000412,0.00000036,0.00000077,0.00000109,0.00008036,-
     0.00175492,-0.00167722,-0.00003271,-0.00018717,-0.00019670,0.00223177,
     -0.00034520,0.00017802,-0.00055189,0.00074765,-0.00047421,-0.00059599,
     -0.00007810,-0.00032584,-0.00049847,0.00020584,0.00024418,0.00073110,0
     .00090267,-0.00084014,-0.00813119,-0.11419721,0.09735860\\-0.00000956,
     -0.00001133,0.00001403,-0.00000280,0.00000190,-0.00001728,0.00001310,-
     0.00001122,-0.00001217,-0.00000626,-0.00000092,0.00000540,-0.00000206,
     0.00001496,0.00000437,0.00000990,0.00000694,0.00000405,0.00000537,-0.0
     0000077,-0.00000978,-0.00000959,0.00000265,-0.00000041,0.00000319,-0.0
     0000001,0.00000588,-0.00000233,-0.00000362,0.00000686,-0.00000036,-0.0
     0000012,0.00000090,-0.00000070,0.00000051,-0.00000420,0.00000067,-0.00
     000146,0.00000290,0.00001107,0.00000832,-0.00001825,0.00000920,0.00000
     883,-0.00001733,-0.00000669,-0.00001272,0.00000318,-0.00000226,0.00000
     505,0.00001234,0.00000694,0.00001402,-0.00000678,0.00000581,-0.0000044
     5,-0.00001454,-0.00000444,0.00000269,0.00001203,0.00000055,-0.00000136
     ,-0.00000213,-0.00000639,-0.00001323,0.00000433,0.00000054,-0.00001637
     ,-0.00001226,-0.00000496,0.00001611,0.00002042,-0.00000550,-0.00001094
     ,-0.00000397,-0.00000688,-0.00000434,0.00001306,0.00001372,0.00001026,
     -0.00000460,-0.00001719,-0.00000937,0.00002238,0.00000272,0.00002586,0
     .00001735,0.00000521,-0.00001587,-0.00002575\\\@


     BOOKS ARE LIGHTHOUSES ERECTED IN THE GREAT SEA OF TIME.
         -- E.P.WHIPPLE
     Job cpu time:       0 days  3 hours 23 minutes 16.9 seconds.
     File lengths (MBytes):  RWF=    637 Int=      0 D2E=      0 Chk=     21 Scr=      1
     Normal termination of Gaussian 09 at Tue Jul 10 16:38:52 2018.
    WARNING: pbs_rusage is deprecated and values produced may not be accurate


    =============================================================================
                                         Resource usage:
                                           CPU time:              13:39:04
       JobId:    8296099.r-man2            Elapsed time:          03:26:21
       Project:             q95            Requested time:        96:00:00
       Service Units:     13.76 
                                           Max physical memory:      738MB
                                           Max virtual memory:      1703MB
                                           Requested memory:           0MB

                                           Number of cpus:               4

                                           Max jobfs disk use:       0.6GB
                                           Requested jobfs:         16.0GB
    =============================================================================

