 Entering Gaussian System, Link 0=/apps/gaussian/g09e01/g09/g09
 AtFile(1): /home/507/hio507/Basis/6-31pGd.gbs
 Initial command:
 /apps/gaussian/g09e01/g09/l1.exe "/jobfs/local/8296114.r-man2/Gau-28336.inp" -scrdir="/jobfs/local/8296114.r-man2/"
 Entering Link 1 = /apps/gaussian/g09e01/g09/l1.exe PID=     28337.
  
 Copyright (c) 1988,1990,1992,1993,1995,1998,2003,2009,2015,
            Gaussian, Inc.  All Rights Reserved.
  
 This is part of the Gaussian(R) 09 program.  It is based on
 the Gaussian(R) 03 system (copyright 2003, Gaussian, Inc.),
 the Gaussian(R) 98 system (copyright 1998, Gaussian, Inc.),
 the Gaussian(R) 94 system (copyright 1995, Gaussian, Inc.),
 the Gaussian 92(TM) system (copyright 1992, Gaussian, Inc.),
 the Gaussian 90(TM) system (copyright 1990, Gaussian, Inc.),
 the Gaussian 88(TM) system (copyright 1988, Gaussian, Inc.),
 the Gaussian 86(TM) system (copyright 1986, Carnegie Mellon
 University), and the Gaussian 82(TM) system (copyright 1983,
 Carnegie Mellon University). Gaussian is a federally registered
 trademark of Gaussian, Inc.
  
 This software contains proprietary and confidential information,
 including trade secrets, belonging to Gaussian, Inc.
  
 This software is provided under written license and may be
 used, copied, transmitted, or stored only in accord with that
 written license.
  
 The following legend is applicable only to US Government
 contracts under FAR:
  
                    RESTRICTED RIGHTS LEGEND
  
 Use, reproduction and disclosure by the US Government is
 subject to restrictions as set forth in subparagraphs (a)
 and (c) of the Commercial Computer Software - Restricted
 Rights clause in FAR 52.227-19.
  
 Gaussian, Inc.
 340 Quinnipiac St., Bldg. 40, Wallingford CT 06492
  
  
 ---------------------------------------------------------------
 Warning -- This program may not be used in any manner that
 competes with the business of Gaussian, Inc. or will provide
 assistance to any competitor of Gaussian, Inc.  The licensee
 of this program is prohibited from giving any competitor of
 Gaussian, Inc. access to this program.  By using this program,
 the user acknowledges that Gaussian, Inc. is engaged in the
 business of creating and licensing software in the field of
 computational chemistry and represents and warrants to the
 licensee that it is not a competitor of Gaussian, Inc. and that
 it will not use this program in any manner prohibited above.
 ---------------------------------------------------------------
  

 Cite this work as:
 Gaussian 09, Revision E.01,
 M. J. Frisch, G. W. Trucks, H. B. Schlegel, G. E. Scuseria, 
 M. A. Robb, J. R. Cheeseman, G. Scalmani, V. Barone, B. Mennucci, 
 G. A. Petersson, H. Nakatsuji, M. Caricato, X. Li, H. P. Hratchian, 
 A. F. Izmaylov, J. Bloino, G. Zheng, J. L. Sonnenberg, M. Hada, 
 M. Ehara, K. Toyota, R. Fukuda, J. Hasegawa, M. Ishida, T. Nakajima, 
 Y. Honda, O. Kitao, H. Nakai, T. Vreven, J. A. Montgomery, Jr., 
 J. E. Peralta, F. Ogliaro, M. Bearpark, J. J. Heyd, E. Brothers, 
 K. N. Kudin, V. N. Staroverov, T. Keith, R. Kobayashi, J. Normand, 
 K. Raghavachari, A. Rendell, J. C. Burant, S. S. Iyengar, J. Tomasi, 
 M. Cossi, N. Rega, J. M. Millam, M. Klene, J. E. Knox, J. B. Cross, 
 V. Bakken, C. Adamo, J. Jaramillo, R. Gomperts, R. E. Stratmann, 
 O. Yazyev, A. J. Austin, R. Cammi, C. Pomelli, J. W. Ochterski, 
 R. L. Martin, K. Morokuma, V. G. Zakrzewski, G. A. Voth, 
 P. Salvador, J. J. Dannenberg, S. Dapprich, A. D. Daniels, 
 O. Farkas, J. B. Foresman, J. V. Ortiz, J. Cioslowski, 
 and D. J. Fox, Gaussian, Inc., Wallingford CT, 2013.
 
 ******************************************
 Gaussian 09:  ES64L-G09RevE.01 30-Nov-2015
                10-Jul-2018 
 ******************************************
 %chk=aryl_urea_dichloro_CF3_a1.M062X.SMD.h2o.opt.chk
 %mem=196608000
 %nproc=4
 Will use up to    4 processors via shared memory.
 ----------------------------------------------------------------------
 # M062X/Gen 6D SCF=Tight INT(grid=ultrafine) OPT IOP(2/17=4) Freq=Nora
 man SCRF=(SMD,Solvent=h2o) maxdisk=2147483648
 ----------------------------------------------------------------------
 1/14=-1,18=20,19=15,26=4,38=1/1,3;
 2/9=110,12=2,17=4,18=5,40=1/2;
 3/5=7,8=2,11=2,16=1,25=1,30=1,70=32201,71=1,72=1,74=-55,75=-5/1,2,3;
 4//1;
 5/5=2,32=2,38=5,53=1/2;
 6/7=2,8=2,9=2,10=2,28=1/1;
 7//1,2,3,16;
 1/14=-1,18=20,19=15,26=4/3(2);
 2/9=110,17=4/2;
 99//99;
 2/9=110,17=4/2;
 3/5=7,6=1,8=2,11=2,16=1,25=1,30=1,70=32205,71=1,72=1,74=-55,75=-5,82=7/1,2,3;
 4/5=5,16=3,69=1/1;
 5/5=2,32=2,38=5,53=1/2;
 7//1,2,3,16;
 1/14=-1,18=20,19=15,26=4/3(-5);
 2/9=110,17=4/2;
 6/7=2,8=2,9=2,10=2,19=2,28=1/1;
 99/9=1/99;
 -------------------------------------------
 aryl_urea_dichloro_CF3_a1.M062X.SMD.h2o.opt
 -------------------------------------------
 Symbolic Z-matrix:
 Charge = -1 Multiplicity = 1
 C                    -4.19878   3.52106  -1.09495 
 C                    -4.2755    2.27429  -0.46896 
 C                    -3.11989   1.60208  -0.06392 
 C                    -1.83931   2.17399  -0.25973 
 C                    -1.76514   3.43673  -0.92071 
 C                    -2.93852   4.08859  -1.32282 
 N                    -0.69115   1.42839   0.18017 
 C                     0.45047   1.93866   0.73166 
 N                     1.45815   1.096     1.09449 
 O                     0.55923   3.13504   0.95315 
 C                     2.68023   1.58329   1.7101 
 C                     3.64265   0.4283    2.00985 
 C                     4.92961   0.93439   2.65476 
 H                     1.35111   0.08357   0.92387 
 H                     2.42922   2.10626   2.65937 
 H                     3.17562   2.3022    1.02058 
 H                     3.89637  -0.09758   1.06365 
 H                     3.15272  -0.29294   2.69976 
 H                     5.44943   1.64276   1.97497 
 H                     5.60537   0.07738   2.8593 
 H                     4.70502   1.44728   3.61422 
 H                    -5.24364   1.81957  -0.29449 
 H                    -2.85764   5.04137  -1.83098 
 C                    -5.47029   4.21213  -1.52218 
 F                    -5.21619   5.42963  -2.13008 
 F                    -6.153     3.40831  -2.41709 
 F                    -6.26859   4.43259  -0.41448 
 Cl                   -0.2668    4.23843  -1.3923 
 Cl                   -3.32969   0.0412    0.72716 
 

 GradGradGradGradGradGradGradGradGradGradGradGradGradGradGradGradGradGrad
 Berny optimization.
 Initialization pass.
                           ----------------------------
                           !    Initial Parameters    !
                           ! (Angstroms and Degrees)  !
 --------------------------                            --------------------------
 ! Name  Definition              Value          Derivative Info.                !
 --------------------------------------------------------------------------------
 ! R1    R(1,2)                  1.3972         estimate D2E/DX2                !
 ! R2    R(1,6)                  1.4008         estimate D2E/DX2                !
 ! R3    R(1,24)                 1.5089         estimate D2E/DX2                !
 ! R4    R(2,3)                  1.3969         estimate D2E/DX2                !
 ! R5    R(2,22)                 1.0837         estimate D2E/DX2                !
 ! R6    R(3,4)                  1.4161         estimate D2E/DX2                !
 ! R7    R(3,29)                 1.7624         estimate D2E/DX2                !
 ! R8    R(4,5)                  1.4272         estimate D2E/DX2                !
 ! R9    R(4,7)                  1.438          estimate D2E/DX2                !
 ! R10   R(5,6)                  1.4012         estimate D2E/DX2                !
 ! R11   R(5,28)                 1.7636         estimate D2E/DX2                !
 ! R12   R(6,23)                 1.0828         estimate D2E/DX2                !
 ! R13   R(7,8)                  1.3667         estimate D2E/DX2                !
 ! R14   R(8,9)                  1.3628         estimate D2E/DX2                !
 ! R15   R(8,10)                 1.2216         estimate D2E/DX2                !
 ! R16   R(9,11)                 1.4526         estimate D2E/DX2                !
 ! R17   R(9,14)                 1.0323         estimate D2E/DX2                !
 ! R18   R(11,12)                1.533          estimate D2E/DX2                !
 ! R19   R(11,15)                1.1125         estimate D2E/DX2                !
 ! R20   R(11,16)                1.1125         estimate D2E/DX2                !
 ! R21   R(12,13)                1.5259         estimate D2E/DX2                !
 ! R22   R(12,17)                1.1119         estimate D2E/DX2                !
 ! R23   R(12,18)                1.1118         estimate D2E/DX2                !
 ! R24   R(13,19)                1.1109         estimate D2E/DX2                !
 ! R25   R(13,20)                1.1104         estimate D2E/DX2                !
 ! R26   R(13,21)                1.1109         estimate D2E/DX2                !
 ! R27   R(24,25)                1.3843         estimate D2E/DX2                !
 ! R28   R(24,26)                1.3831         estimate D2E/DX2                !
 ! R29   R(24,27)                1.3831         estimate D2E/DX2                !
 ! A1    A(2,1,6)              118.9341         estimate D2E/DX2                !
 ! A2    A(2,1,24)             119.2921         estimate D2E/DX2                !
 ! A3    A(6,1,24)             121.7695         estimate D2E/DX2                !
 ! A4    A(1,2,3)              120.9229         estimate D2E/DX2                !
 ! A5    A(1,2,22)             119.7084         estimate D2E/DX2                !
 ! A6    A(3,2,22)             119.3688         estimate D2E/DX2                !
 ! A7    A(2,3,4)              120.9079         estimate D2E/DX2                !
 ! A8    A(2,3,29)             117.2485         estimate D2E/DX2                !
 ! A9    A(4,3,29)             121.8296         estimate D2E/DX2                !
 ! A10   A(3,4,5)              117.928          estimate D2E/DX2                !
 ! A11   A(3,4,7)              118.057          estimate D2E/DX2                !
 ! A12   A(5,4,7)              123.9833         estimate D2E/DX2                !
 ! A13   A(4,5,6)              120.0652         estimate D2E/DX2                !
 ! A14   A(4,5,28)             124.7645         estimate D2E/DX2                !
 ! A15   A(6,5,28)             115.0395         estimate D2E/DX2                !
 ! A16   A(1,6,5)              121.2128         estimate D2E/DX2                !
 ! A17   A(1,6,23)             120.001          estimate D2E/DX2                !
 ! A18   A(5,6,23)             118.7802         estimate D2E/DX2                !
 ! A19   A(4,7,8)              126.6434         estimate D2E/DX2                !
 ! A20   A(7,8,9)              119.6194         estimate D2E/DX2                !
 ! A21   A(7,8,10)             120.8776         estimate D2E/DX2                !
 ! A22   A(9,8,10)             119.4384         estimate D2E/DX2                !
 ! A23   A(8,9,11)             121.8375         estimate D2E/DX2                !
 ! A24   A(8,9,14)             119.0634         estimate D2E/DX2                !
 ! A25   A(11,9,14)            119.0987         estimate D2E/DX2                !
 ! A26   A(9,11,12)            110.9963         estimate D2E/DX2                !
 ! A27   A(9,11,15)            109.2389         estimate D2E/DX2                !
 ! A28   A(9,11,16)            109.1927         estimate D2E/DX2                !
 ! A29   A(12,11,15)           109.207          estimate D2E/DX2                !
 ! A30   A(12,11,16)           109.1775         estimate D2E/DX2                !
 ! A31   A(15,11,16)           108.9991         estimate D2E/DX2                !
 ! A32   A(11,12,13)           111.2388         estimate D2E/DX2                !
 ! A33   A(11,12,17)           109.4637         estimate D2E/DX2                !
 ! A34   A(11,12,18)           109.4767         estimate D2E/DX2                !
 ! A35   A(13,12,17)           108.9102         estimate D2E/DX2                !
 ! A36   A(13,12,18)           108.938          estimate D2E/DX2                !
 ! A37   A(17,12,18)           108.7719         estimate D2E/DX2                !
 ! A38   A(12,13,19)           110.3357         estimate D2E/DX2                !
 ! A39   A(12,13,20)           109.5821         estimate D2E/DX2                !
 ! A40   A(12,13,21)           110.3438         estimate D2E/DX2                !
 ! A41   A(19,13,20)           108.6688         estimate D2E/DX2                !
 ! A42   A(19,13,21)           109.1907         estimate D2E/DX2                !
 ! A43   A(20,13,21)           108.6801         estimate D2E/DX2                !
 ! A44   A(1,24,25)            111.8668         estimate D2E/DX2                !
 ! A45   A(1,24,26)            109.4487         estimate D2E/DX2                !
 ! A46   A(1,24,27)            109.4278         estimate D2E/DX2                !
 ! A47   A(25,24,26)           108.5174         estimate D2E/DX2                !
 ! A48   A(25,24,27)           108.5089         estimate D2E/DX2                !
 ! A49   A(26,24,27)           109.0218         estimate D2E/DX2                !
 ! D1    D(6,1,2,3)              0.5019         estimate D2E/DX2                !
 ! D2    D(6,1,2,22)          -179.4547         estimate D2E/DX2                !
 ! D3    D(24,1,2,3)           179.7627         estimate D2E/DX2                !
 ! D4    D(24,1,2,22)           -0.194          estimate D2E/DX2                !
 ! D5    D(2,1,6,5)             -0.7799         estimate D2E/DX2                !
 ! D6    D(2,1,6,23)           178.3205         estimate D2E/DX2                !
 ! D7    D(24,1,6,5)           179.9785         estimate D2E/DX2                !
 ! D8    D(24,1,6,23)           -0.9211         estimate D2E/DX2                !
 ! D9    D(2,1,24,25)         -179.7            estimate D2E/DX2                !
 ! D10   D(2,1,24,26)          -59.3929         estimate D2E/DX2                !
 ! D11   D(2,1,24,27)           60.0175         estimate D2E/DX2                !
 ! D12   D(6,1,24,25)           -0.4611         estimate D2E/DX2                !
 ! D13   D(6,1,24,26)          119.8461         estimate D2E/DX2                !
 ! D14   D(6,1,24,27)         -120.7435         estimate D2E/DX2                !
 ! D15   D(1,2,3,4)              0.886          estimate D2E/DX2                !
 ! D16   D(1,2,3,29)           179.5503         estimate D2E/DX2                !
 ! D17   D(22,2,3,4)          -179.1572         estimate D2E/DX2                !
 ! D18   D(22,2,3,29)           -0.4928         estimate D2E/DX2                !
 ! D19   D(2,3,4,5)             -1.9426         estimate D2E/DX2                !
 ! D20   D(2,3,4,7)           -179.9766         estimate D2E/DX2                !
 ! D21   D(29,3,4,5)           179.455          estimate D2E/DX2                !
 ! D22   D(29,3,4,7)             1.421          estimate D2E/DX2                !
 ! D23   D(3,4,5,6)              1.6554         estimate D2E/DX2                !
 ! D24   D(3,4,5,28)          -173.9746         estimate D2E/DX2                !
 ! D25   D(7,4,5,6)            179.563          estimate D2E/DX2                !
 ! D26   D(7,4,5,28)             3.933          estimate D2E/DX2                !
 ! D27   D(3,4,7,8)           -143.5644         estimate D2E/DX2                !
 ! D28   D(5,4,7,8)             38.5305         estimate D2E/DX2                !
 ! D29   D(4,5,6,1)             -0.3188         estimate D2E/DX2                !
 ! D30   D(4,5,6,23)          -179.43           estimate D2E/DX2                !
 ! D31   D(28,5,6,1)           175.7195         estimate D2E/DX2                !
 ! D32   D(28,5,6,23)           -3.3917         estimate D2E/DX2                !
 ! D33   D(4,7,8,9)           -179.7319         estimate D2E/DX2                !
 ! D34   D(4,7,8,10)             3.2053         estimate D2E/DX2                !
 ! D35   D(7,8,9,11)          -178.6917         estimate D2E/DX2                !
 ! D36   D(7,8,9,14)             1.5311         estimate D2E/DX2                !
 ! D37   D(10,8,9,11)           -1.5863         estimate D2E/DX2                !
 ! D38   D(10,8,9,14)          178.6366         estimate D2E/DX2                !
 ! D39   D(8,9,11,12)         -179.7812         estimate D2E/DX2                !
 ! D40   D(8,9,11,15)           59.7438         estimate D2E/DX2                !
 ! D41   D(8,9,11,16)          -59.3727         estimate D2E/DX2                !
 ! D42   D(14,9,11,12)          -0.0041         estimate D2E/DX2                !
 ! D43   D(14,9,11,15)        -120.4792         estimate D2E/DX2                !
 ! D44   D(14,9,11,16)         120.4043         estimate D2E/DX2                !
 ! D45   D(9,11,12,13)         179.9077         estimate D2E/DX2                !
 ! D46   D(9,11,12,17)          59.5014         estimate D2E/DX2                !
 ! D47   D(9,11,12,18)         -59.6427         estimate D2E/DX2                !
 ! D48   D(15,11,12,13)        -59.5983         estimate D2E/DX2                !
 ! D49   D(15,11,12,17)        179.9954         estimate D2E/DX2                !
 ! D50   D(15,11,12,18)         60.8513         estimate D2E/DX2                !
 ! D51   D(16,11,12,13)         59.4902         estimate D2E/DX2                !
 ! D52   D(16,11,12,17)        -60.9161         estimate D2E/DX2                !
 ! D53   D(16,11,12,18)        179.9399         estimate D2E/DX2                !
 ! D54   D(11,12,13,19)        -60.3626         estimate D2E/DX2                !
 ! D55   D(11,12,13,20)       -179.9778         estimate D2E/DX2                !
 ! D56   D(11,12,13,21)         60.3881         estimate D2E/DX2                !
 ! D57   D(17,12,13,19)         60.3698         estimate D2E/DX2                !
 ! D58   D(17,12,13,20)        -59.2454         estimate D2E/DX2                !
 ! D59   D(17,12,13,21)       -178.8795         estimate D2E/DX2                !
 ! D60   D(18,12,13,19)        178.8706         estimate D2E/DX2                !
 ! D61   D(18,12,13,20)         59.2554         estimate D2E/DX2                !
 ! D62   D(18,12,13,21)        -60.3787         estimate D2E/DX2                !
 --------------------------------------------------------------------------------
 Trust Radius=3.00D-01 FncErr=1.00D-07 GrdErr=1.00D-06
 Number of steps in this run=    150 maximum allowed number of steps=    174.
 GradGradGradGradGradGradGradGradGradGradGradGradGradGradGradGradGradGrad

                          Input orientation:                          
 ---------------------------------------------------------------------
 Center     Atomic      Atomic             Coordinates (Angstroms)
 Number     Number       Type             X           Y           Z
 ---------------------------------------------------------------------
      1          6           0       -4.198780    3.521060   -1.094950
      2          6           0       -4.275500    2.274290   -0.468960
      3          6           0       -3.119890    1.602080   -0.063920
      4          6           0       -1.839310    2.173990   -0.259730
      5          6           0       -1.765140    3.436730   -0.920710
      6          6           0       -2.938520    4.088590   -1.322820
      7          7           0       -0.691150    1.428390    0.180170
      8          6           0        0.450470    1.938660    0.731660
      9          7           0        1.458150    1.096000    1.094490
     10          8           0        0.559230    3.135040    0.953150
     11          6           0        2.680230    1.583290    1.710100
     12          6           0        3.642650    0.428300    2.009850
     13          6           0        4.929610    0.934390    2.654760
     14          1           0        1.351110    0.083570    0.923870
     15          1           0        2.429220    2.106260    2.659370
     16          1           0        3.175620    2.302200    1.020580
     17          1           0        3.896370   -0.097580    1.063650
     18          1           0        3.152720   -0.292940    2.699760
     19          1           0        5.449430    1.642760    1.974970
     20          1           0        5.605370    0.077380    2.859300
     21          1           0        4.705020    1.447280    3.614220
     22          1           0       -5.243640    1.819570   -0.294490
     23          1           0       -2.857640    5.041370   -1.830980
     24          6           0       -5.470290    4.212130   -1.522180
     25          9           0       -5.216190    5.429630   -2.130080
     26          9           0       -6.153000    3.408310   -2.417090
     27          9           0       -6.268590    4.432590   -0.414480
     28         17           0       -0.266800    4.238430   -1.392300
     29         17           0       -3.329690    0.041200    0.727160
 ---------------------------------------------------------------------
                    Distance matrix (angstroms):
                    1          2          3          4          5
     1  C    0.000000
     2  C    1.397206   0.000000
     3  C    2.430949   1.396910   0.000000
     4  C    2.842409   2.447215   1.416089   0.000000
     5  C    2.441326   2.803079   2.436263   1.427203   0.000000
     6  C    1.400811   2.410037   2.792930   2.450330   1.401226
     7  N    4.278863   3.739583   2.447147   1.437951   2.529589
     8  C    5.239849   4.887630   3.673378   2.506258   3.143798
     9  N    6.532643   6.058670   4.749366   3.724140   4.464263
    10  O    5.194457   5.112524   4.113432   2.854416   3.000844
    11  C    7.677502   7.321746   6.065385   4.965420   5.487961
    12  C    8.982927   8.499958   7.170093   6.184684   6.847118
    13  C   10.201896   9.812594   8.522411   7.473228   7.991581
    14  H    6.833246   6.196610   4.824048   3.993688   4.935299
    15  H    7.747707   7.400537   6.201865   5.171661   5.672722
    16  H    7.768067   7.598598   6.426488   5.177369   5.428340
    17  H    9.126092   8.646046   7.306720   6.309468   6.962882
    18  H    9.109938   8.474073   7.111587   6.305925   7.155668
    19  H   10.297591  10.047183   8.808631   7.642108   7.978303
    20  H   11.118290  10.655295   9.327384   8.339507   8.938575
    21  H   10.283701   9.899800   8.647652   7.639624   8.147789
    22  H    2.151171   1.083746   2.147272   3.422906   3.886814
    23  H    2.156789   3.394430   3.875563   3.424572   2.144066
    24  C    1.508920   2.508390   3.803060   4.351070   3.832903
    25  F    2.397761   3.687870   4.828419   5.049824   4.164610
    26  F    2.362148   2.933636   4.242597   4.978521   4.636084
    27  F    2.361787   2.938305   4.248410   4.974308   4.639943
    28  Cl   4.007930   4.558517   4.105491   2.831504   1.763560
    29  Cl   4.023037   2.704062   1.762433   2.782800   4.085697
                    6          7          8          9         10
     6  C    0.000000
     7  N    3.792930   0.000000
     8  C    4.508696   1.366680   0.000000
     9  N    5.842062   2.359228   1.362769   0.000000
    10  O    4.280602   2.252466   1.221561   2.232872   0.000000
    11  C    6.858971   3.705521   2.460785   1.452552   2.734875
    12  C    8.235060   4.809338   3.755658   2.460843   4.236807
    13  C    9.363631   6.161215   4.976903   3.809409   5.180594
    14  H    6.284006   2.555867   2.071100   1.032271   3.152681
    15  H    6.971377   4.042604   2.767600   2.100584   2.732478
    16  H    6.787151   4.052375   2.764431   2.100020   2.746573
    17  H    8.362714   4.914719   4.016306   2.714867   4.647424
    18  H    8.513646   4.907815   4.019404   2.716176   4.639815
    19  H    9.338908   6.401092   5.159746   4.123652   5.213931
    20  H   10.323662   6.974893   5.879133   4.620776   6.200502
    21  H    9.474945   6.396226   5.162538   4.124876   5.207437
    22  H    3.394038   4.593853   5.787059   6.882355   6.079504
    23  H    1.082847   4.668193   5.209369   6.538376   4.802132
    24  C    2.542610   5.786828   6.730814   8.034955   6.606247
    25  F    2.763664   6.467083   7.244823   8.586327   6.937357
    26  F    3.463104   6.363776   7.461924   8.695262   7.515798
    27  F    3.468830   6.362913   7.258036   8.550575   7.083302
    28  Cl   2.676820   3.247932   3.211639   4.362848   2.720465
    29  Cl   4.553767   3.030740   4.229655   4.916396   4.974597
                   11         12         13         14         15
    11  C    0.000000
    12  C    1.533005   0.000000
    13  C    2.524513   1.525877   0.000000
    14  H    2.152644   2.559169   4.065161   0.000000
    15  H    1.112482   2.170216   2.761386   2.874988   0.000000
    16  H    1.112511   2.169856   2.760060   2.874110   1.811391
    17  H    2.173067   1.111853   2.159671   2.555524   3.091240
    18  H    2.173226   1.111843   2.160024   2.557605   2.506241
    19  H    2.782474   2.177288   1.110907   4.509114   3.131278
    20  H    3.484949   2.167252   1.110385   4.673827   3.774156
    21  H    2.782795   2.177373   1.110883   4.510698   2.554459
    22  H    8.176914   9.285029  10.629047   6.927397   8.226801
    23  H    7.427353   8.847947   9.880810   7.062758   7.531866
    24  C    9.153656  10.480376  11.676829   8.340244   9.182718
    25  F    9.586176  10.983231  12.084665   9.002022   9.614360
    26  F    9.919191  11.154955  12.436567   8.861579  10.055858
    27  F    9.628797  10.961040  12.126719   8.874964   9.513793
    28  Cl   5.035836   6.432380   7.368721   5.024454   5.313257
    29  Cl   6.281986   7.099906   8.528157   4.685123   6.415836
                   16         17         18         19         20
    16  H    0.000000
    17  H    2.506049   0.000000
    18  H    3.091104   1.807771   0.000000
    19  H    2.552633   2.504253   3.089843   0.000000
    20  H    3.772850   2.485086   2.485575   1.804653   0.000000
    21  H    3.130003   3.089646   2.504843   1.810939   1.804760
    22  H    8.535003   9.437150   9.161173  10.932678  11.431651
    23  H    7.213506   8.966847   9.225340   9.749011  10.874855
    24  C    9.212232  10.629884  10.605505  11.750404  12.608083
    25  F    9.493680  11.126038  11.230041  12.039405  13.063179
    26  F   10.003210  11.198065  11.246236  12.530911  13.311448
    27  F    9.787291  11.226474  10.990460  12.280253  13.064318
    28  Cl   4.628308   6.493432   6.997956   7.123994   8.358996
    29  Cl   6.893277   7.235221   6.784131   9.010825   9.186002
                   21         22         23         24         25
    21  H    0.000000
    22  H   10.695441   0.000000
    23  H    9.988068   4.293459   0.000000
    24  C   11.728765   2.698692   2.758430   0.000000
    25  F   12.136165   4.050022   2.408934   1.384347   0.000000
    26  F   12.574535   2.802938   3.724219   1.383143   2.246269
    27  F   12.064933   2.809412   3.743216   1.383071   2.246089
    28  Cl   7.587803   5.641366   2.747654   5.205177   5.143903
    29  Cl   8.652672   2.805276   5.636365   5.199842   6.384190
                   26         27         28         29
    26  F    0.000000
    27  F    2.252323   0.000000
    28  Cl   6.032134   6.084021   0.000000
    29  Cl   5.403223   5.405995   5.611608   0.000000
 Stoichiometry    C11H10Cl2F3N2O(1-)
 Framework group  C1[X(C11H10Cl2F3N2O)]
 Deg. of freedom    81
 Full point group                 C1      NOp   1
 Largest Abelian subgroup         C1      NOp   1
 Largest concise Abelian subgroup C1      NOp   1
                         Standard orientation:                         
 ---------------------------------------------------------------------
 Center     Atomic      Atomic             Coordinates (Angstroms)
 Number     Number       Type             X           Y           Z
 ---------------------------------------------------------------------
      1          6           0        2.912479   -0.122917    0.051716
      2          6           0        2.408282    1.179767    0.020342
      3          6           0        1.042410    1.416912   -0.151461
      4          6           0        0.128225    0.343110   -0.280001
      5          6           0        0.651243   -0.984774   -0.270911
      6          6           0        2.026150   -1.196584   -0.102976
      7          7           0       -1.264022    0.657403   -0.454846
      8          6           0       -2.326578   -0.032084    0.058373
      9          7           0       -3.594809    0.392241   -0.203697
     10          8           0       -2.154688   -0.992863    0.792926
     11          6           0       -4.757853   -0.287343    0.339810
     12          6           0       -6.054073    0.392770   -0.115563
     13          6           0       -7.279747   -0.318244    0.450550
     14          1           0       -3.732583    1.217648   -0.808100
     15          1           0       -4.706401   -0.270247    1.450970
     16          1           0       -4.758701   -1.344581   -0.006496
     17          1           0       -6.109835    0.378126   -1.225921
     18          1           0       -6.058915    1.449860    0.229012
     19          1           0       -7.308810   -1.373100    0.103347
     20          1           0       -8.201127    0.195511    0.104042
     21          1           0       -7.258315   -0.299795    1.561073
     22          1           0        3.083963    2.019984    0.129865
     23          1           0        2.401708   -2.212203   -0.108707
     24          6           0        4.395057   -0.336530    0.233854
     25          9           0        4.725938   -1.680751    0.235500
     26          9           0        5.079570    0.283092   -0.795998
     27          9           0        4.794971    0.215548    1.437250
     28         17           0       -0.297480   -2.441292   -0.568604
     29         17           0        0.510447    3.097098   -0.164094
 ---------------------------------------------------------------------
 Rotational constants (GHZ):      0.6246358      0.1286057      0.1109487
 General basis read from cards:  (6D, 7F)
 There are   389 symmetry adapted cartesian basis functions of A   symmetry.
 There are   389 symmetry adapted basis functions of A   symmetry.
   389 basis functions,   696 primitive gaussians,   389 cartesian basis functions
    80 alpha electrons       80 beta electrons
       nuclear repulsion energy      1672.2546855251 Hartrees.
 NAtoms=   29 NActive=   29 NUniq=   29 SFac= 1.00D+00 NAtFMM=   60 NAOKFM=F Big=F
 Integral buffers will be    131072 words long.
 Raffenetti 2 integral format.
 Two-electron integral symmetry is turned on.
 ------------------------------------------------------------------------------
 Polarizable Continuum Model (PCM)
 =================================
 Model                : PCM (using non-symmetric T matrix).
 Atomic radii         : SMD-Coulomb.
 Polarization charges : Total charges.
 Charge compensation  : None.
 Solution method      : On-the-fly selection.
 Cavity type          : VdW (van der Waals Surface) (Alpha=1.000).
 Cavity algorithm     : GePol (No added spheres)
                        Default sphere list used, NSphG=   29.
                        Lebedev-Laikov grids with approx.  5.0 points / Ang**2.
                        Smoothing algorithm: York/Karplus (Gamma=1.0000).
                        Polarization charges: spherical gaussians, with
                                              point-specific exponents (IZeta= 3).
                        Self-potential: point-specific (ISelfS= 7).
                        Self-field    : sphere-specific E.n sum rule (ISelfD= 2).
 1st derivatives      : Analytical E(r).r(x)/FMM algorithm (CHGder, D1EAlg=3).
                        Cavity 1st derivative terms included.
 Solvent              : Water, Eps=  78.355300 Eps(inf)=   1.777849
 ------------------------------------------------------------------------------
 ------------------------------------------------------------------------------
 Atomic radii for non-electrostatic terms: SMD-CDS.
 ------------------------------------------------------------------------------
 Nuclear repulsion after PCM non-electrostatic terms =     1672.2640116017 Hartrees.
 One-electron integrals computed using PRISM.
 NBasis=   389 RedAO= T EigKep=  1.17D-06  NBF=   389
 NBsUse=   388 1.00D-06 EigRej=  7.80D-07 NBFU=   388
 ExpMin= 4.38D-02 ExpMax= 2.52D+04 ExpMxC= 3.78D+03 IAcc=3 IRadAn=         5 AccDes= 0.00D+00
 Harris functional with IExCor= 1009 and IRadAn=       5 diagonalized for initial guess.
 HarFok:  IExCor= 1009 AccDes= 0.00D+00 IRadAn=         5 IDoV= 1 UseB2=F ITyADJ=14
 ICtDFT=  3500011 ScaDFX=  1.000000  1.000000  1.000000  1.000000
 FoFCou: FMM=F IPFlag=           0 FMFlag=      100000 FMFlg1=           0
         NFxFlg=           0 DoJE=T BraDBF=F KetDBF=T FulRan=T
         wScrn=  0.000000 ICntrl=     500 IOpCl=  0 I1Cent=   200000004 NGrid=           0
         NMat0=    1 NMatS0=      1 NMatT0=    0 NMatD0=    1 NMtDS0=    0 NMtDT0=    0
 Petite list used in FoFCou.
 Requested convergence on RMS density matrix=1.00D-08 within 128 cycles.
 Requested convergence on MAX density matrix=1.00D-06.
 Requested convergence on             energy=1.00D-06.
 No special actions if energy rises.
 Inv3:  Mode=1 IEnd=    19876428.
 Iteration    1 A*A^-1 deviation from unit magnitude is 6.66D-15 for   2560.
 Iteration    1 A*A^-1 deviation from orthogonality  is 2.64D-15 for   1960    978.
 Iteration    1 A^-1*A deviation from unit magnitude is 6.44D-15 for   2560.
 Iteration    1 A^-1*A deviation from orthogonality  is 7.16D-13 for   1306   1302.
 Error on total polarization charges =  0.04333
 SCF Done:  E(RM062X) =  -1829.61147435     A.U. after   16 cycles
            NFock= 16  Conv=0.70D-08     -V/T= 2.0058
 SMD-CDS (non-electrostatic) energy       (kcal/mol) =       5.85
 (included in total energy above)

 **********************************************************************

            Population analysis using the SCF density.

 **********************************************************************

 Orbital symmetries:
       Occupied  (A) (A) (A) (A) (A) (A) (A) (A) (A) (A) (A) (A)
                 (A) (A) (A) (A) (A) (A) (A) (A) (A) (A) (A) (A)
                 (A) (A) (A) (A) (A) (A) (A) (A) (A) (A) (A) (A)
                 (A) (A) (A) (A) (A) (A) (A) (A) (A) (A) (A) (A)
                 (A) (A) (A) (A) (A) (A) (A) (A) (A) (A) (A) (A)
                 (A) (A) (A) (A) (A) (A) (A) (A) (A) (A) (A) (A)
                 (A) (A) (A) (A) (A) (A) (A) (A)
       Virtual   (A) (A) (A) (A) (A) (A) (A) (A) (A) (A) (A) (A)
                 (A) (A) (A) (A) (A) (A) (A) (A) (A) (A) (A) (A)
                 (A) (A) (A) (A) (A) (A) (A) (A) (A) (A) (A) (A)
                 (A) (A) (A) (A) (A) (A) (A) (A) (A) (A) (A) (A)
                 (A) (A) (A) (A) (A) (A) (A) (A) (A) (A) (A) (A)
                 (A) (A) (A) (A) (A) (A) (A) (A) (A) (A) (A) (A)
                 (A) (A) (A) (A) (A) (A) (A) (A) (A) (A) (A) (A)
                 (A) (A) (A) (A) (A) (A) (A) (A) (A) (A) (A) (A)
                 (A) (A) (A) (A) (A) (A) (A) (A) (A) (A) (A) (A)
                 (A) (A) (A) (A) (A) (A) (A) (A) (A) (A) (A) (A)
                 (A) (A) (A) (A) (A) (A) (A) (A) (A) (A) (A) (A)
                 (A) (A) (A) (A) (A) (A) (A) (A) (A) (A) (A) (A)
                 (A) (A) (A) (A) (A) (A) (A) (A) (A) (A) (A) (A)
                 (A) (A) (A) (A) (A) (A) (A) (A) (A) (A) (A) (A)
                 (A) (A) (A) (A) (A) (A) (A) (A) (A) (A) (A) (A)
                 (A) (A) (A) (A) (A) (A) (A) (A) (A) (A) (A) (A)
                 (A) (A) (A) (A) (A) (A) (A) (A) (A) (A) (A) (A)
                 (A) (A) (A) (A) (A) (A) (A) (A) (A) (A) (A) (A)
                 (A) (A) (A) (A) (A) (A) (A) (A) (A) (A) (A) (A)
                 (A) (A) (A) (A) (A) (A) (A) (A) (A) (A) (A) (A)
                 (A) (A) (A) (A) (A) (A) (A) (A) (A) (A) (A) (A)
                 (A) (A) (A) (A) (A) (A) (A) (A) (A) (A) (A) (A)
                 (A) (A) (A) (A) (A) (A) (A) (A) (A) (A) (A) (A)
                 (A) (A) (A) (A) (A) (A) (A) (A) (A) (A) (A) (A)
                 (A) (A) (A) (A) (A) (A) (A) (A) (A) (A) (A) (A)
                 (A) (A) (A) (A) (A) (A) (A) (A)
 The electronic state is 1-A.
 Alpha  occ. eigenvalues -- -102.67448-102.66785 -25.31128 -25.30828 -25.30827
 Alpha  occ. eigenvalues --  -19.58152 -14.76052 -14.70898 -10.82608 -10.64436
 Alpha  occ. eigenvalues --  -10.61984 -10.61875 -10.61496 -10.58206 -10.57669
 Alpha  occ. eigenvalues --  -10.57601 -10.57131 -10.54135 -10.53228  -9.82004
 Alpha  occ. eigenvalues --   -9.81335  -7.54414  -7.53762  -7.53751  -7.53723
 Alpha  occ. eigenvalues --   -7.53092  -7.53038  -1.44876  -1.37184  -1.37085
 Alpha  occ. eigenvalues --   -1.15253  -1.01418  -1.00651  -0.96561  -0.94464
 Alpha  occ. eigenvalues --   -0.92895  -0.87096  -0.85549  -0.82781  -0.80097
 Alpha  occ. eigenvalues --   -0.75818  -0.71389  -0.69969  -0.68524  -0.67166
 Alpha  occ. eigenvalues --   -0.66707  -0.64399  -0.63378  -0.58981  -0.57597
 Alpha  occ. eigenvalues --   -0.57273  -0.55673  -0.54276  -0.53864  -0.53406
 Alpha  occ. eigenvalues --   -0.53097  -0.52384  -0.52020  -0.51444  -0.49700
 Alpha  occ. eigenvalues --   -0.49399  -0.48893  -0.47912  -0.45563  -0.45118
 Alpha  occ. eigenvalues --   -0.44310  -0.43437  -0.42599  -0.41240  -0.38993
 Alpha  occ. eigenvalues --   -0.38816  -0.38796  -0.38100  -0.37427  -0.35437
 Alpha  occ. eigenvalues --   -0.33508  -0.30377  -0.29679  -0.27552  -0.24244
 Alpha virt. eigenvalues --    0.00294   0.00642   0.01197   0.02598   0.02817
 Alpha virt. eigenvalues --    0.03796   0.04208   0.04415   0.04770   0.04974
 Alpha virt. eigenvalues --    0.05432   0.06029   0.06395   0.07042   0.07726
 Alpha virt. eigenvalues --    0.07841   0.08188   0.08854   0.09249   0.09345
 Alpha virt. eigenvalues --    0.09708   0.10024   0.10622   0.10791   0.11290
 Alpha virt. eigenvalues --    0.12125   0.12309   0.12834   0.13066   0.13200
 Alpha virt. eigenvalues --    0.13774   0.14237   0.14903   0.15789   0.16409
 Alpha virt. eigenvalues --    0.16723   0.16981   0.17408   0.17518   0.17861
 Alpha virt. eigenvalues --    0.18822   0.18891   0.19350   0.19743   0.20105
 Alpha virt. eigenvalues --    0.20978   0.21272   0.21662   0.22238   0.22612
 Alpha virt. eigenvalues --    0.23156   0.23770   0.23820   0.24139   0.24315
 Alpha virt. eigenvalues --    0.25034   0.25191   0.26033   0.26183   0.26443
 Alpha virt. eigenvalues --    0.26835   0.27206   0.27915   0.28283   0.28499
 Alpha virt. eigenvalues --    0.29206   0.29598   0.29862   0.30116   0.30909
 Alpha virt. eigenvalues --    0.30996   0.31481   0.31875   0.32044   0.32619
 Alpha virt. eigenvalues --    0.32772   0.33130   0.33605   0.34308   0.35006
 Alpha virt. eigenvalues --    0.35724   0.36024   0.36378   0.37069   0.37420
 Alpha virt. eigenvalues --    0.37924   0.38739   0.39207   0.39344   0.40045
 Alpha virt. eigenvalues --    0.40555   0.41341   0.41625   0.42184   0.42636
 Alpha virt. eigenvalues --    0.43401   0.45089   0.45799   0.46442   0.47297
 Alpha virt. eigenvalues --    0.48703   0.49331   0.50877   0.54260   0.55193
 Alpha virt. eigenvalues --    0.57911   0.58317   0.60748   0.63239   0.66795
 Alpha virt. eigenvalues --    0.67915   0.68290   0.68930   0.70802   0.71125
 Alpha virt. eigenvalues --    0.71651   0.73530   0.73968   0.74253   0.74795
 Alpha virt. eigenvalues --    0.76008   0.76222   0.77015   0.77689   0.78646
 Alpha virt. eigenvalues --    0.79267   0.80404   0.80675   0.82064   0.82761
 Alpha virt. eigenvalues --    0.83181   0.84533   0.85818   0.86450   0.87010
 Alpha virt. eigenvalues --    0.87711   0.89041   0.89705   0.90303   0.92055
 Alpha virt. eigenvalues --    0.94885   0.94990   0.97589   0.97883   0.98281
 Alpha virt. eigenvalues --    0.98549   0.99587   0.99989   1.00546   1.01757
 Alpha virt. eigenvalues --    1.02806   1.03929   1.04176   1.06270   1.06459
 Alpha virt. eigenvalues --    1.08005   1.08818   1.10600   1.12196   1.12451
 Alpha virt. eigenvalues --    1.14030   1.14745   1.14960   1.16182   1.17594
 Alpha virt. eigenvalues --    1.19038   1.20264   1.20860   1.21450   1.22053
 Alpha virt. eigenvalues --    1.22801   1.23434   1.25362   1.25648   1.28422
 Alpha virt. eigenvalues --    1.29620   1.33273   1.34742   1.37420   1.37981
 Alpha virt. eigenvalues --    1.40457   1.41366   1.43078   1.44616   1.45506
 Alpha virt. eigenvalues --    1.47521   1.48726   1.49183   1.51029   1.52342
 Alpha virt. eigenvalues --    1.52868   1.54032   1.55850   1.58694   1.59829
 Alpha virt. eigenvalues --    1.60721   1.61218   1.63074   1.63932   1.65842
 Alpha virt. eigenvalues --    1.68013   1.68882   1.71219   1.72512   1.73734
 Alpha virt. eigenvalues --    1.74432   1.74926   1.75294   1.78107   1.78847
 Alpha virt. eigenvalues --    1.80091   1.83958   1.84788   1.85723   1.86950
 Alpha virt. eigenvalues --    1.87529   1.88100   1.89413   1.89541   1.90163
 Alpha virt. eigenvalues --    1.91000   1.92707   1.93261   1.94139   1.95462
 Alpha virt. eigenvalues --    1.96258   1.98407   2.01550   2.02520   2.02780
 Alpha virt. eigenvalues --    2.03229   2.04513   2.04595   2.05027   2.05861
 Alpha virt. eigenvalues --    2.05915   2.08287   2.08857   2.09488   2.12717
 Alpha virt. eigenvalues --    2.13469   2.15038   2.16941   2.17309   2.20395
 Alpha virt. eigenvalues --    2.21736   2.21908   2.22393   2.24778   2.28357
 Alpha virt. eigenvalues --    2.28686   2.30493   2.31190   2.32586   2.37613
 Alpha virt. eigenvalues --    2.38330   2.40186   2.40843   2.41909   2.43986
 Alpha virt. eigenvalues --    2.47217   2.49767   2.53567   2.58964   2.61615
 Alpha virt. eigenvalues --    2.63246   2.66405   2.66916   2.67499   2.70842
 Alpha virt. eigenvalues --    2.74463   2.76393   2.77309   2.78895   2.79615
 Alpha virt. eigenvalues --    2.80105   2.82389   2.87387   2.95130   2.98146
 Alpha virt. eigenvalues --    2.99451   3.12806   3.13772   3.14263   3.25414
 Alpha virt. eigenvalues --    3.26622   3.29720   3.31853   3.37988   4.18931
 Alpha virt. eigenvalues --    4.25569   4.27940   4.30511   4.35731   4.38611
 Alpha virt. eigenvalues --    4.40788   4.42837   4.45979   4.48311   4.48938
 Alpha virt. eigenvalues --    4.50174   4.58439   4.61580   4.67634   4.77363
 Alpha virt. eigenvalues --    5.47116   5.96864   6.82654
          Condensed to atoms (all electrons):
               1          2          3          4          5          6
     1  C   12.418618  -0.911998  -0.332849   0.462428  -0.915120  -1.983075
     2  C   -0.911998  24.079005  -1.284876  -5.097926  -1.543884  -9.162302
     3  C   -0.332849  -1.284876  15.013056  -2.925832  -5.540871   2.934539
     4  C    0.462428  -5.097926  -2.925832  21.912819   1.256038  -7.469364
     5  C   -0.915120  -1.543884  -5.540871   1.256038  15.139056  -2.792067
     6  C   -1.983075  -9.162302   2.934539  -7.469364  -2.792067  24.081498
     7  N   -0.036745  -0.090008  -0.220986   0.273856   0.087711   0.193784
     8  C   -0.317115  -0.056164  -1.170715  -0.307853   0.688267  -0.506721
     9  N   -0.003178   0.017278   0.022347  -0.111272  -0.052947  -0.024118
    10  O    0.007793  -0.024202  -0.224464   0.052301   0.294965  -0.110751
    11  C   -0.023181  -0.006439  -0.199100  -0.394904   0.053922  -0.048813
    12  C    0.000198  -0.001402  -0.007729   0.021028  -0.007702  -0.002085
    13  C   -0.000122  -0.000109  -0.003577  -0.008834   0.000521  -0.000503
    14  H    0.000206  -0.001356  -0.005454   0.001034   0.011235   0.000974
    15  H    0.000010  -0.000408  -0.006125  -0.007260   0.007998   0.000431
    16  H   -0.000065   0.000219   0.003863   0.005222  -0.008700  -0.000454
    17  H    0.000001  -0.000003   0.000013  -0.000236   0.000128   0.000033
    18  H   -0.000004   0.000038   0.000571  -0.000592  -0.000836  -0.000047
    19  H   -0.000000   0.000001   0.000023   0.000089  -0.000114  -0.000005
    20  H   -0.000000  -0.000000  -0.000000  -0.000021   0.000000   0.000000
    21  H    0.000000  -0.000000  -0.000011   0.000020   0.000024   0.000002
    22  H    0.154085   0.047558  -0.004330  -0.004042  -0.010074   0.116431
    23  H    0.034959   0.025541  -0.017153   0.065643  -0.014108   0.206915
    24  C   -1.214833   0.119154   0.010313  -0.868693  -0.610233   0.283031
    25  F   -0.027706   0.010510  -0.003432   0.032007   0.085783  -0.054675
    26  F    0.153211  -0.209523   0.041855   0.035127   0.000386  -0.017637
    27  F    0.155249  -0.236971   0.048277   0.036548   0.001025   0.011034
    28  Cl  -0.124203   0.044625   0.078224  -0.562429   0.096653   0.197743
    29  Cl   0.016089  -0.159940  -0.085961  -0.140432   0.045744   0.132224
               7          8          9         10         11         12
     1  C   -0.036745  -0.317115  -0.003178   0.007793  -0.023181   0.000198
     2  C   -0.090008  -0.056164   0.017278  -0.024202  -0.006439  -0.001402
     3  C   -0.220986  -1.170715   0.022347  -0.224464  -0.199100  -0.007729
     4  C    0.273856  -0.307853  -0.111272   0.052301  -0.394904   0.021028
     5  C    0.087711   0.688267  -0.052947   0.294965   0.053922  -0.007702
     6  C    0.193784  -0.506721  -0.024118  -0.110751  -0.048813  -0.002085
     7  N    7.659294   0.302488  -0.270482  -0.238637  -0.053611  -0.007838
     8  C    0.302488   6.599966   0.306973   0.526943  -0.560838   0.087673
     9  N   -0.270482   0.306973   7.659489  -0.214063   0.245535  -0.048121
    10  O   -0.238637   0.526943  -0.214063   8.913401  -0.066132   0.007769
    11  C   -0.053611  -0.560838   0.245535  -0.066132   6.839290  -0.284779
    12  C   -0.007838   0.087673  -0.048121   0.007769  -0.284779   6.081138
    13  C   -0.002525  -0.069739   0.000351  -0.003724   0.013512  -0.036635
    14  H    0.023874   0.017394   0.253563   0.010597  -0.049222  -0.006349
    15  H    0.000804  -0.036320  -0.055521   0.003817   0.430474  -0.037891
    16  H   -0.003812  -0.028640  -0.061206   0.003456   0.440345  -0.046061
    17  H    0.000283  -0.001073   0.006504  -0.000168  -0.085835   0.432507
    18  H   -0.000251  -0.008102   0.006168  -0.000215  -0.071676   0.425496
    19  H    0.000033   0.000685   0.000669  -0.000048  -0.011875  -0.059776
    20  H    0.000008  -0.001419   0.000482   0.000005   0.027306  -0.086857
    21  H    0.000025   0.001968   0.000547  -0.000050  -0.007427  -0.063425
    22  H   -0.000075   0.000817   0.000003  -0.000007   0.000006  -0.000000
    23  H   -0.000760  -0.000405  -0.000020   0.000074   0.000002  -0.000000
    24  C    0.002939  -0.111693   0.000505  -0.001576  -0.003269  -0.000013
    25  F   -0.000045   0.000051  -0.000001  -0.000006  -0.000002   0.000000
    26  F   -0.000012  -0.000358  -0.000000   0.000000  -0.000003   0.000000
    27  F   -0.000116   0.000344  -0.000001   0.000000   0.000003  -0.000000
    28  Cl   0.071628   0.031798   0.004404  -0.151418   0.016412  -0.000960
    29  Cl  -0.018092   0.016352  -0.004814  -0.000594   0.002771   0.000993
              13         14         15         16         17         18
     1  C   -0.000122   0.000206   0.000010  -0.000065   0.000001  -0.000004
     2  C   -0.000109  -0.001356  -0.000408   0.000219  -0.000003   0.000038
     3  C   -0.003577  -0.005454  -0.006125   0.003863   0.000013   0.000571
     4  C   -0.008834   0.001034  -0.007260   0.005222  -0.000236  -0.000592
     5  C    0.000521   0.011235   0.007998  -0.008700   0.000128  -0.000836
     6  C   -0.000503   0.000974   0.000431  -0.000454   0.000033  -0.000047
     7  N   -0.002525   0.023874   0.000804  -0.003812   0.000283  -0.000251
     8  C   -0.069739   0.017394  -0.036320  -0.028640  -0.001073  -0.008102
     9  N    0.000351   0.253563  -0.055521  -0.061206   0.006504   0.006168
    10  O   -0.003724   0.010597   0.003817   0.003456  -0.000168  -0.000215
    11  C    0.013512  -0.049222   0.430474   0.440345  -0.085835  -0.071676
    12  C   -0.036635  -0.006349  -0.037891  -0.046061   0.432507   0.425496
    13  C    5.667584  -0.002937   0.006215   0.002109  -0.037452  -0.035893
    14  H   -0.002937   0.277769   0.002222   0.002067   0.000559   0.000507
    15  H    0.006215   0.002222   0.514916  -0.042219   0.003806  -0.005602
    16  H    0.002109   0.002067  -0.042219   0.517177  -0.005615   0.003847
    17  H   -0.037452   0.000559   0.003806  -0.005615   0.494274  -0.030970
    18  H   -0.035893   0.000507  -0.005602   0.003847  -0.030970   0.494273
    19  H    0.414416   0.000001  -0.000321   0.002643  -0.004605   0.003809
    20  H    0.411249  -0.000003  -0.000059  -0.000054  -0.003015  -0.002986
    21  H    0.412424   0.000000   0.002656  -0.000328   0.003819  -0.004590
    22  H    0.000000   0.000000  -0.000000   0.000000  -0.000000   0.000000
    23  H   -0.000000   0.000000   0.000000  -0.000000  -0.000000   0.000000
    24  C   -0.000009   0.000002  -0.000003   0.000001  -0.000000  -0.000000
    25  F   -0.000000   0.000000  -0.000000   0.000000   0.000000  -0.000000
    26  F   -0.000000  -0.000000   0.000000  -0.000000   0.000000  -0.000000
    27  F    0.000000   0.000000  -0.000000   0.000000  -0.000000  -0.000000
    28  Cl   0.000427  -0.000620   0.000454  -0.000866   0.000078   0.000000
    29  Cl   0.000050  -0.000238   0.000085  -0.000041  -0.000005  -0.000013
              19         20         21         22         23         24
     1  C   -0.000000  -0.000000   0.000000   0.154085   0.034959  -1.214833
     2  C    0.000001  -0.000000  -0.000000   0.047558   0.025541   0.119154
     3  C    0.000023  -0.000000  -0.000011  -0.004330  -0.017153   0.010313
     4  C    0.000089  -0.000021   0.000020  -0.004042   0.065643  -0.868693
     5  C   -0.000114   0.000000   0.000024  -0.010074  -0.014108  -0.610233
     6  C   -0.000005   0.000000   0.000002   0.116431   0.206915   0.283031
     7  N    0.000033   0.000008   0.000025  -0.000075  -0.000760   0.002939
     8  C    0.000685  -0.001419   0.001968   0.000817  -0.000405  -0.111693
     9  N    0.000669   0.000482   0.000547   0.000003  -0.000020   0.000505
    10  O   -0.000048   0.000005  -0.000050  -0.000007   0.000074  -0.001576
    11  C   -0.011875   0.027306  -0.007427   0.000006   0.000002  -0.003269
    12  C   -0.059776  -0.086857  -0.063425  -0.000000  -0.000000  -0.000013
    13  C    0.414416   0.411249   0.412424   0.000000  -0.000000  -0.000009
    14  H    0.000001  -0.000003   0.000000   0.000000   0.000000   0.000002
    15  H   -0.000321  -0.000059   0.002656  -0.000000   0.000000  -0.000003
    16  H    0.002643  -0.000054  -0.000328   0.000000  -0.000000   0.000001
    17  H   -0.004605  -0.003015   0.003819  -0.000000  -0.000000  -0.000000
    18  H    0.003809  -0.002986  -0.004590   0.000000   0.000000  -0.000000
    19  H    0.488821  -0.024088  -0.028466  -0.000000  -0.000000  -0.000000
    20  H   -0.024088   0.484527  -0.024064  -0.000000  -0.000000  -0.000000
    21  H   -0.028466  -0.024064   0.488631   0.000000   0.000000   0.000000
    22  H   -0.000000  -0.000000   0.000000   0.418287  -0.000110  -0.000575
    23  H   -0.000000  -0.000000   0.000000  -0.000110   0.422809  -0.000591
    24  C   -0.000000  -0.000000   0.000000  -0.000575  -0.000591   6.658570
    25  F   -0.000000  -0.000000   0.000000   0.000245   0.007751   0.073694
    26  F   -0.000000   0.000000   0.000000   0.000633  -0.000059   0.118333
    27  F    0.000000  -0.000000   0.000000   0.000637  -0.000050   0.107598
    28  Cl   0.000015   0.000000  -0.000001   0.000389  -0.003644   0.001132
    29  Cl  -0.000000   0.000000   0.000000   0.000753   0.000114  -0.023219
              25         26         27         28         29
     1  C   -0.027706   0.153211   0.155249  -0.124203   0.016089
     2  C    0.010510  -0.209523  -0.236971   0.044625  -0.159940
     3  C   -0.003432   0.041855   0.048277   0.078224  -0.085961
     4  C    0.032007   0.035127   0.036548  -0.562429  -0.140432
     5  C    0.085783   0.000386   0.001025   0.096653   0.045744
     6  C   -0.054675  -0.017637   0.011034   0.197743   0.132224
     7  N   -0.000045  -0.000012  -0.000116   0.071628  -0.018092
     8  C    0.000051  -0.000358   0.000344   0.031798   0.016352
     9  N   -0.000001  -0.000000  -0.000001   0.004404  -0.004814
    10  O   -0.000006   0.000000   0.000000  -0.151418  -0.000594
    11  C   -0.000002  -0.000003   0.000003   0.016412   0.002771
    12  C    0.000000   0.000000  -0.000000  -0.000960   0.000993
    13  C   -0.000000  -0.000000   0.000000   0.000427   0.000050
    14  H    0.000000  -0.000000   0.000000  -0.000620  -0.000238
    15  H   -0.000000   0.000000  -0.000000   0.000454   0.000085
    16  H    0.000000  -0.000000   0.000000  -0.000866  -0.000041
    17  H    0.000000   0.000000  -0.000000   0.000078  -0.000005
    18  H   -0.000000  -0.000000  -0.000000   0.000000  -0.000013
    19  H   -0.000000  -0.000000   0.000000   0.000015  -0.000000
    20  H   -0.000000   0.000000  -0.000000   0.000000   0.000000
    21  H    0.000000   0.000000   0.000000  -0.000001   0.000000
    22  H    0.000245   0.000633   0.000637   0.000389   0.000753
    23  H    0.007751  -0.000059  -0.000050  -0.003644   0.000114
    24  C    0.073694   0.118333   0.107598   0.001132  -0.023219
    25  F    9.290206  -0.036905  -0.036551  -0.000516  -0.000007
    26  F   -0.036905   9.245106  -0.049671  -0.000326  -0.000542
    27  F   -0.036551  -0.049671   9.241624  -0.000237   0.000274
    28  Cl  -0.000516  -0.000326  -0.000237  17.075425   0.001152
    29  Cl  -0.000007  -0.000542   0.000274   0.001152  17.031461
 Mulliken charges:
               1
     1  C   -1.512654
     2  C    0.443584
     3  C   -0.119613
     4  C   -0.254472
     5  C   -0.272798
     6  C    0.013980
     7  N   -0.672730
     8  C    0.595436
     9  N   -0.679075
    10  O   -0.785064
    11  C   -0.202472
    12  C   -0.359179
    13  C   -0.726800
    14  H    0.464175
    15  H    0.217841
    16  H    0.217110
    17  H    0.226972
    18  H    0.227065
    19  H    0.218093
    20  H    0.218989
    21  H    0.218246
    22  H    0.279370
    23  H    0.273094
    24  C    1.459435
    25  F   -0.340400
    26  F   -0.279614
    27  F   -0.279015
    28  Cl   0.224661
    29  Cl   0.185835
 Sum of Mulliken charges =  -1.00000
 Mulliken charges with hydrogens summed into heavy atoms:
               1
     1  C   -1.512654
     2  C    0.722954
     3  C   -0.119613
     4  C   -0.254472
     5  C   -0.272798
     6  C    0.287074
     7  N   -0.672730
     8  C    0.595436
     9  N   -0.214901
    10  O   -0.785064
    11  C    0.232479
    12  C    0.094858
    13  C   -0.071471
    24  C    1.459435
    25  F   -0.340400
    26  F   -0.279614
    27  F   -0.279015
    28  Cl   0.224661
    29  Cl   0.185835
 Electronic spatial extent (au):  <R**2>=           9065.0109
 Charge=             -1.0000 electrons
 Dipole moment (field-independent basis, Debye):
    X=              0.4401    Y=              1.3408    Z=             -1.1444  Tot=              1.8169
 Quadrupole moment (field-independent basis, Debye-Ang):
   XX=           -137.2279   YY=           -137.0692   ZZ=           -133.8705
   XY=             -5.4294   XZ=              4.2141   YZ=              3.4245
 Traceless Quadrupole moment (field-independent basis, Debye-Ang):
   XX=             -1.1720   YY=             -1.0133   ZZ=              2.1853
   XY=             -5.4294   XZ=              4.2141   YZ=              3.4245
 Octapole moment (field-independent basis, Debye-Ang**2):
  XXX=            -96.1937  YYY=            -11.0481  ZZZ=              5.5634  XYY=             33.7853
  XXY=             32.8253  XXZ=            -20.7758  XZZ=             22.0144  YZZ=             -0.2228
  YYZ=              0.4719  XYZ=             -4.9249
 Hexadecapole moment (field-independent basis, Debye-Ang**3):
 XXXX=          -9525.0406 YYYY=          -1776.2617 ZZZZ=           -341.1170 XXXY=            -98.8018
 XXXZ=             89.5050 YYYX=            -34.0797 YYYZ=              8.3677 ZZZX=             19.7289
 ZZZY=              3.0625 XXYY=          -1861.4200 XXZZ=          -1676.3094 YYZZ=           -364.5124
 XXYZ=             19.2033 YYXZ=             28.0460 ZZXY=            -23.8943
 N-N= 1.672264011602D+03 E-N=-7.683877152850D+03  KE= 1.819085280566D+03
 D1PCM: PCM CHGder 1st derivatives, ID1Alg=3 FixD1E=F DoIter=F DoCFld=F I1PDM=0.
 Calling FoFJK, ICntrl=      2127 FMM=F ISym2X=0 I1Cent= 0 IOpClX= 0 NMat=1 NMatS=1 NMatT=0.
 ***** Axes restored to original set *****
 -------------------------------------------------------------------
 Center     Atomic                   Forces (Hartrees/Bohr)
 Number     Number              X              Y              Z
 -------------------------------------------------------------------
      1        6           0.010918737    0.003443187   -0.001124199
      2        6           0.002361082   -0.006540236    0.001830103
      3        6          -0.014392388    0.012030358   -0.006491536
      4        6           0.078654486   -0.018721134    0.025861984
      5        6          -0.020911734    0.003137803   -0.003997797
      6        6           0.000327108   -0.001711850    0.001051321
      7        7          -0.028071091   -0.015756455   -0.013025445
      8        6          -0.045316692   -0.014675159   -0.022773153
      9        7          -0.002543480   -0.030631353   -0.007552879
     10        8           0.020895876    0.056534867    0.029512452
     11        6           0.002567604    0.001958945    0.001295474
     12        6          -0.003972216   -0.003206847   -0.002261140
     13        6           0.004870804    0.000303908    0.002276146
     14        1           0.001895339    0.016709531    0.002416516
     15        1           0.004236187   -0.001932103   -0.008842105
     16        1          -0.003544379   -0.003942485    0.008576126
     17        1          -0.004637281    0.002783155    0.008348909
     18        1           0.002912493    0.004780811   -0.008206726
     19        1          -0.003352231   -0.005739285    0.007799447
     20        1          -0.004454027    0.009789888   -0.000829185
     21        1           0.004110301   -0.003765274   -0.008577245
     22        1          -0.001917563   -0.001485517    0.000747614
     23        1          -0.000199107    0.001840524   -0.000791470
     24        6           0.012266911   -0.001719386    0.001701020
     25        9          -0.016389814   -0.031981385    0.015337042
     26        9           0.003816617    0.027185598    0.021082454
     27        9           0.006844535   -0.000841561   -0.033813297
     28       17          -0.010876001   -0.008083183   -0.004888425
     29       17           0.003899928    0.010234635   -0.004662005
 -------------------------------------------------------------------
 Cartesian Forces:  Max     0.078654486 RMS     0.016353866

 GradGradGradGradGradGradGradGradGradGradGradGradGradGradGradGradGradGrad
 Berny optimization.
 FormGI is forming the generalized inverse of G from B-inverse, IUseBI=4.
 GSVD:  received Info=                   1 from GESDD.
 Internal  Forces:  Max     0.062582415 RMS     0.012251110
 Search for a local minimum.
 Step number   1 out of a maximum of  150
 All quantities printed in internal units (Hartrees-Bohrs-Radians)
 Mixed Optimization -- RFO/linear search
 Second derivative matrix not updated -- first step.
 ITU=  0
     Eigenvalues ---    0.00329   0.00424   0.00648   0.00997   0.01190
     Eigenvalues ---    0.01472   0.01499   0.01705   0.01845   0.01907
     Eigenvalues ---    0.01997   0.02046   0.02076   0.02107   0.02128
     Eigenvalues ---    0.02133   0.02177   0.02184   0.03755   0.04438
     Eigenvalues ---    0.04933   0.05553   0.05673   0.05783   0.08034
     Eigenvalues ---    0.09179   0.11011   0.11435   0.11976   0.12668
     Eigenvalues ---    0.15998   0.16000   0.16000   0.16000   0.16000
     Eigenvalues ---    0.16000   0.21964   0.22000   0.22003   0.23458
     Eigenvalues ---    0.23486   0.24928   0.24983   0.24987   0.24992
     Eigenvalues ---    0.24996   0.24998   0.25000   0.25000   0.25000
     Eigenvalues ---    0.25000   0.25000   0.29148   0.29211   0.29314
     Eigenvalues ---    0.29807   0.31459   0.32336   0.32339   0.32405
     Eigenvalues ---    0.32406   0.32504   0.32507   0.32559   0.35546
     Eigenvalues ---    0.35653   0.37913   0.39669   0.39868   0.40878
     Eigenvalues ---    0.42437   0.43547   0.44647   0.45660   0.45983
     Eigenvalues ---    0.48316   0.48532   0.48545   0.51620   0.52392
     Eigenvalues ---    0.94695
 RFO step:  Lambda=-6.45434079D-02 EMin= 3.29355040D-03
 Linear search not attempted -- first point.
 Maximum step size (   0.300) exceeded in Quadratic search.
    -- Step size scaled by   0.881
 Iteration  1 RMS(Cart)=  0.20199698 RMS(Int)=  0.01670329
 Iteration  2 RMS(Cart)=  0.04790821 RMS(Int)=  0.00095315
 Iteration  3 RMS(Cart)=  0.00160874 RMS(Int)=  0.00043286
 Iteration  4 RMS(Cart)=  0.00000218 RMS(Int)=  0.00043286
 Iteration  5 RMS(Cart)=  0.00000000 RMS(Int)=  0.00043286
 Variable       Old X    -DE/DX   Delta X   Delta X   Delta X     New X
                                 (Linear)    (Quad)   (Total)
    R1        2.64034  -0.00630   0.00000  -0.01110  -0.01122   2.62912
    R2        2.64715  -0.01128   0.00000  -0.01958  -0.01967   2.62748
    R3        2.85145  -0.01010   0.00000  -0.02349  -0.02349   2.82796
    R4        2.63978  -0.01346   0.00000  -0.02266  -0.02270   2.61708
    R5        2.04798   0.00246   0.00000   0.00516   0.00516   2.05314
    R6        2.67602  -0.00029   0.00000  -0.00006   0.00001   2.67603
    R7        3.33052  -0.01162   0.00000  -0.02863  -0.02863   3.30188
    R8        2.69702   0.00037   0.00000   0.00125   0.00139   2.69841
    R9        2.71733  -0.05393   0.00000  -0.10262  -0.10262   2.61471
   R10        2.64793  -0.00904   0.00000  -0.01526  -0.01522   2.63271
   R11        3.33264  -0.01161   0.00000  -0.02869  -0.02869   3.30395
   R12        2.04628   0.00197   0.00000   0.00413   0.00413   2.05041
   R13        2.58265  -0.01066   0.00000  -0.01618  -0.01618   2.56647
   R14        2.57526   0.00505   0.00000   0.00757   0.00757   2.58283
   R15        2.30842   0.06258   0.00000   0.05454   0.05454   2.36295
   R16        2.74493  -0.00086   0.00000  -0.00171  -0.00171   2.74322
   R17        1.95071  -0.01699   0.00000  -0.03063  -0.03063   1.92008
   R18        2.89696  -0.00688   0.00000  -0.01702  -0.01702   2.87994
   R19        2.10229  -0.00941   0.00000  -0.02137  -0.02137   2.08092
   R20        2.10234  -0.00944   0.00000  -0.02145  -0.02145   2.08089
   R21        2.88349   0.00149   0.00000   0.00361   0.00361   2.88710
   R22        2.10110  -0.00948   0.00000  -0.02150  -0.02150   2.07960
   R23        2.10108  -0.00949   0.00000  -0.02152  -0.02152   2.07956
   R24        2.09931  -0.01000   0.00000  -0.02262  -0.02262   2.07669
   R25        2.09832  -0.01042   0.00000  -0.02355  -0.02355   2.07477
   R26        2.09926  -0.00997   0.00000  -0.02256  -0.02256   2.07670
   R27        2.61604  -0.03788   0.00000  -0.06096  -0.06096   2.55507
   R28        2.61376  -0.03132   0.00000  -0.05020  -0.05020   2.56356
   R29        2.61363  -0.03116   0.00000  -0.04994  -0.04994   2.56369
    A1        2.07579   0.00392   0.00000   0.00989   0.00971   2.08550
    A2        2.08204  -0.00248   0.00000  -0.00645  -0.00638   2.07566
    A3        2.12528  -0.00145   0.00000  -0.00355  -0.00349   2.12179
    A4        2.11050  -0.00601   0.00000  -0.01918  -0.01928   2.09122
    A5        2.08930   0.00366   0.00000   0.01216   0.01221   2.10152
    A6        2.08338   0.00235   0.00000   0.00702   0.00707   2.09045
    A7        2.11024   0.01301   0.00000   0.03753   0.03758   2.14782
    A8        2.04637  -0.00224   0.00000  -0.00690  -0.00697   2.03940
    A9        2.12633  -0.01079   0.00000  -0.03085  -0.03090   2.09542
   A10        2.05823  -0.01695   0.00000  -0.04556  -0.04541   2.01283
   A11        2.06048  -0.01125   0.00000  -0.03293  -0.03318   2.02730
   A12        2.16392   0.02809   0.00000   0.07737   0.07692   2.24084
   A13        2.09553   0.00892   0.00000   0.02573   0.02549   2.12102
   A14        2.17755  -0.00181   0.00000  -0.00680  -0.00736   2.17019
   A15        2.00782  -0.00746   0.00000  -0.02264  -0.02331   1.98451
   A16        2.11556  -0.00297   0.00000  -0.00921  -0.00923   2.10634
   A17        2.09441   0.00109   0.00000   0.00299   0.00294   2.09736
   A18        2.07311   0.00187   0.00000   0.00605   0.00601   2.07912
   A19        2.21034  -0.01052   0.00000  -0.02948  -0.02948   2.18087
   A20        2.08775  -0.03914   0.00000  -0.11025  -0.11074   1.97701
   A21        2.10971   0.04424   0.00000   0.12344   0.12280   2.23251
   A22        2.08459  -0.00536   0.00000  -0.01563  -0.01601   2.06859
   A23        2.12647   0.00065   0.00000   0.00200   0.00200   2.12847
   A24        2.07805  -0.00036   0.00000  -0.00115  -0.00115   2.07690
   A25        2.07866  -0.00028   0.00000  -0.00085  -0.00085   2.07782
   A26        1.93725  -0.00333   0.00000  -0.00838  -0.00836   1.92889
   A27        1.90658   0.00187   0.00000   0.00828   0.00828   1.91486
   A28        1.90577   0.00209   0.00000   0.00963   0.00963   1.91540
   A29        1.90602   0.00092   0.00000   0.00215   0.00216   1.90818
   A30        1.90551   0.00084   0.00000   0.00204   0.00206   1.90757
   A31        1.90239  -0.00241   0.00000  -0.01393  -0.01394   1.88845
   A32        1.94148  -0.00081   0.00000  -0.00080  -0.00080   1.94069
   A33        1.91050  -0.00041   0.00000  -0.00326  -0.00327   1.90723
   A34        1.91073  -0.00040   0.00000  -0.00328  -0.00330   1.90743
   A35        1.90084   0.00158   0.00000   0.00885   0.00885   1.90969
   A36        1.90133   0.00152   0.00000   0.00849   0.00849   1.90981
   A37        1.89843  -0.00148   0.00000  -0.01015  -0.01020   1.88822
   A38        1.92572   0.00200   0.00000   0.00750   0.00746   1.93318
   A39        1.91257   0.00336   0.00000   0.01388   0.01381   1.92638
   A40        1.92586   0.00201   0.00000   0.00755   0.00751   1.93337
   A41        1.89663  -0.00246   0.00000  -0.00897  -0.00903   1.88760
   A42        1.90574  -0.00259   0.00000  -0.01147  -0.01148   1.89426
   A43        1.89683  -0.00248   0.00000  -0.00908  -0.00914   1.88768
   A44        1.95244   0.00971   0.00000   0.02802   0.02718   1.97963
   A45        1.91024   0.01970   0.00000   0.05474   0.05364   1.96388
   A46        1.90988   0.01993   0.00000   0.05550   0.05438   1.96426
   A47        1.89399  -0.01509   0.00000  -0.04158  -0.04231   1.85168
   A48        1.89384  -0.01510   0.00000  -0.04143  -0.04219   1.85165
   A49        1.90279  -0.02059   0.00000  -0.05936  -0.06062   1.84217
    D1        0.00876   0.00097   0.00000   0.00974   0.00998   0.01874
    D2       -3.13208   0.00086   0.00000   0.00899   0.00905  -3.12303
    D3        3.13745   0.00006   0.00000  -0.00015  -0.00001   3.13744
    D4       -0.00339  -0.00005   0.00000  -0.00090  -0.00095  -0.00433
    D5       -0.01361  -0.00100   0.00000  -0.01102  -0.01097  -0.02458
    D6        3.11228  -0.00238   0.00000  -0.02459  -0.02484   3.08744
    D7        3.14122  -0.00006   0.00000  -0.00085  -0.00068   3.14054
    D8       -0.01608  -0.00144   0.00000  -0.01442  -0.01455  -0.03062
    D9       -3.13636   0.00051   0.00000   0.00554   0.00556  -3.13080
   D10       -1.03660   0.00104   0.00000   0.00813   0.00794  -1.02866
   D11        1.04750  -0.00014   0.00000   0.00228   0.00250   1.05000
   D12       -0.00805  -0.00038   0.00000  -0.00455  -0.00455  -0.01260
   D13        2.09171   0.00015   0.00000  -0.00195  -0.00217   2.08953
   D14       -2.10737  -0.00104   0.00000  -0.00780  -0.00761  -2.11498
   D15        0.01546   0.00096   0.00000   0.00974   0.00977   0.02523
   D16        3.13374  -0.00025   0.00000  -0.00175  -0.00212   3.13163
   D17       -3.12688   0.00108   0.00000   0.01049   0.01069  -3.11619
   D18       -0.00860  -0.00014   0.00000  -0.00100  -0.00119  -0.00979
   D19       -0.03390  -0.00227   0.00000  -0.02583  -0.02540  -0.05931
   D20       -3.14118   0.00034   0.00000   0.00720   0.00574  -3.13544
   D21        3.13208  -0.00114   0.00000  -0.01419  -0.01351   3.11857
   D22        0.02480   0.00147   0.00000   0.01884   0.01763   0.04243
   D23        0.02889   0.00211   0.00000   0.02403   0.02370   0.05259
   D24       -3.03643   0.00818   0.00000   0.08678   0.08681  -2.94962
   D25        3.13397  -0.00158   0.00000  -0.01367  -0.01476   3.11920
   D26        0.06864   0.00449   0.00000   0.04907   0.04834   0.11699
   D27       -2.50567   0.01986   0.00000   0.23194   0.23146  -2.27421
   D28        0.67248   0.02366   0.00000   0.26993   0.27041   0.94289
   D29       -0.00556  -0.00079   0.00000  -0.00674  -0.00724  -0.01281
   D30       -3.13164   0.00057   0.00000   0.00669   0.00651  -3.12514
   D31        3.06688  -0.00614   0.00000  -0.06320  -0.06371   3.00317
   D32       -0.05920  -0.00477   0.00000  -0.04976  -0.04996  -0.10915
   D33       -3.13691   0.01224   0.00000   0.12954   0.12775  -3.00917
   D34        0.05594   0.01846   0.00000   0.18561   0.18740   0.24334
   D35       -3.11876   0.00260   0.00000   0.02845   0.02742  -3.09134
   D36        0.02672   0.00268   0.00000   0.02925   0.02823   0.05496
   D37       -0.02769  -0.00203   0.00000  -0.02263  -0.02161  -0.04930
   D38        3.11780  -0.00196   0.00000  -0.02182  -0.02080   3.09700
   D39       -3.13777   0.00005   0.00000   0.00055   0.00055  -3.13722
   D40        1.04273  -0.00021   0.00000  -0.00222  -0.00220   1.04052
   D41       -1.03625   0.00037   0.00000   0.00407   0.00405  -1.03220
   D42       -0.00007  -0.00002   0.00000  -0.00026  -0.00026  -0.00033
   D43       -2.10276  -0.00029   0.00000  -0.00303  -0.00301  -2.10577
   D44        2.10145   0.00030   0.00000   0.00326   0.00324   2.10469
   D45        3.13998   0.00011   0.00000   0.00090   0.00090   3.14088
   D46        1.03850  -0.00107   0.00000  -0.00750  -0.00748   1.03101
   D47       -1.04096   0.00123   0.00000   0.00882   0.00881  -1.03215
   D48       -1.04019   0.00094   0.00000   0.00730   0.00730  -1.03289
   D49        3.14151  -0.00024   0.00000  -0.00109  -0.00108   3.14043
   D50        1.06206   0.00206   0.00000   0.01522   0.01521   1.07726
   D51        1.03830  -0.00094   0.00000  -0.00712  -0.00712   1.03119
   D52       -1.06319  -0.00212   0.00000  -0.01551  -0.01550  -1.07868
   D53        3.14054   0.00018   0.00000   0.00081   0.00080   3.14134
   D54       -1.05353   0.00031   0.00000   0.00218   0.00219  -1.05133
   D55       -3.14120  -0.00001   0.00000  -0.00013  -0.00013  -3.14134
   D56        1.05397  -0.00032   0.00000  -0.00235  -0.00236   1.05161
   D57        1.05365   0.00032   0.00000   0.00343   0.00344   1.05709
   D58       -1.03403  -0.00000   0.00000   0.00112   0.00111  -1.03292
   D59       -3.12204  -0.00031   0.00000  -0.00110  -0.00112  -3.12315
   D60        3.12188   0.00032   0.00000   0.00120   0.00122   3.12310
   D61        1.03420  -0.00000   0.00000  -0.00111  -0.00111   1.03309
   D62       -1.05381  -0.00031   0.00000  -0.00333  -0.00334  -1.05714
         Item               Value     Threshold  Converged?
 Maximum Force            0.062582     0.000450     NO 
 RMS     Force            0.012251     0.000300     NO 
 Maximum Displacement     0.878034     0.001800     NO 
 RMS     Displacement     0.237718     0.001200     NO 
 Predicted change in Energy=-4.115148D-02
 GradGradGradGradGradGradGradGradGradGradGradGradGradGradGradGradGradGrad

                          Input orientation:                          
 ---------------------------------------------------------------------
 Center     Atomic      Atomic             Coordinates (Angstroms)
 Number     Number       Type             X           Y           Z
 ---------------------------------------------------------------------
      1          6           0       -4.161349    3.485962   -1.110869
      2          6           0       -4.179743    2.321479   -0.349769
      3          6           0       -2.987425    1.735904    0.041923
      4          6           0       -1.719012    2.282691   -0.270289
      5          6           0       -1.742770    3.451959   -1.089589
      6          6           0       -2.942242    4.037186   -1.489217
      7          7           0       -0.620843    1.575439    0.186102
      8          6           0        0.420690    2.113094    0.872120
      9          7           0        1.451503    1.236241    1.063496
     10          8           0        0.483290    3.236429    1.417786
     11          6           0        2.633231    1.594566    1.826649
     12          6           0        3.614782    0.429549    1.869780
     13          6           0        4.865753    0.790609    2.669055
     14          1           0        1.390229    0.307503    0.655969
     15          1           0        2.343881    1.865646    2.853963
     16          1           0        3.123334    2.466420    1.365972
     17          1           0        3.902409    0.158619    0.842688
     18          1           0        3.124951   -0.441590    2.330419
     19          1           0        5.383346    1.647844    2.216383
     20          1           0        5.563054   -0.057160    2.691262
     21          1           0        4.605543    1.047219    3.705451
     22          1           0       -5.123936    1.868453   -0.060465
     23          1           0       -2.915010    4.916275   -2.124635
     24          6           0       -5.461386    4.098848   -1.527721
     25          9           0       -5.313861    5.217242   -2.273087
     26          9           0       -6.221796    3.252317   -2.266272
     27          9           0       -6.233251    4.451488   -0.469254
     28         17           0       -0.331262    4.158086   -1.841818
     29         17           0       -3.101041    0.284653    1.008338
 ---------------------------------------------------------------------
                    Distance matrix (angstroms):
                    1          2          3          4          5
     1  C    0.000000
     2  C    1.391270   0.000000
     3  C    2.402027   1.384899   0.000000
     4  C    2.849465   2.462320   1.416095   0.000000
     5  C    2.418912   2.786423   2.402983   1.427937   0.000000
     6  C    1.390402   2.402790   2.764476   2.461774   1.393171
     7  N    4.226987   3.675527   2.376393   1.383645   2.531291
     8  C    5.178040   4.764496   3.527994   2.431498   3.212696
     9  N    6.425981   5.906437   4.582287   3.595303   4.443935
    10  O    5.294246   5.070036   4.023734   2.934169   3.359869
    11  C    7.640204   7.189007   5.898898   4.879824   5.577072
    12  C    8.870972   8.322284   6.974005   6.038492   6.826140
    13  C   10.150928   9.658047   8.334735   7.363775   8.054984
    14  H    6.636591   6.007678   4.645561   3.798249   4.769723
    15  H    7.788668   7.282126   6.028866   5.142176   5.896499
    16  H    7.761496   7.503313   6.295088   5.114628   5.538956
    17  H    8.939340   8.451100   7.113287   6.111527   6.815264
    18  H    8.964280   8.256907   6.880395   6.135908   7.109914
    19  H   10.273777   9.924293   8.649036   7.551824   8.060137
    20  H   11.026057  10.479880   9.129335   8.202083   8.943367
    21  H   10.295767   9.759600   8.458657   7.571848   8.311212
    22  H    2.155518   1.086476   2.143067   3.436442   3.872838
    23  H    2.151018   3.388608   3.848893   3.435808   2.142356
    24  C    1.496492   2.487814   3.764010   4.345679   3.799807
    25  F    2.382512   3.656613   4.784485   5.054279   4.155669
    26  F    2.373813   2.951173   4.253050   5.019880   4.635312
    27  F    2.374170   2.961099   4.262756   5.012147   4.642014
    28  Cl   3.956716   4.517758   4.058404   2.812945   1.748376
    29  Cl   3.982923   2.675203   1.747282   2.745369   4.034603
                    6          7          8          9         10
     6  C    0.000000
     7  N    3.775683   0.000000
     8  C    4.537328   1.358118   0.000000
     9  N    5.802295   2.275850   1.366775   0.000000
    10  O    4.563567   2.344151   1.250420   2.250269   0.000000
    11  C    6.931613   3.644278   2.464820   1.451648   2.735897
    12  C    8.203198   4.699825   3.745914   2.445530   4.229553
    13  C    9.423178   6.073200   4.973584   3.799146   5.172398
    14  H    6.105953   2.423396   2.060798   1.016064   3.159353
    15  H    7.177875   3.998911   2.772652   2.097204   2.720928
    16  H    6.885537   4.025519   2.770021   2.097582   2.750533
    17  H    8.205504   4.785216   3.992895   2.686440   4.636165
    18  H    8.453395   4.764187   3.995758   2.687125   4.619427
    19  H    9.421031   6.338578   5.162505   4.118003   5.212668
    20  H   10.323765   6.868900   5.870536   4.607316   6.186556
    21  H    9.638129   6.322969   5.164964   4.118692   5.197983
    22  H    3.391832   4.519347   5.627828   6.700701   5.957984
    23  H    1.085032   4.665179   5.288219   6.540127   5.188359
    24  C    2.520193   5.721507   6.655920   7.918141   6.690213
    25  F    2.762528   6.429211   7.239692   8.529438   7.152141
    26  F    3.460536   6.340089   7.434376   8.604153   7.650537
    27  F    3.470261   6.340368   7.179296   8.470099   7.081610
    28  Cl   2.637453   3.296420   3.480357   4.489575   3.483958
    29  Cl   4.510488   2.914375   3.970434   4.651261   4.661337
                   11         12         13         14         15
    11  C    0.000000
    12  C    1.523997   0.000000
    13  C    2.517965   1.527788   0.000000
    14  H    2.138242   2.537098   4.045390   0.000000
    15  H    1.101173   2.155500   2.747679   2.858049   0.000000
    16  H    1.101160   2.155038   2.746342   2.858090   1.783983
    17  H    2.154283   1.100477   2.159412   2.523505   3.064014
    18  H    2.154416   1.100456   2.159486   2.524715   2.491488
    19  H    2.778104   2.175361   1.098939   4.491813   3.113245
    20  H    3.472696   2.169674   1.097922   4.657023   3.753229
    21  H    2.778398   2.175503   1.098943   4.492746   2.551464
    22  H    7.988108   9.064297  10.411817   6.736779   8.016371
    23  H    7.578217   8.872668  10.027007   6.892577   7.858035
    24  C    9.112961  10.362605  11.627862   8.129417   9.225429
    25  F    9.648207  10.945593  12.150901   8.810773   9.806164
    26  F    9.895032  11.037808  12.383506   8.669161  10.075241
    27  F    9.594148  10.891777  12.101195   8.749639   9.554974
    28  Cl   5.368194   6.576414   7.661387   4.901985   5.870437
    29  Cl   5.938635   6.772397   8.153759   4.505130   5.962638
                   16         17         18         19         20
    16  H    0.000000
    17  H    2.491330   0.000000
    18  H    3.063770   1.782704   0.000000
    19  H    2.549690   2.509582   3.078812   0.000000
    20  H    3.751944   2.494299   2.494462   1.779001   0.000000
    21  H    3.111951   3.078867   2.509864   1.784111   1.779062
    22  H    8.391053   9.231150   8.893637  10.753403  11.202310
    23  H    7.392410   8.827089   9.221462   9.919162  10.945569
    24  C    9.205200  10.431917  10.451125  11.731749  12.514411
    25  F    9.591457  10.965279  11.154739  12.137799  13.067952
    26  F   10.056952  11.033409  11.051525  12.543837  13.206531
    27  F    9.739314  11.085193  10.925032  12.248199  13.018048
[...]
 .00000157,0.00000012,0.00000012,0.00000027,0.00012838,0.00007610,0.000
 27041,0.01718081,0.22141074,-0.00015225,0.00723475,-0.00186570,0.00213
 975,0.00235838,0.00328197,-0.00008431,-0.00073810,-0.00008433,-0.00007
 978,0.00210278,0.00427552,0.00170695,0.00661855,-0.00200779,0.01940642
 ,0.15639774,-0.17399522,-0.00072028,-0.00007159,-0.00058454,0.00052585
 ,0.00048017,0.00024973,-0.00019855,0.00001976,-0.00000434,-0.00008254,
 -0.00029751,-0.00011033,0.00003225,0.00002556,0.00000726,0.00000104,-0
 .00000911,-0.00000905,-0.00000296,0.00000440,0.00000208,0.00000690,-0.
 00001114,-0.00002284,-0.00001231,0.00000068,-0.00001461,-0.00000440,-0
 .00000336,-0.00000378,-0.00000014,0.00000021,0.00000147,0.00000010,0.0
 0000077,0.00000045,-0.00000046,-0.00000069,-0.00000007,-0.00000205,-0.
 00000014,-0.00000167,-0.00000021,0.00000010,-0.00000055,-0.00007336,0.
 00044916,0.00007424,-0.02061286,-0.17092971,0.17471081,-0.18315994,0.0
 5305707,-0.02440420,0.00400775,0.01085071,-0.01045469,0.01329431,0.000
 52787,0.00047051,-0.01403973,0.00649377,-0.00118616,-0.00080576,-0.008
 94715,0.00752720,-0.03061629,0.01259666,-0.00520379,0.01731309,-0.0066
 5825,0.00179809,-0.01043198,-0.00519041,-0.00237863,0.00372502,-0.0002
 7465,0.00021274,0.00195835,0.00442503,0.00205001,-0.00063356,-0.000570
 41,-0.00038126,0.00001328,0.00018489,0.00021745,0.00006777,-0.00010188
 ,-0.00004141,-0.00026595,0.00022124,0.00016552,0.00016477,0.00002468,0
 .00031614,0.00007289,0.00004448,0.00008447,0.00000548,-0.00000422,-0.0
 0002262,0.00000104,-0.00002465,-0.00000629,0.00000234,0.00001076,0.000
 00257,0.00005091,0.00000190,0.00003909,0.00000268,0.00000172,0.0000085
 6,-0.00082202,-0.00135649,0.00050980,0.00002378,0.00007180,-0.00050234
 ,0.56878854,0.05732997,-0.11246093,0.03061581,0.02182822,-0.01695798,0
 .00794700,-0.00512316,-0.00097050,0.00533727,0.00524032,-0.00558988,0.
 00219221,-0.00306115,0.00698659,0.00030270,0.00265683,0.00881130,-0.00
 658210,-0.00882571,0.00337167,-0.00139018,0.00533808,0.00267672,0.0012
 3579,-0.00193109,0.00014239,-0.00012077,-0.00105518,-0.00227252,-0.001
 11116,0.00032876,0.00030390,0.00021002,-0.00000984,-0.00009268,-0.0001
 1329,-0.00003393,0.00005295,0.00002137,0.00013627,-0.00011086,-0.00008
 784,-0.00008371,-0.00001309,-0.00016637,-0.00004361,-0.00002596,-0.000
 04432,-0.00000174,0.00000303,0.00001140,-0.00000023,0.00000909,0.00000
 348,-0.00000360,-0.00000622,-0.00000183,-0.00002603,-0.00000170,-0.000
 02054,-0.00000101,-0.00000033,-0.00000460,-0.00028500,-0.00132139,-0.0
 0119381,-0.00171643,-0.00256920,-0.00085067,-0.04199486,0.52793224,-0.
 02964127,0.03270924,-0.08604444,-0.01870363,0.00983781,-0.00718845,0.0
 0209403,0.00571700,0.00107855,-0.00203131,0.00292137,-0.00240114,0.003
 70063,0.00075778,0.00464564,0.00241984,-0.00841621,0.00747559,0.004241
 21,-0.00192908,0.00030474,-0.00266528,-0.00115393,-0.00055561,0.000944
 76,-0.00007847,0.00004520,0.00058415,0.00103037,0.00050452,-0.00016474
 ,-0.00014629,-0.00008674,0.00000006,0.00004898,0.00005619,0.00001886,-
 0.00002686,-0.00001064,-0.00007123,0.00005274,0.00004384,0.00004473,0.
 00000689,0.00007581,0.00001479,0.00000997,0.00002163,0.00000358,-0.000
 00092,-0.00000761,0.00000055,-0.00000817,-0.00000105,-0.00000103,0.000
 00316,0.00000055,0.00001361,-0.00000047,0.00001002,0.00000129,0.000000
 77,0.00000080,-0.00040032,-0.00126573,-0.00219434,0.00099685,-0.001042
 90,-0.00301108,0.02157343,-0.04667358,0.50223939,0.00810521,0.02076115
 ,-0.01879479,-0.00454089,0.00055640,0.00033547,-0.00048132,0.00041685,
 -0.00035810,0.00114361,-0.00033279,-0.00005752,0.00119778,0.00091650,-
 0.00091362,-0.00249626,0.00080359,-0.00036231,-0.00161772,0.00054526,-
 0.00031751,0.00106016,0.00056764,0.00037153,-0.00042544,0.00003405,-0.
 00002520,-0.00019674,-0.00044563,-0.00025803,0.00006763,0.00006495,0.0
 0004866,-0.00000192,-0.00002106,-0.00002469,-0.00000722,0.00001161,0.0
 0000450,0.00002659,-0.00002596,-0.00002452,-0.00001683,-0.00000234,-0.
 00003503,-0.00000877,-0.00000507,-0.00000991,-0.00000065,0.00000050,0.
 00000240,-0.00000003,0.00000287,0.00000068,-0.00000022,-0.00000124,-0.
 00000026,-0.00000587,-0.00000017,-0.00000445,-0.00000024,-0.00000022,-
 0.00000103,0.00019148,0.00000517,-0.00003423,-0.00124829,0.00201633,-0
 .00172226,-0.07677692,-0.00952270,0.01070791,0.09361293,-0.00374431,-0
 .02303476,0.02947111,0.00676325,0.00105189,0.00023846,0.00073124,-0.00
 051497,0.00009238,-0.00236205,0.00141890,-0.00034353,-0.00004709,-0.00
 128359,0.00090415,-0.00324468,-0.00065699,0.00042805,0.00318208,-0.001
 11569,0.00036233,-0.00193430,-0.00098506,-0.00054612,0.00072333,-0.000
 05230,0.00005515,0.00038097,0.00083622,0.00042224,-0.00012055,-0.00011
 490,-0.00007512,0.00000258,0.00003569,0.00004316,0.00001321,-0.0000200
 4,-0.00000813,-0.00005082,0.00004204,0.00003394,0.00003154,0.00000460,
 0.00006062,0.00001467,0.00000971,0.00001625,0.00000133,-0.00000114,-0.
 00000475,0.00000044,-0.00000412,-0.00000128,0.00000077,0.00000255,0.00
 000055,0.00000982,0.00000037,0.00000767,0.00000056,0.00000015,0.000001
 47,-0.00014108,0.00029363,-0.00016140,0.00085424,0.00032403,-0.0001784
 1,0.00114104,-0.17873699,0.10314588,0.04326702,0.24227970,0.00386014,0
 .02419683,-0.01443909,-0.00518914,0.00086429,0.00159431,-0.00027737,-0
 .00001272,-0.00048222,0.00176729,-0.00113950,0.00049241,-0.00014951,0.
 00103102,-0.00057968,0.00333430,-0.00000074,-0.00081947,-0.00245643,0.
 00077023,-0.00029682,0.00146793,0.00076086,0.00038114,-0.00055689,0.00
 004565,-0.00003223,-0.00029370,-0.00062360,-0.00030805,0.00009303,0.00
 008744,0.00005518,-0.00000194,-0.00002708,-0.00003239,-0.00000998,0.00
 001549,0.00000599,0.00003706,-0.00003146,-0.00002897,-0.00002420,-0.00
 000357,-0.00004503,-0.00001126,-0.00000692,-0.00001265,-0.00000131,0.0
 0000075,0.00000397,-0.00000008,0.00000314,0.00000072,-0.00000047,-0.00
 000180,-0.00000064,-0.00000772,-0.00000019,-0.00000590,-0.00000035,-0.
 00000037,-0.00000068,0.00011074,-0.00016639,0.00024042,-0.00072047,-0.
 00046075,0.00048058,0.00045355,0.10535465,-0.16390393,-0.04315253,-0.1
 6090596,0.23515522,-0.03976598,-0.02402125,-0.02084338,0.00029342,-0.0
 0299145,0.00303093,-0.00334156,-0.00037847,0.00133775,0.00419935,-0.00
 348405,0.00115911,-0.00116236,0.00434575,-0.00066130,0.00189853,0.0020
 5401,-0.00566079,-0.00623834,0.00249469,-0.00086950,0.00382558,0.00185
 972,0.00089006,-0.00139327,0.00011328,-0.00007785,-0.00074068,-0.00158
 401,-0.00077248,0.00023812,0.00021441,0.00013926,-0.00000472,-0.000068
 55,-0.00008064,-0.00002644,0.00003802,0.00001603,0.00009864,-0.0000810
 5,-0.00006547,-0.00006198,-0.00000997,-0.00011784,-0.00002693,-0.00001
 684,-0.00003143,-0.00000200,0.00000166,0.00000868,-0.00000052,0.000009
 59,0.00000207,-0.00000072,-0.00000397,-0.00000102,-0.00001917,-0.00000
 061,-0.00001457,-0.00000106,-0.00000075,-0.00000322,0.00020191,-0.0001
 6082,-0.00082868,0.00027284,-0.00070674,-0.00062601,-0.17532090,-0.066
 96125,-0.05869912,-0.01468309,-0.04047110,0.01034122,0.21650332,0.0007
 1143,0.00756411,-0.00040413,0.00053505,-0.00089065,0.00161469,-0.00093
 764,0.00056726,-0.00003614,0.00078967,0.00011068,-0.00028521,0.0002905
 7,-0.00026159,-0.00005472,-0.00029388,0.00033227,0.00014346,-0.0004847
 6,0.00019975,-0.00005251,0.00028784,0.00011739,0.00003681,-0.00009813,
 0.00001040,0.00000142,-0.00004371,-0.00010399,-0.00004862,0.00001492,0
 .00001216,0.00001224,-0.00000007,-0.00000564,-0.00000562,-0.00000199,0
 .00000285,0.00000070,0.00000630,-0.00000694,-0.00000624,-0.00000424,-0
 .00000078,-0.00000740,-0.00000167,-0.00000039,-0.00000234,-0.00000054,
 -0.00000015,0.00000065,0.00000016,0.00000133,0.00000001,0.00000036,0.0
 0000016,-0.00000011,-0.00000153,0.00000005,-0.00000102,-0.00000005,-0.
 00000030,0.00000003,0.00041863,-0.00009401,-0.00027515,0.00028571,0.00
 011488,-0.00008120,-0.07267441,-0.11843855,-0.03811145,-0.04794655,-0.
 05611132,0.00926965,0.13466018,0.20169381,-0.01829617,-0.01075856,0.00
 306517,0.00067557,-0.00035624,0.00115032,-0.00054220,-0.00073532,0.000
 23092,0.00099716,-0.00101413,0.00039402,-0.00054905,0.00074507,0.00004
 199,-0.00074307,0.00165748,-0.00329604,-0.00169123,0.00067598,-0.00025
 115,0.00108270,0.00051738,0.00029798,-0.00041250,0.00003976,-0.0000243
 0,-0.00021878,-0.00043005,-0.00023420,0.00006908,0.00006400,0.00004013
 ,-0.00000133,-0.00002012,-0.00002374,-0.00000805,0.00001131,0.00000452
 ,0.00002712,-0.00002407,-0.00002248,-0.00001832,-0.00000290,-0.0000338
 3,-0.00000761,-0.00000490,-0.00000932,-0.00000098,0.00000057,0.0000027
 9,-0.00000011,0.00000278,0.00000045,-0.00000019,-0.00000096,-0.0000004
 8,-0.00000588,-0.00000010,-0.00000431,-0.00000022,-0.00000036,-0.00000
 052,-0.00027897,0.00007473,-0.00031556,0.00001324,-0.00011437,-0.00003
 535,-0.05883422,-0.03321714,-0.09573366,0.01838544,0.01835506,0.014610
 31,0.07984715,0.07704869,0.12294009,-0.02342428,0.02517937,0.02893787,
 0.00030009,-0.00290777,0.00252909,-0.00335641,-0.00159684,-0.00039368,
 0.00402308,-0.00292817,0.00143747,-0.00145160,0.00215941,-0.00353859,0
 .00322330,0.00380465,-0.00098689,-0.00574061,0.00234483,-0.00063317,0.
 00351531,0.00170690,0.00077170,-0.00123394,0.00009005,-0.00006437,-0.0
 0068072,-0.00146687,-0.00068788,0.00021038,0.00018967,0.00012802,-0.00
 000486,-0.00006110,-0.00007212,-0.00002242,0.00003390,0.00001398,0.000
 08969,-0.00007278,-0.00005400,-0.00005436,-0.00000788,-0.00010590,-0.0
 0002469,-0.00001507,-0.00002840,-0.00000139,0.00000136,0.00000733,-0.0
 0000044,0.00000796,0.00000219,-0.00000101,-0.00000373,-0.00000078,-0.0
 0001686,-0.00000072,-0.00001305,-0.00000088,-0.00000048,-0.00000319,0.
 00040029,0.00071761,0.00035513,0.00031502,0.00040278,0.00066581,-0.118
 30289,0.04953359,0.06360461,-0.00238135,-0.00586755,0.03211011,0.01629
 800,-0.01541835,-0.01890035,0.12921963,0.02217562,-0.00531651,-0.02103
 208,-0.00092618,0.00272250,-0.00049464,0.00118044,0.00091735,-0.000404
 78,-0.00197983,0.00188394,-0.00115286,0.00119297,-0.00116720,0.0017746
 1,-0.00097842,-0.00443526,0.00094135,0.00320810,-0.00127840,0.00047499
 ,-0.00198758,-0.00097590,-0.00047390,0.00071065,-0.00004844,0.00003842
 ,0.00039539,0.00083137,0.00041914,-0.00012005,-0.00011178,-0.00007738,
 0.00000309,0.00003501,0.00004226,0.00001305,-0.00001971,-0.00000806,-0
 .00005076,0.00004199,0.00003223,0.00003076,0.00000423,0.00006144,0.000
 01465,0.00000903,0.00001634,0.00000069,-0.00000075,-0.00000404,0.00000
 025,-0.00000419,-0.00000141,0.00000084,0.00000234,0.00000036,0.0000095
 7,0.00000053,0.00000757,0.00000058,0.00000005,0.00000196,0.00006026,-0
 .00058126,-0.00004662,-0.00008699,-0.00010875,-0.00028119,0.05047478,-
 0.11160735,-0.05811031,-0.01231658,0.01735139,0.02032760,-0.00574638,-
 0.03491573,-0.05288401,-0.05612145,0.13696319,0.00815737,-0.00700700,-
 0.00024162,-0.00012177,0.00194063,-0.00091279,0.00185301,0.00027146,0.
 00041838,-0.00182274,0.00068659,-0.00012764,0.00012356,-0.00057336,0.0
 0064666,-0.00027597,-0.00128154,0.00059668,0.00207764,-0.00081789,0.00
 021707,-0.00130398,-0.00067549,-0.00033019,0.00045203,-0.00002962,0.00
 002862,0.00022776,0.00056194,0.00026888,-0.00007708,-0.00006905,-0.000
 04833,0.00000226,0.00002179,0.00002645,0.00000792,-0.00001200,-0.00000
 506,-0.00003119,0.00002798,0.00001789,0.00001988,0.00000255,0.00004060
 ,0.00000970,0.00000580,0.00000995,-0.00000024,-0.00000047,-0.00000214,
 0.00000017,-0.00000254,-0.00000112,0.00000068,0.00000137,0.00000010,0.
 00000586,0.00000052,0.00000472,0.00000032,-0.00000008,0.00000163,-0.00
 033538,-0.00034983,-0.00020123,-0.00033901,-0.00014191,-0.00001545,0.0
 6654245,-0.06245504,-0.15550515,0.03665711,0.00814972,-0.07152681,-0.0
 0746094,-0.04864527,-0.04282761,-0.10476495,0.11063969,0.26931192,-0.0
 0088104,0.00492164,-0.00299109,-0.00266637,-0.00047420,0.00047139,0.00
 488011,0.00048795,0.00010204,-0.02302539,-0.00307483,0.00966988,-0.135
 46237,-0.02717400,0.04988061,-0.04266419,-0.01144996,0.01887650,0.0050
 8568,0.00044691,-0.00320494,-0.00162446,-0.00332872,-0.00203372,0.0009
 7783,0.00014584,0.00028910,-0.00034546,0.00463419,-0.00122047,-0.00007
 265,-0.00008772,-0.00000420,0.00000983,0.00003024,0.00004062,0.0000120
 8,-0.00001669,-0.00000426,-0.00011085,0.00008578,-0.00001501,0.0000199
 5,0.00000189,0.00005377,0.00001986,0.00000439,0.00001490,-0.00000268,0
 .00000337,-0.00000246,-0.00000381,0.00000162,-0.00000026,0.00000010,0.
 00000085,0.00000020,0.00000591,0.00000057,0.00000515,0.00000046,0.,-0.
 00000038,0.00000381,-0.00007804,0.00002288,0.00009866,-0.00102739,0.00
 042764,0.00165413,-0.00231284,0.00179135,-0.00035502,0.00063598,-0.000
 50040,-0.00118303,-0.00007417,-0.00063265,-0.00101501,0.00092903,0.000
 41471,0.19746135,0.00118954,0.00113921,0.00259637,-0.00097083,-0.00020
 599,-0.00059400,0.00355743,0.00003877,0.00333193,-0.02237590,-0.005888
 42,0.01368980,-0.02367758,-0.03958517,0.02052917,0.00744409,0.00519496
 ,-0.00385159,-0.00334220,-0.00025942,0.00063476,-0.00081434,-0.0031054
 7,0.00131471,-0.00050402,0.00046745,0.00029957,0.00139317,0.00029509,-
 0.00076516,0.00007400,-0.00000454,-0.00006129,0.00001329,0.00001673,0.
 00002345,0.00000719,-0.00000810,-0.00000367,-0.00005311,0.00005021,-0.
 00001323,-0.00000630,-0.00001007,-0.00001212,0.00000576,0.00001174,0.0
 0000998,0.00000124,0.00000002,-0.00000465,-0.00000178,-0.00000051,-0.0
 0000138,0.00000010,0.00000039,-0.00000003,0.00000291,0.00000028,0.0000
 0319,0.00000004,0.00000018,-0.00000004,-0.00009154,-0.00005374,-0.0002
 3848,0.00099374,-0.00062286,-0.00208256,0.00071535,0.00007033,0.000339
 50,-0.00010859,0.00014293,-0.00009330,0.00008885,-0.00003082,0.0000901
 0,-0.00032701,0.00025532,0.00008283,0.03800376,0.04316755,-0.00025432,
 0.00162247,0.00305027,0.00121581,-0.00025994,-0.00085216,-0.00314158,0
 .00350273,0.00196758,0.02515524,0.00769956,-0.00909185,0.04551348,0.02
 063129,-0.05162278,0.00315419,0.00054524,0.00210716,0.00039869,-0.0015
 2552,-0.00159406,0.00010502,0.00009880,-0.00450287,-0.00081243,0.00011
 769,0.00044128,0.00097519,0.00378238,-0.00295735,0.00018294,0.00017959
 ,0.00028635,-0.00001878,-0.00006471,-0.00007630,-0.00002042,0.00003973
 ,0.00001304,0.00000305,-0.00003009,-0.00011212,-0.00000993,-0.00001843
 ,-0.00009110,-0.00002346,0.00000134,-0.00004135,-0.00000701,0.00000675
 ,0.00000613,-0.00000239,0.00001067,0.00000418,-0.00000178,-0.00000508,
 -0.00000171,-0.00001800,-0.00000124,-0.00001547,-0.00000173,-0.0000005
 6,-0.00000411,0.00001021,-0.00029299,-0.00024844,-0.00113935,-0.001591
 94,-0.00108557,-0.00123683,0.00098077,-0.00024658,0.00021025,-0.000310
 23,0.00025225,0.00068647,-0.00000248,0.00030626,0.00029679,-0.00016821
 ,-0.00014354,-0.07241047,-0.03604081,0.06547354,-0.00267231,0.00045751
 ,0.00066247,0.00471659,0.01785988,-0.01504401,-0.03993184,-0.00501683,
 0.00723716,-0.00331315,-0.01966084,0.01803909,-0.00332959,0.00193739,-
 0.00054853,0.00059541,-0.00031605,0.00014484,-0.00249030,-0.00690748,0
 .00321394,0.00274500,0.00156967,0.00227117,-0.00098950,0.00032533,-0.0
 0002141,-0.00020029,-0.00101839,-0.00121185,0.00014260,0.00014123,0.00
 007338,-0.00000242,-0.00004367,-0.00004712,-0.00001522,0.00002196,0.00
 001071,0.00001917,-0.00004139,-0.00010121,-0.00006180,-0.00000916,-0.0
 0006343,-0.00001776,-0.00001473,-0.00001683,-0.00000086,0.00000115,0.0
 0000476,0.00000014,0.00000804,0.00000168,-0.00000010,-0.00000166,-0.00
 000060,-0.00001077,-0.00000069,-0.00000858,-0.00000071,-0.00000034,-0.
 00000352,0.00079537,0.00104053,-0.00139019,0.00015654,-0.00004293,-0.0
 0003566,0.00002981,0.00060104,-0.00037828,-0.00016061,0.00022948,-0.00
 022162,0.00014303,-0.00001912,0.00004442,0.00011892,-0.00008650,-0.000
 01919,-0.00081743,-0.00121726,0.00119115,0.04455206,0.00445085,0.00253
 396,0.00134600,-0.00179436,-0.02457505,0.02359757,-0.00908646,-0.10402
 875,0.07035509,0.00064850,-0.01969448,0.02000508,-0.00193131,0.0054152
 1,-0.00052236,0.00066588,-0.00220016,0.00100432,-0.00039949,0.00027868
 ,-0.00241406,0.00138619,0.00149712,-0.00055101,-0.00073667,-0.00008031
 ,0.00006720,-0.00039205,-0.00053965,-0.00022179,0.00005985,0.00006536,
 0.00017512,-0.00001171,-0.00004215,-0.00004436,-0.00001192,0.00002367,
 0.00000622,0.00004861,-0.00006469,-0.00005307,-0.00000608,-0.00000233,
 -0.00005776,-0.00001937,-0.00000179,-0.00002547,0.00000143,-0.00000104
 ,0.00000178,0.00000011,0.00000727,0.00000164,0.00000064,-0.00000094,0.
 00000005,-0.00000916,-0.00000050,-0.00000838,-0.00000123,-0.00000090,-
 0.00000386,-0.00091725,-0.00078775,-0.00152909,-0.00005680,-0.00017959
 ,-0.00015762,-0.00304637,0.00081593,0.00038290,0.00075901,-0.00116193,
 0.00074677,0.00080710,0.00013375,0.00028031,0.00062369,-0.00044703,-0.
 00033177,-0.00123547,-0.00107604,0.00109320,0.01020384,0.14411411,-0.0
 0249755,0.00191175,0.00355072,0.00145332,0.02074140,-0.01447713,0.0097
 5381,0.06978603,-0.08195505,0.00230643,0.02247011,-0.01433296,0.002623
 05,-0.00124288,0.00457337,-0.00086374,0.00130011,-0.00168802,-0.000788
 68,-0.00147036,-0.00067153,-0.00128684,-0.00040010,-0.00043053,0.00060
 225,0.00001381,0.00007426,0.00054496,0.00035189,0.00038760,-0.00004393
 ,-0.00005815,-0.00014069,0.00000759,0.00003361,0.00003932,0.00001109,-
 0.00001986,-0.00000517,-0.00006876,0.00005162,0.00002177,0.00000887,0.
 00000431,0.00004785,0.00001767,0.00000703,0.00002322,0.00000099,-0.000
 00092,-0.00000248,0.00000183,-0.00000726,-0.00000146,-0.00000024,0.000
 00058,0.00000004,0.00000808,0.00000067,0.00000699,0.00000090,0.0000005
 8,0.00000219,0.00025941,-0.00180804,-0.00128403,-0.00002294,-0.0001605
 3,-0.00023184,0.00268083,-0.00017923,0.00038792,-0.00062796,0.00074675
 ,-0.00075795,-0.00064450,-0.00010873,-0.00027240,-0.00061276,0.0003615
 2,0.00029915,0.00095956,0.00081694,-0.00122068,-0.01378273,-0.11314264
 ,0.10805753\\-0.00000093,-0.00000085,-0.00000073,0.00000013,-0.0000010
 4,0.00000266,-0.00000169,0.00000169,0.00000128,0.00000307,-0.00000399,
 0.00000256,-0.00000364,-0.00000319,-0.00000128,-0.00000022,-0.00000430
 ,-0.00000250,-0.00000223,0.00000350,0.00000197,-0.00000101,-0.00000095
 ,-0.00000075,-0.00000102,-0.00000117,-0.00000049,0.00000105,0.00000124
 ,-0.00000314,0.00000205,0.00000229,0.00000029,-0.00000044,0.00000121,0
 .00000071,0.00000224,0.00000395,-0.00000079,-0.00000014,0.00000015,0.0
 0000330,0.00000169,0.00000416,-0.00000065,0.00000065,0.00000165,-0.000
 00304,-0.00000062,-0.00000050,0.00000043,0.00000042,0.00000186,0.00000
 290,0.00000153,0.00000255,-0.00000325,0.00000078,0.00000285,0.00000064
 ,0.00000190,0.00000600,-0.00000024,-0.00000033,0.00000116,0.00000346,-
 0.00000115,-0.00000490,-0.00000363,0.00000018,-0.00000241,-0.00000037,
 -0.00000120,-0.00000579,-0.00000238,-0.00000109,-0.00000338,0.00000097
 ,0.00000010,0.00000038,-0.00000166,0.,-0.00000468,-0.00000282,-0.00000
 009,0.00000250,0.00000654\\\@


 MY GROUP MEETINGS AREN'T VERY STRUCTURED.
     -- PROF. M. S. GORDON, OCT. 5, 1984
 Job cpu time:       0 days  3 hours 10 minutes 38.8 seconds.
 File lengths (MBytes):  RWF=    616 Int=      0 D2E=      0 Chk=     21 Scr=      1
 Normal termination of Gaussian 09 at Tue Jul 10 17:14:15 2018.
WARNING: pbs_rusage is deprecated and values produced may not be accurate


=============================================================================
                                     Resource usage:
                                       CPU time:              15:38:37
   JobId:    8296114.r-man2            Elapsed time:          03:56:39
   Project:             q95            Requested time:        96:00:00
   Service Units:     15.78 
                                       Max physical memory:      782MB
                                       Max virtual memory:      1499MB
                                       Requested memory:           0MB

                                       Number of cpus:               4

                                       Max jobfs disk use:       0.6GB
                                       Requested jobfs:         16.0GB
=============================================================================

