 Entering Gaussian System, Link 0=/apps/gaussian/g09e01/g09/g09
 AtFile(1): /home/507/hio507/Basis/6-31pGd.gbs
 Initial command:
 /apps/gaussian/g09e01/g09/l1.exe "/jobfs/local/8296117.r-man2/Gau-44185.inp" -scrdir="/jobfs/local/8296117.r-man2/"
 Entering Link 1 = /apps/gaussian/g09e01/g09/l1.exe PID=     44186.
  
 Copyright (c) 1988,1990,1992,1993,1995,1998,2003,2009,2015,
            Gaussian, Inc.  All Rights Reserved.
  
 This is part of the Gaussian(R) 09 program.  It is based on
 the Gaussian(R) 03 system (copyright 2003, Gaussian, Inc.),
 the Gaussian(R) 98 system (copyright 1998, Gaussian, Inc.),
 the Gaussian(R) 94 system (copyright 1995, Gaussian, Inc.),
 the Gaussian 92(TM) system (copyright 1992, Gaussian, Inc.),
 the Gaussian 90(TM) system (copyright 1990, Gaussian, Inc.),
 the Gaussian 88(TM) system (copyright 1988, Gaussian, Inc.),
 the Gaussian 86(TM) system (copyright 1986, Carnegie Mellon
 University), and the Gaussian 82(TM) system (copyright 1983,
 Carnegie Mellon University). Gaussian is a federally registered
 trademark of Gaussian, Inc.
  
 This software contains proprietary and confidential information,
 including trade secrets, belonging to Gaussian, Inc.
  
 This software is provided under written license and may be
 used, copied, transmitted, or stored only in accord with that
 written license.
  
 The following legend is applicable only to US Government
 contracts under FAR:
  
                    RESTRICTED RIGHTS LEGEND
  
 Use, reproduction and disclosure by the US Government is
 subject to restrictions as set forth in subparagraphs (a)
 and (c) of the Commercial Computer Software - Restricted
 Rights clause in FAR 52.227-19.
  
 Gaussian, Inc.
 340 Quinnipiac St., Bldg. 40, Wallingford CT 06492
  
  
 ---------------------------------------------------------------
 Warning -- This program may not be used in any manner that
 competes with the business of Gaussian, Inc. or will provide
 assistance to any competitor of Gaussian, Inc.  The licensee
 of this program is prohibited from giving any competitor of
 Gaussian, Inc. access to this program.  By using this program,
 the user acknowledges that Gaussian, Inc. is engaged in the
 business of creating and licensing software in the field of
 computational chemistry and represents and warrants to the
 licensee that it is not a competitor of Gaussian, Inc. and that
 it will not use this program in any manner prohibited above.
 ---------------------------------------------------------------
  

 Cite this work as:
 Gaussian 09, Revision E.01,
 M. J. Frisch, G. W. Trucks, H. B. Schlegel, G. E. Scuseria, 
 M. A. Robb, J. R. Cheeseman, G. Scalmani, V. Barone, B. Mennucci, 
 G. A. Petersson, H. Nakatsuji, M. Caricato, X. Li, H. P. Hratchian, 
 A. F. Izmaylov, J. Bloino, G. Zheng, J. L. Sonnenberg, M. Hada, 
 M. Ehara, K. Toyota, R. Fukuda, J. Hasegawa, M. Ishida, T. Nakajima, 
 Y. Honda, O. Kitao, H. Nakai, T. Vreven, J. A. Montgomery, Jr., 
 J. E. Peralta, F. Ogliaro, M. Bearpark, J. J. Heyd, E. Brothers, 
 K. N. Kudin, V. N. Staroverov, T. Keith, R. Kobayashi, J. Normand, 
 K. Raghavachari, A. Rendell, J. C. Burant, S. S. Iyengar, J. Tomasi, 
 M. Cossi, N. Rega, J. M. Millam, M. Klene, J. E. Knox, J. B. Cross, 
 V. Bakken, C. Adamo, J. Jaramillo, R. Gomperts, R. E. Stratmann, 
 O. Yazyev, A. J. Austin, R. Cammi, C. Pomelli, J. W. Ochterski, 
 R. L. Martin, K. Morokuma, V. G. Zakrzewski, G. A. Voth, 
 P. Salvador, J. J. Dannenberg, S. Dapprich, A. D. Daniels, 
 O. Farkas, J. B. Foresman, J. V. Ortiz, J. Cioslowski, 
 and D. J. Fox, Gaussian, Inc., Wallingford CT, 2013.
 
 ******************************************
 Gaussian 09:  ES64L-G09RevE.01 30-Nov-2015
                10-Jul-2018 
 ******************************************
 %chk=aryl_urea_dichloro_CF3_a1.M062X.opt.chk
 %mem=196608000
 %nproc=4
 Will use up to    4 processors via shared memory.
 ----------------------------------------------------------------------
 # M062X/Gen 6D SCF=Tight INT(grid=ultrafine) OPT IOP(2/17=4) Freq=Nora
 man maxdisk=2147483648
 ----------------------------------------------------------------------
 1/14=-1,18=20,19=15,26=4,38=1/1,3;
 2/9=110,12=2,17=4,18=5,40=1/2;
 3/5=7,8=2,11=2,16=1,25=1,30=1,71=1,74=-55,75=-5/1,2,3;
 4//1;
 5/5=2,32=2,38=5/2;
 6/7=2,8=2,9=2,10=2,28=1/1;
 7//1,2,3,16;
 1/14=-1,18=20,19=15,26=4/3(2);
 2/9=110,17=4/2;
 99//99;
 2/9=110,17=4/2;
 3/5=7,6=1,8=2,11=2,16=1,25=1,30=1,71=1,74=-55,75=-5,82=7/1,2,3;
 4/5=5,16=3,69=1/1;
 5/5=2,32=2,38=5/2;
 7//1,2,3,16;
 1/14=-1,18=20,19=15,26=4/3(-5);
 2/9=110,17=4/2;
 6/7=2,8=2,9=2,10=2,19=2,28=1/1;
 99/9=1/99;
 -----------------------------------
 aryl_urea_dichloro_CF3_a1.M062X.opt
 -----------------------------------
 Symbolic Z-matrix:
 Charge = -1 Multiplicity = 1
 C                    -4.19878   3.52106  -1.09495 
 C                    -4.2755    2.27429  -0.46896 
 C                    -3.11989   1.60208  -0.06392 
 C                    -1.83931   2.17399  -0.25973 
 C                    -1.76514   3.43673  -0.92071 
 C                    -2.93852   4.08859  -1.32282 
 N                    -0.69115   1.42839   0.18017 
 C                     0.45047   1.93866   0.73166 
 N                     1.45815   1.096     1.09449 
 O                     0.55923   3.13504   0.95315 
 C                     2.68023   1.58329   1.7101 
 C                     3.64265   0.4283    2.00985 
 C                     4.92961   0.93439   2.65476 
 H                     1.35111   0.08357   0.92387 
 H                     2.42922   2.10626   2.65937 
 H                     3.17562   2.3022    1.02058 
 H                     3.89637  -0.09758   1.06365 
 H                     3.15272  -0.29294   2.69976 
 H                     5.44943   1.64276   1.97497 
 H                     5.60537   0.07738   2.8593 
 H                     4.70502   1.44728   3.61422 
 H                    -5.24364   1.81957  -0.29449 
 H                    -2.85764   5.04137  -1.83098 
 C                    -5.47029   4.21213  -1.52218 
 F                    -5.21619   5.42963  -2.13008 
 F                    -6.153     3.40831  -2.41709 
 F                    -6.26859   4.43259  -0.41448 
 Cl                   -0.2668    4.23843  -1.3923 
 Cl                   -3.32969   0.0412    0.72716 
 

 GradGradGradGradGradGradGradGradGradGradGradGradGradGradGradGradGradGrad
 Berny optimization.
 Initialization pass.
                           ----------------------------
                           !    Initial Parameters    !
                           ! (Angstroms and Degrees)  !
 --------------------------                            --------------------------
 ! Name  Definition              Value          Derivative Info.                !
 --------------------------------------------------------------------------------
 ! R1    R(1,2)                  1.3972         estimate D2E/DX2                !
 ! R2    R(1,6)                  1.4008         estimate D2E/DX2                !
 ! R3    R(1,24)                 1.5089         estimate D2E/DX2                !
 ! R4    R(2,3)                  1.3969         estimate D2E/DX2                !
 ! R5    R(2,22)                 1.0837         estimate D2E/DX2                !
 ! R6    R(3,4)                  1.4161         estimate D2E/DX2                !
 ! R7    R(3,29)                 1.7624         estimate D2E/DX2                !
 ! R8    R(4,5)                  1.4272         estimate D2E/DX2                !
 ! R9    R(4,7)                  1.438          estimate D2E/DX2                !
 ! R10   R(5,6)                  1.4012         estimate D2E/DX2                !
 ! R11   R(5,28)                 1.7636         estimate D2E/DX2                !
 ! R12   R(6,23)                 1.0828         estimate D2E/DX2                !
 ! R13   R(7,8)                  1.3667         estimate D2E/DX2                !
 ! R14   R(8,9)                  1.3628         estimate D2E/DX2                !
 ! R15   R(8,10)                 1.2216         estimate D2E/DX2                !
 ! R16   R(9,11)                 1.4526         estimate D2E/DX2                !
 ! R17   R(9,14)                 1.0323         estimate D2E/DX2                !
 ! R18   R(11,12)                1.533          estimate D2E/DX2                !
 ! R19   R(11,15)                1.1125         estimate D2E/DX2                !
 ! R20   R(11,16)                1.1125         estimate D2E/DX2                !
 ! R21   R(12,13)                1.5259         estimate D2E/DX2                !
 ! R22   R(12,17)                1.1119         estimate D2E/DX2                !
 ! R23   R(12,18)                1.1118         estimate D2E/DX2                !
 ! R24   R(13,19)                1.1109         estimate D2E/DX2                !
 ! R25   R(13,20)                1.1104         estimate D2E/DX2                !
 ! R26   R(13,21)                1.1109         estimate D2E/DX2                !
 ! R27   R(24,25)                1.3843         estimate D2E/DX2                !
 ! R28   R(24,26)                1.3831         estimate D2E/DX2                !
 ! R29   R(24,27)                1.3831         estimate D2E/DX2                !
 ! A1    A(2,1,6)              118.9341         estimate D2E/DX2                !
 ! A2    A(2,1,24)             119.2921         estimate D2E/DX2                !
 ! A3    A(6,1,24)             121.7695         estimate D2E/DX2                !
 ! A4    A(1,2,3)              120.9229         estimate D2E/DX2                !
 ! A5    A(1,2,22)             119.7084         estimate D2E/DX2                !
 ! A6    A(3,2,22)             119.3688         estimate D2E/DX2                !
 ! A7    A(2,3,4)              120.9079         estimate D2E/DX2                !
 ! A8    A(2,3,29)             117.2485         estimate D2E/DX2                !
 ! A9    A(4,3,29)             121.8296         estimate D2E/DX2                !
 ! A10   A(3,4,5)              117.928          estimate D2E/DX2                !
 ! A11   A(3,4,7)              118.057          estimate D2E/DX2                !
 ! A12   A(5,4,7)              123.9833         estimate D2E/DX2                !
 ! A13   A(4,5,6)              120.0652         estimate D2E/DX2                !
 ! A14   A(4,5,28)             124.7645         estimate D2E/DX2                !
 ! A15   A(6,5,28)             115.0395         estimate D2E/DX2                !
 ! A16   A(1,6,5)              121.2128         estimate D2E/DX2                !
 ! A17   A(1,6,23)             120.001          estimate D2E/DX2                !
 ! A18   A(5,6,23)             118.7802         estimate D2E/DX2                !
 ! A19   A(4,7,8)              126.6434         estimate D2E/DX2                !
 ! A20   A(7,8,9)              119.6194         estimate D2E/DX2                !
 ! A21   A(7,8,10)             120.8776         estimate D2E/DX2                !
 ! A22   A(9,8,10)             119.4384         estimate D2E/DX2                !
 ! A23   A(8,9,11)             121.8375         estimate D2E/DX2                !
 ! A24   A(8,9,14)             119.0634         estimate D2E/DX2                !
 ! A25   A(11,9,14)            119.0987         estimate D2E/DX2                !
 ! A26   A(9,11,12)            110.9963         estimate D2E/DX2                !
 ! A27   A(9,11,15)            109.2389         estimate D2E/DX2                !
 ! A28   A(9,11,16)            109.1927         estimate D2E/DX2                !
 ! A29   A(12,11,15)           109.207          estimate D2E/DX2                !
 ! A30   A(12,11,16)           109.1775         estimate D2E/DX2                !
 ! A31   A(15,11,16)           108.9991         estimate D2E/DX2                !
 ! A32   A(11,12,13)           111.2388         estimate D2E/DX2                !
 ! A33   A(11,12,17)           109.4637         estimate D2E/DX2                !
 ! A34   A(11,12,18)           109.4767         estimate D2E/DX2                !
 ! A35   A(13,12,17)           108.9102         estimate D2E/DX2                !
 ! A36   A(13,12,18)           108.938          estimate D2E/DX2                !
 ! A37   A(17,12,18)           108.7719         estimate D2E/DX2                !
 ! A38   A(12,13,19)           110.3357         estimate D2E/DX2                !
 ! A39   A(12,13,20)           109.5821         estimate D2E/DX2                !
 ! A40   A(12,13,21)           110.3438         estimate D2E/DX2                !
 ! A41   A(19,13,20)           108.6688         estimate D2E/DX2                !
 ! A42   A(19,13,21)           109.1907         estimate D2E/DX2                !
 ! A43   A(20,13,21)           108.6801         estimate D2E/DX2                !
 ! A44   A(1,24,25)            111.8668         estimate D2E/DX2                !
 ! A45   A(1,24,26)            109.4487         estimate D2E/DX2                !
 ! A46   A(1,24,27)            109.4278         estimate D2E/DX2                !
 ! A47   A(25,24,26)           108.5174         estimate D2E/DX2                !
 ! A48   A(25,24,27)           108.5089         estimate D2E/DX2                !
 ! A49   A(26,24,27)           109.0218         estimate D2E/DX2                !
 ! D1    D(6,1,2,3)              0.5019         estimate D2E/DX2                !
 ! D2    D(6,1,2,22)          -179.4547         estimate D2E/DX2                !
 ! D3    D(24,1,2,3)           179.7627         estimate D2E/DX2                !
 ! D4    D(24,1,2,22)           -0.194          estimate D2E/DX2                !
 ! D5    D(2,1,6,5)             -0.7799         estimate D2E/DX2                !
 ! D6    D(2,1,6,23)           178.3205         estimate D2E/DX2                !
 ! D7    D(24,1,6,5)           179.9785         estimate D2E/DX2                !
 ! D8    D(24,1,6,23)           -0.9211         estimate D2E/DX2                !
 ! D9    D(2,1,24,25)         -179.7            estimate D2E/DX2                !
 ! D10   D(2,1,24,26)          -59.3929         estimate D2E/DX2                !
 ! D11   D(2,1,24,27)           60.0175         estimate D2E/DX2                !
 ! D12   D(6,1,24,25)           -0.4611         estimate D2E/DX2                !
 ! D13   D(6,1,24,26)          119.8461         estimate D2E/DX2                !
 ! D14   D(6,1,24,27)         -120.7435         estimate D2E/DX2                !
 ! D15   D(1,2,3,4)              0.886          estimate D2E/DX2                !
 ! D16   D(1,2,3,29)           179.5503         estimate D2E/DX2                !
 ! D17   D(22,2,3,4)          -179.1572         estimate D2E/DX2                !
 ! D18   D(22,2,3,29)           -0.4928         estimate D2E/DX2                !
 ! D19   D(2,3,4,5)             -1.9426         estimate D2E/DX2                !
 ! D20   D(2,3,4,7)           -179.9766         estimate D2E/DX2                !
 ! D21   D(29,3,4,5)           179.455          estimate D2E/DX2                !
 ! D22   D(29,3,4,7)             1.421          estimate D2E/DX2                !
 ! D23   D(3,4,5,6)              1.6554         estimate D2E/DX2                !
 ! D24   D(3,4,5,28)          -173.9746         estimate D2E/DX2                !
 ! D25   D(7,4,5,6)            179.563          estimate D2E/DX2                !
 ! D26   D(7,4,5,28)             3.933          estimate D2E/DX2                !
 ! D27   D(3,4,7,8)           -143.5644         estimate D2E/DX2                !
 ! D28   D(5,4,7,8)             38.5305         estimate D2E/DX2                !
 ! D29   D(4,5,6,1)             -0.3188         estimate D2E/DX2                !
 ! D30   D(4,5,6,23)          -179.43           estimate D2E/DX2                !
 ! D31   D(28,5,6,1)           175.7195         estimate D2E/DX2                !
 ! D32   D(28,5,6,23)           -3.3917         estimate D2E/DX2                !
 ! D33   D(4,7,8,9)           -179.7319         estimate D2E/DX2                !
 ! D34   D(4,7,8,10)             3.2053         estimate D2E/DX2                !
 ! D35   D(7,8,9,11)          -178.6917         estimate D2E/DX2                !
 ! D36   D(7,8,9,14)             1.5311         estimate D2E/DX2                !
 ! D37   D(10,8,9,11)           -1.5863         estimate D2E/DX2                !
 ! D38   D(10,8,9,14)          178.6366         estimate D2E/DX2                !
 ! D39   D(8,9,11,12)         -179.7812         estimate D2E/DX2                !
 ! D40   D(8,9,11,15)           59.7438         estimate D2E/DX2                !
 ! D41   D(8,9,11,16)          -59.3727         estimate D2E/DX2                !
 ! D42   D(14,9,11,12)          -0.0041         estimate D2E/DX2                !
 ! D43   D(14,9,11,15)        -120.4792         estimate D2E/DX2                !
 ! D44   D(14,9,11,16)         120.4043         estimate D2E/DX2                !
 ! D45   D(9,11,12,13)         179.9077         estimate D2E/DX2                !
 ! D46   D(9,11,12,17)          59.5014         estimate D2E/DX2                !
 ! D47   D(9,11,12,18)         -59.6427         estimate D2E/DX2                !
 ! D48   D(15,11,12,13)        -59.5983         estimate D2E/DX2                !
 ! D49   D(15,11,12,17)        179.9954         estimate D2E/DX2                !
 ! D50   D(15,11,12,18)         60.8513         estimate D2E/DX2                !
 ! D51   D(16,11,12,13)         59.4902         estimate D2E/DX2                !
 ! D52   D(16,11,12,17)        -60.9161         estimate D2E/DX2                !
 ! D53   D(16,11,12,18)        179.9399         estimate D2E/DX2                !
 ! D54   D(11,12,13,19)        -60.3626         estimate D2E/DX2                !
 ! D55   D(11,12,13,20)       -179.9778         estimate D2E/DX2                !
 ! D56   D(11,12,13,21)         60.3881         estimate D2E/DX2                !
 ! D57   D(17,12,13,19)         60.3698         estimate D2E/DX2                !
 ! D58   D(17,12,13,20)        -59.2454         estimate D2E/DX2                !
 ! D59   D(17,12,13,21)       -178.8795         estimate D2E/DX2                !
 ! D60   D(18,12,13,19)        178.8706         estimate D2E/DX2                !
 ! D61   D(18,12,13,20)         59.2554         estimate D2E/DX2                !
 ! D62   D(18,12,13,21)        -60.3787         estimate D2E/DX2                !
 --------------------------------------------------------------------------------
 Trust Radius=3.00D-01 FncErr=1.00D-07 GrdErr=1.00D-06
 Number of steps in this run=    150 maximum allowed number of steps=    174.
 GradGradGradGradGradGradGradGradGradGradGradGradGradGradGradGradGradGrad

                          Input orientation:                          
 ---------------------------------------------------------------------
 Center     Atomic      Atomic             Coordinates (Angstroms)
 Number     Number       Type             X           Y           Z
 ---------------------------------------------------------------------
      1          6           0       -4.198780    3.521060   -1.094950
      2          6           0       -4.275500    2.274290   -0.468960
      3          6           0       -3.119890    1.602080   -0.063920
      4          6           0       -1.839310    2.173990   -0.259730
      5          6           0       -1.765140    3.436730   -0.920710
      6          6           0       -2.938520    4.088590   -1.322820
      7          7           0       -0.691150    1.428390    0.180170
      8          6           0        0.450470    1.938660    0.731660
      9          7           0        1.458150    1.096000    1.094490
     10          8           0        0.559230    3.135040    0.953150
     11          6           0        2.680230    1.583290    1.710100
     12          6           0        3.642650    0.428300    2.009850
     13          6           0        4.929610    0.934390    2.654760
     14          1           0        1.351110    0.083570    0.923870
     15          1           0        2.429220    2.106260    2.659370
     16          1           0        3.175620    2.302200    1.020580
     17          1           0        3.896370   -0.097580    1.063650
     18          1           0        3.152720   -0.292940    2.699760
     19          1           0        5.449430    1.642760    1.974970
     20          1           0        5.605370    0.077380    2.859300
     21          1           0        4.705020    1.447280    3.614220
     22          1           0       -5.243640    1.819570   -0.294490
     23          1           0       -2.857640    5.041370   -1.830980
     24          6           0       -5.470290    4.212130   -1.522180
     25          9           0       -5.216190    5.429630   -2.130080
     26          9           0       -6.153000    3.408310   -2.417090
     27          9           0       -6.268590    4.432590   -0.414480
     28         17           0       -0.266800    4.238430   -1.392300
     29         17           0       -3.329690    0.041200    0.727160
 ---------------------------------------------------------------------
                    Distance matrix (angstroms):
                    1          2          3          4          5
     1  C    0.000000
     2  C    1.397206   0.000000
     3  C    2.430949   1.396910   0.000000
     4  C    2.842409   2.447215   1.416089   0.000000
     5  C    2.441326   2.803079   2.436263   1.427203   0.000000
     6  C    1.400811   2.410037   2.792930   2.450330   1.401226
     7  N    4.278863   3.739583   2.447147   1.437951   2.529589
     8  C    5.239849   4.887630   3.673378   2.506258   3.143798
     9  N    6.532643   6.058670   4.749366   3.724140   4.464263
    10  O    5.194457   5.112524   4.113432   2.854416   3.000844
    11  C    7.677502   7.321746   6.065385   4.965420   5.487961
    12  C    8.982927   8.499958   7.170093   6.184684   6.847118
    13  C   10.201896   9.812594   8.522411   7.473228   7.991581
    14  H    6.833246   6.196610   4.824048   3.993688   4.935299
    15  H    7.747707   7.400537   6.201865   5.171661   5.672722
    16  H    7.768067   7.598598   6.426488   5.177369   5.428340
    17  H    9.126092   8.646046   7.306720   6.309468   6.962882
    18  H    9.109938   8.474073   7.111587   6.305925   7.155668
    19  H   10.297591  10.047183   8.808631   7.642108   7.978303
    20  H   11.118290  10.655295   9.327384   8.339507   8.938575
    21  H   10.283701   9.899800   8.647652   7.639624   8.147789
    22  H    2.151171   1.083746   2.147272   3.422906   3.886814
    23  H    2.156789   3.394430   3.875563   3.424572   2.144066
    24  C    1.508920   2.508390   3.803060   4.351070   3.832903
    25  F    2.397761   3.687870   4.828419   5.049824   4.164610
    26  F    2.362148   2.933636   4.242597   4.978521   4.636084
    27  F    2.361787   2.938305   4.248410   4.974308   4.639943
    28  Cl   4.007930   4.558517   4.105491   2.831504   1.763560
    29  Cl   4.023037   2.704062   1.762433   2.782800   4.085697
                    6          7          8          9         10
     6  C    0.000000
     7  N    3.792930   0.000000
     8  C    4.508696   1.366680   0.000000
     9  N    5.842062   2.359228   1.362769   0.000000
    10  O    4.280602   2.252466   1.221561   2.232872   0.000000
    11  C    6.858971   3.705521   2.460785   1.452552   2.734875
    12  C    8.235060   4.809338   3.755658   2.460843   4.236807
    13  C    9.363631   6.161215   4.976903   3.809409   5.180594
    14  H    6.284006   2.555867   2.071100   1.032271   3.152681
    15  H    6.971377   4.042604   2.767600   2.100584   2.732478
    16  H    6.787151   4.052375   2.764431   2.100020   2.746573
    17  H    8.362714   4.914719   4.016306   2.714867   4.647424
    18  H    8.513646   4.907815   4.019404   2.716176   4.639815
    19  H    9.338908   6.401092   5.159746   4.123652   5.213931
    20  H   10.323662   6.974893   5.879133   4.620776   6.200502
    21  H    9.474945   6.396226   5.162538   4.124876   5.207437
    22  H    3.394038   4.593853   5.787059   6.882355   6.079504
    23  H    1.082847   4.668193   5.209369   6.538376   4.802132
    24  C    2.542610   5.786828   6.730814   8.034955   6.606247
    25  F    2.763664   6.467083   7.244823   8.586327   6.937357
    26  F    3.463104   6.363776   7.461924   8.695262   7.515798
    27  F    3.468830   6.362913   7.258036   8.550575   7.083302
    28  Cl   2.676820   3.247932   3.211639   4.362848   2.720465
    29  Cl   4.553767   3.030740   4.229655   4.916396   4.974597
                   11         12         13         14         15
    11  C    0.000000
    12  C    1.533005   0.000000
    13  C    2.524513   1.525877   0.000000
    14  H    2.152644   2.559169   4.065161   0.000000
    15  H    1.112482   2.170216   2.761386   2.874988   0.000000
    16  H    1.112511   2.169856   2.760060   2.874110   1.811391
    17  H    2.173067   1.111853   2.159671   2.555524   3.091240
    18  H    2.173226   1.111843   2.160024   2.557605   2.506241
    19  H    2.782474   2.177288   1.110907   4.509114   3.131278
    20  H    3.484949   2.167252   1.110385   4.673827   3.774156
    21  H    2.782795   2.177373   1.110883   4.510698   2.554459
    22  H    8.176914   9.285029  10.629047   6.927397   8.226801
    23  H    7.427353   8.847947   9.880810   7.062758   7.531866
    24  C    9.153656  10.480376  11.676829   8.340244   9.182718
    25  F    9.586176  10.983231  12.084665   9.002022   9.614360
    26  F    9.919191  11.154955  12.436567   8.861579  10.055858
    27  F    9.628797  10.961040  12.126719   8.874964   9.513793
    28  Cl   5.035836   6.432380   7.368721   5.024454   5.313257
    29  Cl   6.281986   7.099906   8.528157   4.685123   6.415836
                   16         17         18         19         20
    16  H    0.000000
    17  H    2.506049   0.000000
    18  H    3.091104   1.807771   0.000000
    19  H    2.552633   2.504253   3.089843   0.000000
    20  H    3.772850   2.485086   2.485575   1.804653   0.000000
    21  H    3.130003   3.089646   2.504843   1.810939   1.804760
    22  H    8.535003   9.437150   9.161173  10.932678  11.431651
    23  H    7.213506   8.966847   9.225340   9.749011  10.874855
    24  C    9.212232  10.629884  10.605505  11.750404  12.608083
    25  F    9.493680  11.126038  11.230041  12.039405  13.063179
    26  F   10.003210  11.198065  11.246236  12.530911  13.311448
    27  F    9.787291  11.226474  10.990460  12.280253  13.064318
    28  Cl   4.628308   6.493432   6.997956   7.123994   8.358996
    29  Cl   6.893277   7.235221   6.784131   9.010825   9.186002
                   21         22         23         24         25
    21  H    0.000000
    22  H   10.695441   0.000000
    23  H    9.988068   4.293459   0.000000
    24  C   11.728765   2.698692   2.758430   0.000000
    25  F   12.136165   4.050022   2.408934   1.384347   0.000000
    26  F   12.574535   2.802938   3.724219   1.383143   2.246269
    27  F   12.064933   2.809412   3.743216   1.383071   2.246089
    28  Cl   7.587803   5.641366   2.747654   5.205177   5.143903
    29  Cl   8.652672   2.805276   5.636365   5.199842   6.384190
                   26         27         28         29
    26  F    0.000000
    27  F    2.252323   0.000000
    28  Cl   6.032134   6.084021   0.000000
    29  Cl   5.403223   5.405995   5.611608   0.000000
 Stoichiometry    C11H10Cl2F3N2O(1-)
 Framework group  C1[X(C11H10Cl2F3N2O)]
 Deg. of freedom    81
 Full point group                 C1      NOp   1
 Largest Abelian subgroup         C1      NOp   1
 Largest concise Abelian subgroup C1      NOp   1
                         Standard orientation:                         
 ---------------------------------------------------------------------
 Center     Atomic      Atomic             Coordinates (Angstroms)
 Number     Number       Type             X           Y           Z
 ---------------------------------------------------------------------
      1          6           0        2.912479   -0.122917    0.051716
      2          6           0        2.408282    1.179767    0.020342
      3          6           0        1.042410    1.416912   -0.151461
      4          6           0        0.128225    0.343110   -0.280001
      5          6           0        0.651243   -0.984774   -0.270911
      6          6           0        2.026150   -1.196584   -0.102976
      7          7           0       -1.264022    0.657403   -0.454846
      8          6           0       -2.326578   -0.032084    0.058373
      9          7           0       -3.594809    0.392241   -0.203697
     10          8           0       -2.154688   -0.992863    0.792926
     11          6           0       -4.757853   -0.287343    0.339810
     12          6           0       -6.054073    0.392770   -0.115563
     13          6           0       -7.279747   -0.318244    0.450550
     14          1           0       -3.732583    1.217648   -0.808100
     15          1           0       -4.706401   -0.270247    1.450970
     16          1           0       -4.758701   -1.344581   -0.006496
     17          1           0       -6.109835    0.378126   -1.225921
     18          1           0       -6.058915    1.449860    0.229012
     19          1           0       -7.308810   -1.373100    0.103347
     20          1           0       -8.201127    0.195511    0.104042
     21          1           0       -7.258315   -0.299795    1.561073
     22          1           0        3.083963    2.019984    0.129865
     23          1           0        2.401708   -2.212203   -0.108707
     24          6           0        4.395057   -0.336530    0.233854
     25          9           0        4.725938   -1.680751    0.235500
     26          9           0        5.079570    0.283092   -0.795998
     27          9           0        4.794971    0.215548    1.437250
     28         17           0       -0.297480   -2.441292   -0.568604
     29         17           0        0.510447    3.097098   -0.164094
 ---------------------------------------------------------------------
 Rotational constants (GHZ):      0.6246358      0.1286057      0.1109487
 General basis read from cards:  (6D, 7F)
 There are   389 symmetry adapted cartesian basis functions of A   symmetry.
 There are   389 symmetry adapted basis functions of A   symmetry.
   389 basis functions,   696 primitive gaussians,   389 cartesian basis functions
    80 alpha electrons       80 beta electrons
       nuclear repulsion energy      1672.2546855251 Hartrees.
 NAtoms=   29 NActive=   29 NUniq=   29 SFac= 1.00D+00 NAtFMM=   60 NAOKFM=F Big=F
 Integral buffers will be    131072 words long.
 Raffenetti 2 integral format.
 Two-electron integral symmetry is turned on.
 One-electron integrals computed using PRISM.
 NBasis=   389 RedAO= T EigKep=  1.17D-06  NBF=   389
 NBsUse=   388 1.00D-06 EigRej=  7.80D-07 NBFU=   388
 ExpMin= 4.38D-02 ExpMax= 2.52D+04 ExpMxC= 3.78D+03 IAcc=3 IRadAn=         5 AccDes= 0.00D+00
 Harris functional with IExCor= 1009 and IRadAn=       5 diagonalized for initial guess.
 HarFok:  IExCor= 1009 AccDes= 0.00D+00 IRadAn=         5 IDoV= 1 UseB2=F ITyADJ=14
 ICtDFT=  3500011 ScaDFX=  1.000000  1.000000  1.000000  1.000000
 FoFCou: FMM=F IPFlag=           0 FMFlag=      100000 FMFlg1=           0
         NFxFlg=           0 DoJE=T BraDBF=F KetDBF=T FulRan=T
         wScrn=  0.000000 ICntrl=     500 IOpCl=  0 I1Cent=   200000004 NGrid=           0
         NMat0=    1 NMatS0=      1 NMatT0=    0 NMatD0=    1 NMtDS0=    0 NMtDT0=    0
 Petite list used in FoFCou.
 Requested convergence on RMS density matrix=1.00D-08 within 128 cycles.
 Requested convergence on MAX density matrix=1.00D-06.
 Requested convergence on             energy=1.00D-06.
 No special actions if energy rises.
 SCF Done:  E(RM062X) =  -1829.52867702     A.U. after   17 cycles
            NFock= 17  Conv=0.55D-08     -V/T= 2.0058

 **********************************************************************

            Population analysis using the SCF density.

 **********************************************************************

 Orbital symmetries:
       Occupied  (A) (A) (A) (A) (A) (A) (A) (A) (A) (A) (A) (A)
                 (A) (A) (A) (A) (A) (A) (A) (A) (A) (A) (A) (A)
                 (A) (A) (A) (A) (A) (A) (A) (A) (A) (A) (A) (A)
                 (A) (A) (A) (A) (A) (A) (A) (A) (A) (A) (A) (A)
                 (A) (A) (A) (A) (A) (A) (A) (A) (A) (A) (A) (A)
                 (A) (A) (A) (A) (A) (A) (A) (A) (A) (A) (A) (A)
                 (A) (A) (A) (A) (A) (A) (A) (A)
       Virtual   (A) (A) (A) (A) (A) (A) (A) (A) (A) (A) (A) (A)
                 (A) (A) (A) (A) (A) (A) (A) (A) (A) (A) (A) (A)
                 (A) (A) (A) (A) (A) (A) (A) (A) (A) (A) (A) (A)
                 (A) (A) (A) (A) (A) (A) (A) (A) (A) (A) (A) (A)
                 (A) (A) (A) (A) (A) (A) (A) (A) (A) (A) (A) (A)
                 (A) (A) (A) (A) (A) (A) (A) (A) (A) (A) (A) (A)
                 (A) (A) (A) (A) (A) (A) (A) (A) (A) (A) (A) (A)
                 (A) (A) (A) (A) (A) (A) (A) (A) (A) (A) (A) (A)
                 (A) (A) (A) (A) (A) (A) (A) (A) (A) (A) (A) (A)
                 (A) (A) (A) (A) (A) (A) (A) (A) (A) (A) (A) (A)
                 (A) (A) (A) (A) (A) (A) (A) (A) (A) (A) (A) (A)
                 (A) (A) (A) (A) (A) (A) (A) (A) (A) (A) (A) (A)
                 (A) (A) (A) (A) (A) (A) (A) (A) (A) (A) (A) (A)
                 (A) (A) (A) (A) (A) (A) (A) (A) (A) (A) (A) (A)
                 (A) (A) (A) (A) (A) (A) (A) (A) (A) (A) (A) (A)
                 (A) (A) (A) (A) (A) (A) (A) (A) (A) (A) (A) (A)
                 (A) (A) (A) (A) (A) (A) (A) (A) (A) (A) (A) (A)
                 (A) (A) (A) (A) (A) (A) (A) (A) (A) (A) (A) (A)
                 (A) (A) (A) (A) (A) (A) (A) (A) (A) (A) (A) (A)
                 (A) (A) (A) (A) (A) (A) (A) (A) (A) (A) (A) (A)
                 (A) (A) (A) (A) (A) (A) (A) (A) (A) (A) (A) (A)
                 (A) (A) (A) (A) (A) (A) (A) (A) (A) (A) (A) (A)
                 (A) (A) (A) (A) (A) (A) (A) (A) (A) (A) (A) (A)
                 (A) (A) (A) (A) (A) (A) (A) (A) (A) (A) (A) (A)
                 (A) (A) (A) (A) (A) (A) (A) (A) (A) (A) (A) (A)
                 (A) (A) (A) (A) (A) (A) (A) (A)
 The electronic state is 1-A.
 Alpha  occ. eigenvalues -- -102.55194-102.53913 -25.20855 -25.20412 -25.20375
 Alpha  occ. eigenvalues --  -19.43091 -14.64015 -14.56873 -10.71849 -10.50306
 Alpha  occ. eigenvalues --  -10.49646 -10.49282 -10.48592 -10.47236 -10.46706
 Alpha  occ. eigenvalues --  -10.46428 -10.46229 -10.46015 -10.45750  -9.69748
 Alpha  occ. eigenvalues --   -9.68446  -7.42160  -7.41510  -7.41471  -7.40867
 Alpha  occ. eigenvalues --   -7.40201  -7.40151  -1.34510  -1.26883  -1.26674
 Alpha  occ. eigenvalues --   -1.00548  -0.88895  -0.88367  -0.84010  -0.81953
 Alpha  occ. eigenvalues --   -0.80078  -0.78385  -0.74015  -0.70737  -0.68862
 Alpha  occ. eigenvalues --   -0.66144  -0.60203  -0.58928  -0.58116  -0.57880
 Alpha  occ. eigenvalues --   -0.55583  -0.52790  -0.51569  -0.47080  -0.46949
 Alpha  occ. eigenvalues --   -0.46828  -0.45596  -0.44326  -0.43462  -0.42935
 Alpha  occ. eigenvalues --   -0.42126  -0.41701  -0.40498  -0.38630  -0.38392
 Alpha  occ. eigenvalues --   -0.38228  -0.37562  -0.35840  -0.34490  -0.33784
 Alpha  occ. eigenvalues --   -0.33292  -0.32517  -0.31553  -0.30509  -0.30159
 Alpha  occ. eigenvalues --   -0.29865  -0.26434  -0.25686  -0.24422  -0.22067
 Alpha  occ. eigenvalues --   -0.19236  -0.17917  -0.16636  -0.12904  -0.10504
 Alpha virt. eigenvalues --    0.09614   0.10953   0.11129   0.12091   0.12319
 Alpha virt. eigenvalues --    0.12606   0.12929   0.13158   0.13826   0.14143
 Alpha virt. eigenvalues --    0.14367   0.14843   0.15521   0.15841   0.16281
 Alpha virt. eigenvalues --    0.17162   0.17528   0.18082   0.18381   0.18828
 Alpha virt. eigenvalues --    0.19046   0.19982   0.20568   0.20768   0.21204
 Alpha virt. eigenvalues --    0.21704   0.21995   0.22962   0.23196   0.23266
 Alpha virt. eigenvalues --    0.24209   0.24657   0.25985   0.26220   0.26668
 Alpha virt. eigenvalues --    0.26885   0.27307   0.27922   0.28458   0.28816
 Alpha virt. eigenvalues --    0.29033   0.29266   0.29715   0.30110   0.30355
 Alpha virt. eigenvalues --    0.30601   0.31355   0.31664   0.32378   0.32441
 Alpha virt. eigenvalues --    0.32950   0.33466   0.34234   0.34365   0.34908
 Alpha virt. eigenvalues --    0.35947   0.36041   0.36671   0.37225   0.37414
 Alpha virt. eigenvalues --    0.37534   0.38079   0.38176   0.38261   0.39060
 Alpha virt. eigenvalues --    0.39461   0.40042   0.40088   0.40930   0.40966
 Alpha virt. eigenvalues --    0.41510   0.41871   0.42516   0.42694   0.43354
 Alpha virt. eigenvalues --    0.43880   0.44261   0.44671   0.45192   0.46389
 Alpha virt. eigenvalues --    0.46946   0.47171   0.47780   0.48167   0.48575
 Alpha virt. eigenvalues --    0.49217   0.49591   0.50113   0.50987   0.51062
 Alpha virt. eigenvalues --    0.51632   0.52338   0.52807   0.53272   0.54022
 Alpha virt. eigenvalues --    0.54537   0.55500   0.56393   0.57301   0.58081
 Alpha virt. eigenvalues --    0.59099   0.60643   0.61859   0.65971   0.67173
 Alpha virt. eigenvalues --    0.69658   0.70922   0.72608   0.75231   0.77765
 Alpha virt. eigenvalues --    0.78582   0.79115   0.80269   0.80567   0.81613
 Alpha virt. eigenvalues --    0.81995   0.83522   0.84740   0.85645   0.86013
 Alpha virt. eigenvalues --    0.87384   0.87795   0.88203   0.88807   0.89176
 Alpha virt. eigenvalues --    0.90583   0.91481   0.91763   0.93298   0.94189
 Alpha virt. eigenvalues --    0.94991   0.96096   0.97505   0.97739   0.98647
 Alpha virt. eigenvalues --    0.99482   1.00021   1.01058   1.01864   1.03097
 Alpha virt. eigenvalues --    1.06275   1.06838   1.07079   1.09278   1.09829
 Alpha virt. eigenvalues --    1.10206   1.10995   1.11398   1.11779   1.13023
 Alpha virt. eigenvalues --    1.13773   1.14663   1.15789   1.16923   1.18360
 Alpha virt. eigenvalues --    1.18709   1.19514   1.22213   1.22659   1.23441
 Alpha virt. eigenvalues --    1.24035   1.24686   1.26334   1.27232   1.28263
 Alpha virt. eigenvalues --    1.29315   1.31695   1.32236   1.32738   1.34439
 Alpha virt. eigenvalues --    1.34752   1.36063   1.37463   1.37906   1.41085
 Alpha virt. eigenvalues --    1.41813   1.45471   1.47481   1.48794   1.50940
 Alpha virt. eigenvalues --    1.53315   1.54501   1.55834   1.56824   1.57709
 Alpha virt. eigenvalues --    1.60243   1.60726   1.61455   1.63492   1.64130
 Alpha virt. eigenvalues --    1.65167   1.66195   1.68264   1.69255   1.71496
 Alpha virt. eigenvalues --    1.72179   1.73472   1.75147   1.76167   1.77622
 Alpha virt. eigenvalues --    1.78491   1.79587   1.82783   1.83959   1.84779
 Alpha virt. eigenvalues --    1.85020   1.85228   1.86550   1.89144   1.90022
 Alpha virt. eigenvalues --    1.90779   1.94973   1.95615   1.95953   1.97802
 Alpha virt. eigenvalues --    1.98382   1.98452   1.98935   2.00349   2.01447
 Alpha virt. eigenvalues --    2.01783   2.04443   2.05645   2.07255   2.07722
 Alpha virt. eigenvalues --    2.08831   2.09862   2.12823   2.13546   2.13908
 Alpha virt. eigenvalues --    2.14302   2.14772   2.15077   2.16086   2.17260
 Alpha virt. eigenvalues --    2.17736   2.19326   2.19918   2.21978   2.24798
 Alpha virt. eigenvalues --    2.25698   2.26288   2.28789   2.29126   2.31266
 Alpha virt. eigenvalues --    2.31704   2.32664   2.34012   2.36513   2.39092
 Alpha virt. eigenvalues --    2.39264   2.41333   2.43086   2.44281   2.47243
 Alpha virt. eigenvalues --    2.48955   2.49195   2.52610   2.53242   2.55785
 Alpha virt. eigenvalues --    2.57838   2.61108   2.65829   2.71193   2.74201
 Alpha virt. eigenvalues --    2.75312   2.75392   2.78441   2.79770   2.82801
 Alpha virt. eigenvalues --    2.85370   2.87795   2.88879   2.91092   2.91690
 Alpha virt. eigenvalues --    2.91955   2.94518   2.99033   3.07297   3.10525
 Alpha virt. eigenvalues --    3.12605   3.24338   3.24893   3.28303   3.35876
 Alpha virt. eigenvalues --    3.37845   3.43333   3.44899   3.51131   4.30020
 Alpha virt. eigenvalues --    4.35210   4.38940   4.42700   4.47586   4.50366
 Alpha virt. eigenvalues --    4.51010   4.55195   4.58344   4.60941   4.61558
 Alpha virt. eigenvalues --    4.63494   4.68900   4.73674   4.81106   4.89571
 Alpha virt. eigenvalues --    5.57243   6.06800   6.92682
          Condensed to atoms (all electrons):
               1          2          3          4          5          6
     1  C   13.527212  -0.974593  -0.854053  -0.063247  -0.765458  -2.232201
     2  C   -0.974593  29.036610  -1.532927  -7.694933  -2.616530 -10.301912
     3  C   -0.854053  -1.532927  20.253694  -3.068957  -9.535051   2.799838
     4  C   -0.063247  -7.694933  -3.068957  25.669588   0.796288  -7.179082
     5  C   -0.765458  -2.616530  -9.535051   0.796288  20.016778  -2.386233
     6  C   -2.232201 -10.301912   2.799838  -7.179082  -2.386233  24.872811
     7  N   -0.044861  -0.104830  -0.465755   0.727683   0.055409   0.158639
     8  C   -0.262901   0.215172  -1.061308  -0.723125   0.615718  -0.370081
     9  N   -0.004841   0.021881  -0.057792  -0.125491  -0.013356  -0.027991
    10  O    0.005315  -0.040551  -0.358688  -0.235662   0.628677  -0.060971
    11  C   -0.018080   0.012701  -0.230518  -0.509090   0.155337  -0.009920
    12  C   -0.000038  -0.000918   0.009941   0.032024  -0.024331  -0.002158
    13  C   -0.000062   0.000026  -0.003123  -0.009395   0.001748  -0.000147
    14  H    0.000404  -0.002187  -0.011347   0.004917   0.020012   0.001516
    15  H    0.000089  -0.000708  -0.009533  -0.002405   0.009311   0.000179
    16  H   -0.000107   0.000365   0.005921   0.003880  -0.008091   0.000044
    17  H    0.000002  -0.000019  -0.000507  -0.000350   0.000401   0.000014
    18  H   -0.000002   0.000059   0.001125  -0.000357  -0.000970  -0.000032
    19  H   -0.000000   0.000001   0.000027   0.000116  -0.000117  -0.000004
    20  H   -0.000000  -0.000000  -0.000001  -0.000017   0.000002   0.000000
    21  H    0.000000  -0.000000  -0.000014  -0.000004   0.000021   0.000001
    22  H    0.194056  -0.066996   0.041236   0.006850  -0.025192   0.144757
    23  H    0.048141   0.032750  -0.031591   0.047355   0.012032   0.194445
    24  C   -1.098773  -0.069438  -0.129387  -0.778631  -0.529516   0.139086
    25  F   -0.036120   0.002467  -0.001040   0.033752   0.089204  -0.051121
    26  F    0.145262  -0.205308   0.048512   0.038587   0.003762  -0.028994
    27  F    0.129842  -0.244850   0.057937   0.031159  -0.003648   0.019422
    28  Cl  -0.173079   0.094866   0.210577  -0.390210  -0.288341   0.227929
    29  Cl   0.053259  -0.117772  -0.356042  -0.004220   0.054927   0.138408
               7          8          9         10         11         12
     1  C   -0.044861  -0.262901  -0.004841   0.005315  -0.018080  -0.000038
     2  C   -0.104830   0.215172   0.021881  -0.040551   0.012701  -0.000918
     3  C   -0.465755  -1.061308  -0.057792  -0.358688  -0.230518   0.009941
     4  C    0.727683  -0.723125  -0.125491  -0.235662  -0.509090   0.032024
     5  C    0.055409   0.615718  -0.013356   0.628677   0.155337  -0.024331
     6  C    0.158639  -0.370081  -0.027991  -0.060971  -0.009920  -0.002158
     7  N    7.396727   0.319270  -0.346776  -0.240421  -0.116271   0.018880
     8  C    0.319270   6.781075   0.128456   0.670811  -0.792079   0.179285
     9  N   -0.346776   0.128456   7.891932  -0.222879   0.354632  -0.077139
    10  O   -0.240421   0.670811  -0.222879   8.701605  -0.082610   0.023003
    11  C   -0.116271  -0.792079   0.354632  -0.082610   7.283397  -0.596564
    12  C    0.018880   0.179285  -0.077139   0.023003  -0.596564   6.323922
    13  C   -0.002479  -0.075480   0.003086  -0.002887  -0.004530  -0.032693
    14  H    0.034556   0.080413   0.231082   0.011420  -0.113160   0.001402
    15  H   -0.001782  -0.013940  -0.059942  -0.000705   0.437425  -0.058918
    16  H    0.000432   0.009485  -0.068404   0.000823   0.414414  -0.054717
    17  H   -0.000472  -0.006586   0.003495  -0.000262  -0.070009   0.421899
    18  H   -0.000077  -0.000744   0.002980  -0.000292  -0.080952   0.429644
    19  H    0.000029   0.000233   0.000330  -0.000057  -0.016491  -0.057073
    20  H    0.000011  -0.000766   0.000663   0.000006   0.037798  -0.105404
    21  H    0.000012  -0.000017   0.000106  -0.000063  -0.010372  -0.062533
    22  H   -0.000139   0.000775  -0.000002  -0.000008   0.000004   0.000000
    23  H   -0.000650  -0.000249  -0.000023   0.000043  -0.000001  -0.000000
    24  C    0.005224  -0.093015   0.000363  -0.002196  -0.002229   0.000006
    25  F   -0.000058   0.000048  -0.000001  -0.000005  -0.000002   0.000000
    26  F   -0.000002  -0.000159  -0.000000   0.000001  -0.000002   0.000000
    27  F   -0.000114   0.000159  -0.000001  -0.000002   0.000001  -0.000000
    28  Cl   0.070965   0.021665   0.015285  -0.181121   0.023436   0.000992
    29  Cl  -0.001137  -0.013203   0.001453   0.003148   0.001135   0.000733
              13         14         15         16         17         18
     1  C   -0.000062   0.000404   0.000089  -0.000107   0.000002  -0.000002
     2  C    0.000026  -0.002187  -0.000708   0.000365  -0.000019   0.000059
     3  C   -0.003123  -0.011347  -0.009533   0.005921  -0.000507   0.001125
     4  C   -0.009395   0.004917  -0.002405   0.003880  -0.000350  -0.000357
     5  C    0.001748   0.020012   0.009311  -0.008091   0.000401  -0.000970
     6  C   -0.000147   0.001516   0.000179   0.000044   0.000014  -0.000032
     7  N   -0.002479   0.034556  -0.001782   0.000432  -0.000472  -0.000077
     8  C   -0.075480   0.080413  -0.013940   0.009485  -0.006586  -0.000744
     9  N    0.003086   0.231082  -0.059942  -0.068404   0.003495   0.002980
    10  O   -0.002887   0.011420  -0.000705   0.000823  -0.000262  -0.000292
    11  C   -0.004530  -0.113160   0.437425   0.414414  -0.070009  -0.080952
    12  C   -0.032693   0.001402  -0.058918  -0.054717   0.421899   0.429644
    13  C    5.645458  -0.003640   0.003091  -0.004085  -0.037074  -0.039822
    14  H   -0.003640   0.332665   0.002679   0.002623   0.000466   0.000495
    15  H    0.003091   0.002679   0.532683  -0.042634   0.004269  -0.006253
    16  H   -0.004085   0.002623  -0.042634   0.535710  -0.006300   0.004294
    17  H   -0.037074   0.000466   0.004269  -0.006300   0.524048  -0.034688
    18  H   -0.039822   0.000495  -0.006253   0.004294  -0.034688   0.523048
    19  H    0.418374   0.000001  -0.000326   0.002787  -0.004924   0.004112
    20  H    0.415502  -0.000002  -0.000077  -0.000072  -0.003175  -0.003144
    21  H    0.418246   0.000000   0.002786  -0.000334   0.004126  -0.004908
    22  H    0.000000   0.000000  -0.000000   0.000000  -0.000000   0.000000
    23  H   -0.000000   0.000000   0.000000  -0.000000   0.000000  -0.000000
    24  C   -0.000004   0.000009  -0.000002   0.000002  -0.000000   0.000000
    25  F   -0.000000   0.000000  -0.000000   0.000000  -0.000000  -0.000000
    26  F   -0.000000  -0.000000   0.000000  -0.000000   0.000000  -0.000000
    27  F    0.000000   0.000000  -0.000000   0.000000  -0.000000   0.000000
    28  Cl   0.000668  -0.001176  -0.000254   0.000355  -0.000004   0.000039
    29  Cl   0.000001  -0.000201   0.000113  -0.000037   0.000003  -0.000019
              19         20         21         22         23         24
     1  C   -0.000000  -0.000000   0.000000   0.194056   0.048141  -1.098773
     2  C    0.000001  -0.000000  -0.000000  -0.066996   0.032750  -0.069438
     3  C    0.000027  -0.000001  -0.000014   0.041236  -0.031591  -0.129387
     4  C    0.000116  -0.000017  -0.000004   0.006850   0.047355  -0.778631
     5  C   -0.000117   0.000002   0.000021  -0.025192   0.012032  -0.529516
     6  C   -0.000004   0.000000   0.000001   0.144757   0.194445   0.139086
     7  N    0.000029   0.000011   0.000012  -0.000139  -0.000650   0.005224
     8  C    0.000233  -0.000766  -0.000017   0.000775  -0.000249  -0.093015
     9  N    0.000330   0.000663   0.000106  -0.000002  -0.000023   0.000363
    10  O   -0.000057   0.000006  -0.000063  -0.000008   0.000043  -0.002196
    11  C   -0.016491   0.037798  -0.010372   0.000004  -0.000001  -0.002229
    12  C   -0.057073  -0.105404  -0.062533   0.000000  -0.000000   0.000006
    13  C    0.418374   0.415502   0.418246   0.000000  -0.000000  -0.000004
    14  H    0.000001  -0.000002   0.000000   0.000000   0.000000   0.000009
    15  H   -0.000326  -0.000077   0.002786  -0.000000   0.000000  -0.000002
    16  H    0.002787  -0.000072  -0.000334   0.000000  -0.000000   0.000002
    17  H   -0.004924  -0.003175   0.004126  -0.000000   0.000000  -0.000000
    18  H    0.004112  -0.003144  -0.004908   0.000000  -0.000000   0.000000
    19  H    0.504301  -0.026685  -0.028606  -0.000000  -0.000000   0.000000
    20  H   -0.026685   0.522228  -0.026647  -0.000000  -0.000000  -0.000000
    21  H   -0.028606  -0.026647   0.504051   0.000000   0.000000   0.000000
    22  H   -0.000000  -0.000000   0.000000   0.487271  -0.000140   0.003690
    23  H   -0.000000  -0.000000   0.000000  -0.000140   0.479331  -0.002254
    24  C    0.000000  -0.000000   0.000000   0.003690  -0.002254   6.831050
    25  F   -0.000000  -0.000000   0.000000   0.000306   0.007360   0.068838
    26  F    0.000000  -0.000000   0.000000   0.000387  -0.000074   0.108295
    27  F    0.000000  -0.000000  -0.000000   0.000433  -0.000080   0.122347
    28  Cl   0.000021   0.000000  -0.000003   0.000445  -0.009497   0.006943
    29  Cl  -0.000000   0.000000   0.000000  -0.005223   0.000223   0.002522
              25         26         27         28         29
     1  C   -0.036120   0.145262   0.129842  -0.173079   0.053259
     2  C    0.002467  -0.205308  -0.244850   0.094866  -0.117772
     3  C   -0.001040   0.048512   0.057937   0.210577  -0.356042
     4  C    0.033752   0.038587   0.031159  -0.390210  -0.004220
     5  C    0.089204   0.003762  -0.003648  -0.288341   0.054927
     6  C   -0.051121  -0.028994   0.019422   0.227929   0.138408
     7  N   -0.000058  -0.000002  -0.000114   0.070965  -0.001137
     8  C    0.000048  -0.000159   0.000159   0.021665  -0.013203
     9  N   -0.000001  -0.000000  -0.000001   0.015285   0.001453
    10  O   -0.000005   0.000001  -0.000002  -0.181121   0.003148
    11  C   -0.000002  -0.000002   0.000001   0.023436   0.001135
    12  C    0.000000   0.000000  -0.000000   0.000992   0.000733
    13  C   -0.000000  -0.000000   0.000000   0.000668   0.000001
    14  H    0.000000  -0.000000   0.000000  -0.001176  -0.000201
    15  H   -0.000000   0.000000  -0.000000  -0.000254   0.000113
    16  H    0.000000  -0.000000   0.000000   0.000355  -0.000037
    17  H   -0.000000   0.000000  -0.000000  -0.000004   0.000003
    18  H   -0.000000  -0.000000   0.000000   0.000039  -0.000019
    19  H   -0.000000   0.000000   0.000000   0.000021  -0.000000
    20  H   -0.000000  -0.000000  -0.000000   0.000000   0.000000
    21  H    0.000000   0.000000  -0.000000  -0.000003   0.000000
    22  H    0.000306   0.000387   0.000433   0.000445  -0.005223
    23  H    0.007360  -0.000074  -0.000080  -0.009497   0.000223
    24  C    0.068838   0.108295   0.122347   0.006943   0.002522
    25  F    9.306635  -0.037368  -0.036853  -0.000689   0.000038
    26  F   -0.037368   9.260776  -0.053097  -0.000430  -0.000511
    27  F   -0.036853  -0.053097   9.255191  -0.000095   0.000320
    28  Cl  -0.000689  -0.000430  -0.000095  17.162714   0.001216
    29  Cl   0.000038  -0.000511   0.000320   0.001216  17.107787
 Mulliken charges:
               1
     1  C   -1.575165
     2  C    0.557573
     3  C    0.278825
     4  C   -0.607023
     5  C   -0.262791
     6  C   -0.046241
     7  N   -0.462012
     8  C    0.391091
     9  N   -0.651107
    10  O   -0.615472
    11  C   -0.067401
    12  C   -0.369245
    13  C   -0.690779
    14  H    0.407054
    15  H    0.204853
    16  H    0.203645
    17  H    0.205646
    18  H    0.206464
    19  H    0.203951
    20  H    0.189781
    21  H    0.204152
    22  H    0.217490
    23  H    0.222879
    24  C    1.417069
    25  F   -0.345389
    26  F   -0.279637
    27  F   -0.278071
    28  Cl   0.206782
    29  Cl   0.133080
 Sum of Mulliken charges =  -1.00000
 Mulliken charges with hydrogens summed into heavy atoms:
               1
     1  C   -1.575165
     2  C    0.775063
     3  C    0.278825
     4  C   -0.607023
     5  C   -0.262791
     6  C    0.176638
     7  N   -0.462012
     8  C    0.391091
     9  N   -0.244053
    10  O   -0.615472
    11  C    0.341098
    12  C    0.042865
    13  C   -0.092896
    24  C    1.417069
    25  F   -0.345389
    26  F   -0.279637
    27  F   -0.278071
    28  Cl   0.206782
    29  Cl   0.133080
 Electronic spatial extent (au):  <R**2>=           9082.9048
 Charge=             -1.0000 electrons
 Dipole moment (field-independent basis, Debye):
    X=             -0.6532    Y=              0.7142    Z=             -0.6539  Tot=              1.1681
 Quadrupole moment (field-independent basis, Debye-Ang):
   XX=           -158.0179   YY=           -140.4270   ZZ=           -133.7906
   XY=             -3.7196   XZ=              2.8024   YZ=              2.4901
 Traceless Quadrupole moment (field-independent basis, Debye-Ang):
   XX=            -13.9394   YY=              3.6515   ZZ=             10.2879
   XY=             -3.7196   XZ=              2.8024   YZ=              2.4901
 Octapole moment (field-independent basis, Debye-Ang**2):
  XXX=            -14.4359  YYY=            -15.5536  ZZZ=              6.5225  XYY=             26.9321
  XXY=             22.8001  XXZ=            -17.4696  XZZ=             21.6928  YZZ=             -0.7951
  YYZ=              2.2896  XYZ=             -4.5819
 Hexadecapole moment (field-independent basis, Debye-Ang**3):
 XXXX=         -10557.2494 YYYY=          -1830.6480 ZZZZ=           -342.7696 XXXY=            -59.1725
 XXXZ=             76.4476 YYYX=            -34.8001 YYYZ=              3.5513 ZZZX=             17.9122
 ZZZY=              0.6398 XXYY=          -1909.8534 XXZZ=          -1703.9610 YYZZ=           -367.8595
 XXYZ=             19.6208 YYXZ=             25.8504 ZZXY=            -21.6317
 N-N= 1.672254685525D+03 E-N=-7.682531220324D+03  KE= 1.819043842537D+03
 Calling FoFJK, ICntrl=      2127 FMM=F ISym2X=0 I1Cent= 0 IOpClX= 0 NMat=1 NMatS=1 NMatT=0.
 ***** Axes restored to original set *****
 -------------------------------------------------------------------
 Center     Atomic                   Forces (Hartrees/Bohr)
 Number     Number              X              Y              Z
 -------------------------------------------------------------------
      1        6           0.005595704    0.006625351   -0.003094894
      2        6           0.004769650   -0.007908327    0.002598361
      3        6          -0.018943805    0.010834294   -0.007104217
      4        6           0.094778166   -0.027974407    0.031225203
      5        6          -0.020802557    0.008960473   -0.006986371
      6        6           0.003710270   -0.003582372    0.002186672
      7        7          -0.040505515   -0.014965451   -0.015162931
      8        6          -0.054961241    0.019024312   -0.023534993
      9        7           0.011825999   -0.040516346   -0.001883886
     10        8           0.023930655    0.036924791    0.025132440
     11        6          -0.005081619    0.000605631   -0.002386492
     12        6          -0.004609607   -0.001964797   -0.002399129
     13        6           0.005763365   -0.001114242    0.002498524
     14        1          -0.000572594    0.019005480    0.002020041
     15        1           0.003729444   -0.000594066   -0.009041757
     16        1          -0.004048166   -0.002628058    0.008584870
     17        1          -0.004312392    0.002107400    0.007970676
     18        1           0.002887997    0.004031535   -0.007890240
     19        1          -0.003531277   -0.005494039    0.008049035
     20        1          -0.003383974    0.009604786   -0.000367188
     21        1           0.004143664   -0.003480551   -0.008834713
     22        1          -0.001491615   -0.001569432    0.001003206
     23        1           0.000070566    0.001614866   -0.000598854
     24        6           0.021664681   -0.006310845    0.004976198
     25        9          -0.017421372   -0.028902176    0.013681746
     26        9          -0.000043517    0.026606316    0.019052232
     27        9           0.003070274    0.000077624   -0.032841525
     28       17          -0.011392435   -0.008786593   -0.002276714
     29       17           0.005161251    0.009768844   -0.004575301
 -------------------------------------------------------------------
 Cartesian Forces:  Max     0.094778166 RMS     0.017926395

 GradGradGradGradGradGradGradGradGradGradGradGradGradGradGradGradGradGrad
 Berny optimization.
 FormGI is forming the generalized inverse of G from B-inverse, IUseBI=4.
 GSVD:  received Info=                   1 from GESDD.
 Internal  Forces:  Max     0.070801816 RMS     0.012541762
 Search for a local minimum.
 Step number   1 out of a maximum of  150
 All quantities printed in internal units (Hartrees-Bohrs-Radians)
 Mixed Optimization -- RFO/linear search
 Second derivative matrix not updated -- first step.
 ITU=  0
     Eigenvalues ---    0.00329   0.00424   0.00648   0.00997   0.01190
     Eigenvalues ---    0.01472   0.01499   0.01705   0.01845   0.01907
     Eigenvalues ---    0.01997   0.02046   0.02076   0.02107   0.02128
     Eigenvalues ---    0.02133   0.02177   0.02184   0.03755   0.04438
     Eigenvalues ---    0.04933   0.05553   0.05673   0.05783   0.08034
     Eigenvalues ---    0.09179   0.11011   0.11435   0.11976   0.12668
     Eigenvalues ---    0.15998   0.16000   0.16000   0.16000   0.16000
     Eigenvalues ---    0.16000   0.21964   0.22000   0.22003   0.23458
     Eigenvalues ---    0.23486   0.24928   0.24983   0.24987   0.24992
     Eigenvalues ---    0.24996   0.24998   0.25000   0.25000   0.25000
     Eigenvalues ---    0.25000   0.25000   0.29148   0.29211   0.29314
     Eigenvalues ---    0.29807   0.31459   0.32336   0.32339   0.32405
     Eigenvalues ---    0.32406   0.32504   0.32507   0.32559   0.35546
     Eigenvalues ---    0.35653   0.37913   0.39669   0.39868   0.40878
     Eigenvalues ---    0.42437   0.43547   0.44647   0.45660   0.45983
     Eigenvalues ---    0.48316   0.48532   0.48545   0.51620   0.52392
     Eigenvalues ---    0.94695
 RFO step:  Lambda=-6.38645876D-02 EMin= 3.29355040D-03
 Linear search not attempted -- first point.
 Maximum step size (   0.300) exceeded in Quadratic search.
    -- Step size scaled by   0.792
 Iteration  1 RMS(Cart)=  0.17653767 RMS(Int)=  0.00952153
 Iteration  2 RMS(Cart)=  0.01644497 RMS(Int)=  0.00036687
 Iteration  3 RMS(Cart)=  0.00017315 RMS(Int)=  0.00036482
 Iteration  4 RMS(Cart)=  0.00000004 RMS(Int)=  0.00036482
 Variable       Old X    -DE/DX   Delta X   Delta X   Delta X     New X
                                 (Linear)    (Quad)   (Total)
    R1        2.64034  -0.00388   0.00000  -0.00628  -0.00636   2.63398
    R2        2.64715  -0.00808   0.00000  -0.01268  -0.01276   2.63439
    R3        2.85145  -0.01141   0.00000  -0.02388  -0.02388   2.82757
    R4        2.63978  -0.01455   0.00000  -0.02204  -0.02204   2.61773
    R5        2.04798   0.00215   0.00000   0.00407   0.00407   2.05205
    R6        2.67602   0.00133   0.00000   0.00249   0.00256   2.67858
    R7        3.33052  -0.01132   0.00000  -0.02512  -0.02512   3.30540
    R8        2.69702   0.00259   0.00000   0.00475   0.00484   2.70187
    R9        2.71733  -0.07080   0.00000  -0.12124  -0.12124   2.59609
   R10        2.64793  -0.01047   0.00000  -0.01594  -0.01593   2.63200
   R11        3.33264  -0.01306   0.00000  -0.02907  -0.02907   3.30358
   R12        2.04628   0.00171   0.00000   0.00322   0.00322   2.04950
   R13        2.58265  -0.01116   0.00000  -0.01524  -0.01524   2.56741
   R14        2.57526   0.01374   0.00000   0.01852   0.01852   2.59378
   R15        2.30842   0.04285   0.00000   0.03358   0.03358   2.34199
   R16        2.74493  -0.00837   0.00000  -0.01496  -0.01496   2.72997
   R17        1.95071  -0.01891   0.00000  -0.03069  -0.03069   1.92002
   R18        2.89696  -0.00488   0.00000  -0.01087  -0.01087   2.88609
   R19        2.10229  -0.00884   0.00000  -0.01807  -0.01807   2.08421
   R20        2.10234  -0.00882   0.00000  -0.01805  -0.01805   2.08429
   R21        2.88349   0.00293   0.00000   0.00641   0.00641   2.88990
   R22        2.10110  -0.00876   0.00000  -0.01790  -0.01790   2.08320
   R23        2.10108  -0.00878   0.00000  -0.01793  -0.01793   2.08315
   R24        2.09931  -0.01008   0.00000  -0.02053  -0.02053   2.07878
   R25        2.09832  -0.00954   0.00000  -0.01940  -0.01940   2.07892
   R26        2.09926  -0.01008   0.00000  -0.02052  -0.02052   2.07875
   R27        2.61604  -0.03462   0.00000  -0.05013  -0.05013   2.56590
   R28        2.61376  -0.02777   0.00000  -0.04005  -0.04005   2.57371
   R29        2.61363  -0.02806   0.00000  -0.04047  -0.04047   2.57316
    A1        2.07579   0.00236   0.00000   0.00501   0.00486   2.08065
    A2        2.08204  -0.00199   0.00000  -0.00458  -0.00452   2.07752
    A3        2.12528  -0.00038   0.00000  -0.00051  -0.00044   2.12484
    A4        2.11050  -0.00512   0.00000  -0.01479  -0.01486   2.09564
    A5        2.08930   0.00358   0.00000   0.01100   0.01103   2.10034
    A6        2.08338   0.00154   0.00000   0.00379   0.00383   2.08720
    A7        2.11024   0.01271   0.00000   0.03288   0.03294   2.14319
    A8        2.04637   0.00006   0.00000  -0.00031  -0.00036   2.04601
    A9        2.12633  -0.01278   0.00000  -0.03271  -0.03275   2.09358
   A10        2.05823  -0.01640   0.00000  -0.03989  -0.03978   2.01845
   A11        2.06048  -0.01197   0.00000  -0.03134  -0.03150   2.02898
   A12        2.16392   0.02828   0.00000   0.07032   0.07001   2.23392
   A13        2.09553   0.00819   0.00000   0.02129   0.02119   2.11673
   A14        2.17755  -0.00359   0.00000  -0.01033  -0.01059   2.16696
   A15        2.00782  -0.00486   0.00000  -0.01352  -0.01388   1.99394
   A16        2.11556  -0.00180   0.00000  -0.00510  -0.00515   2.11041
   A17        2.09441   0.00082   0.00000   0.00222   0.00222   2.09663
   A18        2.07311   0.00097   0.00000   0.00275   0.00275   2.07586
   A19        2.21034  -0.01431   0.00000  -0.03612  -0.03612   2.17422
   A20        2.08775  -0.04548   0.00000  -0.11515  -0.11538   1.97237
   A21        2.10971   0.05222   0.00000   0.13143   0.13110   2.24081
   A22        2.08459  -0.00695   0.00000  -0.01794  -0.01810   2.06649
   A23        2.12647  -0.00286   0.00000  -0.00798  -0.00798   2.11848
   A24        2.07805  -0.00130   0.00000  -0.00568  -0.00568   2.07237
   A25        2.07866   0.00416   0.00000   0.01366   0.01366   2.09233
   A26        1.93725  -0.00371   0.00000  -0.00806  -0.00804   1.92921
   A27        1.90658   0.00155   0.00000   0.00563   0.00564   1.91222
   A28        1.90577   0.00182   0.00000   0.00708   0.00709   1.91287
   A29        1.90602   0.00180   0.00000   0.00597   0.00598   1.91201
   A30        1.90551   0.00168   0.00000   0.00575   0.00576   1.91127
   A31        1.90239  -0.00318   0.00000  -0.01665  -0.01665   1.88574
   A32        1.94148   0.00089   0.00000   0.00445   0.00444   1.94592
   A33        1.91050  -0.00066   0.00000  -0.00290  -0.00294   1.90756
   A34        1.91073  -0.00069   0.00000  -0.00314  -0.00317   1.90756
   A35        1.90084   0.00093   0.00000   0.00592   0.00592   1.90677
   A36        1.90133   0.00090   0.00000   0.00573   0.00573   1.90706
   A37        1.89843  -0.00140   0.00000  -0.01034  -0.01037   1.88806
   A38        1.92572   0.00183   0.00000   0.00588   0.00584   1.93156
   A39        1.91257   0.00464   0.00000   0.01758   0.01750   1.93007
   A40        1.92586   0.00183   0.00000   0.00587   0.00583   1.93169
   A41        1.89663  -0.00281   0.00000  -0.00878  -0.00886   1.88777
   A42        1.90574  -0.00283   0.00000  -0.01223  -0.01223   1.89351
   A43        1.89683  -0.00282   0.00000  -0.00887  -0.00895   1.88787
   A44        1.95244   0.01148   0.00000   0.03002   0.02907   1.98152
   A45        1.91024   0.02310   0.00000   0.05774   0.05652   1.96676
   A46        1.90988   0.02317   0.00000   0.05802   0.05679   1.96667
   A47        1.89399  -0.01763   0.00000  -0.04357  -0.04440   1.84958
   A48        1.89384  -0.01753   0.00000  -0.04310  -0.04395   1.84989
   A49        1.90279  -0.02429   0.00000  -0.06346  -0.06482   1.83797
    D1        0.00876   0.00082   0.00000   0.00732   0.00748   0.01624
    D2       -3.13208   0.00063   0.00000   0.00603   0.00605  -3.12603
    D3        3.13745   0.00010   0.00000   0.00025   0.00035   3.13780
    D4       -0.00339  -0.00009   0.00000  -0.00104  -0.00109  -0.00447
    D5       -0.01361  -0.00077   0.00000  -0.00770  -0.00767  -0.02128
    D6        3.11228  -0.00190   0.00000  -0.01748  -0.01769   3.09459
    D7        3.14122  -0.00002   0.00000  -0.00041  -0.00030   3.14092
    D8       -0.01608  -0.00114   0.00000  -0.01019  -0.01032  -0.02640
    D9       -3.13636   0.00042   0.00000   0.00388   0.00391  -3.13245
   D10       -1.03660   0.00118   0.00000   0.00727   0.00708  -1.02952
   D11        1.04750  -0.00051   0.00000  -0.00026  -0.00004   1.04747
   D12       -0.00805  -0.00031   0.00000  -0.00336  -0.00338  -0.01143
   D13        2.09171   0.00046   0.00000   0.00003  -0.00020   2.09151
   D14       -2.10737  -0.00123   0.00000  -0.00750  -0.00732  -2.11469
   D15        0.01546   0.00078   0.00000   0.00706   0.00706   0.02252
   D16        3.13374  -0.00015   0.00000  -0.00027  -0.00058   3.13317
   D17       -3.12688   0.00097   0.00000   0.00835   0.00849  -3.11840
   D18       -0.00860   0.00004   0.00000   0.00102   0.00085  -0.00775
   D19       -0.03390  -0.00187   0.00000  -0.01934  -0.01906  -0.05296
   D20       -3.14118   0.00041   0.00000   0.00750   0.00638  -3.13481
   D21        3.13208  -0.00110   0.00000  -0.01216  -0.01169   3.12039
   D22        0.02480   0.00118   0.00000   0.01468   0.01374   0.03855
   D23        0.02889   0.00178   0.00000   0.01852   0.01829   0.04718
   D24       -3.03643   0.00638   0.00000   0.06182   0.06176  -2.97467
   D25        3.13397  -0.00158   0.00000  -0.01239  -0.01319   3.12077
   D26        0.06864   0.00302   0.00000   0.03091   0.03027   0.09892
   D27       -2.50567   0.01368   0.00000   0.14548   0.14514  -2.36053
   D28        0.67248   0.01713   0.00000   0.17659   0.17694   0.84942
   D29       -0.00556  -0.00076   0.00000  -0.00595  -0.00627  -0.01183
   D30       -3.13164   0.00035   0.00000   0.00372   0.00364  -3.12801
   D31        3.06688  -0.00494   0.00000  -0.04525  -0.04574   3.02114
   D32       -0.05920  -0.00383   0.00000  -0.03559  -0.03584  -0.09504
   D33       -3.13691   0.00928   0.00000   0.09039   0.08901  -3.04790
   D34        0.05594   0.01431   0.00000   0.12893   0.13030   0.18625
   D35       -3.11876   0.00170   0.00000   0.01776   0.01697  -3.10178
   D36        0.02672   0.00163   0.00000   0.01715   0.01637   0.04309
   D37       -0.02769  -0.00148   0.00000  -0.01573  -0.01495  -0.04264
   D38        3.11780  -0.00155   0.00000  -0.01635  -0.01556   3.10223
   D39       -3.13777  -0.00004   0.00000  -0.00050  -0.00050  -3.13827
   D40        1.04273  -0.00095   0.00000  -0.00650  -0.00650   1.03623
   D41       -1.03625   0.00091   0.00000   0.00617   0.00617  -1.03008
   D42       -0.00007   0.00002   0.00000   0.00007   0.00008   0.00000
   D43       -2.10276  -0.00089   0.00000  -0.00593  -0.00593  -2.10868
   D44        2.10145   0.00096   0.00000   0.00675   0.00674   2.10820
   D45        3.13998   0.00011   0.00000   0.00081   0.00081   3.14079
   D46        1.03850  -0.00117   0.00000  -0.00751  -0.00749   1.03100
   D47       -1.04096   0.00135   0.00000   0.00874   0.00872  -1.03224
   D48       -1.04019   0.00088   0.00000   0.00661   0.00661  -1.03358
   D49        3.14151  -0.00041   0.00000  -0.00171  -0.00170   3.13982
   D50        1.06206   0.00212   0.00000   0.01454   0.01452   1.07658
   D51        1.03830  -0.00091   0.00000  -0.00665  -0.00665   1.03165
   D52       -1.06319  -0.00220   0.00000  -0.01497  -0.01496  -1.07814
   D53        3.14054   0.00033   0.00000   0.00127   0.00126  -3.14138
   D54       -1.05353   0.00056   0.00000   0.00366   0.00368  -1.04985
   D55       -3.14120  -0.00003   0.00000  -0.00022  -0.00022  -3.14142
   D56        1.05397  -0.00060   0.00000  -0.00397  -0.00399   1.04998
   D57        1.05365   0.00091   0.00000   0.00673   0.00676   1.06041
   D58       -1.03403   0.00032   0.00000   0.00286   0.00286  -1.03116
   D59       -3.12204  -0.00026   0.00000  -0.00090  -0.00091  -3.12295
   D60        3.12188   0.00027   0.00000   0.00099   0.00101   3.12289
   D61        1.03420  -0.00032   0.00000  -0.00288  -0.00289   1.03131
   D62       -1.05381  -0.00089   0.00000  -0.00663  -0.00666  -1.06047
         Item               Value     Threshold  Converged?
 Maximum Force            0.070802     0.000450     NO 
 RMS     Force            0.012542     0.000300     NO 
 Maximum Displacement     0.616374     0.001800     NO 
 RMS     Displacement     0.177700     0.001200     NO 
 Predicted change in Energy=-3.624965D-02
 GradGradGradGradGradGradGradGradGradGradGradGradGradGradGradGradGradGrad

                          Input orientation:                          
 ---------------------------------------------------------------------
 Center     Atomic      Atomic             Coordinates (Angstroms)
 Number     Number       Type             X           Y           Z
 ---------------------------------------------------------------------
      1          6           0       -4.161137    3.483142   -1.103067
      2          6           0       -4.180860    2.291862   -0.379705
      3          6           0       -2.992488    1.701708    0.018283
      4          6           0       -1.723431    2.271163   -0.254410
      5          6           0       -1.737641    3.471001   -1.031852
      6          6           0       -2.934963    4.057516   -1.434721
      7          7           0       -0.632447    1.567727    0.195293
      8          6           0        0.432754    2.120995    0.831749
      9          7           0        1.440438    1.220819    1.072989
     10          8           0        0.549760    3.270747    1.279321
     11          6           0        2.638021    1.604915    1.783791
     12          6           0        3.590948    0.417954    1.908510
     13          6           0        4.868099    0.801027    2.657380
     14          1           0        1.334214    0.267363    0.738383
     15          1           0        2.369589    1.969941    2.789341
     16          1           0        3.140684    2.425786    1.245252
     17          1           0        3.854985    0.055416    0.901485
     18          1           0        3.085127   -0.400247    2.446910
     19          1           0        5.402101    1.604401    2.128682
     20          1           0        5.543136   -0.063851    2.738436
     21          1           0        4.632726    1.148869    3.674071
     22          1           0       -5.125342    1.820962   -0.124013
     23          1           0       -2.901270    4.960580   -2.034378
     24          6           0       -5.458318    4.097827   -1.525375
     25          9           0       -5.308786    5.247621   -2.231974
     26          9           0       -6.201220    3.269300   -2.310579
     27          9           0       -6.260702    4.407876   -0.469837
     28         17           0       -0.308622    4.225328   -1.698948
     29         17           0       -3.104285    0.215220    0.933353
 ---------------------------------------------------------------------
                    Distance matrix (angstroms):
                    1          2          3          4          5
     1  C    0.000000
     2  C    1.393840   0.000000
     3  C    2.407628   1.385245   0.000000
     4  C    2.851582   2.460708   1.417443   0.000000
     5  C    2.424572   2.790158   2.409942   1.429765   0.000000
     6  C    1.394060   2.404757   2.768459   2.460082   1.392797
     7  N    4.219740   3.666910   2.370459   1.373791   2.519879
     8  C    5.167474   4.773076   3.545393   2.418972   3.163248
     9  N    6.421134   5.903934   4.581974   3.588214   4.426495
    10  O    5.283316   5.107773   4.074263   2.918715   3.257887
    11  C    7.621695   7.186776   5.901611   4.860084   5.527797
    12  C    8.863396   8.315555   6.968687   6.029530   6.808868
    13  C   10.142080   9.660752   8.340556   7.354460   8.023403
    14  H    6.628050   5.980364   4.614785   3.788146   4.778423
    15  H    7.751838   7.283877   6.041737   5.109596   5.807240
    16  H    7.742686   7.500895   6.296470   5.092398   5.484135
    17  H    8.945711   8.439072   7.097760   6.112639   6.832385
    18  H    8.954964   8.248138   6.874143   6.128278   7.095593
    19  H   10.267881   9.929640   8.656348   7.543003   8.028019
    20  H   11.023212  10.479899   9.130898   8.198318   8.928604
    21  H   10.276279   9.768257   8.474332   7.556007   8.253459
    22  H    2.156637   1.085897   2.140920   3.434048   3.875992
    23  H    2.153469   3.390775   3.852530   3.433447   2.139611
    24  C    1.496283   2.491179   3.768898   4.347578   3.805248
    25  F    2.388496   3.666010   4.796081   5.062097   4.165302
    26  F    2.380284   2.960661   4.263438   5.027395   4.647511
    27  F    2.379976   2.968397   4.271163   5.019838   4.653135
    28  Cl   3.968348   4.524701   4.064563   2.811963   1.748177
    29  Cl   3.992901   2.682457   1.749142   2.746714   4.041021
                    6          7          8          9         10
     6  C    0.000000
     7  N    3.762655   0.000000
     8  C    4.497613   1.358615   0.000000
     9  N    5.786155   2.277619   1.372567   0.000000
    10  O    4.486460   2.339445   1.239330   2.244568   0.000000
    11  C    6.887106   3.636024   2.456812   1.444637   2.718514
    12  C    8.186032   4.700442   3.746191   2.442822   4.217004
    13  C    9.393497   6.075006   4.974688   3.799392   5.162035
    14  H    6.108479   2.419432   2.063322   1.016033   3.150920
    15  H    7.094994   3.987867   2.757955   2.090543   2.698895
    16  H    6.838003   4.009389   2.756224   2.091042   2.725437
    17  H    8.220587   4.787780   3.997893   2.686562   4.626621
    18  H    8.436836   4.771065   4.000061   2.687102   4.611675
    19  H    9.392670   6.336805   5.161716   4.117814   5.200320
    20  H   10.309174   6.875132   5.875799   4.610447   6.179187
    21  H    9.582792   6.324507   5.163680   4.118436   5.187273
    22  H    3.393802   4.511340   5.647649   6.700929   6.023123
    23  H    1.084550   4.650854   5.233894   6.518587   5.074027
    24  C    2.525305   5.714118   6.645949   7.913375   6.681870
    25  F    2.772543   6.426616   7.219935   8.525839   7.110540
    26  F    3.472297   6.339241   7.429834   8.604634   7.646117
    27  F    3.480559   6.339250   7.192100   8.476155   7.122851
    28  Cl   2.644928   3.279611   3.373764   4.446337   3.243166
    29  Cl   4.516601   2.912729   4.019073   4.656741   4.775771
                   11         12         13         14         15
    11  C    0.000000
    12  C    1.527253   0.000000
    13  C    2.526389   1.529270   0.000000
    14  H    2.140522   2.546512   4.056561   0.000000
    15  H    1.102919   2.162462   2.761579   2.859581   0.000000
    16  H    1.102961   2.161952   2.760055   2.859902   1.785103
    17  H    2.158799   1.102384   2.159978   2.534918   3.071776
    18  H    2.158774   1.102353   2.160172   2.535836   2.499409
    19  H    2.785514   2.176329   1.100041   4.502033   3.125094
    20  H    3.483650   2.175305   1.100118   4.671717   3.769655
    21  H    2.785675   2.176407   1.100025   4.502832   2.564897
    22  H    7.997262   9.059431  10.423304   6.699497   8.042626
    23  H    7.518155   8.850464   9.983865   6.903174   7.745589
    24  C    9.094829  10.354818  11.618917   8.120071   9.188080
    25  F    9.620157  10.939586  12.134536   8.817904   9.742393
    26  F    9.882622  11.037093  12.381550   8.665481  10.057648
    27  F    9.598057  10.891786  12.109461   8.734208   9.541891
    28  Cl   5.261058   6.535785   7.582998   4.930007   5.692479
    29  Cl   5.968968   6.768912   8.177673   4.443085   6.040450
                   16         17         18         19         20
    16  H    0.000000
    17  H    2.499411   0.000000
    18  H    3.071405   1.785678   0.000000
    19  H    2.563030   2.509768   3.080300   0.000000
    20  H    3.768244   2.497693   2.497990   1.781785   0.000000
    21  H    3.123438   3.080221   2.510129   1.785406   1.781838
    22  H    8.400470   9.209510   8.885675  10.767943  11.205470
    23  H    7.327098   8.850249   9.200944   9.876283  10.923948
    24  C    9.187761  10.438791  10.440411  11.726807  12.511261
    25  F    9.562813  10.988733  11.146665  12.124828  13.064490
    26  F   10.031282  11.035110  11.060538  12.534591  13.211068
    27  F    9.759932  11.097367  10.907336  12.273253  13.023822
    28  Cl   4.878973   6.440965   7.078249   7.357469   8.504734
    29  Cl   6.632007   6.961177   6.401443   8.701565   8.838218
                   21         22         23         24         25
    21  H    0.000000
    22  H   10.492714   0.000000
    23  H   10.191989   4.295719   0.000000
    24  C   11.728588   2.694217   2.746257   0.000000
    25  F   12.268447   4.027300   2.432606   1.357817   0.000000
    26  F   12.557334   2.834831   3.718385   1.361949   2.171721
    27  F   12.102061   2.846184   3.746873   1.361657   2.171737
    28  Cl   7.921543   5.609117   2.715683   5.154198   5.131359
    29  Cl   8.261028   2.789463   5.600633   5.163473   6.340676
                   26         27         28         29
    26  F    0.000000
    27  F    2.165231   0.000000
    28  Cl   6.000899   6.080402   0.000000
    29  Cl   5.426002   5.432336   5.552090   0.000000
 Stoichiometry    C11H10Cl2F3N2O(1-)
 Framework group  C1[X(C11H10Cl2F3N2O)]
 Deg. of freedom    81
 Full point group                 C1      NOp   1
 Largest Abelian subgroup         C1      NOp   1
 Largest concise Abelian subgroup C1      NOp   1
                         Standard orientation:                         
 ---------------------------------------------------------------------
 Center     Atomic      Atomic             Coordinates (Angstroms)
 Number     Number       Type             X           Y           Z
 ---------------------------------------------------------------------
      1          6           0        2.884654   -0.066278    0.042353
      2          6           0        2.304498    1.199864   -0.013245
      3          6           0        0.935696    1.329378   -0.182106
      4          6           0        0.065138    0.214914   -0.278239
      5          6           0        0.696931   -1.067520   -0.257534
      6          6           0        2.074362   -1.192513   -0.093389
      7          7           0       -1.267757    0.498285   -0.452574
      8          6           0       -2.279573   -0.109319    0.220390
      9          7           0       -3.522188    0.270982   -0.221446
     10          8           0       -2.207937   -0.861239    1.202950
     11          6           0       -4.726904   -0.227663    0.400637
     12          6           0       -5.962895    0.349008   -0.286588
[...]
 00075,-0.00000106,0.00000072,0.00000119,0.00000554,-0.00000114,0.00000
 154,-0.00000100,0.00000107,-0.00000151,0.00006971,0.00010031,0.0004853
 1,0.03452513,0.22193925,-0.00080687,0.00483576,-0.00069199,0.00145020,
 0.00220013,0.00315231,-0.00000123,-0.00081894,-0.00000250,-0.00131794,
 0.00207944,0.00487075,0.00276692,0.01019883,-0.00485027,0.02992625,0.1
 5170510,-0.16405916,-0.00089221,-0.00003839,-0.00111613,0.00091126,0.0
 0079625,0.00041234,-0.00029213,0.00002160,-0.00000698,-0.00016943,-0.0
 0056279,-0.00015799,0.00006216,0.00004064,0.00003094,-0.00000097,-0.00
 000443,-0.00001889,-0.00000578,0.00000833,0.00000577,0.00001533,-0.000
 01847,-0.00002781,-0.00001772,0.00000237,-0.00002842,0.00000323,-0.000
 00739,-0.00000182,0.00000077,-0.00000031,0.00000249,-0.00000004,-0.000
 00025,0.00000125,0.,-0.00000423,-0.00000135,-0.00000747,0.00000083,-0.
 00000203,0.00000085,-0.00000028,-0.00000152,-0.00003421,0.00054199,0.0
 0030467,-0.03045996,-0.16700924,0.16621569,-0.17544412,0.05374585,-0.0
 2907097,0.00458042,0.01328996,-0.01368475,0.01475837,-0.00114196,0.002
 87683,-0.01420956,0.00718487,-0.00336852,-0.00059920,-0.01107082,0.007
 98140,-0.03461399,0.01617233,-0.00918499,0.01801534,-0.00750802,0.0032
 5496,-0.01371420,-0.00416941,-0.00207904,0.00477343,-0.00106483,0.0005
 5939,0.00340631,0.00475103,0.00155387,-0.00145272,-0.00051574,-0.00086
 570,0.00000083,0.00014655,0.00031256,0.00012442,-0.00013412,-0.0001265
 2,-0.00049791,0.00029169,-0.00000670,0.00032503,-0.00011555,0.00064748
 ,-0.00014255,0.00015063,-0.00002989,-0.00005208,0.00002921,-0.00002416
 ,0.00001452,-0.00008041,-0.00002252,-0.00003560,0.00006526,0.00001712,
 0.00023777,-0.00004952,0.00002544,-0.00003611,-0.00000021,0.00007646,-
 0.00112740,-0.00301093,0.00241449,-0.00027463,0.00023945,-0.00014760,0
 .58860574,0.04913067,-0.11824040,0.03320987,0.02331069,-0.01887307,0.0
 0888941,-0.00959858,-0.00204484,0.00398863,0.00724712,-0.00747990,0.00
 422280,-0.00576777,0.00948829,-0.00281048,0.00744820,0.00904780,-0.006
 18718,-0.01255585,0.00473551,-0.00260191,0.00956885,0.00355901,0.00172
 824,-0.00322251,0.00057188,-0.00046924,-0.00236528,-0.00388309,-0.0012
 3284,0.00099569,0.00038957,0.00059098,-0.00000169,-0.00007910,-0.00021
 715,-0.00008132,0.00010401,0.00008701,0.00036275,-0.00019000,0.0000361
 1,-0.00022888,0.00007941,-0.00043840,0.00007888,-0.00010794,0.00001529
 ,0.00003490,-0.00001496,0.00002201,-0.00000957,0.00002794,0.00001430,0
 .00001757,-0.00006030,-0.00001629,-0.00015650,0.00003304,-0.00002118,0
 .00002096,0.00000078,-0.00004589,0.00005220,-0.00152797,0.00011428,-0.
 00260731,-0.00243143,-0.00027896,-0.02922300,0.53405005,-0.03618898,0.
 04019714,-0.09154222,-0.01715567,0.01125808,-0.00907622,0.00339931,0.0
 0542604,0.00113701,-0.00344918,0.00423945,-0.00304084,0.00400671,-0.00
 100777,0.00546963,-0.00498112,-0.01004281,0.00353901,0.00619821,-0.002
 71106,0.00070939,-0.00464894,-0.00090644,-0.00046457,0.00174010,-0.000
 49283,0.00007984,0.00131472,0.00124783,0.00018326,-0.00051043,-0.00017
 979,-0.00023267,-0.00001182,0.00005093,0.00012485,0.00004845,-0.000045
 83,-0.00003947,-0.00018714,0.00008813,0.00006807,0.00011044,-0.0000209
 5,0.00018538,-0.00006430,0.00004981,-0.00000465,-0.00000558,0.00002011
 ,-0.00002722,0.00000612,-0.00004011,-0.00000519,-0.00002017,0.00001738
 ,0.00001030,0.00009354,-0.00002361,0.00000747,-0.00001406,0.00000969,0
 .00001332,-0.00010415,-0.00070717,-0.00152428,0.00273560,0.00002566,-0
 .00202009,0.03013226,-0.04486439,0.52360373,0.00905628,0.01493399,-0.0
 2143106,-0.00392168,-0.00078467,-0.00058368,-0.00052760,0.00074126,-0.
 00011150,0.00110355,-0.00042135,0.00010908,0.00141210,0.00086260,-0.00
 085966,-0.00223748,-0.00017117,-0.00060716,-0.00158500,0.00066543,-0.0
 0045568,0.00138762,0.00032150,0.00035771,-0.00057027,0.00014312,-0.000
 07439,-0.00035933,-0.00039990,-0.00025947,0.00017750,0.00006035,0.0001
 2835,-0.00000186,-0.00001986,-0.00003461,-0.00001455,0.00001687,0.0000
 1556,0.00005659,-0.00003475,-0.00001051,-0.00003622,0.00001717,-0.0000
 8178,0.00001884,-0.00001891,0.00000719,0.00000833,-0.00000361,0.000000
 48,-0.00000178,0.00001098,0.00000231,0.00000476,-0.00000866,-0.0000014
 1,-0.00003170,0.00000672,-0.00000260,0.00000510,0.00000087,-0.00001194
 ,0.00022213,0.00026482,-0.00043074,-0.00071208,0.00173643,-0.00159724,
 -0.08119081,-0.00594995,0.01322708,0.09274899,0.00073656,-0.01283707,0
 .03239983,0.00380848,0.00364124,0.00092577,0.00258600,-0.00059469,-0.0
 0018473,-0.00326306,0.00174547,-0.00058579,0.00062396,-0.00197127,0.00
 113185,-0.00438702,-0.00108743,0.00005393,0.00423921,-0.00146858,0.000
 61099,-0.00317060,-0.00111277,-0.00057042,0.00110399,-0.00021482,0.000
 13254,0.00082254,0.00124440,0.00034961,-0.00033328,-0.00013180,-0.0001
 8073,-0.00000282,0.00002520,0.00007824,0.00002878,-0.00003402,-0.00002
 848,-0.00013093,0.00006236,0.00000635,0.00007416,-0.00002189,0.0001355
 9,-0.00002914,0.00003656,-0.00000243,-0.00000743,0.00000692,-0.0000125
 8,0.00000324,-0.00001134,-0.00000443,-0.00000752,0.00001919,0.00000676
 ,0.00005546,-0.00001260,0.00000648,-0.00000788,0.00000203,0.00001222,-
 0.00024517,0.00048085,-0.00018196,0.00134487,0.00057031,-0.00014043,-0
 .00397701,-0.12019989,0.08563008,0.02671867,0.14337465,0.00312320,0.02
 303599,-0.02526900,-0.00603338,-0.00113935,-0.00015402,-0.00075916,0.0
 0028176,-0.00009954,0.00246463,-0.00188795,0.00088848,-0.00064714,0.00
 202519,-0.00107549,0.00537772,0.00117160,0.00021108,-0.00374664,0.0012
 0140,-0.00054151,0.00281162,0.00081548,0.00045914,-0.00106647,0.000256
 03,-0.00007682,-0.00077060,-0.00094551,-0.00022800,0.00031533,0.000124
 81,0.00015143,0.00000620,-0.00002681,-0.00007656,-0.00002897,0.0000315
 4,0.00002586,0.00012296,-0.00005350,-0.00003907,-0.00006989,0.00001479
 ,-0.00011453,0.00003422,-0.00003364,0.00000062,0.00000324,-0.00001044,
 0.00001643,-0.00000349,0.00001736,0.00000352,0.00001003,-0.00001500,-0
 .00000735,-0.00005640,0.00001410,-0.00000561,0.00000800,-0.00000488,-0
 .00000790,0.00020426,-0.00053919,0.00014784,-0.00175523,-0.00091611,-0
 .00036653,0.00493417,0.08609976,-0.22007666,-0.05483215,-0.12532766,0.
 32129992,-0.04603160,-0.02434633,-0.00876911,0.00041019,-0.00407892,0.
 00454868,-0.00362286,-0.00037660,0.00019204,0.00369064,-0.00318717,0.0
 0151231,-0.00129267,0.00289415,-0.00043044,0.00086064,0.00355193,-0.00
 728345,-0.00544239,0.00260084,-0.00125092,0.00436112,0.00097158,0.0007
 1689,-0.00164339,0.00043570,-0.00019644,-0.00109665,-0.00124420,-0.000
 54597,0.00050859,0.00017180,0.00031984,-0.00000175,-0.00005776,-0.0001
 0115,-0.00004339,0.00004349,0.00004425,0.00015494,-0.00010081,-0.00001
 113,-0.00011188,0.00004113,-0.00023172,0.00005656,-0.00005120,0.000016
 07,0.00002198,-0.00001129,0.00000458,-0.00000555,0.00003662,0.00000722
 ,0.00001467,-0.00001958,-0.00000445,-0.00008669,0.00001838,-0.00000750
 ,0.00001345,0.00000045,-0.00003070,-0.00026240,0.00102530,-0.00178263,
 0.00063532,-0.00054266,-0.00026255,-0.21553738,-0.07482676,-0.03352322
 ,-0.01888969,-0.03290270,0.02538690,0.27464917,0.00294302,0.00846296,0
 .00119616,0.00094243,-0.00211276,0.00312977,-0.00043546,0.00114238,-0.
 00058795,0.00046551,0.00011825,-0.00022514,0.00048061,-0.00041321,0.00
 003351,-0.00025255,0.00037415,0.00062581,0.00013944,0.00028995,0.00003
 194,-0.00009113,-0.00027304,-0.00018470,0.00003416,0.00003794,0.000033
 79,0.00003370,0.00021097,0.00008331,-0.00001225,-0.00001650,-0.0000062
 4,0.00000037,-0.00000668,0.00000415,0.00000028,-0.00000419,-0.00000142
 ,-0.00001137,-0.00000201,-0.00000361,0.00000304,-0.00000144,0.00000312
 ,0.00000441,0.00000272,0.00000111,0.00000041,-0.00000133,-0.00000219,-
 0.00000021,0.00000852,0.00000040,0.00000173,0.00000573,0.00000152,0.00
 000089,-0.00000036,0.00000108,0.00000030,-0.00000036,-0.00000117,0.001
 38307,0.00042893,-0.00099141,0.00054234,0.00019489,-0.00012154,-0.0802
 4889,-0.12119834,-0.01561243,-0.03994289,-0.02792536,0.02376938,0.1483
 0842,0.19434821,-0.01360161,-0.00771952,0.00836873,-0.00016926,0.00047
 663,-0.00051231,-0.00032100,-0.00082948,0.00054573,0.00036897,-0.00007
 778,0.00002983,-0.00015973,-0.00059983,0.00049152,-0.00152550,0.002644
 32,-0.00185014,-0.00062078,0.00014910,-0.00013685,0.00050490,-0.000008
 03,0.00014229,-0.00027533,0.00009416,-0.00001764,-0.00016053,-0.000051
 75,-0.00007633,0.00008318,0.00003083,0.00004959,0.00000061,-0.00001132
 ,-0.00001695,-0.00000757,0.00000804,0.00000636,0.00002536,-0.00001260,
 -0.00002370,-0.00001659,0.00000452,-0.00003047,0.00001282,-0.00000853,
 0.00000296,0.00000222,-0.00000380,0.00000298,-0.00000092,0.00000871,0.
 00000061,0.00000397,-0.00000269,-0.00000128,-0.00001750,0.00000454,-0.
 00000086,0.00000274,-0.00000134,-0.00000359,-0.00112714,-0.00031450,-0
 .00018478,-0.00026695,-0.00017482,0.00001577,-0.03171746,-0.01024492,-
 0.08051716,0.03732877,0.03105484,0.00004051,0.03446261,0.02656962,0.08
 378500,-0.01385164,0.03396636,0.01415673,-0.00031429,-0.00306255,0.005
 05759,-0.00499888,-0.00109570,-0.00157856,0.00474682,-0.00258478,0.001
 57035,-0.00086326,0.00270528,-0.00332867,0.00518857,0.00091382,0.00004
 305,-0.00627024,0.00255308,-0.00107216,0.00473764,0.00155379,0.0007461
 7,-0.00161023,0.00033530,-0.00020374,-0.00116608,-0.00172875,-0.000550
 76,0.00049282,0.00018012,0.00029186,-0.00000005,-0.00004762,-0.0001058
 1,-0.00004130,0.00004619,0.00004337,0.00017050,-0.00009805,0.00001204,
 -0.00011145,0.00004068,-0.00022255,0.00004528,-0.00005207,0.00001018,0
 .00001803,-0.00000898,0.00000788,-0.00000489,0.00002358,0.00000755,0.0
 0001076,-0.00002425,-0.00000605,-0.00007898,0.00001626,-0.00000902,0.0
 0001152,0.00000091,-0.00002597,0.00024248,0.00099700,0.00038068,0.0000
 4558,0.00018226,0.00061923,-0.09585992,0.05015671,0.03625325,0.0041347
 0,0.00569122,0.02595618,0.00956123,-0.03455413,-0.02220438,0.09593991,
 0.02643379,-0.02232386,-0.01601470,-0.00086125,0.00391740,-0.00306763,
 0.00434059,0.00154533,0.00094039,-0.00427078,0.00348178,-0.00244501,0.
 00206247,-0.00348273,0.00412423,-0.00540449,-0.00328187,-0.00026639,0.
 00673764,-0.00265566,0.00127069,-0.00516066,-0.00191455,-0.00093294,0.
 00170091,-0.00029437,0.00024806,0.00125810,0.00208310,0.00067908,-0.00
 052684,-0.00020185,-0.00031815,0.00000257,0.00004487,0.00011323,0.0000
 4310,-0.00005346,-0.00004636,-0.00019026,0.00010551,-0.00002563,0.0001
 1958,-0.00004590,0.00023901,-0.00004148,0.00005626,-0.00001129,-0.0000
 2039,0.00000749,-0.00000833,0.00000479,-0.00001579,-0.00000751,-0.0000
 0872,0.00003097,0.00000705,0.00008162,-0.00001621,0.00001095,-0.000011
 18,-0.00000195,0.00002699,-0.00041744,-0.00051911,-0.00079761,0.000255
 73,-0.00036645,-0.00095983,0.04859161,-0.16611698,-0.07299883,0.000508
 24,0.01704943,-0.00856629,-0.01954712,-0.05389171,-0.04117181,-0.05629
 816,0.22682768,0.00268235,-0.00516137,0.00884687,0.00049948,0.00055220
 ,-0.00101281,0.00158637,-0.00004732,0.00056198,-0.00127842,0.00019992,
 -0.00018303,0.00002439,-0.00058976,0.00039943,-0.00042317,0.00063476,0
 .00040648,0.00151847,-0.00048723,0.00032492,-0.00118092,-0.00064967,-0
 .00032760,0.00033930,-0.00000986,0.00009164,0.00023869,0.00062671,0.00
 027452,-0.00011243,-0.00004369,-0.00008733,0.00000458,0.00000759,0.000
 02126,0.00000785,-0.00001211,-0.00001091,-0.00003805,0.00002677,-0.000
 02762,0.00002643,-0.00001658,0.00006290,-0.00000238,0.00001228,-0.0000
 0529,-0.00000814,-0.00000122,0.00000325,0.00000036,0.00000241,-0.00000
 166,0.00000085,0.00000911,0.00000010,0.00001348,-0.00000125,0.00000315
 ,-0.00000191,-0.00000342,0.00000902,-0.00007273,-0.00049404,-0.0004711
 8,-0.00040185,-0.00021152,-0.00028568,0.03372453,-0.07088543,-0.126756
 73,0.03062456,-0.02528581,-0.07497858,-0.01257167,-0.03748712,-0.01005
 965,-0.05523101,0.13952773,0.20288347,0.00010274,0.00379119,-0.0019554
 0,-0.00326695,0.00068718,-0.00081667,0.00675107,0.00030898,0.00098492,
 -0.02697124,-0.00183114,0.00641593,-0.14980212,-0.02993619,0.04593163,
 -0.04564774,-0.01142678,0.01505066,0.00924786,-0.00044903,-0.00151632,
 -0.00490190,-0.00492157,-0.00336655,0.00184204,-0.00008282,0.00033605,
 0.00127181,0.00560819,-0.00250731,-0.00023765,-0.00026800,0.00009548,-
 0.00000917,0.00000014,0.00017298,0.00005230,-0.00003233,-0.00003059,-0
 .00027246,0.00012510,0.00006644,0.00009277,0.00002817,0.00005630,0.000
 03635,0.00003654,0.00007708,0.00005195,0.00000277,-0.00005140,-0.00001
 059,0.00002455,-0.00001039,0.00000075,0.00001276,0.00001826,0.00002144
 ,-0.00000228,0.00001284,-0.00000483,0.00001347,-0.00003381,-0.00005960
 ,-0.00003500,0.00002395,-0.00000332,-0.00081941,0.00023797,0.00035696,
 -0.00234257,0.00190720,-0.00023230,0.00050938,-0.00073496,-0.00118985,
 0.00020292,-0.00062966,-0.00036510,0.00077122,0.00006521,0.21399786,0.
 00076908,0.00127620,0.00259188,-0.00085229,-0.00011748,-0.00072051,0.0
 0337448,-0.00017257,0.00388682,-0.02442324,-0.00503778,0.01080368,-0.0
 2627950,-0.03944084,0.01975510,0.00761837,0.00504192,-0.00301569,-0.00
 102295,0.00079455,-0.00118386,-0.00117288,-0.00275606,0.00287535,0.000
 13394,0.00045780,-0.00007594,0.00061501,0.00029754,0.00022658,0.000013
 40,-0.00006829,-0.00001274,-0.00000897,-0.00001233,0.00006713,0.000015
 06,-0.00000734,-0.00001203,-0.00010370,0.00002974,-0.00006761,-0.00000
 241,0.00001164,-0.00002467,0.00000548,0.00002314,0.00003647,0.00002629
 ,-0.00000604,-0.00002291,-0.00000087,0.00001667,-0.00001049,0.00000243
 ,0.00000695,0.00000876,0.00000584,-0.00000132,0.00000498,-0.00000067,0
 .00000469,-0.00001324,-0.00004940,-0.00002218,-0.00023854,0.00090632,-
 0.00066438,-0.00233520,0.00035735,-0.00014718,0.00083873,-0.00006617,0
 .00020995,-0.00025411,0.00033242,0.00006672,-0.00001814,-0.00023386,0.
 00043076,-0.00000934,0.04121120,0.04093229,-0.00101583,0.00215022,0.00
 267243,0.00119545,-0.00051955,-0.00041214,-0.00379044,0.00336942,0.001
 11519,0.02598694,0.00525585,-0.00464582,0.04104610,0.02018072,-0.04547
 890,0.00014082,-0.00046728,0.00316644,-0.00320114,-0.00149485,-0.00126
 463,0.00224961,0.00381161,-0.00666340,-0.00149774,0.00007198,0.0009107
 5,-0.00103358,0.00193481,-0.00723585,0.00023563,0.00017158,0.00004478,
 0.00001057,0.00000999,-0.00014533,-0.00004079,0.00002849,0.00002445,0.
 00010070,-0.00000406,-0.00008269,-0.00001689,-0.00002290,-0.00003359,0
 .00004746,-0.00000864,-0.00008072,-0.00004554,0.00000566,0.00004914,-0
 .00000392,-0.00001435,0.00002071,0.00000102,-0.00001202,-0.00001737,-0
 .00002564,0.00000408,-0.00000952,0.00000728,-0.00001347,0.00001972,0.0
 0005433,-0.00029939,-0.00025145,-0.00103350,-0.00190588,-0.00112594,-0
 .00056446,0.00095216,-0.00005734,0.00008314,-0.00028746,0.00037518,0.0
 0042932,-0.00018015,0.00012027,0.00006989,-0.00006456,-0.00000218,-0.0
 6049895,-0.03350186,0.05990427,-0.00191036,0.00031185,-0.00008743,0.00
 534274,0.01606284,-0.01239681,-0.04131075,-0.01151412,0.00865432,-0.00
 453799,-0.02309238,0.01829068,-0.00368035,0.00189604,-0.00157134,0.000
 35190,-0.00022048,0.00025447,-0.00231968,-0.00501102,0.00312670,0.0006
 8454,-0.00044518,0.00110976,-0.00032465,0.00023575,-0.00007831,-0.0002
 0944,0.00008611,-0.00063095,0.00005088,0.00002714,0.00011424,-0.000010
 55,-0.00001681,-0.00001960,-0.00000965,0.00000686,0.00001028,-0.000027
 57,0.00000265,0.00001451,-0.00002738,0.00000075,-0.00005991,0.00002789
 ,-0.00000810,0.00000984,0.00001144,-0.00000028,-0.00000701,-0.00000571
 ,0.00001770,0.00000486,0.00000383,0.00000108,0.00000164,-0.00001324,0.
 00000178,-0.00000249,0.00000114,0.00000170,-0.00001258,0.00098437,0.00
 118756,-0.00081386,0.00016089,-0.00000203,0.00001920,-0.00041096,0.000
 51232,-0.00030822,-0.00002413,0.00011804,-0.00025418,0.00031963,0.0000
 6184,0.00002581,0.00019048,-0.00015319,-0.00003424,-0.00085106,-0.0011
 6978,0.00111018,0.04754376,0.00326655,0.00238517,0.00144416,-0.0041236
 6,-0.02643209,0.02250722,-0.01743340,-0.10769294,0.06734940,0.00074498
 ,-0.02249212,0.02092346,-0.00289152,0.00599231,-0.00158567,0.00157630,
 -0.00191868,0.00094671,-0.00079187,0.00261659,-0.00333935,0.00224618,0
 .00049888,-0.00062067,-0.00108863,0.00030506,-0.00008078,-0.00056036,-
 0.00006116,-0.00017886,0.00018796,0.00006015,0.00033077,-0.00003070,-0
 .00006660,-0.00007284,-0.00002877,0.00002266,0.00002803,-0.00005687,-0
 .00011892,0.00003803,-0.00005665,0.00003556,-0.00018526,0.00005362,-0.
 00001314,0.00002280,0.00003368,-0.00000255,-0.00001776,-0.00000815,0.0
 0004508,0.00000966,0.00000955,0.00000450,0.00000464,-0.00003285,0.0000
 0274,-0.00000812,0.00000142,0.00000359,-0.00002945,-0.00031379,-0.0009
 7908,-0.00167601,-0.00001239,-0.00021072,-0.00013059,-0.00270538,0.000
 50810,0.00055496,0.00081282,-0.00084503,0.00086124,0.00086088,0.000154
 98,0.00020554,0.00042633,-0.00039815,-0.00020273,-0.00118663,-0.001146
 79,0.00084982,0.02110136,0.14974258,-0.00221760,0.00201752,0.00318536,
 0.00332021,0.02234642,-0.01447867,0.01192773,0.06792330,-0.07336106,0.
 00192294,0.02023370,-0.01074280,0.00213326,-0.00154576,0.00510129,-0.0
 0155885,0.00109662,-0.00160123,-0.00034255,-0.00346738,0.00038894,-0.0
 0138508,0.00002497,-0.00015743,0.00069342,-0.00015244,0.00028464,0.000
 42436,-0.00008848,0.00028343,-0.00010502,-0.00002327,-0.00026113,0.000
 02271,0.00003688,0.00005656,0.00001947,-0.00001425,-0.00002179,-0.0000
 1142,0.00008231,-0.00013259,0.00004778,-0.00003370,0.00015466,-0.00002
 352,0.00001160,-0.00000658,-0.00002758,0.00000044,0.00001786,0.0000057
 3,-0.00002473,-0.00000940,-0.00000496,-0.00000130,-0.00000340,0.000019
 65,-0.00000126,0.00000645,0.00000106,-0.00000566,0.00002357,0.00035805
 ,-0.00178170,-0.00186133,-0.00000806,-0.00014400,-0.00024690,0.0023823
 4,0.00034340,0.00025402,-0.00049863,0.00025786,-0.00050284,-0.00063766
 ,-0.00007961,-0.00017043,-0.00068730,0.00051544,0.00032127,0.00069910,
 0.00042141,-0.00091647,-0.01646958,-0.10794835,0.09439599\\0.00000074,
 0.00000225,0.00000239,0.00000028,0.00000043,-0.00000007,-0.00000006,-0
 .00000011,0.00000106,0.00000025,0.00000163,-0.00000123,0.00000134,-0.0
 0000191,0.,-0.00000046,-0.00000100,-0.00000239,-0.00000155,-0.00000013
 ,0.00000095,-0.00000014,-0.00000189,-0.00000002,-0.00000065,0.00000062
 ,-0.00000004,0.00000092,0.00000182,-0.00000044,-0.00000015,0.00000046,
 0.00000132,-0.00000080,-0.00000109,0.00000033,-0.00000026,-0.00000101,
 0.00000089,-0.00000089,-0.00000012,0.00000134,-0.00000020,0.00000075,0
 .00000082,0.00000018,-0.00000038,-0.00000088,-0.00000054,-0.00000210,0
 .00000055,-0.00000111,-0.00000105,0.00000186,0.00000002,-0.00000078,-0
 .00000043,-0.00000054,-0.00000135,0.00000072,-0.00000032,0.00000007,0.
 00000074,-0.00000019,0.00000236,0.00000076,0.00000097,-0.00000062,-0.0
 0000162,-0.00000149,-0.00000040,0.00000008,0.00000113,0.00000068,-0.00
 000335,0.00000054,0.00000083,-0.00000176,0.00000338,0.00000076,-0.0000
 0205,0.00000038,-0.00000152,-0.00000122,-0.00000077,0.00000278,0.00000
 169\\\@


 BOOKS ARE LIGHTHOUSES ERECTED IN THE GREAT SEA OF TIME.
     -- E.P.WHIPPLE
 Job cpu time:       0 days  3 hours 14 minutes 16.1 seconds.
 File lengths (MBytes):  RWF=    502 Int=      0 D2E=      0 Chk=     12 Scr=      1
 Normal termination of Gaussian 09 at Tue Jul 10 18:26:04 2018.
WARNING: pbs_rusage is deprecated and values produced may not be accurate


=============================================================================
                                     Resource usage:
                                       CPU time:              20:13:23
   JobId:    8296117.r-man2            Elapsed time:          05:03:58
   Project:             q95            Requested time:        96:00:00
   Service Units:     20.26 
                                       Max physical memory:      709MB
                                       Max virtual memory:      1518MB
                                       Requested memory:           0MB

                                       Number of cpus:               4

                                       Max jobfs disk use:       0.5GB
                                       Requested jobfs:         16.0GB
=============================================================================

