 Entering Gaussian System, Link 0=/apps/gaussian/g09e01/g09/g09
 AtFile(1): /home/507/hio507/Basis/6-31pGd.gbs
 Initial command:
 /apps/gaussian/g09e01/g09/l1.exe "/jobfs/local/6009778.r-man2/Gau-35884.inp" -scrdir="/jobfs/local/6009778.r-man2/"
 Entering Link 1 = /apps/gaussian/g09e01/g09/l1.exe PID=     35885.
  
 Copyright (c) 1988,1990,1992,1993,1995,1998,2003,2009,2015,
            Gaussian, Inc.  All Rights Reserved.
  
 This is part of the Gaussian(R) 09 program.  It is based on
 the Gaussian(R) 03 system (copyright 2003, Gaussian, Inc.),
 the Gaussian(R) 98 system (copyright 1998, Gaussian, Inc.),
 the Gaussian(R) 94 system (copyright 1995, Gaussian, Inc.),
 the Gaussian 92(TM) system (copyright 1992, Gaussian, Inc.),
 the Gaussian 90(TM) system (copyright 1990, Gaussian, Inc.),
 the Gaussian 88(TM) system (copyright 1988, Gaussian, Inc.),
 the Gaussian 86(TM) system (copyright 1986, Carnegie Mellon
 University), and the Gaussian 82(TM) system (copyright 1983,
 Carnegie Mellon University). Gaussian is a federally registered
 trademark of Gaussian, Inc.
  
 This software contains proprietary and confidential information,
 including trade secrets, belonging to Gaussian, Inc.
  
 This software is provided under written license and may be
 used, copied, transmitted, or stored only in accord with that
 written license.
  
 The following legend is applicable only to US Government
 contracts under FAR:
  
                    RESTRICTED RIGHTS LEGEND
  
 Use, reproduction and disclosure by the US Government is
 subject to restrictions as set forth in subparagraphs (a)
 and (c) of the Commercial Computer Software - Restricted
 Rights clause in FAR 52.227-19.
  
 Gaussian, Inc.
 340 Quinnipiac St., Bldg. 40, Wallingford CT 06492
  
  
 ---------------------------------------------------------------
 Warning -- This program may not be used in any manner that
 competes with the business of Gaussian, Inc. or will provide
 assistance to any competitor of Gaussian, Inc.  The licensee
 of this program is prohibited from giving any competitor of
 Gaussian, Inc. access to this program.  By using this program,
 the user acknowledges that Gaussian, Inc. is engaged in the
 business of creating and licensing software in the field of
 computational chemistry and represents and warrants to the
 licensee that it is not a competitor of Gaussian, Inc. and that
 it will not use this program in any manner prohibited above.
 ---------------------------------------------------------------
  

 Cite this work as:
 Gaussian 09, Revision E.01,
 M. J. Frisch, G. W. Trucks, H. B. Schlegel, G. E. Scuseria, 
 M. A. Robb, J. R. Cheeseman, G. Scalmani, V. Barone, B. Mennucci, 
 G. A. Petersson, H. Nakatsuji, M. Caricato, X. Li, H. P. Hratchian, 
 A. F. Izmaylov, J. Bloino, G. Zheng, J. L. Sonnenberg, M. Hada, 
 M. Ehara, K. Toyota, R. Fukuda, J. Hasegawa, M. Ishida, T. Nakajima, 
 Y. Honda, O. Kitao, H. Nakai, T. Vreven, J. A. Montgomery, Jr., 
 J. E. Peralta, F. Ogliaro, M. Bearpark, J. J. Heyd, E. Brothers, 
 K. N. Kudin, V. N. Staroverov, T. Keith, R. Kobayashi, J. Normand, 
 K. Raghavachari, A. Rendell, J. C. Burant, S. S. Iyengar, J. Tomasi, 
 M. Cossi, N. Rega, J. M. Millam, M. Klene, J. E. Knox, J. B. Cross, 
 V. Bakken, C. Adamo, J. Jaramillo, R. Gomperts, R. E. Stratmann, 
 O. Yazyev, A. J. Austin, R. Cammi, C. Pomelli, J. W. Ochterski, 
 R. L. Martin, K. Morokuma, V. G. Zakrzewski, G. A. Voth, 
 P. Salvador, J. J. Dannenberg, S. Dapprich, A. D. Daniels, 
 O. Farkas, J. B. Foresman, J. V. Ortiz, J. Cioslowski, 
 and D. J. Fox, Gaussian, Inc., Wallingford CT, 2013.
 
 ******************************************
 Gaussian 09:  ES64L-G09RevE.01 30-Nov-2015
                22-Feb-2019 
 ******************************************
 %chk=4SulfOxyMethyl.M062X_6-31pGd_opt_Pentadecane.chk
 %mem=196608000
 %nproc=4
 Will use up to    4 processors via shared memory.
 ----------------------------------------------------------------------
 # M062X/Gen 6D SCF=Tight INT(grid=ultrafine) OPT IOP(2/17=4) SCRF=(SMD
 ,Solvent=n-Pentadecane) maxdisk=2147483648
 ----------------------------------------------------------------------
 1/14=-1,18=20,19=15,26=4,38=1/1,3;
 2/9=110,12=2,17=4,18=5,40=1/2;
 3/5=7,8=2,11=2,16=1,25=1,30=1,70=32201,71=1,72=151,74=-55,75=-5/1,2,3;
 4//1;
 5/5=2,32=2,38=5,53=151/2;
 6/7=2,8=2,9=2,10=2,28=1/1;
 7//1,2,3,16;
 1/14=-1,18=20,19=15,26=4/3(2);
 2/9=110,17=4/2;
 99//99;
 2/9=110,17=4/2;
 3/5=7,6=1,8=2,11=2,16=1,25=1,30=1,70=32205,71=1,72=151,74=-55,75=-5,82=7/1,2,3;
 4/5=5,16=3,69=1/1;
 5/5=2,32=2,38=5,53=151/2;
 7//1,2,3,16;
 1/14=-1,18=20,19=15,26=4/3(-5);
 2/9=110,17=4/2;
 6/7=2,8=2,9=2,10=2,19=2,28=1/1;
 99/9=1/99;
 --------------------------------------------
 4SulfOxyMethyl.M062X_6-31pGd_opt_Pentadecane
 --------------------------------------------
 Symbolic Z-matrix:
 Charge =  0 Multiplicity = 1
 C                    -2.11712   1.94256  -0.02386 
 C                    -0.79202   1.19505   0.09313 
 C                     0.39854   2.1541   -0.0209 
 N                     1.65725   1.43652   0.08472 
 C                     2.8588    2.07549   0.00505 
 O                     2.8813    3.28517  -0.15698 
 N                     4.01518   1.34927   0.10388 
 C                     5.3705    1.82978   0.03765 
 C                     5.73374   3.18851  -0.1322 
 C                     6.40672   0.88121   0.14803 
 C                     7.74908   1.26289   0.08969 
 C                     8.09037   2.60698  -0.08084 
 C                     7.07991   3.56437  -0.18937 
 H                    -2.95886   1.22338   0.06102 
 H                    -2.1855    2.45528  -1.00704 
 H                    -2.20892   2.69546   0.78774 
 H                    -0.73457   0.43561  -0.71695 
 H                    -0.75628   0.6744    1.07486 
 H                     0.33855   2.91147   0.79176 
 H                     0.35532   2.67336  -1.00384 
 H                     1.64084   0.41334   0.22043 
 H                     3.90395   0.33184   0.23706 
 H                     5.02039   3.98636  -0.22433 
 H                     6.17379  -0.16823   0.27964 
 H                     8.51864   0.50722   0.17795 
 S                     9.80958   3.11994  -0.16022 
 O                     10.65643   1.87293  -0.46005 
 O                     10.27371   3.38393   1.28004 
 H                     7.33533   4.60837  -0.32006 
 C                     10.44619   4.4613   -1.20643 
 H                     10.13672   4.30196  -2.21823 
 H                     11.51502   4.47458  -1.15825 
 H                     10.06185   5.39755  -0.85913 
 

 GradGradGradGradGradGradGradGradGradGradGradGradGradGradGradGradGradGrad
 Berny optimization.
 Initialization pass.
                           ----------------------------
                           !    Initial Parameters    !
                           ! (Angstroms and Degrees)  !
 --------------------------                            --------------------------
 ! Name  Definition              Value          Derivative Info.                !
 --------------------------------------------------------------------------------
 ! R1    R(1,2)                  1.5259         estimate D2E/DX2                !
 ! R2    R(1,14)                 1.1104         estimate D2E/DX2                !
 ! R3    R(1,15)                 1.1109         estimate D2E/DX2                !
 ! R4    R(1,16)                 1.1108         estimate D2E/DX2                !
 ! R5    R(2,3)                  1.533          estimate D2E/DX2                !
 ! R6    R(2,17)                 1.1119         estimate D2E/DX2                !
 ! R7    R(2,18)                 1.1118         estimate D2E/DX2                !
 ! R8    R(3,4)                  1.4527         estimate D2E/DX2                !
 ! R9    R(3,19)                 1.1125         estimate D2E/DX2                !
 ! R10   R(3,20)                 1.1125         estimate D2E/DX2                !
 ! R11   R(4,5)                  1.3632         estimate D2E/DX2                !
 ! R12   R(4,21)                 1.0323         estimate D2E/DX2                !
 ! R13   R(5,6)                  1.2207         estimate D2E/DX2                !
 ! R14   R(5,7)                  1.3691         estimate D2E/DX2                !
 ! R15   R(7,8)                  1.4395         estimate D2E/DX2                !
 ! R16   R(7,22)                 1.0321         estimate D2E/DX2                !
 ! R17   R(8,9)                  1.4167         estimate D2E/DX2                !
 ! R18   R(8,10)                 1.4092         estimate D2E/DX2                !
 ! R19   R(9,13)                 1.3988         estimate D2E/DX2                !
 ! R20   R(9,23)                 1.0742         estimate D2E/DX2                !
 ! R21   R(10,11)                1.3968         estimate D2E/DX2                !
 ! R22   R(10,24)                1.083          estimate D2E/DX2                !
 ! R23   R(11,12)                1.3972         estimate D2E/DX2                !
 ! R24   R(11,25)                1.0822         estimate D2E/DX2                !
 ! R25   R(12,13)                1.3962         estimate D2E/DX2                !
 ! R26   R(12,26)                1.7959         estimate D2E/DX2                !
 ! R27   R(13,29)                1.0827         estimate D2E/DX2                !
 ! R28   R(26,27)                1.5369         estimate D2E/DX2                !
 ! R29   R(26,28)                1.5361         estimate D2E/DX2                !
 ! R30   R(26,30)                1.8163         estimate D2E/DX2                !
 ! R31   R(30,31)                1.07           estimate D2E/DX2                !
 ! R32   R(30,32)                1.07           estimate D2E/DX2                !
 ! R33   R(30,33)                1.07           estimate D2E/DX2                !
 ! A1    A(2,1,14)             109.5821         estimate D2E/DX2                !
 ! A2    A(2,1,15)             110.328          estimate D2E/DX2                !
 ! A3    A(2,1,16)             110.3515         estimate D2E/DX2                !
 ! A4    A(14,1,15)            108.6574         estimate D2E/DX2                !
 ! A5    A(14,1,16)            108.6924         estimate D2E/DX2                !
 ! A6    A(15,1,16)            109.1899         estimate D2E/DX2                !
 ! A7    A(1,2,3)              111.2378         estimate D2E/DX2                !
 ! A8    A(1,2,17)             108.8815         estimate D2E/DX2                !
 ! A9    A(1,2,18)             108.9668         estimate D2E/DX2                !
 ! A10   A(3,2,17)             109.4492         estimate D2E/DX2                !
 ! A11   A(3,2,18)             109.4915         estimate D2E/DX2                !
 ! A12   A(17,2,18)            108.7723         estimate D2E/DX2                !
 ! A13   A(2,3,4)              111.0058         estimate D2E/DX2                !
 ! A14   A(2,3,19)             109.2494         estimate D2E/DX2                !
 ! A15   A(2,3,20)             109.1195         estimate D2E/DX2                !
 ! A16   A(4,3,19)             109.2621         estimate D2E/DX2                !
 ! A17   A(4,3,20)             109.1747         estimate D2E/DX2                !
 ! A18   A(19,3,20)            108.9996         estimate D2E/DX2                !
 ! A19   A(3,4,5)              121.8648         estimate D2E/DX2                !
 ! A20   A(3,4,21)             119.0378         estimate D2E/DX2                !
 ! A21   A(5,4,21)             119.097          estimate D2E/DX2                !
 ! A22   A(4,5,6)              119.242          estimate D2E/DX2                !
 ! A23   A(4,5,7)              119.4474         estimate D2E/DX2                !
 ! A24   A(6,5,7)              121.3103         estimate D2E/DX2                !
 ! A25   A(5,7,8)              127.9418         estimate D2E/DX2                !
 ! A26   A(5,7,22)             116.1794         estimate D2E/DX2                !
 ! A27   A(8,7,22)             115.8779         estimate D2E/DX2                !
 ! A28   A(7,8,9)              124.5467         estimate D2E/DX2                !
 ! A29   A(7,8,10)             117.6482         estimate D2E/DX2                !
 ! A30   A(9,8,10)             117.805          estimate D2E/DX2                !
 ! A31   A(8,9,13)             120.6213         estimate D2E/DX2                !
 ! A32   A(8,9,23)             123.5298         estimate D2E/DX2                !
 ! A33   A(13,9,23)            115.8488         estimate D2E/DX2                !
 ! A34   A(8,10,11)            121.2975         estimate D2E/DX2                !
 ! A35   A(8,10,24)            120.2416         estimate D2E/DX2                !
 ! A36   A(11,10,24)           118.4609         estimate D2E/DX2                !
 ! A37   A(10,11,12)           120.1801         estimate D2E/DX2                !
 ! A38   A(10,11,25)           119.2885         estimate D2E/DX2                !
 ! A39   A(12,11,25)           120.5314         estimate D2E/DX2                !
 ! A40   A(11,12,13)           119.4953         estimate D2E/DX2                !
 ! A41   A(11,12,26)           120.9318         estimate D2E/DX2                !
 ! A42   A(13,12,26)           119.5728         estimate D2E/DX2                !
 ! A43   A(9,13,12)            120.6005         estimate D2E/DX2                !
 ! A44   A(9,13,29)            119.4098         estimate D2E/DX2                !
 ! A45   A(12,13,29)           119.9897         estimate D2E/DX2                !
 ! A46   A(12,26,27)           107.7195         estimate D2E/DX2                !
 ! A47   A(12,26,28)           107.2719         estimate D2E/DX2                !
 ! A48   A(12,26,30)           124.8851         estimate D2E/DX2                !
 ! A49   A(27,26,28)            98.9675         estimate D2E/DX2                !
 ! A50   A(27,26,30)           107.0799         estimate D2E/DX2                !
 ! A51   A(28,26,30)           107.8939         estimate D2E/DX2                !
 ! A52   A(26,30,31)           109.4707         estimate D2E/DX2                !
 ! A53   A(26,30,32)           109.4715         estimate D2E/DX2                !
 ! A54   A(26,30,33)           109.4712         estimate D2E/DX2                !
 ! A55   A(31,30,32)           109.4714         estimate D2E/DX2                !
 ! A56   A(31,30,33)           109.4715         estimate D2E/DX2                !
 ! A57   A(32,30,33)           109.471          estimate D2E/DX2                !
 ! D1    D(14,1,2,3)           179.9313         estimate D2E/DX2                !
 ! D2    D(14,1,2,17)           59.2362         estimate D2E/DX2                !
 ! D3    D(14,1,2,18)          -59.2652         estimate D2E/DX2                !
 ! D4    D(15,1,2,3)            60.3349         estimate D2E/DX2                !
 ! D5    D(15,1,2,17)          -60.3601         estimate D2E/DX2                !
 ! D6    D(15,1,2,18)         -178.8615         estimate D2E/DX2                !
 ! D7    D(16,1,2,3)           -60.4147         estimate D2E/DX2                !
 ! D8    D(16,1,2,17)          178.8903         estimate D2E/DX2                !
 ! D9    D(16,1,2,18)           60.3889         estimate D2E/DX2                !
 ! D10   D(1,2,3,4)           -179.727          estimate D2E/DX2                !
 ! D11   D(1,2,3,19)            59.7164         estimate D2E/DX2                !
 ! D12   D(1,2,3,20)           -59.3636         estimate D2E/DX2                !
 ! D13   D(17,2,3,4)           -59.3666         estimate D2E/DX2                !
 ! D14   D(17,2,3,19)         -179.9231         estimate D2E/DX2                !
 ! D15   D(17,2,3,20)           60.9968         estimate D2E/DX2                !
 ! D16   D(18,2,3,4)            59.7783         estimate D2E/DX2                !
 ! D17   D(18,2,3,19)          -60.7783         estimate D2E/DX2                !
 ! D18   D(18,2,3,20)         -179.8583         estimate D2E/DX2                !
 ! D19   D(2,3,4,5)            179.6294         estimate D2E/DX2                !
 ! D20   D(2,3,4,21)            -0.1394         estimate D2E/DX2                !
 ! D21   D(19,3,4,5)           -59.8216         estimate D2E/DX2                !
 ! D22   D(19,3,4,21)          120.4096         estimate D2E/DX2                !
 ! D23   D(20,3,4,5)            59.2986         estimate D2E/DX2                !
 ! D24   D(20,3,4,21)         -120.4701         estimate D2E/DX2                !
 ! D25   D(3,4,5,6)              0.1463         estimate D2E/DX2                !
 ! D26   D(3,4,5,7)           -179.6508         estimate D2E/DX2                !
 ! D27   D(21,4,5,6)           179.9149         estimate D2E/DX2                !
 ! D28   D(21,4,5,7)             0.1178         estimate D2E/DX2                !
 ! D29   D(4,5,7,8)            179.6096         estimate D2E/DX2                !
 ! D30   D(4,5,7,22)            -0.0248         estimate D2E/DX2                !
 ! D31   D(6,5,7,8)             -0.1831         estimate D2E/DX2                !
 ! D32   D(6,5,7,22)          -179.8175         estimate D2E/DX2                !
 ! D33   D(5,7,8,9)              0.7812         estimate D2E/DX2                !
 ! D34   D(5,7,8,10)          -179.1406         estimate D2E/DX2                !
 ! D35   D(22,7,8,9)          -179.5835         estimate D2E/DX2                !
 ! D36   D(22,7,8,10)            0.4948         estimate D2E/DX2                !
 ! D37   D(7,8,9,13)          -179.8145         estimate D2E/DX2                !
 ! D38   D(7,8,9,23)             0.1874         estimate D2E/DX2                !
 ! D39   D(10,8,9,13)            0.1071         estimate D2E/DX2                !
 ! D40   D(10,8,9,23)         -179.891          estimate D2E/DX2                !
 ! D41   D(7,8,10,11)          179.7964         estimate D2E/DX2                !
 ! D42   D(7,8,10,24)           -0.117          estimate D2E/DX2                !
 ! D43   D(9,8,10,11)           -0.1308         estimate D2E/DX2                !
 ! D44   D(9,8,10,24)          179.9559         estimate D2E/DX2                !
 ! D45   D(8,9,13,12)            0.0376         estimate D2E/DX2                !
 ! D46   D(8,9,13,29)          179.9773         estimate D2E/DX2                !
 ! D47   D(23,9,13,12)        -179.9641         estimate D2E/DX2                !
 ! D48   D(23,9,13,29)          -0.0245         estimate D2E/DX2                !
 ! D49   D(8,10,11,12)           0.0093         estimate D2E/DX2                !
 ! D50   D(8,10,11,25)        -179.993          estimate D2E/DX2                !
 ! D51   D(24,10,11,12)        179.9242         estimate D2E/DX2                !
 ! D52   D(24,10,11,25)         -0.0782         estimate D2E/DX2                !
 ! D53   D(10,11,12,13)          0.1384         estimate D2E/DX2                !
 ! D54   D(10,11,12,26)       -179.9391         estimate D2E/DX2                !
 ! D55   D(25,11,12,13)       -179.8592         estimate D2E/DX2                !
 ! D56   D(25,11,12,26)          0.0632         estimate D2E/DX2                !
 ! D57   D(11,12,13,9)          -0.1618         estimate D2E/DX2                !
 ! D58   D(11,12,13,29)        179.899          estimate D2E/DX2                !
 ! D59   D(26,12,13,9)         179.9147         estimate D2E/DX2                !
 ! D60   D(26,12,13,29)         -0.0246         estimate D2E/DX2                !
 ! D61   D(11,12,26,27)         17.6597         estimate D2E/DX2                !
 ! D62   D(11,12,26,28)        -88.0469         estimate D2E/DX2                !
 ! D63   D(11,12,26,30)        144.4332         estimate D2E/DX2                !
 ! D64   D(13,12,26,27)       -162.4179         estimate D2E/DX2                !
 ! D65   D(13,12,26,28)         91.8756         estimate D2E/DX2                !
 ! D66   D(13,12,26,30)        -35.6444         estimate D2E/DX2                !
 ! D67   D(12,26,30,31)        -52.7379         estimate D2E/DX2                !
 ! D68   D(12,26,30,32)       -172.738          estimate D2E/DX2                !
 ! D69   D(12,26,30,33)         67.2622         estimate D2E/DX2                !
 ! D70   D(27,26,30,31)         74.3024         estimate D2E/DX2                !
 ! D71   D(27,26,30,32)        -45.6976         estimate D2E/DX2                !
 ! D72   D(27,26,30,33)       -165.6975         estimate D2E/DX2                !
 ! D73   D(28,26,30,31)       -180.0            estimate D2E/DX2                !
 ! D74   D(28,26,30,32)         59.9999         estimate D2E/DX2                !
 ! D75   D(28,26,30,33)        -59.9999         estimate D2E/DX2                !
 --------------------------------------------------------------------------------
 Trust Radius=3.00D-01 FncErr=1.00D-07 GrdErr=1.00D-06
 Number of steps in this run=    175 maximum allowed number of steps=    198.
 GradGradGradGradGradGradGradGradGradGradGradGradGradGradGradGradGradGrad

                          Input orientation:                          
 ---------------------------------------------------------------------
 Center     Atomic      Atomic             Coordinates (Angstroms)
 Number     Number       Type             X           Y           Z
 ---------------------------------------------------------------------
      1          6           0       -2.117120    1.942560   -0.023860
      2          6           0       -0.792020    1.195050    0.093130
      3          6           0        0.398540    2.154100   -0.020900
      4          7           0        1.657250    1.436520    0.084720
      5          6           0        2.858800    2.075490    0.005050
      6          8           0        2.881300    3.285170   -0.156980
      7          7           0        4.015180    1.349270    0.103880
      8          6           0        5.370500    1.829780    0.037650
      9          6           0        5.733740    3.188510   -0.132200
     10          6           0        6.406720    0.881210    0.148030
     11          6           0        7.749080    1.262890    0.089690
     12          6           0        8.090370    2.606980   -0.080840
     13          6           0        7.079910    3.564370   -0.189370
     14          1           0       -2.958860    1.223380    0.061020
     15          1           0       -2.185500    2.455280   -1.007040
     16          1           0       -2.208920    2.695460    0.787740
     17          1           0       -0.734570    0.435610   -0.716950
     18          1           0       -0.756280    0.674400    1.074860
     19          1           0        0.338550    2.911470    0.791760
     20          1           0        0.355320    2.673360   -1.003840
     21          1           0        1.640840    0.413340    0.220430
     22          1           0        3.903950    0.331840    0.237060
     23          1           0        5.020390    3.986360   -0.224330
     24          1           0        6.173790   -0.168230    0.279640
     25          1           0        8.518640    0.507220    0.177950
     26         16           0        9.809580    3.119940   -0.160220
     27          8           0       10.656430    1.872930   -0.460050
     28          8           0       10.273710    3.383930    1.280040
     29          1           0        7.335330    4.608370   -0.320060
     30          6           0       10.446190    4.461300   -1.206430
     31          1           0       10.136720    4.301960   -2.218230
     32          1           0       11.515020    4.474580   -1.158250
     33          1           0       10.061850    5.397550   -0.859130
 ---------------------------------------------------------------------
                    Distance matrix (angstroms):
                    1          2          3          4          5
     1  C    0.000000
     2  C    1.525892   0.000000
     3  C    2.524540   1.533040   0.000000
     4  N    3.809690   2.461159   1.452731   0.000000
     5  C    4.977779   3.756517   2.461652   1.363214   0.000000
     6  O    5.177309   4.233726   2.731654   2.230297   1.220691
     7  N    6.162257   4.809685   3.707210   2.359621   1.369079
     8  C    7.488722   6.195370   4.982870   3.734313   2.523900
     9  C    7.949851   6.827166   5.435692   4.442330   3.085925
    10  C    8.591383   7.205787   6.143860   4.782242   3.746263
    11  C    9.890235   8.541370   7.405196   6.094306   4.958056
    12  C   10.229250   8.995591   7.705384   6.540827   5.259200
    13  C    9.340397   8.225616   6.830662   5.831647   4.480216
    14  H    1.110383   2.167263   3.484980   4.621089   5.879999
    15  H    1.110946   2.177232   2.782165   4.122686   5.158830
    16  H    1.110847   2.177457   2.783131   4.126310   5.165148
    17  H    2.159332   1.111881   2.172932   2.713908   4.015320
    18  H    2.160394   1.111822   2.173433   2.717781   4.021983
    19  H    2.763031   2.170799   1.112486   2.101036   2.769375
    20  H    2.758150   2.169132   1.112506   2.099942   2.764547
    21  H    4.064536   2.558532   2.152161   1.032271   2.071849
    22  H    6.238252   4.776817   3.959176   2.508224   2.046090
    23  H    7.427069   6.455719   4.975948   4.231773   2.894220
    24  H    8.560767   7.100410   6.231938   4.797119   4.012336
    25  H   10.734073   9.336418   8.287809   6.924663   5.875641
    26  S   11.985449  10.777908   9.461497   8.327928   7.030756
    27  O   12.781185  11.481835  10.271135   9.026210   7.814114
    28  O   12.542343  11.342413  10.036130   8.914291   7.636655
    29  H    9.825634   8.824698   7.364237   6.516523   5.153688
    30  C   12.867761  11.775169  10.377086   9.384126   8.045388
    31  H   12.670384  11.594509  10.211450   9.242063   7.928951
    32  H   13.911621  12.797832  11.412901  10.389919   9.057541
    33  H   12.687078  11.677941  10.227520   9.339053   7.979149
                    6          7          8          9         10
     6  O    0.000000
     7  N    2.258637   0.000000
     8  C    2.890010   1.439503   0.000000
     9  C    2.854185   2.528238   1.416665   0.000000
    10  C    4.277925   2.437313   1.409156   2.419724   0.000000
    11  C    5.276907   3.734926   2.445755   2.796219   1.396787
    12  C    5.253584   4.268856   2.831214   2.427863   2.421847
    13  C    4.208008   3.792787   2.445899   1.398826   2.786821
    14  H    6.197255   6.975308   8.351437   8.914054   9.372232
    15  H    5.204208   6.395767   7.653480   8.001083   8.811250
    16  H    5.210623   6.404632   7.665484   8.010945   8.827796
    17  H    4.637680   4.905982   6.307536   7.054036   7.207272
    18  H    4.643871   4.915799   6.320454   7.063859   7.225673
    19  H    2.739587   4.053549   5.201851   5.480742   6.431099
    20  H    2.733507   4.046583   5.191181   5.472891   6.415454
    21  H    3.150966   2.554807   3.993754   4.957595   4.789338
    22  H    3.150117   1.032121   2.105791   3.412484   2.563902
    23  H    2.252090   2.841199   2.200465   1.074207   3.420895
    24  H    4.791357   2.644484   2.166997   3.410419   1.083006
    25  H    6.293551   4.582105   3.417548   3.878296   2.144987
    26  S    6.930251   6.064659   4.626996   4.076513   4.084897
    27  O    7.908155   6.685689   5.309484   5.105988   4.406053
    28  O    7.531434   6.685237   5.291539   4.758565   4.743276
    29  H    4.649283   4.671708   3.421853   2.148577   3.869515
    30  C    7.727366   7.263576   5.851091   4.998115   5.564973
    31  H    7.610764   7.182188   5.823875   4.997752   5.586915
    32  H    8.772591   8.222417   6.795607   6.010820   6.380706
    33  H    7.517677   7.340176   5.961708   4.913331   5.896751
                   11         12         13         14         15
    11  C    0.000000
    12  C    1.397189   0.000000
    13  C    2.412980   1.396211   0.000000
    14  H   10.708051  11.136425  10.311151   0.000000
    15  H   10.065808  10.318642   9.367310   1.804554   0.000000
    16  H   10.084706  10.336229   9.380411   1.804869   1.810931
    17  H    8.561973   9.110381   8.434072   2.484610   2.503681
    18  H    8.582426   9.128731   8.447253   2.486083   3.090067
    19  H    7.624085   7.806719   6.843598   3.775784   3.132829
    20  H    7.606111   7.790208   6.832084   3.770962   2.550164
    21  H    6.168422   6.819036   6.299239   4.673202   4.507447
    22  H    3.958989   4.775294   4.551683   6.922716   6.567966
    23  H    3.868029   3.368688   2.102598   8.448900   7.408218
    24  H    2.136755   3.391904   3.869538   9.240653   8.855285
    25  H    1.082150   2.158560   3.398681  11.500416  10.944302
    26  S    2.785094   1.795860   2.765767  12.910420  12.043289
    27  O    3.021100   2.695792   3.965568  13.640731  12.866759
    28  O    3.505638   2.687493   3.520239  13.463094  12.701379
    29  H    3.395780   2.152411   1.082707  10.843142   9.785394
    30  C    4.379972   3.202397   3.629151  13.848679  12.791539
    31  H    4.501474   3.410123   3.742245  13.644297  12.518559
    32  H    5.104372   4.046847   4.630055  14.884560  13.849357
    33  H    4.831623   3.504247   3.563859  13.704352  12.596683
                   16         17         18         19         20
    16  H    0.000000
    17  H    3.089453   0.000000
    18  H    2.505451   1.807782   0.000000
    19  H    2.556615   3.091549   2.506647   0.000000
    20  H    3.128190   2.505532   3.090710   1.811396   0.000000
    21  H    4.511160   2.553772   2.558200   2.874549   2.873863
    22  H    6.577015   4.736747   4.747315   4.435568   4.428919
    23  H    7.413072   6.780123   6.784312   4.909934   4.908613
    24  H    8.872920   7.005944   7.026256   6.617918   6.601254
    25  H   10.965436   9.296659   9.319685   8.548161   8.528106
    26  S   12.063298  10.894709  10.915287   9.521036   9.502324
    27  O   12.951863  11.484196  11.577667  10.445298  10.346461
    28  O   12.511291  11.569909  11.359768   9.958365  10.202719
    29  H    9.796895   9.093555   9.104728   7.284953   7.275463
    30  C   12.932390  11.893493  12.043265  10.419171  10.250045
    31  H   12.807479  11.635611  11.944081  10.343966   9.990138
    32  H   13.974930  12.905831  13.038901  11.452482  11.305182
    33  H   12.672224  11.882918  11.961622  10.170968  10.082603
                   21         22         23         24         25
    21  H    0.000000
    22  H    2.264638   0.000000
    23  H    4.938182   3.849004   0.000000
    24  H    4.570489   2.324663   4.341075   0.000000
    25  H    6.878572   4.618400   4.950151   2.442313   0.000000
    26  S    8.613878   6.542767   4.867354   4.921840   2.933801
    27  O    9.158292   6.961100   6.023877   4.980716   2.615789
    28  O    9.190953   7.139811   5.497583   5.516157   3.545467
    29  H    7.093492   5.511212   2.398960   4.952244   4.297402
    30  C    9.795718   7.870007   5.534383   6.472585   4.611584
    31  H    9.656521   7.787023   5.500188   6.475088   4.770735
    32  H   10.765401   8.777105   6.579573   7.221631   5.148171
    33  H    9.844857   8.048775   5.273590   6.884164   5.231860
                   26         27         28         29         30
    26  S    0.000000
    27  O    1.536908   0.000000
    28  O    1.536052   2.336131   0.000000
    29  H    2.891865   4.304873   3.562815   0.000000
    30  C    1.816335   2.702026   2.715328   3.238013   0.000000
    31  H    2.395746   3.043268   3.619315   3.397753   1.070000
    32  H    2.395754   2.827232   2.945442   4.265005   1.069998
    33  H    2.395751   3.596628   2.945437   2.889172   1.069999
                   31         32         33
    31  H    0.000000
    32  H    1.747303   0.000000
    33  H    1.747305   1.747298   0.000000
 Stoichiometry    C11H16N2O3S
 Framework group  C1[X(C11H16N2O3S)]
 Deg. of freedom    93
 Full point group                 C1      NOp   1
 Largest Abelian subgroup         C1      NOp   1
 Largest concise Abelian subgroup C1      NOp   1
                         Standard orientation:                         
 ---------------------------------------------------------------------
 Center     Atomic      Atomic             Coordinates (Angstroms)
 Number     Number       Type             X           Y           Z
 ---------------------------------------------------------------------
      1          6           0        7.630446   -0.547619   -0.008707
      2          6           0        6.415122    0.374089   -0.051011
      3          6           0        5.109021   -0.425492    0.019584
      4          7           0        3.955448    0.456257   -0.027491
      5          6           0        2.680321   -0.024104    0.013231
      6          8           0        2.499144   -1.228558    0.094174
      7          7           0        1.629188    0.851394   -0.041539
      8          6           0        0.222260    0.547647   -0.020081
      9          6           0       -0.316096   -0.758873    0.080513
     10          6           0       -0.680888    1.625848   -0.106835
     11          6           0       -2.062090    1.418002   -0.097159
     12          6           0       -2.576812    0.122719    0.000010
     13          6           0       -1.700304   -0.960337    0.090157
     14          1           0        8.559252    0.058490   -0.062599
     15          1           0        7.613178   -1.248847   -0.870207
     16          1           0        7.640277   -1.130836    0.936672
     17          1           0        6.440221    0.959495   -0.995971
     18          1           0        6.465745    1.078492    0.807709
     19          1           0        5.086757   -1.008707    0.966679
     20          1           0        5.065969   -1.129756   -0.840549
     21          1           0        4.106067    1.475093   -0.097285
     22          1           0        1.873032    1.851814   -0.112048
     23          1           0        0.286686   -1.645044    0.153138
     24          1           0       -0.312289    2.641238   -0.184430
     25          1           0       -2.726109    2.269733   -0.165582
     26         16           0       -4.348965   -0.167842    0.012618
     27          8           0       -5.033889    1.094709   -0.534128
     28          8           0       -4.815206   -0.079584    1.473538
     29          1           0       -2.090483   -1.967336    0.167426
     30          6           0       -5.173120   -1.595000   -0.750966
     31          1           0       -4.865389   -1.680222   -1.772210
     32          1           0       -6.233630   -1.459421   -0.708147
     33          1           0       -4.905845   -2.486093   -0.222368
 ---------------------------------------------------------------------
 Rotational constants (GHZ):      1.8629177      0.1169489      0.1127618
 General basis read from cards:  (6D, 7F)
 There are   359 symmetry adapted cartesian basis functions of A   symmetry.
 There are   359 symmetry adapted basis functions of A   symmetry.
   359 basis functions,   632 primitive gaussians,   359 cartesian basis functions
    68 alpha electrons       68 beta electrons
       nuclear repulsion energy      1276.0869606979 Hartrees.
 NAtoms=   33 NActive=   33 NUniq=   33 SFac= 1.00D+00 NAtFMM=   60 NAOKFM=F Big=F
 Integral buffers will be    131072 words long.
 Raffenetti 2 integral format.
 Two-electron integral symmetry is turned on.
 ------------------------------------------------------------------------------
 Polarizable Continuum Model (PCM)
 =================================
 Model                : PCM (using non-symmetric T matrix).
 Atomic radii         : SMD-Coulomb.
 Polarization charges : Total charges.
 Charge compensation  : None.
 Solution method      : On-the-fly selection.
 Cavity type          : VdW (van der Waals Surface) (Alpha=1.000).
 Cavity algorithm     : GePol (No added spheres)
                        Default sphere list used, NSphG=   33.
                        Lebedev-Laikov grids with approx.  5.0 points / Ang**2.
                        Smoothing algorithm: York/Karplus (Gamma=1.0000).
                        Polarization charges: spherical gaussians, with
                                              point-specific exponents (IZeta= 3).
                        Self-potential: point-specific (ISelfS= 7).
                        Self-field    : sphere-specific E.n sum rule (ISelfD= 2).
 1st derivatives      : Analytical E(r).r(x)/FMM algorithm (CHGder, D1EAlg=3).
                        Cavity 1st derivative terms included.
 Solvent              : n-Pentadecane, Eps=   2.033300 Eps(inf)=   2.049192
 ------------------------------------------------------------------------------
 ------------------------------------------------------------------------------
 Atomic radii for non-electrostatic terms: SMD-CDS.
 ------------------------------------------------------------------------------
 Nuclear repulsion after PCM non-electrostatic terms =     1276.0784098604 Hartrees.
 One-electron integrals computed using PRISM.
 NBasis=   359 RedAO= T EigKep=  1.33D-06  NBF=   359
 NBsUse=   359 1.00D-06 EigRej= -1.00D+00 NBFU=   359
 ExpMin= 4.05D-02 ExpMax= 2.19D+04 ExpMxC= 3.30D+03 IAcc=3 IRadAn=         5 AccDes= 0.00D+00
 Harris functional with IExCor= 1009 and IRadAn=       5 diagonalized for initial guess.
 HarFok:  IExCor= 1009 AccDes= 0.00D+00 IRadAn=         5 IDoV= 1 UseB2=F ITyADJ=14
 ICtDFT=  3500011 ScaDFX=  1.000000  1.000000  1.000000  1.000000
 FoFCou: FMM=F IPFlag=           0 FMFlag=      100000 FMFlg1=           0
         NFxFlg=           0 DoJE=T BraDBF=F KetDBF=T FulRan=T
         wScrn=  0.000000 ICntrl=     500 IOpCl=  0 I1Cent=   200000004 NGrid=           0
         NMat0=    1 NMatS0=      1 NMatT0=    0 NMatD0=    1 NMtDS0=    0 NMtDT0=    0
 Petite list used in FoFCou.
 Requested convergence on RMS density matrix=1.00D-08 within 128 cycles.
 Requested convergence on MAX density matrix=1.00D-06.
 Requested convergence on             energy=1.00D-06.
 No special actions if energy rises.
 Inv3:  Mode=1 IEnd=    22097388.
 Iteration    1 A*A^-1 deviation from unit magnitude is 6.33D-15 for   2683.
 Iteration    1 A*A^-1 deviation from orthogonality  is 4.36D-15 for   2680    424.
 Iteration    1 A^-1*A deviation from unit magnitude is 6.44D-15 for   1340.
 Iteration    1 A^-1*A deviation from orthogonality  is 4.37D-15 for   1352   1334.
 Error on total polarization charges =  0.02312
 SCF Done:  E(RM062X) =  -1161.75998959     A.U. after   17 cycles
            NFock= 17  Conv=0.24D-08     -V/T= 2.0073
 SMD-CDS (non-electrostatic) energy       (kcal/mol) =      -5.37
 (included in total energy above)

 **********************************************************************

            Population analysis using the SCF density.

 **********************************************************************

 Orbital symmetries:
       Occupied  (A) (A) (A) (A) (A) (A) (A) (A) (A) (A) (A) (A)
                 (A) (A) (A) (A) (A) (A) (A) (A) (A) (A) (A) (A)
                 (A) (A) (A) (A) (A) (A) (A) (A) (A) (A) (A) (A)
                 (A) (A) (A) (A) (A) (A) (A) (A) (A) (A) (A) (A)
                 (A) (A) (A) (A) (A) (A) (A) (A) (A) (A) (A) (A)
                 (A) (A) (A) (A) (A) (A) (A) (A)
       Virtual   (A) (A) (A) (A) (A) (A) (A) (A) (A) (A) (A) (A)
                 (A) (A) (A) (A) (A) (A) (A) (A) (A) (A) (A) (A)
                 (A) (A) (A) (A) (A) (A) (A) (A) (A) (A) (A) (A)
                 (A) (A) (A) (A) (A) (A) (A) (A) (A) (A) (A) (A)
                 (A) (A) (A) (A) (A) (A) (A) (A) (A) (A) (A) (A)
                 (A) (A) (A) (A) (A) (A) (A) (A) (A) (A) (A) (A)
                 (A) (A) (A) (A) (A) (A) (A) (A) (A) (A) (A) (A)
                 (A) (A) (A) (A) (A) (A) (A) (A) (A) (A) (A) (A)
                 (A) (A) (A) (A) (A) (A) (A) (A) (A) (A) (A) (A)
                 (A) (A) (A) (A) (A) (A) (A) (A) (A) (A) (A) (A)
                 (A) (A) (A) (A) (A) (A) (A) (A) (A) (A) (A) (A)
                 (A) (A) (A) (A) (A) (A) (A) (A) (A) (A) (A) (A)
                 (A) (A) (A) (A) (A) (A) (A) (A) (A) (A) (A) (A)
                 (A) (A) (A) (A) (A) (A) (A) (A) (A) (A) (A) (A)
                 (A) (A) (A) (A) (A) (A) (A) (A) (A) (A) (A) (A)
                 (A) (A) (A) (A) (A) (A) (A) (A) (A) (A) (A) (A)
                 (A) (A) (A) (A) (A) (A) (A) (A) (A) (A) (A) (A)
                 (A) (A) (A) (A) (A) (A) (A) (A) (A) (A) (A) (A)
                 (A) (A) (A) (A) (A) (A) (A) (A) (A) (A) (A) (A)
                 (A) (A) (A) (A) (A) (A) (A) (A) (A) (A) (A) (A)
                 (A) (A) (A) (A) (A) (A) (A) (A) (A) (A) (A) (A)
                 (A) (A) (A) (A) (A) (A) (A) (A) (A) (A) (A) (A)
                 (A) (A) (A) (A) (A) (A) (A) (A) (A) (A) (A) (A)
                 (A) (A) (A) (A) (A) (A) (A) (A) (A) (A) (A) (A)
                 (A) (A) (A)
 The electronic state is 1-A.
 Alpha  occ. eigenvalues --  -90.13866 -19.60991 -19.60957 -19.60868 -14.82028
 Alpha  occ. eigenvalues --  -14.79522 -10.69007 -10.63749 -10.60932 -10.59862
 Alpha  occ. eigenvalues --  -10.58979 -10.58816 -10.58812 -10.58129 -10.57256
 Alpha  occ. eigenvalues --  -10.55955 -10.54690  -8.45331  -6.37428  -6.37398
 Alpha  occ. eigenvalues --   -6.37396  -1.18604  -1.17698  -1.06058  -1.04673
 Alpha  occ. eigenvalues --   -1.03382  -0.98165  -0.89881  -0.88629  -0.86901
 Alpha  occ. eigenvalues --   -0.86561  -0.79085  -0.75692  -0.72749  -0.69765
 Alpha  occ. eigenvalues --   -0.68631  -0.67116  -0.64246  -0.62447  -0.59690
 Alpha  occ. eigenvalues --   -0.56441  -0.55275  -0.54876  -0.54201  -0.53822
 Alpha  occ. eigenvalues --   -0.52872  -0.52707  -0.51360  -0.51086  -0.49679
 Alpha  occ. eigenvalues --   -0.48514  -0.47490  -0.47238  -0.47029  -0.45484
 Alpha  occ. eigenvalues --   -0.43174  -0.42890  -0.40703  -0.40612  -0.39271
 Alpha  occ. eigenvalues --   -0.37387  -0.35255  -0.34963  -0.34441  -0.33014
 Alpha  occ. eigenvalues --   -0.32508  -0.31769  -0.28915
 Alpha virt. eigenvalues --   -0.02256  -0.00225  -0.00067   0.00421   0.02298
 Alpha virt. eigenvalues --    0.02724   0.03352   0.03728   0.03845   0.04360
 Alpha virt. eigenvalues --    0.05032   0.05354   0.05603   0.06542   0.06741
 Alpha virt. eigenvalues --    0.06837   0.06928   0.07488   0.07616   0.08379
 Alpha virt. eigenvalues --    0.08736   0.09149   0.09482   0.09844   0.09984
 Alpha virt. eigenvalues --    0.10459   0.11228   0.11514   0.12022   0.12721
 Alpha virt. eigenvalues --    0.13259   0.13862   0.14286   0.14693   0.15303
 Alpha virt. eigenvalues --    0.15538   0.15735   0.16219   0.16540   0.17351
 Alpha virt. eigenvalues --    0.17844   0.18407   0.18799   0.18847   0.19599
 Alpha virt. eigenvalues --    0.20077   0.20668   0.20950   0.21119   0.21528
 Alpha virt. eigenvalues --    0.22185   0.22461   0.22814   0.23064   0.23740
 Alpha virt. eigenvalues --    0.23875   0.24460   0.24874   0.25087   0.25291
 Alpha virt. eigenvalues --    0.26005   0.26529   0.26921   0.27798   0.27867
 Alpha virt. eigenvalues --    0.28299   0.28823   0.29180   0.29309   0.29941
 Alpha virt. eigenvalues --    0.30032   0.31123   0.31582   0.31852   0.32045
 Alpha virt. eigenvalues --    0.32716   0.33287   0.33622   0.34070   0.34324
 Alpha virt. eigenvalues --    0.34699   0.35059   0.35263   0.36254   0.36438
 Alpha virt. eigenvalues --    0.37398   0.37645   0.38285   0.38602   0.39588
 Alpha virt. eigenvalues --    0.40152   0.41129   0.41359   0.43319   0.44031
 Alpha virt. eigenvalues --    0.45220   0.46068   0.46679   0.47822   0.50710
 Alpha virt. eigenvalues --    0.52912   0.53733   0.56214   0.56603   0.59624
 Alpha virt. eigenvalues --    0.62027   0.62961   0.64810   0.67740   0.68503
 Alpha virt. eigenvalues --    0.68949   0.69180   0.70579   0.71787   0.72938
 Alpha virt. eigenvalues --    0.73871   0.74190   0.74948   0.75880   0.76349
 Alpha virt. eigenvalues --    0.77004   0.78316   0.78509   0.80356   0.81000
 Alpha virt. eigenvalues --    0.82311   0.82764   0.83254   0.83919   0.84774
 Alpha virt. eigenvalues --    0.87650   0.88266   0.88373   0.90379   0.90686
 Alpha virt. eigenvalues --    0.92892   0.95311   0.96096   0.97008   0.97347
 Alpha virt. eigenvalues --    0.99427   0.99922   1.00014   1.02108   1.03313
 Alpha virt. eigenvalues --    1.03612   1.04154   1.04428   1.04980   1.06159
 Alpha virt. eigenvalues --    1.07510   1.10027   1.10235   1.10450   1.11390
 Alpha virt. eigenvalues --    1.12258   1.13417   1.13962   1.14652   1.16422
 Alpha virt. eigenvalues --    1.16513   1.17743   1.19447   1.21022   1.21696
 Alpha virt. eigenvalues --    1.23047   1.25014   1.27221   1.29450   1.30860
 Alpha virt. eigenvalues --    1.31643   1.34173   1.34800   1.35586   1.36195
 Alpha virt. eigenvalues --    1.37560   1.38844   1.39411   1.40075   1.40672
 Alpha virt. eigenvalues --    1.42360   1.43928   1.44602   1.45037   1.46238
 Alpha virt. eigenvalues --    1.46622   1.47514   1.48811   1.49216   1.50228
 Alpha virt. eigenvalues --    1.53482   1.54364   1.55345   1.56583   1.57166
 Alpha virt. eigenvalues --    1.58550   1.59783   1.61594   1.67195   1.68596
 Alpha virt. eigenvalues --    1.73085   1.76930   1.78969   1.81995   1.83797
 Alpha virt. eigenvalues --    1.84875   1.86780   1.87845   1.88184   1.88440
 Alpha virt. eigenvalues --    1.91415   1.91809   1.92952   1.93617   1.94894
 Alpha virt. eigenvalues --    1.96121   1.97170   1.98214   1.98897   2.01580
 Alpha virt. eigenvalues --    2.03119   2.03894   2.04069   2.04489   2.05270
 Alpha virt. eigenvalues --    2.05757   2.07247   2.10214   2.13763   2.14172
 Alpha virt. eigenvalues --    2.15702   2.16236   2.19001   2.19617   2.19966
 Alpha virt. eigenvalues --    2.20940   2.23080   2.23746   2.24364   2.26491
 Alpha virt. eigenvalues --    2.29025   2.30698   2.31662   2.33794   2.34707
 Alpha virt. eigenvalues --    2.35421   2.37803   2.38476   2.39741   2.40816
 Alpha virt. eigenvalues --    2.41856   2.48600   2.55711   2.57090   2.63967
 Alpha virt. eigenvalues --    2.65193   2.65734   2.68031   2.71455   2.73529
 Alpha virt. eigenvalues --    2.76264   2.77830   2.78822   2.79421   2.81082
 Alpha virt. eigenvalues --    2.82767   2.88799   2.91302   2.97433   3.04455
 Alpha virt. eigenvalues --    3.11687   3.27108   3.31572   3.39286   4.03228
 Alpha virt. eigenvalues --    4.14273   4.16653   4.24923   4.26616   4.27308
 Alpha virt. eigenvalues --    4.30048   4.33420   4.36594   4.38275   4.41391
 Alpha virt. eigenvalues --    4.42412   4.47481   4.49838   4.58455   4.66720
 Alpha virt. eigenvalues --    4.75059
          Condensed to atoms (all electrons):
               1          2          3          4          5          6
     1  C    5.594005  -0.014627   0.011214  -0.002150  -0.048774  -0.002832
     2  C   -0.014627   6.139342  -0.369328  -0.085876   0.123399   0.020046
     3  C    0.011214  -0.369328   6.854317   0.359632  -0.466457  -0.094661
     4  N   -0.002150  -0.085876   0.359632   7.717767   0.389039  -0.211932
     5  C   -0.048774   0.123399  -0.466457   0.389039   6.968872   0.624004
     6  O   -0.002832   0.020046  -0.094661  -0.211932   0.624004   8.333967
     7  N   -0.003496   0.019954  -0.158161  -0.415995   0.088905  -0.078380
     8  C   -0.011240   0.008247  -0.478616  -0.216268  -1.103517  -0.430882
     9  C    0.000609  -0.003701   0.050833   0.083016   1.378104   0.326069
    10  C   -0.002964   0.001532  -0.164047  -0.115440  -2.315665  -0.150740
    11  C    0.000040   0.001130   0.017399   0.008823   0.457344   0.014528
    12  C   -0.000183  -0.000286  -0.031449   0.003294  -0.504711   0.000043
    13  C   -0.000443   0.000326  -0.025538   0.000221  -0.374057   0.260672
    14  H    0.410742  -0.085150   0.027185   0.000557  -0.002205   0.000009
    15  H    0.417987  -0.065978  -0.007986   0.000442   0.000036  -0.000063
    16  H    0.416190  -0.065540  -0.006940   0.000470   0.000389  -0.000061
    17  H   -0.031961   0.418891  -0.077707   0.007090  -0.003156  -0.000239
    18  H   -0.030052   0.416550  -0.075089   0.006792  -0.004875  -0.000225
    19  H    0.003773  -0.047983   0.418938  -0.055454  -0.009940   0.001689
    20  H    0.005601  -0.053245   0.429309  -0.057884  -0.014889   0.001927
    21  H   -0.002544   0.000962  -0.078490   0.237218   0.031410   0.008656
    22  H   -0.000125   0.000499  -0.000333   0.018686  -0.016811   0.007612
    23  H    0.000006   0.000066   0.002685  -0.000059   0.017184  -0.001949
    24  H    0.000000  -0.000005   0.000176   0.001541   0.006419   0.000006
    25  H    0.000000   0.000000   0.000021   0.000004   0.002744   0.000001
    26  S   -0.000005  -0.000017  -0.001390   0.000480  -0.060473  -0.000101
    27  O   -0.000000  -0.000000  -0.000009   0.000006  -0.001835  -0.000002
    28  O   -0.000000  -0.000000  -0.000022  -0.000000  -0.003615  -0.000003
    29  H    0.000000   0.000001   0.000022   0.000016   0.002275   0.000295
    30  C    0.000000   0.000001   0.000113   0.000000   0.007841  -0.000022
    31  H   -0.000000  -0.000000  -0.000000   0.000000  -0.000067  -0.000000
    32  H    0.000000   0.000000   0.000000  -0.000000   0.000006   0.000000
    33  H   -0.000000  -0.000000  -0.000000  -0.000000  -0.000122  -0.000000
               7          8          9         10         11         12
     1  C   -0.003496  -0.011240   0.000609  -0.002964   0.000040  -0.000183
     2  C    0.019954   0.008247  -0.003701   0.001532   0.001130  -0.000286
     3  C   -0.158161  -0.478616   0.050833  -0.164047   0.017399  -0.031449
     4  N   -0.415995  -0.216268   0.083016  -0.115440   0.008823   0.003294
     5  C    0.088905  -1.103517   1.378104  -2.315665   0.457344  -0.504711
     6  O   -0.078380  -0.430882   0.326069  -0.150740   0.014528   0.000043
     7  N    7.839314   0.059896  -0.393653   0.404612   0.065751   0.013889
     8  C    0.059896  16.705488  -1.114725  -1.177119   2.136172  -5.262344
     9  C   -0.393653  -1.114725  23.002383  -4.948938  -1.078618  -1.853244
    10  C    0.404612  -1.177119  -4.948938  22.217646  -5.828850   1.293450
    11  C    0.065751   2.136172  -1.078618  -5.828850  23.372511  -1.350568
    12  C    0.013889  -5.262344  -1.853244   1.293450  -1.350568  20.251696
    13  C   -0.054716  -2.901496 -10.704673  -2.614487 -10.452704  -4.544623
    14  H    0.000010  -0.000044   0.000005  -0.000001  -0.000000  -0.000000
    15  H    0.000013   0.000028  -0.000049   0.000003   0.000000   0.000000
    16  H    0.000012   0.000021  -0.000045   0.000002   0.000000   0.000000
    17  H    0.000048  -0.000385  -0.000214   0.000100   0.000006  -0.000002
    18  H    0.000044  -0.000286  -0.000252   0.000130   0.000002   0.000000
    19  H    0.000247  -0.004040   0.002734  -0.000679   0.000032  -0.000030
    20  H    0.000169  -0.003497   0.002512  -0.000947  -0.000013   0.000007
    21  H    0.029484   0.017917  -0.000095  -0.000271   0.000260  -0.000156
    22  H    0.234406   0.009405   0.029141  -0.111299   0.042003  -0.006285
    23  H   -0.014362   0.066035   0.217118   0.030339  -0.012955  -0.004700
    24  H   -0.009806   0.076594   0.116222   0.154980   0.007763   0.014344
    25  H    0.000263   0.027133  -0.021237  -0.069303   0.321617   0.020878
    26  S    0.001274  -0.541063  -0.145743   0.680950  -1.300052  -1.308632
    27  O    0.000263  -0.091373   0.024497   0.115612  -0.624312   0.093935
    28  O   -0.000148  -0.047549   0.017405   0.007738  -0.578672  -0.331330
    29  H   -0.000507  -0.023946   0.167183  -0.028959   0.081001   0.135826
    30  C    0.000081   0.074405  -0.125793  -0.040013   0.781113   0.377450
    31  H    0.000003  -0.001310  -0.011221   0.000370  -0.036195  -0.068173
    32  H   -0.000000   0.000633   0.004623  -0.000216   0.011892   0.043738
    33  H   -0.000002  -0.002656   0.026952   0.001503  -0.036228  -0.073008
              13         14         15         16         17         18
     1  C   -0.000443   0.410742   0.417987   0.416190  -0.031961  -0.030052
     2  C    0.000326  -0.085150  -0.065978  -0.065540   0.418891   0.416550
     3  C   -0.025538   0.027185  -0.007986  -0.006940  -0.077707  -0.075089
     4  N    0.000221   0.000557   0.000442   0.000470   0.007090   0.006792
     5  C   -0.374057  -0.002205   0.000036   0.000389  -0.003156  -0.004875
     6  O    0.260672   0.000009  -0.000063  -0.000061  -0.000239  -0.000225
     7  N   -0.054716   0.000010   0.000013   0.000012   0.000048   0.000044
     8  C   -2.901496  -0.000044   0.000028   0.000021  -0.000385  -0.000286
     9  C  -10.704673   0.000005  -0.000049  -0.000045  -0.000214  -0.000252
    10  C   -2.614487  -0.000001   0.000003   0.000002   0.000100   0.000130
    11  C  -10.452704  -0.000000   0.000000   0.000000   0.000006   0.000002
    12  C   -4.544623  -0.000000   0.000000   0.000000  -0.000002   0.000000
    13  C   36.443251   0.000000  -0.000004  -0.000004  -0.000017  -0.000029
    14  H    0.000000   0.486484  -0.023964  -0.023845  -0.003053  -0.003033
    15  H   -0.000004  -0.023964   0.489838  -0.027913  -0.004770   0.003880
    16  H   -0.000004  -0.023845  -0.027913   0.489120   0.003889  -0.004745
    17  H   -0.000017  -0.003053  -0.004770   0.003889   0.504914  -0.033044
    18  H   -0.000029  -0.003033   0.003880  -0.004745  -0.033044   0.503723
    19  H    0.000747  -0.000061  -0.000317   0.002658   0.003816  -0.005336
    20  H    0.000258  -0.000059   0.002692  -0.000326  -0.005347   0.003832
    21  H    0.000825  -0.000003   0.000001   0.000000   0.000850   0.000842
    22  H    0.030209  -0.000000  -0.000000  -0.000000   0.000001   0.000001
    23  H    0.006676   0.000000  -0.000000  -0.000000  -0.000000  -0.000000
    24  H   -0.073884   0.000000  -0.000000  -0.000000   0.000000   0.000000
    25  H    0.035980  -0.000000   0.000000   0.000000  -0.000000   0.000000
    26  S    1.058351  -0.000000  -0.000000  -0.000000  -0.000000   0.000000
    27  O    0.216483  -0.000000  -0.000000  -0.000000  -0.000000  -0.000000
    28  O    0.660885  -0.000000   0.000000  -0.000000  -0.000000   0.000000
    29  H   -0.021826  -0.000000   0.000000   0.000000   0.000000   0.000000
    30  C   -0.944929  -0.000000   0.000000  -0.000000   0.000000  -0.000000
    31  H    0.076625   0.000000  -0.000000  -0.000000   0.000000   0.000000
    32  H   -0.019414   0.000000   0.000000   0.000000  -0.000000   0.000000
    33  H    0.060411   0.000000  -0.000000  -0.000000  -0.000000   0.000000
              19         20         21         22         23         24
     1  C    0.003773   0.005601  -0.002544  -0.000125   0.000006   0.000000
     2  C   -0.047983  -0.053245   0.000962   0.000499   0.000066  -0.000005
     3  C    0.418938   0.429309  -0.078490  -0.000333   0.002685   0.000176
     4  N   -0.055454  -0.057884   0.237218   0.018686  -0.000059   0.001541
     5  C   -0.009940  -0.014889   0.031410  -0.016811   0.017184   0.006419
     6  O    0.001689   0.001927   0.008656   0.007612  -0.001949   0.000006
     7  N    0.000247   0.000169   0.029484   0.234406  -0.014362  -0.009806
     8  C   -0.004040  -0.003497   0.017917   0.009405   0.066035   0.076594
     9  C    0.002734   0.002512  -0.000095   0.029141   0.217118   0.116222
    10  C   -0.000679  -0.000947  -0.000271  -0.111299   0.030339   0.154980
    11  C    0.000032  -0.000013   0.000260   0.042003  -0.012955   0.007763
    12  C   -0.000030   0.000007  -0.000156  -0.006285  -0.004700   0.014344
    13  C    0.000747   0.000258   0.000825   0.030209   0.006676  -0.073884
    14  H   -0.000061  -0.000059  -0.000003  -0.000000   0.000000   0.000000
    15  H   -0.000317   0.002692   0.000001  -0.000000  -0.000000  -0.000000
    16  H    0.002658  -0.000326   0.000000  -0.000000  -0.000000  -0.000000
    17  H    0.003816  -0.005347   0.000850   0.000001  -0.000000   0.000000
    18  H   -0.005336   0.003832   0.000842   0.000001  -0.000000   0.000000
    19  H    0.492374  -0.035849   0.002556   0.000004  -0.000000   0.000000
    20  H   -0.035849   0.494005   0.002564   0.000004  -0.000000   0.000000
    21  H    0.002556   0.002564   0.317651   0.002437   0.000001   0.000003
    22  H    0.000004   0.000004   0.002437   0.312313  -0.000112   0.005844
    23  H   -0.000000  -0.000000   0.000001  -0.000112   0.419213  -0.000099
    24  H    0.000000   0.000000   0.000003   0.005844  -0.000099   0.470668
    25  H   -0.000000  -0.000000  -0.000000  -0.000010   0.000009  -0.004041
    26  S   -0.000000   0.000000  -0.000002   0.000238  -0.000390   0.002934
    27  O    0.000000   0.000000  -0.000000   0.000001   0.000012   0.000207
    28  O   -0.000000   0.000000  -0.000000   0.000000   0.000014   0.000005
    29  H   -0.000000  -0.000000  -0.000000   0.000002  -0.004668   0.000013
    30  C    0.000000  -0.000000   0.000000   0.000002   0.000207   0.000136
    31  H    0.000000   0.000000  -0.000000  -0.000000   0.000000   0.000000
    32  H   -0.000000   0.000000  -0.000000   0.000000  -0.000000  -0.000000
    33  H    0.000000   0.000000  -0.000000  -0.000000  -0.000000  -0.000000
              25         26         27         28         29         30
     1  C    0.000000  -0.000005  -0.000000  -0.000000   0.000000   0.000000
     2  C    0.000000  -0.000017  -0.000000  -0.000000   0.000001   0.000001
     3  C    0.000021  -0.001390  -0.000009  -0.000022   0.000022   0.000113
     4  N    0.000004   0.000480   0.000006  -0.000000   0.000016   0.000000
     5  C    0.002744  -0.060473  -0.001835  -0.003615   0.002275   0.007841
     6  O    0.000001  -0.000101  -0.000002  -0.000003   0.000295  -0.000022
     7  N    0.000263   0.001274   0.000263  -0.000148  -0.000507   0.000081
     8  C    0.027133  -0.541063  -0.091373  -0.047549  -0.023946   0.074405
     9  C   -0.021237  -0.145743   0.024497   0.017405   0.167183  -0.125793
    10  C   -0.069303   0.680950   0.115612   0.007738  -0.028959  -0.040013
    11  C    0.321617  -1.300052  -0.624312  -0.578672   0.081001   0.781113
    12  C    0.020878  -1.308632   0.093935  -0.331330   0.135826   0.377450
    13  C    0.035980   1.058351   0.216483   0.660885  -0.021826  -0.944929
    14  H   -0.000000  -0.000000  -0.000000  -0.000000  -0.000000  -0.000000
    15  H    0.000000  -0.000000  -0.000000   0.000000   0.000000   0.000000
    16  H    0.000000  -0.000000  -0.000000  -0.000000   0.000000  -0.000000
    17  H   -0.000000  -0.000000  -0.000000  -0.000000   0.000000   0.000000
    18  H    0.000000   0.000000  -0.000000   0.000000   0.000000  -0.000000
    19  H   -0.000000  -0.000000   0.000000  -0.000000  -0.000000   0.000000
    20  H   -0.000000   0.000000   0.000000   0.000000  -0.000000  -0.000000
    21  H   -0.000000  -0.000002  -0.000000  -0.000000  -0.000000   0.000000
    22  H   -0.000010   0.000238   0.000001   0.000000   0.000002   0.000002
    23  H    0.000009  -0.000390   0.000012   0.000014  -0.004668   0.000207
    24  H   -0.004041   0.002934   0.000207   0.000005   0.000013   0.000136
    25  H    0.415000  -0.010613   0.002330  -0.000496  -0.000124   0.000558
    26  S   -0.010613  16.257729   0.449051   0.493610  -0.007449  -0.714151
    27  O    0.002330   0.449051   8.817140  -0.193052   0.000512  -0.193182
    28  O   -0.000496   0.493610  -0.193052   8.762781  -0.001615  -0.216205
    29  H   -0.000124  -0.007449   0.000512  -0.001615   0.463806   0.001936
    30  C    0.000558  -0.714151  -0.193182  -0.216205   0.001936   6.789278
    31  H    0.000002   0.049765  -0.002589   0.009493  -0.000097   0.303421
    32  H   -0.000000  -0.065056  -0.008288  -0.006934  -0.000003   0.387418
    33  H   -0.000001   0.005158   0.009727  -0.001010  -0.000227   0.331892
              31         32         33
     1  C   -0.000000   0.000000  -0.000000
     2  C   -0.000000   0.000000  -0.000000
     3  C   -0.000000   0.000000  -0.000000
     4  N    0.000000  -0.000000  -0.000000
     5  C   -0.000067   0.000006  -0.000122
     6  O   -0.000000   0.000000  -0.000000
     7  N    0.000003  -0.000000  -0.000002
     8  C   -0.001310   0.000633  -0.002656
     9  C   -0.011221   0.004623   0.026952
    10  C    0.000370  -0.000216   0.001503
    11  C   -0.036195   0.011892  -0.036228
    12  C   -0.068173   0.043738  -0.073008
    13  C    0.076625  -0.019414   0.060411
    14  H    0.000000   0.000000   0.000000
    15  H   -0.000000   0.000000  -0.000000
    16  H   -0.000000   0.000000  -0.000000
    17  H    0.000000  -0.000000  -0.000000
    18  H    0.000000   0.000000   0.000000
    19  H    0.000000  -0.000000   0.000000
    20  H    0.000000   0.000000   0.000000
    21  H   -0.000000  -0.000000  -0.000000
    22  H   -0.000000   0.000000  -0.000000
    23  H    0.000000  -0.000000  -0.000000
    24  H    0.000000  -0.000000  -0.000000
    25  H    0.000002  -0.000000  -0.000001
    26  S    0.049765  -0.065056   0.005158
    27  O   -0.002589  -0.008288   0.009727
    28  O    0.009493  -0.006934  -0.001010
    29  H   -0.000097  -0.000003  -0.000227
    30  C    0.303421   0.387418   0.331892
    31  H    0.425262  -0.017747  -0.022738
    32  H   -0.017747   0.361947  -0.019774
    33  H   -0.022738  -0.019774   0.430465
 Mulliken charges:
               1
     1  C   -0.708773
     2  C   -0.359212
     3  C   -0.135621
     4  N   -0.674036
     5  C    0.833199
     6  O   -0.627433
     7  N   -0.629413
     8  C    0.230384
     9  C    0.952796
    10  C   -1.339030
    11  C   -0.020222
    12  C   -0.908827
    13  C   -0.119075
    14  H    0.216427
    15  H    0.216127
    16  H    0.216669
    17  H    0.220294
    18  H    0.221169
    19  H    0.230122
    20  H    0.229175
    21  H    0.427924
    22  H    0.442166
    23  H    0.279727
    24  H    0.229982
    25  H    0.279286
    26  S    1.155596
    27  O   -0.615132
    28  O   -0.571279
    29  H    0.236533
    30  C   -0.821557
    31  H    0.295197
    32  H    0.327176
    33  H    0.289660
 Sum of Mulliken charges =  -0.00000
 Mulliken charges with hydrogens summed into heavy atoms:
               1
     1  C   -0.059550
     2  C    0.082251
     3  C    0.323677
     4  N   -0.246112
     5  C    0.833199
     6  O   -0.627433
     7  N   -0.187247
     8  C    0.230384
     9  C    1.232523
    10  C   -1.109048
    11  C    0.259064
    12  C   -0.908827
    13  C    0.117458
    26  S    1.155596
    27  O   -0.615132
    28  O   -0.571279
    30  C    0.090477
 Electronic spatial extent (au):  <R**2>=           9233.2499
 Charge=             -0.0000 electrons
 Dipole moment (field-independent basis, Debye):
    X=              8.2398    Y=             -0.0859    Z=             -3.6113  Tot=              8.9969
 Quadrupole moment (field-independent basis, Debye-Ang):
   XX=           -115.7687   YY=            -97.8512   ZZ=           -118.4118
   XY=             37.8539   XZ=             15.7386   YZ=              3.3021
 Traceless Quadrupole moment (field-independent basis, Debye-Ang):
   XX=             -5.0915   YY=             12.8260   ZZ=             -7.7346
   XY=             37.8539   XZ=             15.7386   YZ=              3.3021
 Octapole moment (field-independent basis, Debye-Ang**2):
  XXX=            277.9451  YYY=             12.4765  ZZZ=             -9.7395  XYY=            -20.0657
  XXY=           -104.0844  XXZ=            -84.2206  XZZ=             23.9773  YZZ=             -6.1096
  YYZ=             -2.3480  XYZ=            -21.0654
 Hexadecapole moment (field-independent basis, Debye-Ang**3):
 XXXX=         -11227.8665 YYYY=           -634.1998 ZZZZ=           -279.6432 XXXY=            855.6685
 XXXZ=            400.2195 YYYX=            106.0255 YYYZ=             -1.8224 ZZZX=             50.2616
 ZZZY=              9.7813 XXYY=          -1918.2355 XXZZ=          -2067.0470 YYZZ=           -169.1376
 XXYZ=            108.2499 YYXZ=              0.7066 ZZXY=              9.2180
 N-N= 1.276078409860D+03 E-N=-5.273998591270D+03  KE= 1.153286387702D+03
 D1PCM: PCM CHGder 1st derivatives, ID1Alg=3 FixD1E=F DoIter=F DoCFld=F I1PDM=0.
 Calling FoFJK, ICntrl=      2127 FMM=F ISym2X=0 I1Cent= 0 IOpClX= 0 NMat=1 NMatS=1 NMatT=0.
 ***** Axes restored to original set *****
 -------------------------------------------------------------------
 Center     Atomic                   Forces (Hartrees/Bohr)
 Number     Number              X              Y              Z
 -------------------------------------------------------------------
      1        6          -0.005015059    0.001363769   -0.000264371
      2        6           0.004595674   -0.005557201    0.000794799
      3        6          -0.005391042    0.006688323   -0.001133567
      4        7           0.011997285   -0.035008886    0.004877830
      5        6          -0.013740240    0.022616109   -0.003481717
      6        8           0.002740990    0.016209001   -0.002112270
      7        7           0.026792675   -0.024846850    0.003024691
      8        6          -0.016180801    0.002109826   -0.000143418
      9        6           0.005979174   -0.001676076    0.001040989
     10        6           0.003101404    0.009618202    0.000585416
     11        6           0.002080682   -0.001925209   -0.001183117
     12        6          -0.013682249    0.019340529   -0.020297066
     13        6          -0.001808358   -0.011604861    0.001241493
     14        1           0.006227494    0.009038756   -0.001078179
     15        1          -0.001356528   -0.003461119    0.009880085
     16        1          -0.001137299   -0.005923485   -0.008593353
     17        1           0.001033612    0.004443280    0.008259172
     18        1           0.001168987    0.002187906   -0.009101705
     19        1           0.001243744   -0.004791542   -0.009642112
     20        1           0.001088742   -0.001967271    0.010619779
     21        1          -0.002906201    0.015953267   -0.002124207
     22        1           0.006489442    0.014484347   -0.001764723
     23        1          -0.009612128   -0.002193437    0.000390883
     24        1          -0.000940470   -0.002314205    0.000533505
     25        1           0.003240115   -0.000475117   -0.001211530
     26       16           0.109473996   -0.085096378    0.095320744
     27        8          -0.042627205    0.032042420   -0.034278577
     28        8          -0.038342053    0.032168594   -0.038667704
     29        1          -0.001680846    0.003510993   -0.000410216
     30        6          -0.035280130   -0.003026100   -0.002445381
     31        1          -0.005220787   -0.004046644   -0.015831128
     32        1           0.014582795   -0.011415433    0.010255293
     33        1          -0.006915416    0.013554494    0.006939661
 -------------------------------------------------------------------
 Cartesian Forces:  Max     0.109473996 RMS     0.021422530

 GradGradGradGradGradGradGradGradGradGradGradGradGradGradGradGradGradGrad
 Berny optimization.
 FormGI is forming the generalized inverse of G from B-inverse, IUseBI=4.
 Internal  Forces:  Max     0.042838812 RMS     0.010827833
 Search for a local minimum.
 Step number   1 out of a maximum of  175
 All quantities printed in internal units (Hartrees-Bohrs-Radians)
 Mixed Optimization -- RFO/linear search
 Second derivative matrix not updated -- first step.
 ITU=  0
     Eigenvalues ---    0.00230   0.00329   0.00423   0.00425   0.00994
     Eigenvalues ---    0.01169   0.01435   0.01468   0.01636   0.01695
     Eigenvalues ---    0.01942   0.01982   0.02047   0.02085   0.02101
     Eigenvalues ---    0.02120   0.02128   0.02131   0.02139   0.02178
     Eigenvalues ---    0.03755   0.03924   0.04436   0.04933   0.05553
     Eigenvalues ---    0.05673   0.05715   0.05715   0.05783   0.07395
     Eigenvalues ---    0.08034   0.09179   0.11976   0.12668   0.16000
     Eigenvalues ---    0.16000   0.16000   0.16000   0.16000   0.16000
     Eigenvalues ---    0.16000   0.16000   0.16000   0.16000   0.16000
     Eigenvalues ---    0.16000   0.17812   0.21964   0.22000   0.22000
     Eigenvalues ---    0.22000   0.22004   0.22005   0.22964   0.24000
     Eigenvalues ---    0.24871   0.25000   0.25000   0.25000   0.25000
     Eigenvalues ---    0.25000   0.26446   0.29144   0.29806   0.32336
     Eigenvalues ---    0.32338   0.32402   0.32408   0.32500   0.32511
     Eigenvalues ---    0.32559   0.35634   0.35669   0.35736   0.36703
     Eigenvalues ---    0.37230   0.37230   0.37230   0.37889   0.39654
     Eigenvalues ---    0.40682   0.41304   0.42437   0.42459   0.44216
     Eigenvalues ---    0.45268   0.45965   0.46171   0.51154   0.52303
     Eigenvalues ---    0.65646   0.65877   0.95078
 RFO step:  Lambda=-7.48990947D-02 EMin= 2.30000000D-03
 Linear search not attempted -- first point.
 Maximum step size (   0.300) exceeded in Quadratic search.
    -- Step size scaled by   0.731
 Iteration  1 RMS(Cart)=  0.08613446 RMS(Int)=  0.00235151
 Iteration  2 RMS(Cart)=  0.00532369 RMS(Int)=  0.00092912
 Iteration  3 RMS(Cart)=  0.00001107 RMS(Int)=  0.00092910
 Iteration  4 RMS(Cart)=  0.00000002 RMS(Int)=  0.00092910
 Variable       Old X    -DE/DX   Delta X   Delta X   Delta X     New X
                                 (Linear)    (Quad)   (Total)
    R1        2.88352   0.00160   0.00000   0.00314   0.00314   2.88666
    R2        2.09832  -0.01065   0.00000  -0.01943  -0.01943   2.07889
    R3        2.09938  -0.01026   0.00000  -0.01874  -0.01874   2.08064
    R4        2.09920  -0.01021   0.00000  -0.01864  -0.01864   2.08056
    R5        2.89703  -0.00558   0.00000  -0.01113  -0.01113   2.88590
    R6        2.10115  -0.00900   0.00000  -0.01647  -0.01647   2.08468
    R7        2.10104  -0.00902   0.00000  -0.01652  -0.01652   2.08452
    R8        2.74526  -0.00114   0.00000  -0.00184  -0.00184   2.74343
    R9        2.10229  -0.01038   0.00000  -0.01903  -0.01903   2.08326
   R10        2.10233  -0.01034   0.00000  -0.01897  -0.01897   2.08336
   R11        2.57610  -0.00203   0.00000  -0.00248  -0.00248   2.57362
   R12        1.95071  -0.01604   0.00000  -0.02348  -0.02348   1.92723
   R13        2.30677   0.01639   0.00000   0.01168   0.01168   2.31845
   R14        2.58718   0.01128   0.00000   0.01405   0.01405   2.60124
   R15        2.72027  -0.03574   0.00000  -0.05539  -0.05539   2.66488
   R16        1.95043  -0.01521   0.00000  -0.02224  -0.02224   1.92819
   R17        2.67711  -0.01497   0.00000  -0.02184  -0.02183   2.65528
   R18        2.66292  -0.00524   0.00000  -0.00769  -0.00767   2.65525
   R19        2.64340  -0.00839   0.00000  -0.01138  -0.01138   2.63201
   R20        2.02996   0.00472   0.00000   0.00781   0.00781   2.03776
   R21        2.63954  -0.01174   0.00000  -0.01610  -0.01609   2.62345
   R22        2.04658   0.00251   0.00000   0.00425   0.00425   2.05083
   R23        2.64030  -0.00934   0.00000  -0.01259  -0.01259   2.62771
   R24        2.04497   0.00254   0.00000   0.00428   0.00428   2.04925
   R25        2.63846  -0.00146   0.00000  -0.00172  -0.00173   2.63672
   R26        3.39368  -0.01246   0.00000  -0.02682  -0.02682   3.36686
   R27        2.04602   0.00304   0.00000   0.00515   0.00515   2.05117
   R28        2.90434  -0.04280   0.00000  -0.04276  -0.04276   2.86158
   R29        2.90272  -0.04231   0.00000  -0.04213  -0.04213   2.86059
   R30        3.43238  -0.01452   0.00000  -0.03277  -0.03277   3.39961
   R31        2.02201   0.01708   0.00000   0.02791   0.02791   2.04992
   R32        2.02200   0.01489   0.00000   0.02432   0.02432   2.04632
   R33        2.02201   0.01660   0.00000   0.02712   0.02712   2.04912
    A1        1.91257   0.00328   0.00000   0.01061   0.01057   1.92314
    A2        1.92559   0.00232   0.00000   0.00702   0.00699   1.93257
    A3        1.92600   0.00232   0.00000   0.00699   0.00696   1.93295
    A4        1.89643  -0.00260   0.00000  -0.00763  -0.00768   1.88875
    A5        1.89704  -0.00264   0.00000  -0.00781  -0.00786   1.88918
    A6        1.90572  -0.00285   0.00000  -0.00969  -0.00970   1.89602
    A7        1.94147  -0.00092   0.00000  -0.00106  -0.00105   1.94041
    A8        1.90034   0.00143   0.00000   0.00610   0.00610   1.90644
    A9        1.90183   0.00133   0.00000   0.00559   0.00559   1.90742
   A10        1.91025  -0.00019   0.00000  -0.00152  -0.00153   1.90872
   A11        1.91099  -0.00017   0.00000  -0.00155  -0.00156   1.90943
   A12        1.89844  -0.00149   0.00000  -0.00767  -0.00769   1.89074
   A13        1.93742  -0.00443   0.00000  -0.00985  -0.00983   1.92759
   A14        1.90676   0.00234   0.00000   0.00742   0.00742   1.91418
   A15        1.90450   0.00249   0.00000   0.00819   0.00819   1.91268
   A16        1.90698   0.00109   0.00000   0.00210   0.00212   1.90910
   A17        1.90546   0.00112   0.00000   0.00245   0.00247   1.90793
   A18        1.90240  -0.00262   0.00000  -0.01041  -0.01043   1.89197
   A19        2.12694  -0.00450   0.00000  -0.01116  -0.01116   2.11579
   A20        2.07760  -0.00083   0.00000  -0.00401  -0.00401   2.07360
   A21        2.07864   0.00533   0.00000   0.01516   0.01516   2.09380
   A22        2.08117   0.01635   0.00000   0.03677   0.03677   2.11794
   A23        2.08475  -0.02708   0.00000  -0.06089  -0.06089   2.02386
   A24        2.11726   0.01073   0.00000   0.02412   0.02412   2.14139
   A25        2.23301  -0.00411   0.00000  -0.01019  -0.01019   2.22282
   A26        2.02771   0.00682   0.00000   0.01990   0.01990   2.04761
   A27        2.02245  -0.00270   0.00000  -0.00971  -0.00971   2.01274
   A28        2.17375  -0.00489   0.00000  -0.01097  -0.01098   2.16277
   A29        2.05335  -0.00502   0.00000  -0.01125  -0.01127   2.04208
   A30        2.05608   0.00991   0.00000   0.02222   0.02224   2.07833
   A31        2.10524  -0.00710   0.00000  -0.01694  -0.01694   2.08830
   A32        2.15600  -0.00524   0.00000  -0.01888  -0.01888   2.13712
   A33        2.02194   0.01235   0.00000   0.03582   0.03582   2.05777
   A34        2.11704  -0.00069   0.00000  -0.00169  -0.00167   2.11537
   A35        2.09861  -0.00007   0.00000  -0.00046  -0.00047   2.09814
   A36        2.06753   0.00077   0.00000   0.00215   0.00214   2.06967
   A37        2.09754  -0.00802   0.00000  -0.01906  -0.01906   2.07848
   A38        2.08198   0.00612   0.00000   0.01608   0.01608   2.09806
   A39        2.10367   0.00190   0.00000   0.00298   0.00298   2.10665
   A40        2.08559   0.00849   0.00000   0.02046   0.02043   2.10602
   A41        2.11066  -0.01704   0.00000  -0.03899  -0.03898   2.07167
   A42        2.08694   0.00854   0.00000   0.01852   0.01852   2.10546
   A43        2.10488  -0.00259   0.00000  -0.00498  -0.00501   2.09987
   A44        2.08409  -0.00123   0.00000  -0.00536  -0.00536   2.07874
   A45        2.09421   0.00382   0.00000   0.01035   0.01036   2.10457
   A46        1.88006   0.00839   0.00000   0.00754   0.00188   1.88194
   A47        1.87225   0.01435   0.00000   0.02415   0.01836   1.89061
   A48        2.17966  -0.04284   0.00000  -0.13548  -0.14136   2.03830
   A49        1.72731   0.03451   0.00000   0.18566   0.18450   1.91181
   A50        1.86890   0.00430   0.00000   0.00317  -0.00120   1.86769
   A51        1.88310  -0.00077   0.00000  -0.00822  -0.01176   1.87135
   A52        1.91063   0.00207   0.00000   0.00813   0.00795   1.91857
   A53        1.91064  -0.02191   0.00000  -0.07133  -0.07166   1.83898
   A54        1.91063   0.00105   0.00000   0.00479   0.00455   1.91518
   A55        1.91064   0.00836   0.00000   0.02298   0.02270   1.93333
   A56        1.91064   0.00175   0.00000   0.01187   0.01176   1.92239
   A57        1.91063   0.00867   0.00000   0.02357   0.02316   1.93379
    D1        3.14039   0.00003   0.00000   0.00024   0.00024   3.14063
    D2        1.03387  -0.00009   0.00000  -0.00120  -0.00119   1.03267
    D3       -1.03437   0.00011   0.00000   0.00131   0.00131  -1.03307
    D4        1.05304  -0.00026   0.00000  -0.00137  -0.00138   1.05167
    D5       -1.05348  -0.00038   0.00000  -0.00280  -0.00281  -1.05629
    D6       -3.12172  -0.00018   0.00000  -0.00030  -0.00031  -3.12203
    D7       -1.05444   0.00028   0.00000   0.00161   0.00162  -1.05282
    D8        3.12222   0.00016   0.00000   0.00018   0.00019   3.12241
    D9        1.05399   0.00036   0.00000   0.00268   0.00269   1.05667
   D10       -3.13683  -0.00009   0.00000  -0.00057  -0.00057  -3.13740
   D11        1.04225  -0.00018   0.00000  -0.00179  -0.00178   1.04046
   D12       -1.03609   0.00014   0.00000   0.00159   0.00158  -1.03451
   D13       -1.03614   0.00099   0.00000   0.00536   0.00535  -1.03079
   D14       -3.14025   0.00090   0.00000   0.00414   0.00414  -3.13611
   D15        1.06460   0.00121   0.00000   0.00752   0.00751   1.07210
   D16        1.04333  -0.00105   0.00000  -0.00585  -0.00585   1.03748
   D17       -1.06078  -0.00114   0.00000  -0.00707  -0.00706  -1.06784
   D18       -3.13912  -0.00082   0.00000  -0.00369  -0.00369   3.14037
   D19        3.13512   0.00011   0.00000   0.00070   0.00070   3.13582
   D20       -0.00243   0.00006   0.00000   0.00034   0.00034  -0.00210
   D21       -1.04408   0.00093   0.00000   0.00507   0.00507  -1.03902
   D22        2.10154   0.00089   0.00000   0.00471   0.00471   2.10625
   D23        1.03496  -0.00093   0.00000  -0.00487  -0.00487   1.03008
   D24       -2.10260  -0.00098   0.00000  -0.00523  -0.00523  -2.10783
   D25        0.00255   0.00004   0.00000   0.00025   0.00025   0.00281
   D26       -3.13550  -0.00011   0.00000  -0.00091  -0.00091  -3.13641
   D27        3.14011   0.00007   0.00000   0.00057   0.00057   3.14068
   D28        0.00206  -0.00008   0.00000  -0.00059  -0.00059   0.00147
   D29        3.13478   0.00021   0.00000   0.00160   0.00160   3.13638
   D30       -0.00043   0.00017   0.00000   0.00123   0.00123   0.00079
   D31       -0.00320   0.00004   0.00000   0.00040   0.00040  -0.00279
   D32       -3.13841   0.00001   0.00000   0.00002   0.00002  -3.13838
   D33        0.01363   0.00010   0.00000   0.00092   0.00093   0.01457
   D34       -3.12659   0.00017   0.00000   0.00146   0.00145  -3.12515
   D35       -3.13432   0.00017   0.00000   0.00138   0.00140  -3.13293
   D36        0.00864   0.00024   0.00000   0.00192   0.00191   0.01054
   D37       -3.13835  -0.00004   0.00000  -0.00025  -0.00028  -3.13863
   D38        0.00327   0.00013   0.00000   0.00102   0.00102   0.00429
   D39        0.00187  -0.00012   0.00000  -0.00081  -0.00083   0.00104
   D40       -3.13969   0.00005   0.00000   0.00046   0.00048  -3.13921
   D41        3.13804  -0.00028   0.00000  -0.00212  -0.00215   3.13589
   D42       -0.00204  -0.00002   0.00000  -0.00014  -0.00016  -0.00220
   D43       -0.00228  -0.00021   0.00000  -0.00159  -0.00164  -0.00392
   D44        3.14082   0.00006   0.00000   0.00039   0.00036   3.14118
   D45        0.00066  -0.00009   0.00000  -0.00059  -0.00052   0.00014
   D46        3.14120   0.00052   0.00000   0.00399   0.00405  -3.13794
   D47       -3.14097  -0.00024   0.00000  -0.00177  -0.00176   3.14046
   D48       -0.00043   0.00036   0.00000   0.00280   0.00281   0.00238
   D49        0.00016   0.00072   0.00000   0.00537   0.00535   0.00551
   D50       -3.14147   0.00029   0.00000   0.00214   0.00214  -3.13933
   D51        3.14027   0.00046   0.00000   0.00342   0.00338  -3.13953
   D52       -0.00136   0.00003   0.00000   0.00019   0.00018  -0.00119
   D53        0.00242  -0.00091   0.00000  -0.00669  -0.00668  -0.00427
   D54       -3.14053  -0.00180   0.00000  -0.01399  -0.01389   3.12876
   D55       -3.13914  -0.00048   0.00000  -0.00342  -0.00346   3.14059
   D56        0.00110  -0.00137   0.00000  -0.01071  -0.01067  -0.00957
   D57       -0.00282   0.00060   0.00000   0.00432   0.00431   0.00149
   D58        3.13983  -0.00001   0.00000  -0.00027  -0.00032   3.13951
[...]
 601,0.00009237,0.00002177,0.00007580,0.00011338,0.00004051,-0.00033568
 ,-0.00020114,0.00000472,-0.00071936,-0.00024425,0.00017611,0.00056930,
 0.00080925,-0.00022157,-0.02917844,-0.40894600,-0.21793569,-0.00457963
 ,-0.01376606,-0.02153600,0.03981495,0.43179012,-0.00000050,-0.00001139
 ,-0.00000524,-0.00000962,0.00002348,-0.00000284,0.00009793,-0.00006760
 ,-0.00003456,-0.00031086,-0.00005245,0.00001985,0.00065153,-0.00030963
 ,-0.00010390,-0.00018975,0.00017710,0.00010433,-0.00086908,0.00007924,
 0.00014959,0.00054525,0.00066056,0.00005705,-0.00085689,0.00018995,0.0
 0010510,0.00052200,-0.00083746,-0.00068276,-0.00401728,-0.00004856,0.0
 0091509,0.00380932,-0.00794204,0.00553007,0.00129613,-0.00123763,0.000
 38654,-0.00000820,0.00000071,-0.00000146,0.00000186,-0.00000139,-0.000
 00152,-0.00000403,0.00000442,0.00000924,0.00000488,0.00000564,0.000011
 44,0.00000053,-0.00000865,-0.00000018,-0.00003279,0.00001610,0.0000247
 0,-0.00000085,-0.00000003,-0.00000034,0.00000962,0.00002048,-0.0000311
 2,0.00003646,0.00003161,-0.00007919,-0.00012411,-0.00007185,-0.0000952
 9,-0.00035888,-0.00007318,-0.00014989,-0.00000064,0.00023778,0.0000977
 2,-0.01924933,-0.22335019,-0.23293197,-0.00545077,0.00886584,0.0163306
 0,0.02911682,0.25379774,0.22994992,-0.00000110,-0.00000757,-0.00000237
 ,-0.00000978,0.00001339,0.00000605,0.00004202,-0.00004105,-0.00000141,
 -0.00016571,0.00007969,0.00000469,0.00048533,-0.00049664,0.00000505,-0
 .00003183,0.00034095,0.00001827,-0.00000986,-0.00147034,-0.00025487,-0
 .00521229,-0.00083706,0.00003480,-0.00277251,-0.02849350,-0.00476650,-
 0.00112720,0.00015397,0.00009887,-0.00380228,0.00324131,0.00046047,0.0
 1036678,0.02039059,0.00328173,-0.07630848,-0.06845266,-0.01104548,-0.0
 0000305,0.00000172,0.00000032,-0.00000112,0.00000136,-0.00000197,-0.00
 000120,-0.00000001,0.00000199,0.00000174,-0.00000015,0.00000200,0.0000
 0149,0.00000090,-0.00000205,-0.00001565,0.00000546,0.00000891,-0.00000
 510,0.00000313,-0.00000234,0.00002803,0.00001788,-0.00001818,-0.000415
 09,-0.00010236,-0.00000946,0.00117771,0.00033641,0.00005005,0.00010658
 ,-0.00005633,-0.00002247,0.00060052,0.00120271,0.00017519,-0.00061123,
 0.00377263,0.00155880,0.00038431,-0.00079986,-0.00018582,0.00009289,-0
 .00160856,-0.00039707,0.07732713,-0.00000063,-0.00000226,-0.00000065,-
 0.00000229,0.00000477,0.00000229,0.00001153,-0.00001129,-0.00000400,-0
 .00006077,0.00000055,0.00000087,0.00015642,-0.00013592,-0.00002283,0.0
 0000141,0.00007194,-0.00000825,-0.00009433,-0.00011752,-0.00000612,-0.
 00035572,0.00158201,-0.00127481,-0.00016858,-0.00170723,-0.00124570,0.
 00013902,0.00064787,0.00026800,0.00363374,-0.00070919,-0.00132013,-0.0
 0503377,-0.01560952,-0.00328803,-0.06836930,-0.32417604,-0.04821956,-0
 .00000135,0.00000006,-0.00000002,0.00000011,0.00000026,0.00000026,-0.0
 0000017,0.00000057,0.00000029,0.00000067,-0.00000006,0.00000013,0.0000
 0006,-0.00000119,0.00000005,-0.00000539,0.00000264,0.00000181,-0.00000
 199,0.00000179,0.00000120,0.00000345,0.00000635,0.00000038,-0.00003164
 ,0.00002708,0.00004792,0.00002560,0.00055492,0.00103837,-0.00006185,-0
 .00007184,0.00014006,-0.00042160,-0.00064576,-0.00015658,-0.00102123,-
 0.00300439,-0.00052031,0.00025206,0.00059258,-0.00004993,-0.00182715,0
 .00120639,0.00057239,0.07301532,0.34141895,-0.00000032,-0.00000104,0.0
 0000114,0.00000063,-0.00000040,0.00000236,0.00000027,0.00000112,0.0000
 2363,-0.00000406,-0.00000007,-0.00003277,-0.00000671,-0.00003928,0.000
 08648,-0.00005678,-0.00000431,0.00000820,-0.00004723,-0.00003243,-0.00
 009006,0.00031650,-0.00074062,0.00775273,-0.00008514,-0.00034832,0.004
 82898,0.00012610,0.00021748,-0.00091710,0.00052562,-0.00108729,0.00575
 029,-0.00108963,-0.00333510,0.00313951,-0.01097547,-0.04982817,-0.0485
 5114,-0.00000036,-0.00000017,0.00000010,-0.00000080,0.00000165,-0.0000
 0029,0.00000109,-0.00000047,-0.00000177,-0.00000062,-0.00000261,-0.000
 00243,0.00000012,0.00000234,-0.00000078,0.00000121,0.00000013,-0.00000
 413,-0.00000133,-0.00000015,-0.00000003,-0.00000072,-0.00000300,-0.000
 00252,0.00000158,0.00003958,-0.00024999,0.00005662,0.00078494,-0.00453
 294,-0.00002134,0.00009004,-0.00073763,-0.00007244,-0.00017975,0.00039
 631,0.00036795,0.00038224,-0.00249849,-0.00049538,0.00010079,0.0001140
 3,-0.00037978,-0.00032336,-0.00071266,0.01118178,0.05407120,0.03652074
 ,-0.00001116,-0.00004341,-0.00000812,-0.00002191,0.00008178,0.00002506
 ,0.00026999,-0.00016688,0.00001371,-0.00102125,-0.00026215,-0.00016640
 ,0.00235904,-0.00125866,-0.00010377,-0.00048512,0.00067361,0.00004105,
 -0.00368093,-0.00017576,0.00024335,0.00265970,0.00064418,0.00008525,-0
 .00113667,-0.00092987,-0.00146302,-0.00189055,0.00052522,-0.00141349,-
 0.00085788,0.00265002,0.00187965,-0.00525378,-0.00790826,0.02017537,0.
 00146153,-0.00260381,0.00056784,-0.00003135,-0.00000265,-0.00000175,0.
 00000329,0.00000937,-0.00000141,0.00000083,0.00000684,0.00000527,0.000
 00774,-0.00000342,-0.00000046,0.00000124,-0.00000898,-0.00000107,-0.00
 008318,0.00003461,0.00002875,-0.00001787,0.00001229,0.00000492,0.00003
 483,0.00011057,0.00004250,-0.00004789,0.00016129,0.00004226,-0.0001102
 4,-0.00005107,-0.00009512,-0.00028293,-0.00012805,-0.00016847,-0.00016
 978,-0.00038294,0.00052259,-0.07411411,-0.00780591,0.02606314,0.005900
 10,0.01570444,-0.02036146,0.01026298,-0.00203699,-0.00698060,-0.000190
 48,0.00010073,0.00062116,0.58108015,-0.00000315,-0.00001219,-0.0000029
 8,-0.00000680,0.00002248,0.00001052,0.00007695,-0.00004775,0.00000257,
 -0.00028513,-0.00007481,-0.00004362,0.00063815,-0.00030937,-0.00004441
 ,-0.00016026,0.00015733,0.00001436,-0.00097880,-0.00005473,0.00006674,
 0.00072311,0.00020349,0.00005450,-0.00039773,0.00013024,-0.00023641,-0
 .00062771,0.00048095,-0.00045045,0.00113743,0.00064048,0.00026123,-0.0
 0338979,0.00524822,0.00603435,-0.00091308,-0.00162394,0.00062228,-0.00
 000882,-0.00000069,-0.00000011,0.00000078,0.00000293,-0.00000065,0.000
 00017,0.00000162,0.00000163,0.00000226,-0.00000097,-0.00000009,0.00000
 027,-0.00000249,-0.00000095,-0.00002341,0.00000961,0.00000852,-0.00000
 479,0.00000392,0.00000139,0.00000899,0.00002974,0.00001303,-0.00001361
 ,0.00004203,0.00001908,-0.00008656,-0.00005622,-0.00009593,0.00001458,
 -0.00003158,0.00001230,0.00012922,-0.00000116,0.00029901,-0.00566932,-
 0.07176810,0.02578851,0.00303514,-0.00821882,0.02521643,0.00361386,-0.
 00097555,-0.03243879,-0.00014707,0.00002713,-0.00000567,-0.01762529,0.
 59503089,-0.00000004,-0.00000147,-0.00000139,-0.00000107,0.00000574,-0
 .00000132,0.00001384,-0.00000805,-0.00000618,-0.00005363,-0.00000893,-
 0.00000057,0.00017107,-0.00015524,-0.00002841,-0.00000266,0.00007665,0
 .00003106,-0.00036425,-0.00004245,0.00003917,0.00026095,0.00006024,-0.
 00001660,-0.00014032,-0.00015037,-0.00024887,-0.00029548,0.00026794,-0
 .00024981,0.00063664,0.00032677,-0.00072443,-0.00128651,-0.00007089,0.
 00615268,0.00035465,-0.00002919,-0.00065386,-0.00000090,0.00000042,-0.
 00000045,0.00000050,-0.00000127,-0.00000005,-0.00000096,0.00000077,0.0
 0000184,0.00000084,0.00000186,0.00000182,0.,-0.00000239,0.00000140,-0.
 00000628,0.00000278,0.00000537,-0.00000177,-0.00000176,-0.00000038,0.0
 0000014,0.00000745,-0.00000528,-0.00001753,0.00002084,-0.00001139,-0.0
 0003380,0.00000136,-0.00001332,-0.00000127,-0.00001474,0.00000176,-0.0
 0016811,-0.00023156,0.00022036,0.01560404,0.02311038,-0.15705340,0.003
 32887,0.00031817,-0.00185759,0.00334733,0.00219539,-0.01339788,-0.0002
 7836,0.00005060,0.00019726,0.04700714,0.05069305,0.42361248,0.00000080
 ,0.00000358,0.00000157,0.00000179,-0.00000708,-0.00000026,-0.00002691,
 0.00001803,-0.00000395,0.00008509,0.00002300,0.00000075,-0.00017639,0.
 00005715,0.00003362,0.00004396,-0.00003468,-0.00002004,0.00020969,-0.0
 0001441,-0.00002342,-0.00016501,-0.00002027,0.00006659,0.00002433,-0.0
 0001236,0.00004849,0.00000032,-0.00015118,-0.00004386,-0.00032342,-0.0
 0010662,0.00005803,0.00003702,-0.00021618,-0.00027985,-0.00004365,0.00
 019797,-0.00006032,0.00000317,0.00000063,0.00000047,-0.00000064,-0.000
 00047,0.00000014,0.00000031,-0.00000107,-0.00000121,-0.00000114,-0.000
 00063,-0.00000110,-0.00000005,0.00000145,-0.00000036,0.00000767,-0.000
 00341,-0.00000393,-0.00000014,-0.00000044,-0.00000011,-0.00000344,-0.0
 0000840,0.00000063,-0.00000549,-0.00001238,0.00001048,-0.00000216,0.00
 000225,0.00000779,-0.00000795,-0.00000360,0.00000250,0.00007503,-0.000
 07871,0.00004135,-0.00116465,0.00608440,0.00389690,-0.00053678,0.00012
 235,-0.00073974,0.00113402,0.00040055,0.00306149,0.00007935,-0.0000133
 8,-0.00004158,-0.05354280,-0.03382144,-0.02576638,0.05231834,-0.000000
 49,-0.00000118,-0.00000060,-0.00000019,0.00000314,-0.00000143,0.000009
 98,-0.00000628,0.00000186,-0.00003299,-0.00001331,-0.00000134,0.000065
 09,-0.00000498,-0.00001128,-0.00001399,0.00000480,0.00001166,-0.000068
 82,-0.00001557,-0.00000220,0.00003227,0.00012836,-0.00000444,-0.000062
 00,-0.00009083,0.00000031,0.00008265,-0.00008279,0.00003469,-0.0003735
 2,0.00022915,0.00013703,0.00008269,-0.00021874,-0.00016797,0.00025420,
 -0.00017317,-0.00001953,-0.00000119,-0.00000021,-0.00000025,0.00000051
 ,-0.00000007,0.00000006,-0.00000002,0.00000039,0.00000049,0.00000029,0
 .00000044,0.00000036,-0.00000029,-0.00000069,0.00000058,-0.00000250,0.
 00000121,0.00000156,0.00000014,-0.00000027,-0.00000009,0.00000080,0.00
 000341,0.00000132,-0.00000502,0.00000597,-0.00000134,-0.00000198,-0.00
 000561,-0.00000366,-0.00002334,-0.00000499,-0.00001139,0.00006147,-0.0
 0005704,0.00001224,0.00224680,0.00572399,0.00479511,-0.00031749,0.0000
 2288,0.00039197,-0.00056295,0.00203889,0.00361474,-0.00000053,0.000004
 55,0.00002097,-0.03404916,-0.23423217,-0.13569789,0.03740270,0.2469075
 3,-0.00000103,-0.00000364,-0.00000074,-0.00000225,0.00000629,0.0000030
 1,0.00002316,-0.00001473,-0.00000096,-0.00008704,-0.00002245,-0.000012
 11,0.00018797,-0.00009253,-0.00001717,-0.00004356,0.00004696,0.0000076
 1,-0.00027087,-0.00001256,0.00001563,0.00011230,0.00031564,0.00001044,
 -0.00031852,-0.00017852,-0.00009868,0.00014893,0.00021919,0.00000857,0
 .00049587,-0.00003417,0.00005417,-0.00060673,0.00161945,0.00109936,0.0
 0027672,-0.00022556,0.00017233,-0.00000252,-0.00000013,-0.00000002,0.0
 0000016,0.00000075,-0.00000008,0.,0.00000054,0.00000045,0.00000075,-0.
 00000020,0.00000034,0.00000011,-0.00000076,-0.00000044,-0.00000734,0.0
 0000313,0.00000261,-0.00000127,0.00000127,0.00000056,0.00000274,0.0000
 0829,0.00000206,-0.00000119,0.00000976,0.00000486,-0.00000181,-0.00000
 428,-0.00002802,0.00003311,-0.00000515,0.00000729,0.00002864,0.0001603
 4,-0.00014856,-0.00529366,-0.02486324,-0.01386718,0.00074431,0.0023775
 7,0.00285606,0.00170995,-0.00093519,-0.00836082,-0.00008889,0.00002299
 ,-0.00000065,-0.02589921,-0.13438347,-0.14370782,0.02618953,0.14436080
 ,0.15215883,-0.00000052,-0.00000278,-0.00000065,-0.00000147,0.00000519
 ,0.00000111,0.00001681,-0.00001063,0.00000129,-0.00006004,-0.00001420,
 -0.00000741,0.00013738,-0.00006139,-0.00000574,-0.00003392,0.00003279,
 0.00000646,-0.00021125,-0.00000433,0.00001181,0.00023421,-0.00005373,-
 0.00005099,-0.00001356,-0.00000057,-0.00004417,-0.00026878,0.00001558,
 -0.00005113,0.00025255,0.00039964,0.00021134,-0.00013485,-0.00048178,0
 .00094253,0.00029396,-0.00022074,0.00010620,-0.00000205,-0.00000024,-0
 .00000014,0.00000023,0.00000069,-0.00000025,-0.00000006,0.00000049,0.0
 0000060,0.00000053,-0.00000016,0.00000009,0.00000001,-0.00000067,-0.00
 000013,-0.00000510,0.00000214,0.00000201,-0.00000096,0.00000058,0.0000
 0010,0.00000248,0.00000618,0.00000179,-0.00000010,0.00001048,-0.000001
 35,-0.00000361,-0.00000503,-0.00001061,-0.00001611,-0.00000017,-0.0000
 2371,-0.00000887,-0.00003782,0.00001315,-0.00680503,-0.00178408,-0.000
 40103,0.00119646,0.00005264,-0.00025997,0.00107968,0.00098679,0.000090
 37,-0.00001781,0.00002191,-0.00003777,-0.31162075,-0.07636700,0.004622
 69,-0.00116730,0.00059227,0.00008308,0.33092050,-0.00000097,-0.0000032
 8,-0.00000074,-0.00000156,0.00000664,0.00000224,0.00001953,-0.00001173
 ,0.00000298,-0.00007794,-0.00002381,-0.00001691,0.00017969,-0.00008581
 ,-0.00001072,-0.00003686,0.00004232,0.00000380,-0.00027556,-0.00004490
 ,0.00001722,0.00011537,0.00044499,0.00006459,-0.00046328,-0.00029070,-
 0.00019003,0.00021740,0.00003588,-0.00008268,-0.00015678,0.00007213,0.
 00007703,-0.00050251,0.00041985,0.00156392,0.00046104,-0.00025605,0.00
 000666,-0.00000251,-0.00000030,-0.00000015,0.00000029,0.00000066,0.000
 00017,0.00000018,0.00000060,0.00000010,0.00000048,-0.00000036,-0.00000
 052,0.00000020,-0.00000091,0.00000025,-0.00000616,0.00000261,0.0000016
 5,-0.00000158,0.00000089,0.00000074,0.00000232,0.00000958,0.00000420,-
 0.00000748,0.00001262,0.00000753,-0.00001504,-0.00000862,-0.00003077,-
 0.00001616,-0.00001630,0.00000708,-0.00000463,-0.00000273,-0.00002985,
 -0.00840641,-0.00308912,0.00010563,0.00150068,-0.00026296,-0.00024222,
 0.00071845,-0.00026488,-0.00060671,-0.00003632,0.00000521,0.00016124,-
 0.07656940,-0.06935428,0.00090690,-0.02328483,-0.00524895,0.00308426,0
 .08317668,0.06876083,0.00000310,0.00001214,0.00000178,0.00000638,-0.00
 002291,-0.00000815,-0.00007250,0.00004547,-0.00000268,0.00028092,0.000
 06714,0.00005576,-0.00067053,0.00039449,0.00001564,0.00013399,-0.00020
 970,0.00000082,0.00109769,0.00005877,-0.00007385,-0.00081590,-0.000121
 17,-0.00008166,0.00037777,0.00021708,0.00045797,0.00071051,-0.00016654
 ,0.00048724,0.00012617,-0.00075283,-0.00031433,0.00096929,0.00159624,-
 0.00539180,-0.00026242,0.00072611,0.00001633,0.00000831,0.00000043,0.0
 0000028,-0.00000064,-0.00000275,0.00000048,-0.00000034,-0.00000161,-0.
 00000118,-0.00000183,0.00000147,0.00000068,-0.00000074,0.00000203,0.00
 000059,0.00002272,-0.00000914,-0.00000735,0.00000624,-0.00000373,-0.00
 000156,-0.00000964,-0.00003170,-0.00001462,0.00001658,-0.00004521,-0.0
 0002192,0.00005246,0.00002256,0.00002259,0.00009168,0.00004333,0.00004
 426,0.00002192,0.00011064,-0.00027692,0.03290846,0.00951737,-0.0018408
 1,-0.00298845,-0.00162455,0.00138017,-0.00338196,-0.00099365,0.0014366
 5,0.00003949,-0.00001366,-0.00025079,0.00567051,0.00123650,-0.04534090
 ,-0.01919704,-0.00355174,0.00219609,-0.00633209,-0.00233592,0.04711167
 ,0.00000092,0.00000304,0.00000103,0.00000072,-0.00000606,0.00000046,-0
 .00002000,0.00001139,0.00000284,0.00006409,0.00002386,0.00000590,-0.00
 011626,-0.00000132,-0.00000878,0.00003485,0.00000521,-0.00001776,0.000
 11789,0.00002497,-0.00001260,-0.00006164,-0.00014017,0.00004693,-0.000
 03994,0.00016710,0.00006266,-0.00004430,0.00002228,0.00004951,0.000108
 88,0.00002822,-0.00005019,-0.00005785,0.00023996,-0.00021056,-0.000368
 48,-0.00031667,0.00007871,0.00000254,0.00000058,0.00000033,-0.00000081
 ,-0.00000051,0.00000007,0.00000008,-0.00000077,-0.00000083,-0.00000059
 ,-0.00000038,-0.00000045,0.00000024,0.00000137,-0.00000026,0.00000504,
 -0.00000271,-0.00000274,-0.00000017,-0.00000035,-0.00000029,-0.0000015
 9,-0.00000595,-0.00000026,0.00000399,-0.00000770,0.00000256,-0.0000249
 8,-0.00000449,-0.00000043,0.00000332,0.00000436,0.00000374,0.00004450,
 0.00003862,-0.00001668,0.00267199,-0.00608845,0.00211721,0.00172206,-0
 .00189093,0.00299169,-0.00032777,-0.00045222,-0.00038294,0.00000791,0.
 00010913,0.00011684,-0.14947080,0.13114883,-0.04692937,0.00314703,-0.0
 0531537,0.00258855,-0.01376266,0.02347369,-0.00881010,0.15636182,0.000
 00093,0.00000371,0.00000135,0.00000180,-0.00000702,-0.00000023,-0.0000
 2617,0.00001695,-0.00000219,0.00008617,0.00002258,0.00000217,-0.000186
 50,0.00006934,0.00002043,0.00004513,-0.00004156,-0.00001836,0.00023771
 ,-0.00000526,-0.00001446,-0.00022774,0.00010769,0.00008988,-0.00018016
 ,-0.00002122,-0.00001656,0.00024754,-0.00002158,0.00001190,-0.00012866
 ,-0.00038999,-0.00013892,-0.00018701,0.00058583,-0.00018908,-0.0001123
 7,0.00018389,-0.00005482,0.00000289,0.00000026,0.00000033,-0.00000057,
 -0.00000039,0.00000029,0.00000024,-0.00000082,-0.00000113,-0.00000098,
 -0.00000051,-0.00000116,0.00000010,0.00000125,-0.00000012,0.00000746,-
 0.00000333,-0.00000397,0.00000017,-0.00000041,0.00000029,-0.00000288,-
 0.00000876,0.00000004,0.00000080,-0.00001361,0.00000730,-0.00000715,0.
 00000288,0.00000794,0.00001360,0.00000056,0.00001172,0.00005003,0.0000
 5823,-0.00002177,0.00375935,-0.00719077,0.00037543,-0.00000371,0.00036
 774,0.00199614,-0.00081050,0.00103638,-0.00124024,-0.00002743,0.000036
 59,0.00005852,0.13129770,-0.21526622,0.05836892,0.01347749,-0.01491787
 ,0.00853936,-0.00625875,0.00915090,-0.00416498,-0.14106854,0.22624456,
 -0.00000110,-0.00000277,-0.00000041,-0.00000117,0.00000500,0.00000124,
 0.00001326,-0.00000772,0.00000280,-0.00005858,-0.00001574,-0.00001259,
 0.00012859,-0.00005901,0.00001027,-0.00002875,0.00002800,-0.00000532,-
 0.00019691,-0.00001481,0.00001101,0.00017825,-0.00016076,-0.00005369,0
 .00022741,-0.00011826,-0.00006250,-0.00030503,-0.00001676,-0.00008711,
 0.00005905,0.00014192,0.00024381,0.00041420,-0.00192699,0.00036454,0.0
 0039334,0.00042052,0.00010340,-0.00000171,-0.00000010,-0.00000004,0.00
 000013,0.00000067,0.00000025,0.00000028,0.00000037,-0.00000033,0.00000
 035,-0.00000080,-0.00000044,-0.00000001,-0.00000050,-0.00000025,-0.000
 00428,0.00000217,0.00000026,-0.00000106,0.00000116,0.00000112,0.000001
 29,0.00000551,0.00000352,-0.00000435,0.00000842,0.00000162,0.00003477,
 0.00001885,0.00001933,-0.00001195,-0.00000062,-0.00002970,-0.00006662,
 -0.00005444,-0.00003739,-0.01882552,0.02142935,-0.00537878,-0.00004043
 ,0.00533997,-0.00734401,0.00205237,-0.00227638,0.00146372,0.00014876,-
 0.00008822,-0.00023563,-0.04637514,0.05734755,-0.06694530,0.01276281,-
 0.01391060,0.00764295,0.00113252,-0.00247096,0.00039951,0.04837522,-0.
 06362403,0.06992415\\-0.00000129,0.00000055,0.00000169,-0.00000122,0.0
 0000176,-0.00000229,-0.00000559,0.00000390,0.00000121,0.00000596,-0.00
 000033,0.00000024,-0.00000174,-0.00000824,-0.00000434,0.00000305,0.000
 00599,0.00000606,0.00000130,-0.00000101,-0.00000243,-0.00000306,0.0000
 0366,0.00000203,-0.00000496,-0.00000548,0.00000575,0.00000645,-0.00000
 135,-0.00000529,-0.00000595,-0.00000368,-0.00000617,-0.00000028,0.0000
 0127,-0.00000033,0.00000714,-0.00000320,0.00000195,-0.00000105,0.00000
 394,-0.00000244,0.,0.00000400,0.00000440,0.00000071,-0.00000274,0.0000
 0123,-0.00000121,0.00000559,-0.00000289,0.00000036,0.00000007,-0.00000
 508,0.00000197,-0.00000579,0.00000127,0.00000007,0.00000139,0.00000450
 ,-0.00000050,0.00000037,-0.00000627,-0.00000033,0.00000154,-0.00000558
 ,0.00000059,-0.00000172,0.00000537,-0.00000169,0.00000051,-0.00000961,
 0.00000075,-0.00000080,-0.00000805,-0.00000020,-0.00000332,0.00000478,
 0.00000130,-0.00000267,-0.00000297,0.00000145,-0.00000950,0.00000312,-
 0.00000032,-0.00000280,0.00000668,-0.00000103,0.00000419,0.00000304,-0
 .00000070,0.00000509,0.00000012,0.00000024,0.00000305,0.00000460,-0.00
 000022,0.00000576,0.00000571\\\@


 TRUST EVERYONE, BUT CUT THE CARDS.
 Job cpu time:       0 days  3 hours 10 minutes 45.7 seconds.
 File lengths (MBytes):  RWF=    599 Int=      0 D2E=      0 Chk=     21 Scr=      1
 Normal termination of Gaussian 09 at Fri Feb 22 18:27:20 2019.
WARNING: pbs_rusage is deprecated and values produced may not be accurate


=============================================================================
                                     Resource usage:
                                       CPU time:              13:06:58
   JobId:    6009778.r-man2            Elapsed time:          03:17:32
   Project:             q95            Requested time:        34:00:00
   Service Units:     13.17 
                                       Max physical memory:      693MB
                                       Max virtual memory:      1608MB
                                       Requested memory:           0MB

                                       Number of cpus:               4

                                       Max jobfs disk use:       0.6GB
                                       Requested jobfs:         16.0GB
=============================================================================

