 Entering Gaussian System, Link 0=/apps/gaussian/g09e01/g09/g09
 AtFile(1): /home/507/hio507/Basis/6-31pGd.gbs
 Initial command:
 /apps/gaussian/g09e01/g09/l1.exe "/jobfs/local/1828129.r-man2/Gau-41694.inp" -scrdir="/jobfs/local/1828129.r-man2/"
 Entering Link 1 = /apps/gaussian/g09e01/g09/l1.exe PID=     41697.
  
 Copyright (c) 1988,1990,1992,1993,1995,1998,2003,2009,2015,
            Gaussian, Inc.  All Rights Reserved.
  
 This is part of the Gaussian(R) 09 program.  It is based on
 the Gaussian(R) 03 system (copyright 2003, Gaussian, Inc.),
 the Gaussian(R) 98 system (copyright 1998, Gaussian, Inc.),
 the Gaussian(R) 94 system (copyright 1995, Gaussian, Inc.),
 the Gaussian 92(TM) system (copyright 1992, Gaussian, Inc.),
 the Gaussian 90(TM) system (copyright 1990, Gaussian, Inc.),
 the Gaussian 88(TM) system (copyright 1988, Gaussian, Inc.),
 the Gaussian 86(TM) system (copyright 1986, Carnegie Mellon
 University), and the Gaussian 82(TM) system (copyright 1983,
 Carnegie Mellon University). Gaussian is a federally registered
 trademark of Gaussian, Inc.
  
 This software contains proprietary and confidential information,
 including trade secrets, belonging to Gaussian, Inc.
  
 This software is provided under written license and may be
 used, copied, transmitted, or stored only in accord with that
 written license.
  
 The following legend is applicable only to US Government
 contracts under FAR:
  
                    RESTRICTED RIGHTS LEGEND
  
 Use, reproduction and disclosure by the US Government is
 subject to restrictions as set forth in subparagraphs (a)
 and (c) of the Commercial Computer Software - Restricted
 Rights clause in FAR 52.227-19.
  
 Gaussian, Inc.
 340 Quinnipiac St., Bldg. 40, Wallingford CT 06492
  
  
 ---------------------------------------------------------------
 Warning -- This program may not be used in any manner that
 competes with the business of Gaussian, Inc. or will provide
 assistance to any competitor of Gaussian, Inc.  The licensee
 of this program is prohibited from giving any competitor of
 Gaussian, Inc. access to this program.  By using this program,
 the user acknowledges that Gaussian, Inc. is engaged in the
 business of creating and licensing software in the field of
 computational chemistry and represents and warrants to the
 licensee that it is not a competitor of Gaussian, Inc. and that
 it will not use this program in any manner prohibited above.
 ---------------------------------------------------------------
  

 Cite this work as:
 Gaussian 09, Revision E.01,
 M. J. Frisch, G. W. Trucks, H. B. Schlegel, G. E. Scuseria, 
 M. A. Robb, J. R. Cheeseman, G. Scalmani, V. Barone, B. Mennucci, 
 G. A. Petersson, H. Nakatsuji, M. Caricato, X. Li, H. P. Hratchian, 
 A. F. Izmaylov, J. Bloino, G. Zheng, J. L. Sonnenberg, M. Hada, 
 M. Ehara, K. Toyota, R. Fukuda, J. Hasegawa, M. Ishida, T. Nakajima, 
 Y. Honda, O. Kitao, H. Nakai, T. Vreven, J. A. Montgomery, Jr., 
 J. E. Peralta, F. Ogliaro, M. Bearpark, J. J. Heyd, E. Brothers, 
 K. N. Kudin, V. N. Staroverov, T. Keith, R. Kobayashi, J. Normand, 
 K. Raghavachari, A. Rendell, J. C. Burant, S. S. Iyengar, J. Tomasi, 
 M. Cossi, N. Rega, J. M. Millam, M. Klene, J. E. Knox, J. B. Cross, 
 V. Bakken, C. Adamo, J. Jaramillo, R. Gomperts, R. E. Stratmann, 
 O. Yazyev, A. J. Austin, R. Cammi, C. Pomelli, J. W. Ochterski, 
 R. L. Martin, K. Morokuma, V. G. Zakrzewski, G. A. Voth, 
 P. Salvador, J. J. Dannenberg, S. Dapprich, A. D. Daniels, 
 O. Farkas, J. B. Foresman, J. V. Ortiz, J. Cioslowski, 
 and D. J. Fox, Gaussian, Inc., Wallingford CT, 2013.
 
 ******************************************
 Gaussian 09:  ES64L-G09RevE.01 30-Nov-2015
                30-Oct-2018 
 ******************************************
 %chk=4SulfOxyMethyl.M062X_6-31pGd_opt_water.chk
 %mem=196608000
 %nproc=4
 Will use up to    4 processors via shared memory.
 ----------------------------------------------------------------------
 # M062X/Gen 6D SCF=Tight INT(grid=ultrafine) OPT IOP(2/17=4) SCRF=(SMD
 ,Solvent=h2o) maxdisk=2147483648
 ----------------------------------------------------------------------
 1/14=-1,18=20,19=15,26=4,38=1/1,3;
 2/9=110,12=2,17=4,18=5,40=1/2;
 3/5=7,8=2,11=2,16=1,25=1,30=1,70=32201,71=1,72=1,74=-55,75=-5/1,2,3;
 4//1;
 5/5=2,32=2,38=5,53=1/2;
 6/7=2,8=2,9=2,10=2,28=1/1;
 7//1,2,3,16;
 1/14=-1,18=20,19=15,26=4/3(2);
 2/9=110,17=4/2;
 99//99;
 2/9=110,17=4/2;
 3/5=7,6=1,8=2,11=2,16=1,25=1,30=1,70=32205,71=1,72=1,74=-55,75=-5,82=7/1,2,3;
 4/5=5,16=3,69=1/1;
 5/5=2,32=2,38=5,53=1/2;
 7//1,2,3,16;
 1/14=-1,18=20,19=15,26=4/3(-5);
 2/9=110,17=4/2;
 6/7=2,8=2,9=2,10=2,19=2,28=1/1;
 99/9=1/99;
 --------------------------------------
 4SulfOxyMethyl.M062X_6-31pGd_opt_water
 --------------------------------------
 Symbolic Z-matrix:
 Charge =  0 Multiplicity = 1
 C                    -2.11712   1.94256  -0.02386 
 C                    -0.79202   1.19505   0.09313 
 C                     0.39854   2.1541   -0.0209 
 N                     1.65725   1.43652   0.08472 
 C                     2.8588    2.07549   0.00505 
 O                     2.8813    3.28517  -0.15698 
 N                     4.01518   1.34927   0.10388 
 C                     5.3705    1.82978   0.03765 
 C                     5.73374   3.18851  -0.1322 
 C                     6.40672   0.88121   0.14803 
 C                     7.74908   1.26289   0.08969 
 C                     8.09037   2.60698  -0.08084 
 C                     7.07991   3.56437  -0.18937 
 H                    -2.95886   1.22338   0.06102 
 H                    -2.1855    2.45528  -1.00704 
 H                    -2.20892   2.69546   0.78774 
 H                    -0.73457   0.43561  -0.71695 
 H                    -0.75628   0.6744    1.07486 
 H                     0.33855   2.91147   0.79176 
 H                     0.35532   2.67336  -1.00384 
 H                     1.64084   0.41334   0.22043 
 H                     3.90395   0.33184   0.23706 
 H                     5.02039   3.98636  -0.22433 
 H                     6.17379  -0.16823   0.27964 
 H                     8.51864   0.50722   0.17795 
 S                     9.80958   3.11994  -0.16022 
 O                     10.65643   1.87293  -0.46005 
 O                     10.27371   3.38393   1.28004 
 H                     7.33533   4.60837  -0.32006 
 C                     10.44619   4.4613   -1.20643 
 H                     10.13672   4.30196  -2.21823 
 H                     11.51502   4.47458  -1.15825 
 H                     10.06185   5.39755  -0.85913 
 

 GradGradGradGradGradGradGradGradGradGradGradGradGradGradGradGradGradGrad
 Berny optimization.
 Initialization pass.
                           ----------------------------
                           !    Initial Parameters    !
                           ! (Angstroms and Degrees)  !
 --------------------------                            --------------------------
 ! Name  Definition              Value          Derivative Info.                !
 --------------------------------------------------------------------------------
 ! R1    R(1,2)                  1.5259         estimate D2E/DX2                !
 ! R2    R(1,14)                 1.1104         estimate D2E/DX2                !
 ! R3    R(1,15)                 1.1109         estimate D2E/DX2                !
 ! R4    R(1,16)                 1.1108         estimate D2E/DX2                !
 ! R5    R(2,3)                  1.533          estimate D2E/DX2                !
 ! R6    R(2,17)                 1.1119         estimate D2E/DX2                !
 ! R7    R(2,18)                 1.1118         estimate D2E/DX2                !
 ! R8    R(3,4)                  1.4527         estimate D2E/DX2                !
 ! R9    R(3,19)                 1.1125         estimate D2E/DX2                !
 ! R10   R(3,20)                 1.1125         estimate D2E/DX2                !
 ! R11   R(4,5)                  1.3632         estimate D2E/DX2                !
 ! R12   R(4,21)                 1.0323         estimate D2E/DX2                !
 ! R13   R(5,6)                  1.2207         estimate D2E/DX2                !
 ! R14   R(5,7)                  1.3691         estimate D2E/DX2                !
 ! R15   R(7,8)                  1.4395         estimate D2E/DX2                !
 ! R16   R(7,22)                 1.0321         estimate D2E/DX2                !
 ! R17   R(8,9)                  1.4167         estimate D2E/DX2                !
 ! R18   R(8,10)                 1.4092         estimate D2E/DX2                !
 ! R19   R(9,13)                 1.3988         estimate D2E/DX2                !
 ! R20   R(9,23)                 1.0742         estimate D2E/DX2                !
 ! R21   R(10,11)                1.3968         estimate D2E/DX2                !
 ! R22   R(10,24)                1.083          estimate D2E/DX2                !
 ! R23   R(11,12)                1.3972         estimate D2E/DX2                !
 ! R24   R(11,25)                1.0822         estimate D2E/DX2                !
 ! R25   R(12,13)                1.3962         estimate D2E/DX2                !
 ! R26   R(12,26)                1.7959         estimate D2E/DX2                !
 ! R27   R(13,29)                1.0827         estimate D2E/DX2                !
 ! R28   R(26,27)                1.5369         estimate D2E/DX2                !
 ! R29   R(26,28)                1.5361         estimate D2E/DX2                !
 ! R30   R(26,30)                1.8163         estimate D2E/DX2                !
 ! R31   R(30,31)                1.07           estimate D2E/DX2                !
 ! R32   R(30,32)                1.07           estimate D2E/DX2                !
 ! R33   R(30,33)                1.07           estimate D2E/DX2                !
 ! A1    A(2,1,14)             109.5821         estimate D2E/DX2                !
 ! A2    A(2,1,15)             110.328          estimate D2E/DX2                !
 ! A3    A(2,1,16)             110.3515         estimate D2E/DX2                !
 ! A4    A(14,1,15)            108.6574         estimate D2E/DX2                !
 ! A5    A(14,1,16)            108.6924         estimate D2E/DX2                !
 ! A6    A(15,1,16)            109.1899         estimate D2E/DX2                !
 ! A7    A(1,2,3)              111.2378         estimate D2E/DX2                !
 ! A8    A(1,2,17)             108.8815         estimate D2E/DX2                !
 ! A9    A(1,2,18)             108.9668         estimate D2E/DX2                !
 ! A10   A(3,2,17)             109.4492         estimate D2E/DX2                !
 ! A11   A(3,2,18)             109.4915         estimate D2E/DX2                !
 ! A12   A(17,2,18)            108.7723         estimate D2E/DX2                !
 ! A13   A(2,3,4)              111.0058         estimate D2E/DX2                !
 ! A14   A(2,3,19)             109.2494         estimate D2E/DX2                !
 ! A15   A(2,3,20)             109.1195         estimate D2E/DX2                !
 ! A16   A(4,3,19)             109.2621         estimate D2E/DX2                !
 ! A17   A(4,3,20)             109.1747         estimate D2E/DX2                !
 ! A18   A(19,3,20)            108.9996         estimate D2E/DX2                !
 ! A19   A(3,4,5)              121.8648         estimate D2E/DX2                !
 ! A20   A(3,4,21)             119.0378         estimate D2E/DX2                !
 ! A21   A(5,4,21)             119.097          estimate D2E/DX2                !
 ! A22   A(4,5,6)              119.242          estimate D2E/DX2                !
 ! A23   A(4,5,7)              119.4474         estimate D2E/DX2                !
 ! A24   A(6,5,7)              121.3103         estimate D2E/DX2                !
 ! A25   A(5,7,8)              127.9418         estimate D2E/DX2                !
 ! A26   A(5,7,22)             116.1794         estimate D2E/DX2                !
 ! A27   A(8,7,22)             115.8779         estimate D2E/DX2                !
 ! A28   A(7,8,9)              124.5467         estimate D2E/DX2                !
 ! A29   A(7,8,10)             117.6482         estimate D2E/DX2                !
 ! A30   A(9,8,10)             117.805          estimate D2E/DX2                !
 ! A31   A(8,9,13)             120.6213         estimate D2E/DX2                !
 ! A32   A(8,9,23)             123.5298         estimate D2E/DX2                !
 ! A33   A(13,9,23)            115.8488         estimate D2E/DX2                !
 ! A34   A(8,10,11)            121.2975         estimate D2E/DX2                !
 ! A35   A(8,10,24)            120.2416         estimate D2E/DX2                !
 ! A36   A(11,10,24)           118.4609         estimate D2E/DX2                !
 ! A37   A(10,11,12)           120.1801         estimate D2E/DX2                !
 ! A38   A(10,11,25)           119.2885         estimate D2E/DX2                !
 ! A39   A(12,11,25)           120.5314         estimate D2E/DX2                !
 ! A40   A(11,12,13)           119.4953         estimate D2E/DX2                !
 ! A41   A(11,12,26)           120.9318         estimate D2E/DX2                !
 ! A42   A(13,12,26)           119.5728         estimate D2E/DX2                !
 ! A43   A(9,13,12)            120.6005         estimate D2E/DX2                !
 ! A44   A(9,13,29)            119.4098         estimate D2E/DX2                !
 ! A45   A(12,13,29)           119.9897         estimate D2E/DX2                !
 ! A46   A(12,26,27)           107.7195         estimate D2E/DX2                !
 ! A47   A(12,26,28)           107.2719         estimate D2E/DX2                !
 ! A48   A(12,26,30)           124.8851         estimate D2E/DX2                !
 ! A49   A(27,26,28)            98.9675         estimate D2E/DX2                !
 ! A50   A(27,26,30)           107.0799         estimate D2E/DX2                !
 ! A51   A(28,26,30)           107.8939         estimate D2E/DX2                !
 ! A52   A(26,30,31)           109.4707         estimate D2E/DX2                !
 ! A53   A(26,30,32)           109.4715         estimate D2E/DX2                !
 ! A54   A(26,30,33)           109.4712         estimate D2E/DX2                !
 ! A55   A(31,30,32)           109.4714         estimate D2E/DX2                !
 ! A56   A(31,30,33)           109.4715         estimate D2E/DX2                !
 ! A57   A(32,30,33)           109.471          estimate D2E/DX2                !
 ! D1    D(14,1,2,3)           179.9313         estimate D2E/DX2                !
 ! D2    D(14,1,2,17)           59.2362         estimate D2E/DX2                !
 ! D3    D(14,1,2,18)          -59.2652         estimate D2E/DX2                !
 ! D4    D(15,1,2,3)            60.3349         estimate D2E/DX2                !
 ! D5    D(15,1,2,17)          -60.3601         estimate D2E/DX2                !
 ! D6    D(15,1,2,18)         -178.8615         estimate D2E/DX2                !
 ! D7    D(16,1,2,3)           -60.4147         estimate D2E/DX2                !
 ! D8    D(16,1,2,17)          178.8903         estimate D2E/DX2                !
 ! D9    D(16,1,2,18)           60.3889         estimate D2E/DX2                !
 ! D10   D(1,2,3,4)           -179.727          estimate D2E/DX2                !
 ! D11   D(1,2,3,19)            59.7164         estimate D2E/DX2                !
 ! D12   D(1,2,3,20)           -59.3636         estimate D2E/DX2                !
 ! D13   D(17,2,3,4)           -59.3666         estimate D2E/DX2                !
 ! D14   D(17,2,3,19)         -179.9231         estimate D2E/DX2                !
 ! D15   D(17,2,3,20)           60.9968         estimate D2E/DX2                !
 ! D16   D(18,2,3,4)            59.7783         estimate D2E/DX2                !
 ! D17   D(18,2,3,19)          -60.7783         estimate D2E/DX2                !
 ! D18   D(18,2,3,20)         -179.8583         estimate D2E/DX2                !
 ! D19   D(2,3,4,5)            179.6294         estimate D2E/DX2                !
 ! D20   D(2,3,4,21)            -0.1394         estimate D2E/DX2                !
 ! D21   D(19,3,4,5)           -59.8216         estimate D2E/DX2                !
 ! D22   D(19,3,4,21)          120.4096         estimate D2E/DX2                !
 ! D23   D(20,3,4,5)            59.2986         estimate D2E/DX2                !
 ! D24   D(20,3,4,21)         -120.4701         estimate D2E/DX2                !
 ! D25   D(3,4,5,6)              0.1463         estimate D2E/DX2                !
 ! D26   D(3,4,5,7)           -179.6508         estimate D2E/DX2                !
 ! D27   D(21,4,5,6)           179.9149         estimate D2E/DX2                !
 ! D28   D(21,4,5,7)             0.1178         estimate D2E/DX2                !
 ! D29   D(4,5,7,8)            179.6096         estimate D2E/DX2                !
 ! D30   D(4,5,7,22)            -0.0248         estimate D2E/DX2                !
 ! D31   D(6,5,7,8)             -0.1831         estimate D2E/DX2                !
 ! D32   D(6,5,7,22)          -179.8175         estimate D2E/DX2                !
 ! D33   D(5,7,8,9)              0.7812         estimate D2E/DX2                !
 ! D34   D(5,7,8,10)          -179.1406         estimate D2E/DX2                !
 ! D35   D(22,7,8,9)          -179.5835         estimate D2E/DX2                !
 ! D36   D(22,7,8,10)            0.4948         estimate D2E/DX2                !
 ! D37   D(7,8,9,13)          -179.8145         estimate D2E/DX2                !
 ! D38   D(7,8,9,23)             0.1874         estimate D2E/DX2                !
 ! D39   D(10,8,9,13)            0.1071         estimate D2E/DX2                !
 ! D40   D(10,8,9,23)         -179.891          estimate D2E/DX2                !
 ! D41   D(7,8,10,11)          179.7964         estimate D2E/DX2                !
 ! D42   D(7,8,10,24)           -0.117          estimate D2E/DX2                !
 ! D43   D(9,8,10,11)           -0.1308         estimate D2E/DX2                !
 ! D44   D(9,8,10,24)          179.9559         estimate D2E/DX2                !
 ! D45   D(8,9,13,12)            0.0376         estimate D2E/DX2                !
 ! D46   D(8,9,13,29)          179.9773         estimate D2E/DX2                !
 ! D47   D(23,9,13,12)        -179.9641         estimate D2E/DX2                !
 ! D48   D(23,9,13,29)          -0.0245         estimate D2E/DX2                !
 ! D49   D(8,10,11,12)           0.0093         estimate D2E/DX2                !
 ! D50   D(8,10,11,25)        -179.993          estimate D2E/DX2                !
 ! D51   D(24,10,11,12)        179.9242         estimate D2E/DX2                !
 ! D52   D(24,10,11,25)         -0.0782         estimate D2E/DX2                !
 ! D53   D(10,11,12,13)          0.1384         estimate D2E/DX2                !
 ! D54   D(10,11,12,26)       -179.9391         estimate D2E/DX2                !
 ! D55   D(25,11,12,13)       -179.8592         estimate D2E/DX2                !
 ! D56   D(25,11,12,26)          0.0632         estimate D2E/DX2                !
 ! D57   D(11,12,13,9)          -0.1618         estimate D2E/DX2                !
 ! D58   D(11,12,13,29)        179.899          estimate D2E/DX2                !
 ! D59   D(26,12,13,9)         179.9147         estimate D2E/DX2                !
 ! D60   D(26,12,13,29)         -0.0246         estimate D2E/DX2                !
 ! D61   D(11,12,26,27)         17.6597         estimate D2E/DX2                !
 ! D62   D(11,12,26,28)        -88.0469         estimate D2E/DX2                !
 ! D63   D(11,12,26,30)        144.4332         estimate D2E/DX2                !
 ! D64   D(13,12,26,27)       -162.4179         estimate D2E/DX2                !
 ! D65   D(13,12,26,28)         91.8756         estimate D2E/DX2                !
 ! D66   D(13,12,26,30)        -35.6444         estimate D2E/DX2                !
 ! D67   D(12,26,30,31)        -52.7379         estimate D2E/DX2                !
 ! D68   D(12,26,30,32)       -172.738          estimate D2E/DX2                !
 ! D69   D(12,26,30,33)         67.2622         estimate D2E/DX2                !
 ! D70   D(27,26,30,31)         74.3024         estimate D2E/DX2                !
 ! D71   D(27,26,30,32)        -45.6976         estimate D2E/DX2                !
 ! D72   D(27,26,30,33)       -165.6975         estimate D2E/DX2                !
 ! D73   D(28,26,30,31)       -180.0            estimate D2E/DX2                !
 ! D74   D(28,26,30,32)         59.9999         estimate D2E/DX2                !
 ! D75   D(28,26,30,33)        -59.9999         estimate D2E/DX2                !
 --------------------------------------------------------------------------------
 Trust Radius=3.00D-01 FncErr=1.00D-07 GrdErr=1.00D-06
 Number of steps in this run=    175 maximum allowed number of steps=    198.
 GradGradGradGradGradGradGradGradGradGradGradGradGradGradGradGradGradGrad

                          Input orientation:                          
 ---------------------------------------------------------------------
 Center     Atomic      Atomic             Coordinates (Angstroms)
 Number     Number       Type             X           Y           Z
 ---------------------------------------------------------------------
      1          6           0       -2.117120    1.942560   -0.023860
      2          6           0       -0.792020    1.195050    0.093130
      3          6           0        0.398540    2.154100   -0.020900
      4          7           0        1.657250    1.436520    0.084720
      5          6           0        2.858800    2.075490    0.005050
      6          8           0        2.881300    3.285170   -0.156980
      7          7           0        4.015180    1.349270    0.103880
      8          6           0        5.370500    1.829780    0.037650
      9          6           0        5.733740    3.188510   -0.132200
     10          6           0        6.406720    0.881210    0.148030
     11          6           0        7.749080    1.262890    0.089690
     12          6           0        8.090370    2.606980   -0.080840
     13          6           0        7.079910    3.564370   -0.189370
     14          1           0       -2.958860    1.223380    0.061020
     15          1           0       -2.185500    2.455280   -1.007040
     16          1           0       -2.208920    2.695460    0.787740
     17          1           0       -0.734570    0.435610   -0.716950
     18          1           0       -0.756280    0.674400    1.074860
     19          1           0        0.338550    2.911470    0.791760
     20          1           0        0.355320    2.673360   -1.003840
     21          1           0        1.640840    0.413340    0.220430
     22          1           0        3.903950    0.331840    0.237060
     23          1           0        5.020390    3.986360   -0.224330
     24          1           0        6.173790   -0.168230    0.279640
     25          1           0        8.518640    0.507220    0.177950
     26         16           0        9.809580    3.119940   -0.160220
     27          8           0       10.656430    1.872930   -0.460050
     28          8           0       10.273710    3.383930    1.280040
     29          1           0        7.335330    4.608370   -0.320060
     30          6           0       10.446190    4.461300   -1.206430
     31          1           0       10.136720    4.301960   -2.218230
     32          1           0       11.515020    4.474580   -1.158250
     33          1           0       10.061850    5.397550   -0.859130
 ---------------------------------------------------------------------
                    Distance matrix (angstroms):
                    1          2          3          4          5
     1  C    0.000000
     2  C    1.525892   0.000000
     3  C    2.524540   1.533040   0.000000
     4  N    3.809690   2.461159   1.452731   0.000000
     5  C    4.977779   3.756517   2.461652   1.363214   0.000000
     6  O    5.177309   4.233726   2.731654   2.230297   1.220691
     7  N    6.162257   4.809685   3.707210   2.359621   1.369079
     8  C    7.488722   6.195370   4.982870   3.734313   2.523900
     9  C    7.949851   6.827166   5.435692   4.442330   3.085925
    10  C    8.591383   7.205787   6.143860   4.782242   3.746263
    11  C    9.890235   8.541370   7.405196   6.094306   4.958056
    12  C   10.229250   8.995591   7.705384   6.540827   5.259200
    13  C    9.340397   8.225616   6.830662   5.831647   4.480216
    14  H    1.110383   2.167263   3.484980   4.621089   5.879999
    15  H    1.110946   2.177232   2.782165   4.122686   5.158830
    16  H    1.110847   2.177457   2.783131   4.126310   5.165148
    17  H    2.159332   1.111881   2.172932   2.713908   4.015320
    18  H    2.160394   1.111822   2.173433   2.717781   4.021983
    19  H    2.763031   2.170799   1.112486   2.101036   2.769375
    20  H    2.758150   2.169132   1.112506   2.099942   2.764547
    21  H    4.064536   2.558532   2.152161   1.032271   2.071849
    22  H    6.238252   4.776817   3.959176   2.508224   2.046090
    23  H    7.427069   6.455719   4.975948   4.231773   2.894220
    24  H    8.560767   7.100410   6.231938   4.797119   4.012336
    25  H   10.734073   9.336418   8.287809   6.924663   5.875641
    26  S   11.985449  10.777908   9.461497   8.327928   7.030756
    27  O   12.781185  11.481835  10.271135   9.026210   7.814114
    28  O   12.542343  11.342413  10.036130   8.914291   7.636655
    29  H    9.825634   8.824698   7.364237   6.516523   5.153688
    30  C   12.867761  11.775169  10.377086   9.384126   8.045388
    31  H   12.670384  11.594509  10.211450   9.242063   7.928951
    32  H   13.911621  12.797832  11.412901  10.389919   9.057541
    33  H   12.687078  11.677941  10.227520   9.339053   7.979149
                    6          7          8          9         10
     6  O    0.000000
     7  N    2.258637   0.000000
     8  C    2.890010   1.439503   0.000000
     9  C    2.854185   2.528238   1.416665   0.000000
    10  C    4.277925   2.437313   1.409156   2.419724   0.000000
    11  C    5.276907   3.734926   2.445755   2.796219   1.396787
    12  C    5.253584   4.268856   2.831214   2.427863   2.421847
    13  C    4.208008   3.792787   2.445899   1.398826   2.786821
    14  H    6.197255   6.975308   8.351437   8.914054   9.372232
    15  H    5.204208   6.395767   7.653480   8.001083   8.811250
    16  H    5.210623   6.404632   7.665484   8.010945   8.827796
    17  H    4.637680   4.905982   6.307536   7.054036   7.207272
    18  H    4.643871   4.915799   6.320454   7.063859   7.225673
    19  H    2.739587   4.053549   5.201851   5.480742   6.431099
    20  H    2.733507   4.046583   5.191181   5.472891   6.415454
    21  H    3.150966   2.554807   3.993754   4.957595   4.789338
    22  H    3.150117   1.032121   2.105791   3.412484   2.563902
    23  H    2.252090   2.841199   2.200465   1.074207   3.420895
    24  H    4.791357   2.644484   2.166997   3.410419   1.083006
    25  H    6.293551   4.582105   3.417548   3.878296   2.144987
    26  S    6.930251   6.064659   4.626996   4.076513   4.084897
    27  O    7.908155   6.685689   5.309484   5.105988   4.406053
    28  O    7.531434   6.685237   5.291539   4.758565   4.743276
    29  H    4.649283   4.671708   3.421853   2.148577   3.869515
    30  C    7.727366   7.263576   5.851091   4.998115   5.564973
    31  H    7.610764   7.182188   5.823875   4.997752   5.586915
    32  H    8.772591   8.222417   6.795607   6.010820   6.380706
    33  H    7.517677   7.340176   5.961708   4.913331   5.896751
                   11         12         13         14         15
    11  C    0.000000
    12  C    1.397189   0.000000
    13  C    2.412980   1.396211   0.000000
    14  H   10.708051  11.136425  10.311151   0.000000
    15  H   10.065808  10.318642   9.367310   1.804554   0.000000
    16  H   10.084706  10.336229   9.380411   1.804869   1.810931
    17  H    8.561973   9.110381   8.434072   2.484610   2.503681
    18  H    8.582426   9.128731   8.447253   2.486083   3.090067
    19  H    7.624085   7.806719   6.843598   3.775784   3.132829
    20  H    7.606111   7.790208   6.832084   3.770962   2.550164
    21  H    6.168422   6.819036   6.299239   4.673202   4.507447
    22  H    3.958989   4.775294   4.551683   6.922716   6.567966
    23  H    3.868029   3.368688   2.102598   8.448900   7.408218
    24  H    2.136755   3.391904   3.869538   9.240653   8.855285
    25  H    1.082150   2.158560   3.398681  11.500416  10.944302
    26  S    2.785094   1.795860   2.765767  12.910420  12.043289
    27  O    3.021100   2.695792   3.965568  13.640731  12.866759
    28  O    3.505638   2.687493   3.520239  13.463094  12.701379
    29  H    3.395780   2.152411   1.082707  10.843142   9.785394
    30  C    4.379972   3.202397   3.629151  13.848679  12.791539
    31  H    4.501474   3.410123   3.742245  13.644297  12.518559
    32  H    5.104372   4.046847   4.630055  14.884560  13.849357
    33  H    4.831623   3.504247   3.563859  13.704352  12.596683
                   16         17         18         19         20
    16  H    0.000000
    17  H    3.089453   0.000000
    18  H    2.505451   1.807782   0.000000
    19  H    2.556615   3.091549   2.506647   0.000000
    20  H    3.128190   2.505532   3.090710   1.811396   0.000000
    21  H    4.511160   2.553772   2.558200   2.874549   2.873863
    22  H    6.577015   4.736747   4.747315   4.435568   4.428919
    23  H    7.413072   6.780123   6.784312   4.909934   4.908613
    24  H    8.872920   7.005944   7.026256   6.617918   6.601254
    25  H   10.965436   9.296659   9.319685   8.548161   8.528106
    26  S   12.063298  10.894709  10.915287   9.521036   9.502324
    27  O   12.951863  11.484196  11.577667  10.445298  10.346461
    28  O   12.511291  11.569909  11.359768   9.958365  10.202719
    29  H    9.796895   9.093555   9.104728   7.284953   7.275463
    30  C   12.932390  11.893493  12.043265  10.419171  10.250045
    31  H   12.807479  11.635611  11.944081  10.343966   9.990138
    32  H   13.974930  12.905831  13.038901  11.452482  11.305182
    33  H   12.672224  11.882918  11.961622  10.170968  10.082603
                   21         22         23         24         25
    21  H    0.000000
    22  H    2.264638   0.000000
    23  H    4.938182   3.849004   0.000000
    24  H    4.570489   2.324663   4.341075   0.000000
    25  H    6.878572   4.618400   4.950151   2.442313   0.000000
    26  S    8.613878   6.542767   4.867354   4.921840   2.933801
    27  O    9.158292   6.961100   6.023877   4.980716   2.615789
    28  O    9.190953   7.139811   5.497583   5.516157   3.545467
    29  H    7.093492   5.511212   2.398960   4.952244   4.297402
    30  C    9.795718   7.870007   5.534383   6.472585   4.611584
    31  H    9.656521   7.787023   5.500188   6.475088   4.770735
    32  H   10.765401   8.777105   6.579573   7.221631   5.148171
    33  H    9.844857   8.048775   5.273590   6.884164   5.231860
                   26         27         28         29         30
    26  S    0.000000
    27  O    1.536908   0.000000
    28  O    1.536052   2.336131   0.000000
    29  H    2.891865   4.304873   3.562815   0.000000
    30  C    1.816335   2.702026   2.715328   3.238013   0.000000
    31  H    2.395746   3.043268   3.619315   3.397753   1.070000
    32  H    2.395754   2.827232   2.945442   4.265005   1.069998
    33  H    2.395751   3.596628   2.945437   2.889172   1.069999
                   31         32         33
    31  H    0.000000
    32  H    1.747303   0.000000
    33  H    1.747305   1.747298   0.000000
 Stoichiometry    C11H16N2O3S
 Framework group  C1[X(C11H16N2O3S)]
 Deg. of freedom    93
 Full point group                 C1      NOp   1
 Largest Abelian subgroup         C1      NOp   1
 Largest concise Abelian subgroup C1      NOp   1
                         Standard orientation:                         
 ---------------------------------------------------------------------
 Center     Atomic      Atomic             Coordinates (Angstroms)
 Number     Number       Type             X           Y           Z
 ---------------------------------------------------------------------
      1          6           0        7.630446   -0.547619   -0.008707
      2          6           0        6.415122    0.374089   -0.051011
      3          6           0        5.109021   -0.425492    0.019584
      4          7           0        3.955448    0.456257   -0.027491
      5          6           0        2.680321   -0.024104    0.013231
      6          8           0        2.499144   -1.228558    0.094174
      7          7           0        1.629188    0.851394   -0.041539
      8          6           0        0.222260    0.547647   -0.020081
      9          6           0       -0.316096   -0.758873    0.080513
     10          6           0       -0.680888    1.625848   -0.106835
     11          6           0       -2.062090    1.418002   -0.097159
     12          6           0       -2.576812    0.122719    0.000010
     13          6           0       -1.700304   -0.960337    0.090157
     14          1           0        8.559252    0.058490   -0.062599
     15          1           0        7.613178   -1.248847   -0.870207
     16          1           0        7.640277   -1.130836    0.936672
     17          1           0        6.440221    0.959495   -0.995971
     18          1           0        6.465745    1.078492    0.807709
     19          1           0        5.086757   -1.008707    0.966679
     20          1           0        5.065969   -1.129756   -0.840549
     21          1           0        4.106067    1.475093   -0.097285
     22          1           0        1.873032    1.851814   -0.112048
     23          1           0        0.286686   -1.645044    0.153138
     24          1           0       -0.312289    2.641238   -0.184430
     25          1           0       -2.726109    2.269733   -0.165582
     26         16           0       -4.348965   -0.167842    0.012618
     27          8           0       -5.033889    1.094709   -0.534128
     28          8           0       -4.815206   -0.079584    1.473538
     29          1           0       -2.090483   -1.967336    0.167426
     30          6           0       -5.173120   -1.595000   -0.750966
     31          1           0       -4.865389   -1.680222   -1.772210
     32          1           0       -6.233630   -1.459421   -0.708147
     33          1           0       -4.905845   -2.486093   -0.222368
 ---------------------------------------------------------------------
 Rotational constants (GHZ):      1.8629177      0.1169489      0.1127618
 General basis read from cards:  (6D, 7F)
 There are   359 symmetry adapted cartesian basis functions of A   symmetry.
 There are   359 symmetry adapted basis functions of A   symmetry.
   359 basis functions,   632 primitive gaussians,   359 cartesian basis functions
    68 alpha electrons       68 beta electrons
       nuclear repulsion energy      1276.0869606979 Hartrees.
 NAtoms=   33 NActive=   33 NUniq=   33 SFac= 1.00D+00 NAtFMM=   60 NAOKFM=F Big=F
 Integral buffers will be    131072 words long.
 Raffenetti 2 integral format.
 Two-electron integral symmetry is turned on.
 ------------------------------------------------------------------------------
 Polarizable Continuum Model (PCM)
 =================================
 Model                : PCM (using non-symmetric T matrix).
 Atomic radii         : SMD-Coulomb.
 Polarization charges : Total charges.
 Charge compensation  : None.
 Solution method      : On-the-fly selection.
 Cavity type          : VdW (van der Waals Surface) (Alpha=1.000).
 Cavity algorithm     : GePol (No added spheres)
                        Default sphere list used, NSphG=   33.
                        Lebedev-Laikov grids with approx.  5.0 points / Ang**2.
                        Smoothing algorithm: York/Karplus (Gamma=1.0000).
                        Polarization charges: spherical gaussians, with
                                              point-specific exponents (IZeta= 3).
                        Self-potential: point-specific (ISelfS= 7).
                        Self-field    : sphere-specific E.n sum rule (ISelfD= 2).
 1st derivatives      : Analytical E(r).r(x)/FMM algorithm (CHGder, D1EAlg=3).
                        Cavity 1st derivative terms included.
 Solvent              : Water, Eps=  78.355300 Eps(inf)=   1.777849
 ------------------------------------------------------------------------------
 ------------------------------------------------------------------------------
 Atomic radii for non-electrostatic terms: SMD-CDS.
 ------------------------------------------------------------------------------
 Nuclear repulsion after PCM non-electrostatic terms =     1276.0967216646 Hartrees.
 One-electron integrals computed using PRISM.
 NBasis=   359 RedAO= T EigKep=  1.33D-06  NBF=   359
 NBsUse=   359 1.00D-06 EigRej= -1.00D+00 NBFU=   359
 ExpMin= 4.05D-02 ExpMax= 2.19D+04 ExpMxC= 3.30D+03 IAcc=3 IRadAn=         5 AccDes= 0.00D+00
 Harris functional with IExCor= 1009 and IRadAn=       5 diagonalized for initial guess.
 HarFok:  IExCor= 1009 AccDes= 0.00D+00 IRadAn=         5 IDoV= 1 UseB2=F ITyADJ=14
 ICtDFT=  3500011 ScaDFX=  1.000000  1.000000  1.000000  1.000000
 FoFCou: FMM=F IPFlag=           0 FMFlag=      100000 FMFlg1=           0
         NFxFlg=           0 DoJE=T BraDBF=F KetDBF=T FulRan=T
         wScrn=  0.000000 ICntrl=     500 IOpCl=  0 I1Cent=   200000004 NGrid=           0
         NMat0=    1 NMatS0=      1 NMatT0=    0 NMatD0=    1 NMtDS0=    0 NMtDT0=    0
 Petite list used in FoFCou.
 Requested convergence on RMS density matrix=1.00D-08 within 128 cycles.
 Requested convergence on MAX density matrix=1.00D-06.
 Requested convergence on             energy=1.00D-06.
 No special actions if energy rises.
 Inv3:  Mode=1 IEnd=    17963427.
 Iteration    1 A*A^-1 deviation from unit magnitude is 7.77D-15 for   2428.
 Iteration    1 A*A^-1 deviation from orthogonality  is 6.55D-15 for   2447    487.
 Iteration    1 A^-1*A deviation from unit magnitude is 6.88D-15 for   2428.
 Iteration    1 A^-1*A deviation from orthogonality  is 1.30D-13 for   1925   1890.
 Error on total polarization charges =  0.06700
 SCF Done:  E(RM062X) =  -1161.78908468     A.U. after   16 cycles
            NFock= 16  Conv=0.51D-08     -V/T= 2.0074
 SMD-CDS (non-electrostatic) energy       (kcal/mol) =       6.13
 (included in total energy above)

 **********************************************************************

            Population analysis using the SCF density.

 **********************************************************************

 Orbital symmetries:
       Occupied  (A) (A) (A) (A) (A) (A) (A) (A) (A) (A) (A) (A)
                 (A) (A) (A) (A) (A) (A) (A) (A) (A) (A) (A) (A)
                 (A) (A) (A) (A) (A) (A) (A) (A) (A) (A) (A) (A)
                 (A) (A) (A) (A) (A) (A) (A) (A) (A) (A) (A) (A)
                 (A) (A) (A) (A) (A) (A) (A) (A) (A) (A) (A) (A)
                 (A) (A) (A) (A) (A) (A) (A) (A)
       Virtual   (A) (A) (A) (A) (A) (A) (A) (A) (A) (A) (A) (A)
                 (A) (A) (A) (A) (A) (A) (A) (A) (A) (A) (A) (A)
                 (A) (A) (A) (A) (A) (A) (A) (A) (A) (A) (A) (A)
                 (A) (A) (A) (A) (A) (A) (A) (A) (A) (A) (A) (A)
                 (A) (A) (A) (A) (A) (A) (A) (A) (A) (A) (A) (A)
                 (A) (A) (A) (A) (A) (A) (A) (A) (A) (A) (A) (A)
                 (A) (A) (A) (A) (A) (A) (A) (A) (A) (A) (A) (A)
                 (A) (A) (A) (A) (A) (A) (A) (A) (A) (A) (A) (A)
                 (A) (A) (A) (A) (A) (A) (A) (A) (A) (A) (A) (A)
                 (A) (A) (A) (A) (A) (A) (A) (A) (A) (A) (A) (A)
                 (A) (A) (A) (A) (A) (A) (A) (A) (A) (A) (A) (A)
                 (A) (A) (A) (A) (A) (A) (A) (A) (A) (A) (A) (A)
                 (A) (A) (A) (A) (A) (A) (A) (A) (A) (A) (A) (A)
                 (A) (A) (A) (A) (A) (A) (A) (A) (A) (A) (A) (A)
                 (A) (A) (A) (A) (A) (A) (A) (A) (A) (A) (A) (A)
                 (A) (A) (A) (A) (A) (A) (A) (A) (A) (A) (A) (A)
                 (A) (A) (A) (A) (A) (A) (A) (A) (A) (A) (A) (A)
                 (A) (A) (A) (A) (A) (A) (A) (A) (A) (A) (A) (A)
                 (A) (A) (A) (A) (A) (A) (A) (A) (A) (A) (A) (A)
                 (A) (A) (A) (A) (A) (A) (A) (A) (A) (A) (A) (A)
                 (A) (A) (A) (A) (A) (A) (A) (A) (A) (A) (A) (A)
                 (A) (A) (A) (A) (A) (A) (A) (A) (A) (A) (A) (A)
                 (A) (A) (A) (A) (A) (A) (A) (A) (A) (A) (A) (A)
                 (A) (A) (A) (A) (A) (A) (A) (A) (A) (A) (A) (A)
                 (A) (A) (A)
 The electronic state is 1-A.
 Alpha  occ. eigenvalues --  -90.16010 -19.63787 -19.63754 -19.61996 -14.81341
 Alpha  occ. eigenvalues --  -14.78774 -10.69329 -10.63619 -10.61390 -10.59493
 Alpha  occ. eigenvalues --  -10.58933 -10.58724 -10.58136 -10.57663 -10.57202
 Alpha  occ. eigenvalues --  -10.54589 -10.53465  -8.47493  -6.39613  -6.39573
 Alpha  occ. eigenvalues --   -6.39506  -1.20535  -1.19314  -1.07832  -1.05811
 Alpha  occ. eigenvalues --   -1.02785  -0.98272  -0.90225  -0.87944  -0.86787
 Alpha  occ. eigenvalues --   -0.86283  -0.78705  -0.75698  -0.72596  -0.69738
 Alpha  occ. eigenvalues --   -0.67606  -0.66829  -0.63591  -0.62294  -0.60225
 Alpha  occ. eigenvalues --   -0.56460  -0.55834  -0.55391  -0.54319  -0.53640
 Alpha  occ. eigenvalues --   -0.53124  -0.52395  -0.51469  -0.51062  -0.49993
 Alpha  occ. eigenvalues --   -0.49665  -0.47673  -0.47411  -0.46179  -0.45351
 Alpha  occ. eigenvalues --   -0.42992  -0.41703  -0.40778  -0.40302  -0.39490
 Alpha  occ. eigenvalues --   -0.39048  -0.37946  -0.37442  -0.35736  -0.35176
 Alpha  occ. eigenvalues --   -0.33014  -0.32534  -0.28975
 Alpha virt. eigenvalues --   -0.02704   0.00002   0.00305   0.01549   0.02331
 Alpha virt. eigenvalues --    0.03507   0.03748   0.03998   0.04222   0.04884
 Alpha virt. eigenvalues --    0.05051   0.05444   0.05730   0.06674   0.07035
 Alpha virt. eigenvalues --    0.07363   0.07635   0.07856   0.07868   0.08876
 Alpha virt. eigenvalues --    0.09075   0.09683   0.09806   0.10301   0.10442
 Alpha virt. eigenvalues --    0.10624   0.11274   0.11578   0.12218   0.13121
 Alpha virt. eigenvalues --    0.13548   0.14115   0.14519   0.14915   0.15546
 Alpha virt. eigenvalues --    0.15795   0.16153   0.16523   0.16758   0.17311
 Alpha virt. eigenvalues --    0.17669   0.18539   0.18892   0.19295   0.20367
 Alpha virt. eigenvalues --    0.20484   0.21049   0.21245   0.21607   0.22084
 Alpha virt. eigenvalues --    0.22378   0.22747   0.23275   0.23645   0.24147
 Alpha virt. eigenvalues --    0.24187   0.24827   0.25009   0.25449   0.25794
 Alpha virt. eigenvalues --    0.25959   0.26762   0.27217   0.27559   0.28191
 Alpha virt. eigenvalues --    0.28503   0.29181   0.29449   0.29598   0.30290
 Alpha virt. eigenvalues --    0.30410   0.30842   0.31498   0.31871   0.32042
 Alpha virt. eigenvalues --    0.32507   0.32879   0.33175   0.33432   0.33752
 Alpha virt. eigenvalues --    0.34265   0.34504   0.35055   0.35646   0.35819
 Alpha virt. eigenvalues --    0.36423   0.37564   0.37872   0.38429   0.39125
 Alpha virt. eigenvalues --    0.40017   0.41288   0.41649   0.42238   0.43484
 Alpha virt. eigenvalues --    0.44677   0.45932   0.46375   0.48071   0.50875
 Alpha virt. eigenvalues --    0.52171   0.53795   0.55283   0.56602   0.59566
 Alpha virt. eigenvalues --    0.60895   0.62156   0.64075   0.67703   0.68763
 Alpha virt. eigenvalues --    0.69221   0.70082   0.70681   0.72005   0.72761
 Alpha virt. eigenvalues --    0.74443   0.74777   0.75130   0.75488   0.77090
 Alpha virt. eigenvalues --    0.77398   0.78167   0.79372   0.80113   0.80985
 Alpha virt. eigenvalues --    0.82272   0.82741   0.83360   0.83986   0.85030
 Alpha virt. eigenvalues --    0.87692   0.88681   0.89449   0.90226   0.90524
 Alpha virt. eigenvalues --    0.93023   0.94921   0.96265   0.96621   0.98337
 Alpha virt. eigenvalues --    1.00018   1.00521   1.00779   1.02735   1.03954
 Alpha virt. eigenvalues --    1.04186   1.04670   1.05157   1.05591   1.06108
 Alpha virt. eigenvalues --    1.07705   1.10357   1.10910   1.11410   1.12307
 Alpha virt. eigenvalues --    1.12624   1.13627   1.14389   1.15085   1.16131
 Alpha virt. eigenvalues --    1.17507   1.18863   1.19862   1.21062   1.22344
 Alpha virt. eigenvalues --    1.23468   1.24857   1.27145   1.29262   1.30684
 Alpha virt. eigenvalues --    1.31134   1.32505   1.33744   1.34286   1.35678
 Alpha virt. eigenvalues --    1.37268   1.37813   1.38457   1.38949   1.39122
 Alpha virt. eigenvalues --    1.39628   1.42513   1.42895   1.44049   1.45349
 Alpha virt. eigenvalues --    1.46085   1.47348   1.48383   1.48863   1.50186
 Alpha virt. eigenvalues --    1.52433   1.53883   1.55002   1.56576   1.57071
 Alpha virt. eigenvalues --    1.57627   1.60708   1.61651   1.65084   1.68246
 Alpha virt. eigenvalues --    1.72122   1.75920   1.79006   1.81367   1.84045
 Alpha virt. eigenvalues --    1.85255   1.85713   1.86468   1.87864   1.88877
 Alpha virt. eigenvalues --    1.89389   1.90915   1.91720   1.92311   1.92570
 Alpha virt. eigenvalues --    1.95616   1.95744   1.97226   1.98730   2.01094
 Alpha virt. eigenvalues --    2.02358   2.02468   2.03138   2.03722   2.05169
 Alpha virt. eigenvalues --    2.06198   2.06556   2.10065   2.13591   2.13840
 Alpha virt. eigenvalues --    2.15739   2.16077   2.18874   2.19199   2.20485
 Alpha virt. eigenvalues --    2.21131   2.22010   2.23224   2.24050   2.26630
 Alpha virt. eigenvalues --    2.28242   2.30357   2.31597   2.34077   2.34971
 Alpha virt. eigenvalues --    2.36385   2.38098   2.38939   2.40713   2.41478
 Alpha virt. eigenvalues --    2.42262   2.49205   2.55879   2.56991   2.63981
 Alpha virt. eigenvalues --    2.65471   2.66385   2.68031   2.71734   2.72983
 Alpha virt. eigenvalues --    2.74752   2.78137   2.78897   2.79719   2.80334
 Alpha virt. eigenvalues --    2.82406   2.87498   2.89986   2.97585   3.04549
 Alpha virt. eigenvalues --    3.11442   3.26323   3.31525   3.39345   4.01357
 Alpha virt. eigenvalues --    4.13626   4.14789   4.25729   4.26692   4.27339
 Alpha virt. eigenvalues --    4.29985   4.32584   4.35404   4.38140   4.42333
 Alpha virt. eigenvalues --    4.42587   4.47431   4.49725   4.59083   4.66235
 Alpha virt. eigenvalues --    4.75104
          Condensed to atoms (all electrons):
               1          2          3          4          5          6
     1  C    5.654872  -0.051029   0.027404  -0.001558  -0.052787  -0.003796
     2  C   -0.051029   6.124172  -0.320011  -0.082156   0.103039   0.017695
     3  C    0.027404  -0.320011   6.767241   0.293140  -0.447740  -0.085925
     4  N   -0.001558  -0.082156   0.293140   7.556355   0.476869  -0.214231
     5  C   -0.052787   0.103039  -0.447740   0.476869   6.617012   0.565884
     6  O   -0.003796   0.017695  -0.085925  -0.214231   0.565884   8.520401
     7  N   -0.003756   0.011066  -0.114349  -0.320076   0.167661  -0.098762
     8  C   -0.011055   0.000156  -0.431458  -0.137639  -1.041191  -0.330411
     9  C    0.000290   0.000746   0.013431   0.027737   1.201025   0.264739
    10  C   -0.002320   0.000579  -0.125217  -0.078650  -1.988305  -0.134558
    11  C    0.000099   0.000786   0.016976   0.008000   0.369593   0.013220
    12  C   -0.000178  -0.000025  -0.029814  -0.000846  -0.453654  -0.000141
    13  C   -0.000305   0.003281  -0.022981  -0.006355  -0.349883   0.217717
    14  H    0.412653  -0.086989   0.026960   0.000496  -0.002051   0.000007
    15  H    0.417316  -0.064728  -0.008327   0.000365  -0.000596  -0.000055
    16  H    0.415858  -0.064321  -0.007553   0.000368  -0.000322  -0.000053
    17  H   -0.036612   0.427635  -0.076306   0.006091  -0.005035  -0.000193
    18  H   -0.035046   0.425278  -0.073107   0.005872  -0.007150  -0.000176
    19  H    0.001727  -0.039098   0.417463  -0.052722  -0.019828   0.004020
    20  H    0.003454  -0.044583   0.430608  -0.054648  -0.027007   0.004385
    21  H   -0.003656   0.000695  -0.060789   0.247723   0.017963   0.009044
    22  H   -0.000113   0.000883  -0.005255   0.007973  -0.028734   0.007351
    23  H    0.000002   0.000159   0.002011  -0.000567   0.000473  -0.001015
    24  H    0.000000  -0.000002   0.000033   0.001055   0.003357  -0.000012
    25  H    0.000000   0.000000   0.000019   0.000007   0.002614   0.000000
    26  S   -0.000004  -0.000003  -0.001155   0.000139  -0.051396   0.000028
    27  O   -0.000000  -0.000000  -0.000008   0.000004  -0.001569  -0.000001
    28  O   -0.000000  -0.000000  -0.000019  -0.000001  -0.003039  -0.000003
    29  H    0.000000   0.000001   0.000019   0.000014   0.001991   0.000258
    30  C    0.000000   0.000000   0.000104   0.000014   0.006456  -0.000032
    31  H   -0.000000  -0.000000  -0.000000   0.000000  -0.000060  -0.000000
    32  H    0.000000   0.000000   0.000000  -0.000000   0.000005   0.000000
    33  H   -0.000000  -0.000000  -0.000000  -0.000000  -0.000085  -0.000000
               7          8          9         10         11         12
     1  C   -0.003756  -0.011055   0.000290  -0.002320   0.000099  -0.000178
     2  C    0.011066   0.000156   0.000746   0.000579   0.000786  -0.000025
     3  C   -0.114349  -0.431458   0.013431  -0.125217   0.016976  -0.029814
     4  N   -0.320076  -0.137639   0.027737  -0.078650   0.008000  -0.000846
     5  C    0.167661  -1.041191   1.201025  -1.988305   0.369593  -0.453654
     6  O   -0.098762  -0.330411   0.264739  -0.134558   0.013220  -0.000141
     7  N    7.698939  -0.026504  -0.372335   0.375897   0.101924   0.008545
     8  C   -0.026504  14.925345  -1.006613  -0.827490   1.696140  -4.022540
     9  C   -0.372335  -1.006613  22.800493  -4.504672  -0.922674  -1.450863
    10  C    0.375897  -0.827490  -4.504672  19.082241  -4.798936   1.443304
    11  C    0.101924   1.696140  -0.922674  -4.798936  19.572092  -1.259080
    12  C    0.008545  -4.022540  -1.450863   1.443304  -1.259080  16.758874
    13  C   -0.030312  -2.717528 -10.987549  -1.620608  -7.752887  -3.204099
    14  H    0.000008  -0.000041   0.000004  -0.000002  -0.000000  -0.000000
    15  H    0.000013   0.000017  -0.000044   0.000003   0.000000  -0.000000
    16  H    0.000011   0.000011  -0.000041   0.000003   0.000000  -0.000000
    17  H    0.000030  -0.000516  -0.000178   0.000125   0.000003  -0.000002
    18  H    0.000002  -0.000471  -0.000220   0.000157   0.000001   0.000000
    19  H   -0.000048  -0.004587   0.002963  -0.000627  -0.000001  -0.000031
    20  H   -0.000412  -0.004106   0.002591  -0.000819  -0.000037   0.000009
    21  H    0.018908   0.014037   0.001381  -0.001613  -0.000043  -0.000052
    22  H    0.245589   0.018779   0.013300  -0.069467   0.026245  -0.004059
    23  H   -0.013336   0.083161   0.203735   0.042798  -0.015931  -0.001839
    24  H   -0.009467   0.049587   0.103870   0.242831  -0.043721   0.018175
    25  H    0.000414   0.028640  -0.018809  -0.048993   0.334377  -0.003889
    26  S    0.000188  -0.357483  -0.406017   0.474916  -0.855124  -1.071367
    27  O    0.000153  -0.072908   0.008895   0.075163  -0.693792   0.221945
    28  O   -0.000141  -0.034541  -0.012327   0.021492  -0.396404  -0.379275
    29  H   -0.000428  -0.019311   0.107609  -0.028500   0.074086   0.104257
    30  C    0.000176   0.047718  -0.105019  -0.034740   0.508557   0.178449
    31  H    0.000002  -0.001243  -0.020672  -0.000193  -0.018066  -0.043715
    32  H   -0.000000   0.000685   0.005880  -0.000141   0.012416   0.052755
    33  H   -0.000001  -0.002631   0.025493   0.001711  -0.032282  -0.076692
              13         14         15         16         17         18
     1  C   -0.000305   0.412653   0.417316   0.415858  -0.036612  -0.035046
     2  C    0.003281  -0.086989  -0.064728  -0.064321   0.427635   0.425278
     3  C   -0.022981   0.026960  -0.008327  -0.007553  -0.076306  -0.073107
     4  N   -0.006355   0.000496   0.000365   0.000368   0.006091   0.005872
     5  C   -0.349883  -0.002051  -0.000596  -0.000322  -0.005035  -0.007150
     6  O    0.217717   0.000007  -0.000055  -0.000053  -0.000193  -0.000176
     7  N   -0.030312   0.000008   0.000013   0.000011   0.000030   0.000002
     8  C   -2.717528  -0.000041   0.000017   0.000011  -0.000516  -0.000471
     9  C  -10.987549   0.000004  -0.000044  -0.000041  -0.000178  -0.000220
    10  C   -1.620608  -0.000002   0.000003   0.000003   0.000125   0.000157
    11  C   -7.752887  -0.000000   0.000000   0.000000   0.000003   0.000001
    12  C   -3.204099  -0.000000  -0.000000  -0.000000  -0.000002   0.000000
    13  C   31.232000   0.000000  -0.000004  -0.000003  -0.000008  -0.000022
    14  H    0.000000   0.480754  -0.023796  -0.023748  -0.003003  -0.002982
    15  H   -0.000004  -0.023796   0.486706  -0.028341  -0.004557   0.003759
    16  H   -0.000003  -0.023748  -0.028341   0.486633   0.003766  -0.004542
    17  H   -0.000008  -0.003003  -0.004557   0.003766   0.489192  -0.030559
    18  H   -0.000022  -0.002982   0.003759  -0.004542  -0.030559   0.488882
    19  H    0.000874  -0.000058  -0.000321   0.002607   0.003642  -0.005298
    20  H    0.000224  -0.000055   0.002638  -0.000328  -0.005286   0.003659
    21  H    0.000850  -0.000003   0.000000   0.000000   0.000582   0.000567
    22  H    0.022294  -0.000000  -0.000000  -0.000000   0.000001   0.000001
    23  H    0.004440   0.000000  -0.000000  -0.000000  -0.000000  -0.000000
    24  H   -0.064201   0.000000  -0.000000  -0.000000  -0.000000  -0.000000
    25  H    0.027990  -0.000000   0.000000   0.000000  -0.000000   0.000000
    26  S    1.156998  -0.000000  -0.000000  -0.000000  -0.000000   0.000000
    27  O    0.296212  -0.000000  -0.000000  -0.000000  -0.000000  -0.000000
    28  O    0.520681  -0.000000   0.000000  -0.000000  -0.000000   0.000000
    29  H    0.073411  -0.000000   0.000000   0.000000   0.000000   0.000000
    30  C   -0.615986  -0.000000   0.000000  -0.000000   0.000000  -0.000000
    31  H    0.046206   0.000000  -0.000000  -0.000000  -0.000000   0.000000
    32  H   -0.019573   0.000000   0.000000   0.000000  -0.000000   0.000000
    33  H    0.053378   0.000000  -0.000000  -0.000000  -0.000000   0.000000
              19         20         21         22         23         24
     1  C    0.001727   0.003454  -0.003656  -0.000113   0.000002   0.000000
     2  C   -0.039098  -0.044583   0.000695   0.000883   0.000159  -0.000002
     3  C    0.417463   0.430608  -0.060789  -0.005255   0.002011   0.000033
     4  N   -0.052722  -0.054648   0.247723   0.007973  -0.000567   0.001055
     5  C   -0.019828  -0.027007   0.017963  -0.028734   0.000473   0.003357
     6  O    0.004020   0.004385   0.009044   0.007351  -0.001015  -0.000012
     7  N   -0.000048  -0.000412   0.018908   0.245589  -0.013336  -0.009467
     8  C   -0.004587  -0.004106   0.014037   0.018779   0.083161   0.049587
     9  C    0.002963   0.002591   0.001381   0.013300   0.203735   0.103870
    10  C   -0.000627  -0.000819  -0.001613  -0.069467   0.042798   0.242831
    11  C   -0.000001  -0.000037  -0.000043   0.026245  -0.015931  -0.043721
    12  C   -0.000031   0.000009  -0.000052  -0.004059  -0.001839   0.018175
    13  C    0.000874   0.000224   0.000850   0.022294   0.004440  -0.064201
    14  H   -0.000058  -0.000055  -0.000003  -0.000000   0.000000   0.000000
    15  H   -0.000321   0.002638   0.000000  -0.000000  -0.000000  -0.000000
    16  H    0.002607  -0.000328   0.000000  -0.000000  -0.000000  -0.000000
    17  H    0.003642  -0.005286   0.000582   0.000001  -0.000000  -0.000000
    18  H   -0.005298   0.003659   0.000567   0.000001  -0.000000  -0.000000
    19  H    0.492504  -0.038323   0.002067   0.000004  -0.000000   0.000000
    20  H   -0.038323   0.493166   0.002047   0.000005  -0.000000   0.000000
    21  H    0.002067   0.002047   0.265375   0.002070   0.000001   0.000002
    22  H    0.000004   0.000005   0.002070   0.253155  -0.000104   0.004399
    23  H   -0.000000  -0.000000   0.000001  -0.000104   0.414568  -0.000089
    24  H    0.000000   0.000000   0.000002   0.004399  -0.000089   0.420438
    25  H   -0.000000  -0.000000  -0.000000  -0.000008   0.000010  -0.003681
    26  S   -0.000001   0.000001   0.000000   0.000210  -0.000350   0.001578
    27  O   -0.000000   0.000000  -0.000000   0.000000   0.000015   0.000152
    28  O   -0.000000   0.000000   0.000000   0.000000   0.000021   0.000006
    29  H   -0.000000  -0.000000  -0.000000   0.000001  -0.004308   0.000011
    30  C    0.000000  -0.000000   0.000000   0.000000   0.000180   0.000130
    31  H   -0.000000   0.000000   0.000000  -0.000000   0.000000   0.000000
    32  H   -0.000000   0.000000  -0.000000   0.000000  -0.000000  -0.000000
    33  H    0.000000   0.000000  -0.000000  -0.000000  -0.000000  -0.000000
              25         26         27         28         29         30
     1  C    0.000000  -0.000004  -0.000000  -0.000000   0.000000   0.000000
     2  C    0.000000  -0.000003  -0.000000  -0.000000   0.000001   0.000000
     3  C    0.000019  -0.001155  -0.000008  -0.000019   0.000019   0.000104
     4  N    0.000007   0.000139   0.000004  -0.000001   0.000014   0.000014
     5  C    0.002614  -0.051396  -0.001569  -0.003039   0.001991   0.006456
     6  O    0.000000   0.000028  -0.000001  -0.000003   0.000258  -0.000032
     7  N    0.000414   0.000188   0.000153  -0.000141  -0.000428   0.000176
     8  C    0.028640  -0.357483  -0.072908  -0.034541  -0.019311   0.047718
     9  C   -0.018809  -0.406017   0.008895  -0.012327   0.107609  -0.105019
    10  C   -0.048993   0.474916   0.075163   0.021492  -0.028500  -0.034740
    11  C    0.334377  -0.855124  -0.693792  -0.396404   0.074086   0.508557
    12  C   -0.003889  -1.071367   0.221945  -0.379275   0.104257   0.178449
    13  C    0.027990   1.156998   0.296212   0.520681   0.073411  -0.615986
    14  H   -0.000000  -0.000000  -0.000000  -0.000000  -0.000000  -0.000000
    15  H    0.000000  -0.000000  -0.000000   0.000000   0.000000   0.000000
    16  H    0.000000  -0.000000  -0.000000  -0.000000   0.000000  -0.000000
    17  H   -0.000000  -0.000000  -0.000000  -0.000000   0.000000   0.000000
    18  H    0.000000   0.000000  -0.000000   0.000000   0.000000  -0.000000
    19  H   -0.000000  -0.000001  -0.000000  -0.000000  -0.000000   0.000000
    20  H   -0.000000   0.000001   0.000000   0.000000  -0.000000  -0.000000
    21  H   -0.000000   0.000000  -0.000000   0.000000  -0.000000   0.000000
    22  H   -0.000008   0.000210   0.000000   0.000000   0.000001   0.000000
    23  H    0.000010  -0.000350   0.000015   0.000021  -0.004308   0.000180
    24  H   -0.003681   0.001578   0.000152   0.000006   0.000011   0.000130
    25  H    0.405745  -0.016702   0.003290  -0.000589  -0.000110   0.000171
    26  S   -0.016702  15.503504   0.336404   0.439607  -0.004311  -0.390388
    27  O    0.003290   0.336404   8.894542  -0.170564   0.000415  -0.166644
    28  O   -0.000589   0.439607  -0.170564   8.914749  -0.001329  -0.200582
    29  H   -0.000110  -0.004311   0.000415  -0.001329   0.415962   0.000124
    30  C    0.000171  -0.390388  -0.166644  -0.200582   0.000124   6.599602
    31  H    0.000001   0.039767  -0.002353   0.008991  -0.000081   0.312033
    32  H   -0.000000  -0.071684  -0.007919  -0.006979   0.000001   0.375645
    33  H   -0.000001   0.014521   0.009369  -0.000476  -0.000201   0.330525
              31         32         33
     1  C   -0.000000   0.000000  -0.000000
     2  C   -0.000000   0.000000  -0.000000
     3  C   -0.000000   0.000000  -0.000000
     4  N    0.000000  -0.000000  -0.000000
     5  C   -0.000060   0.000005  -0.000085
     6  O   -0.000000   0.000000  -0.000000
     7  N    0.000002  -0.000000  -0.000001
     8  C   -0.001243   0.000685  -0.002631
     9  C   -0.020672   0.005880   0.025493
    10  C   -0.000193  -0.000141   0.001711
    11  C   -0.018066   0.012416  -0.032282
    12  C   -0.043715   0.052755  -0.076692
    13  C    0.046206  -0.019573   0.053378
    14  H    0.000000   0.000000   0.000000
    15  H   -0.000000   0.000000  -0.000000
    16  H   -0.000000   0.000000  -0.000000
    17  H   -0.000000  -0.000000  -0.000000
    18  H    0.000000   0.000000   0.000000
    19  H   -0.000000  -0.000000   0.000000
    20  H    0.000000   0.000000   0.000000
    21  H    0.000000  -0.000000  -0.000000
    22  H   -0.000000   0.000000  -0.000000
    23  H    0.000000  -0.000000  -0.000000
    24  H    0.000000  -0.000000  -0.000000
    25  H    0.000001  -0.000000  -0.000001
    26  S    0.039767  -0.071684   0.014521
    27  O   -0.002353  -0.007919   0.009369
    28  O    0.008991  -0.006979  -0.000476
    29  H   -0.000081   0.000001  -0.000201
    30  C    0.312033   0.375645   0.330525
    31  H    0.381117  -0.016156  -0.016414
    32  H   -0.016156   0.350235  -0.018119
    33  H   -0.016414  -0.018119   0.386442
 Mulliken charges:
               1
     1  C   -0.731462
     2  C   -0.363225
     3  C   -0.185398
     4  N   -0.682772
     5  C    0.946490
     6  O   -0.755386
     7  N   -0.639598
     8  C    0.185988
     9  C    1.023852
    10  C   -1.495368
    11  C    0.054463
    12  C   -0.784155
    13  C   -0.264253
    14  H    0.221845
    15  H    0.219950
    16  H    0.219995
    17  H    0.231188
    18  H    0.231395
    19  H    0.233071
    20  H    0.232818
    21  H    0.482844
    22  H    0.505480
    23  H    0.285966
    24  H    0.275550
    25  H    0.289505
    26  S    1.258125
    27  O   -0.730801
    28  O   -0.699278
    29  H    0.280416
    30  C   -0.846494
    31  H    0.330836
    32  H    0.342949
    33  H    0.325464
 Sum of Mulliken charges =  -0.00000
 Mulliken charges with hydrogens summed into heavy atoms:
               1
     1  C   -0.069671
     2  C    0.099358
     3  C    0.280491
     4  N   -0.199929
     5  C    0.946490
     6  O   -0.755386
     7  N   -0.134118
     8  C    0.185988
     9  C    1.309818
    10  C   -1.219818
    11  C    0.343968
    12  C   -0.784155
    13  C    0.016163
    26  S    1.258125
    27  O   -0.730801
    28  O   -0.699278
    30  C    0.152755
 Electronic spatial extent (au):  <R**2>=           9235.0990
 Charge=             -0.0000 electrons
 Dipole moment (field-independent basis, Debye):
    X=              9.8940    Y=              0.1886    Z=             -4.7316  Tot=             10.9688
 Quadrupole moment (field-independent basis, Debye-Ang):
   XX=           -120.4244   YY=            -95.0643   ZZ=           -119.0301
   XY=             49.1370   XZ=             19.7728   YZ=              3.9461
 Traceless Quadrupole moment (field-independent basis, Debye-Ang):
   XX=             -8.9181   YY=             16.4420   ZZ=             -7.5238
   XY=             49.1370   XZ=             19.7728   YZ=              3.9461
 Octapole moment (field-independent basis, Debye-Ang**2):
  XXX=            333.1923  YYY=             13.5314  ZZZ=            -14.2755  XYY=            -24.8432
  XXY=           -120.9899  XXZ=           -107.5062  XZZ=             28.5887  YZZ=             -7.0339
  YYZ=             -4.3428  XYZ=            -24.9465
 Hexadecapole moment (field-independent basis, Debye-Ang**3):
 XXXX=         -11388.1129 YYYY=           -607.9613 ZZZZ=           -282.4684 XXXY=           1117.5026
 XXXZ=            503.0699 YYYX=            154.8494 YYYZ=              1.1201 ZZZX=             69.5783
 ZZZY=             12.0449 XXYY=          -1889.0971 XXZZ=          -2083.1803 YYZZ=           -166.4530
 XXYZ=            129.1723 YYXZ=              7.0988 ZZXY=             20.7980
 N-N= 1.276096721665D+03 E-N=-5.274358907810D+03  KE= 1.153290750785D+03
 D1PCM: PCM CHGder 1st derivatives, ID1Alg=3 FixD1E=F DoIter=F DoCFld=F I1PDM=0.
 Calling FoFJK, ICntrl=      2127 FMM=F ISym2X=0 I1Cent= 0 IOpClX= 0 NMat=1 NMatS=1 NMatT=0.
 ***** Axes restored to original set *****
 -------------------------------------------------------------------
 Center     Atomic                   Forces (Hartrees/Bohr)
 Number     Number              X              Y              Z
 -------------------------------------------------------------------
      1        6          -0.004853644    0.001960293   -0.000347440
      2        6           0.004288318   -0.005637147    0.000743178
      3        6          -0.006126275    0.007082771   -0.001180875
      4        7           0.018695379   -0.029496643    0.004356775
      5        6          -0.017634722   -0.005020882   -0.000060733
      6        8           0.002943326    0.034988099   -0.004461941
      7        7           0.026039666   -0.019201483    0.002452211
      8        6          -0.018472651    0.002222807   -0.000306593
      9        6           0.006957011   -0.002877175    0.001455507
     10        6           0.003894651    0.007340954    0.000753991
     11        6           0.002149923   -0.002746578   -0.001152878
     12        6          -0.012071489    0.017762376   -0.017494666
     13        6          -0.000961822   -0.007086977    0.000601949
     14        1           0.006460390    0.008739516   -0.001031096
     15        1          -0.001113984   -0.003485736    0.009658372
     16        1          -0.000909379   -0.005865066   -0.008366748
     17        1           0.001356841    0.004927435    0.008691963
     18        1           0.001526122    0.002530184   -0.009608118
     19        1           0.000497772   -0.004994101   -0.009298393
     20        1           0.000321135   -0.002296776    0.010320871
     21        1          -0.001801368    0.014319475   -0.001995715
     22        1           0.005717231    0.012048474   -0.001570869
     23        1          -0.007374927   -0.001194757    0.000229453
     24        1          -0.001209737   -0.001888788    0.000405616
     25        1           0.001663562   -0.001971926   -0.000806208
     26       16           0.089036861   -0.068222832    0.073535071
     27        8          -0.034265496    0.023763810   -0.030040457
     28        8          -0.031046136    0.028419957   -0.026681462
     29        1          -0.001702054    0.003459368   -0.001032791
     30        6          -0.032810509   -0.004158608   -0.000365123
     31        1          -0.006367106   -0.004913127   -0.015036668
     32        1           0.015434118   -0.011274111    0.010204565
     33        1          -0.008261009    0.012767195    0.007429249
 -------------------------------------------------------------------
 Cartesian Forces:  Max     0.089036861 RMS     0.017934648

 GradGradGradGradGradGradGradGradGradGradGradGradGradGradGradGradGradGrad
 Berny optimization.
 FormGI is forming the generalized inverse of G from B-inverse, IUseBI=4.
 Internal  Forces:  Max     0.040881671 RMS     0.010072699
 Search for a local minimum.
 Step number   1 out of a maximum of  175
 All quantities printed in internal units (Hartrees-Bohrs-Radians)
 Mixed Optimization -- RFO/linear search
 Second derivative matrix not updated -- first step.
 ITU=  0
     Eigenvalues ---    0.00230   0.00329   0.00423   0.00425   0.00994
     Eigenvalues ---    0.01169   0.01435   0.01468   0.01636   0.01695
     Eigenvalues ---    0.01942   0.01982   0.02047   0.02085   0.02101
     Eigenvalues ---    0.02120   0.02128   0.02131   0.02139   0.02178
     Eigenvalues ---    0.03755   0.03924   0.04436   0.04933   0.05553
     Eigenvalues ---    0.05673   0.05715   0.05715   0.05783   0.07395
     Eigenvalues ---    0.08034   0.09179   0.11976   0.12668   0.16000
     Eigenvalues ---    0.16000   0.16000   0.16000   0.16000   0.16000
     Eigenvalues ---    0.16000   0.16000   0.16000   0.16000   0.16000
     Eigenvalues ---    0.16000   0.17812   0.21964   0.22000   0.22000
     Eigenvalues ---    0.22000   0.22004   0.22005   0.22964   0.24000
     Eigenvalues ---    0.24871   0.25000   0.25000   0.25000   0.25000
     Eigenvalues ---    0.25000   0.26446   0.29144   0.29806   0.32336
     Eigenvalues ---    0.32338   0.32402   0.32408   0.32500   0.32511
     Eigenvalues ---    0.32559   0.35634   0.35669   0.35736   0.36703
     Eigenvalues ---    0.37230   0.37230   0.37230   0.37889   0.39654
     Eigenvalues ---    0.40682   0.41304   0.42437   0.42459   0.44216
     Eigenvalues ---    0.45268   0.45965   0.46171   0.51154   0.52303
     Eigenvalues ---    0.65646   0.65877   0.95078
 RFO step:  Lambda=-6.48316709D-02 EMin= 2.30000000D-03
 Linear search not attempted -- first point.
 Maximum step size (   0.300) exceeded in Quadratic search.
    -- Step size scaled by   0.759
 Iteration  1 RMS(Cart)=  0.09715893 RMS(Int)=  0.00231484
 Iteration  2 RMS(Cart)=  0.00542236 RMS(Int)=  0.00088626
 Iteration  3 RMS(Cart)=  0.00001045 RMS(Int)=  0.00088623
 Iteration  4 RMS(Cart)=  0.00000001 RMS(Int)=  0.00088623
 Variable       Old X    -DE/DX   Delta X   Delta X   Delta X     New X
                                 (Linear)    (Quad)   (Total)
    R1        2.88352   0.00102   0.00000   0.00214   0.00214   2.88566
    R2        2.09832  -0.01063   0.00000  -0.02068  -0.02068   2.07764
    R3        2.09938  -0.01008   0.00000  -0.01963  -0.01963   2.07975
    R4        2.09920  -0.01002   0.00000  -0.01951  -0.01951   2.07969
    R5        2.89703  -0.00724   0.00000  -0.01542  -0.01542   2.88160
    R6        2.10115  -0.00963   0.00000  -0.01880  -0.01880   2.08236
    R7        2.10104  -0.00962   0.00000  -0.01877  -0.01877   2.08227
    R8        2.74526   0.00023   0.00000   0.00039   0.00039   2.74565
    R9        2.10229  -0.01022   0.00000  -0.01999  -0.01999   2.08230
   R10        2.10233  -0.01020   0.00000  -0.01995  -0.01995   2.08239
   R11        2.57610  -0.01032   0.00000  -0.01332  -0.01332   2.56278
   R12        1.95071  -0.01443   0.00000  -0.02239  -0.02239   1.92832
   R13        2.30677   0.03532   0.00000   0.02640   0.02640   2.33317
   R14        2.58718   0.00651   0.00000   0.00857   0.00857   2.59575
   R15        2.72027  -0.03695   0.00000  -0.06079  -0.06079   2.65948
   R16        1.95043  -0.01270   0.00000  -0.01969  -0.01969   1.93073
   R17        2.67711  -0.01276   0.00000  -0.01983  -0.01982   2.65729
   R18        2.66292  -0.00491   0.00000  -0.00768  -0.00767   2.65525
   R19        2.64340  -0.00953   0.00000  -0.01374  -0.01375   2.62965
   R20        2.02996   0.00399   0.00000   0.00702   0.00702   2.03697
   R21        2.63954  -0.01275   0.00000  -0.01847  -0.01846   2.62108
   R22        2.04658   0.00214   0.00000   0.00385   0.00385   2.05044
   R23        2.64030  -0.00641   0.00000  -0.00902  -0.00903   2.63128
   R24        2.04497   0.00249   0.00000   0.00448   0.00448   2.04945
   R25        2.63846  -0.00168   0.00000  -0.00210  -0.00212   2.63634
   R26        3.39368  -0.01552   0.00000  -0.03577  -0.03577   3.35792
   R27        2.04602   0.00306   0.00000   0.00551   0.00551   2.05153
   R28        2.90434  -0.03230   0.00000  -0.03400  -0.03400   2.87034
   R29        2.90272  -0.02951   0.00000  -0.03096  -0.03096   2.87176
   R30        3.43238  -0.01809   0.00000  -0.04381  -0.04381   3.38857
   R31        2.02201   0.01680   0.00000   0.02918   0.02918   2.05118
   R32        2.02200   0.01574   0.00000   0.02733   0.02733   2.04933
   R33        2.02201   0.01654   0.00000   0.02873   0.02873   2.05073
    A1        1.91257   0.00283   0.00000   0.01004   0.00999   1.92256
    A2        1.92559   0.00204   0.00000   0.00667   0.00664   1.93223
    A3        1.92600   0.00209   0.00000   0.00681   0.00678   1.93278
    A4        1.89643  -0.00225   0.00000  -0.00712  -0.00716   1.88927
    A5        1.89704  -0.00230   0.00000  -0.00731  -0.00735   1.88969
    A6        1.90572  -0.00256   0.00000  -0.00957  -0.00958   1.89614
    A7        1.94147  -0.00191   0.00000  -0.00380  -0.00378   1.93768
    A8        1.90034   0.00191   0.00000   0.00848   0.00848   1.90882
    A9        1.90183   0.00186   0.00000   0.00811   0.00811   1.90993
   A10        1.91025  -0.00011   0.00000  -0.00208  -0.00207   1.90817
   A11        1.91099  -0.00013   0.00000  -0.00229  -0.00229   1.90870
   A12        1.89844  -0.00162   0.00000  -0.00850  -0.00854   1.88989
   A13        1.93742  -0.00420   0.00000  -0.01004  -0.01002   1.92740
   A14        1.90676   0.00169   0.00000   0.00518   0.00519   1.91195
   A15        1.90450   0.00183   0.00000   0.00589   0.00589   1.91039
   A16        1.90698   0.00149   0.00000   0.00437   0.00439   1.91137
   A17        1.90546   0.00148   0.00000   0.00454   0.00456   1.91002
   A18        1.90240  -0.00228   0.00000  -0.01005  -0.01006   1.89235
   A19        2.12694  -0.00396   0.00000  -0.01055  -0.01055   2.11639
   A20        2.07760  -0.00000   0.00000  -0.00141  -0.00141   2.07619
   A21        2.07864   0.00396   0.00000   0.01196   0.01196   2.09060
   A22        2.08117   0.01594   0.00000   0.03843   0.03843   2.11960
   A23        2.08475  -0.02659   0.00000  -0.06410  -0.06410   2.02065
   A24        2.11726   0.01065   0.00000   0.02568   0.02568   2.14294
   A25        2.23301  -0.00180   0.00000  -0.00481  -0.00481   2.22820
   A26        2.02771   0.00517   0.00000   0.01681   0.01681   2.04452
   A27        2.02245  -0.00336   0.00000  -0.01200  -0.01200   2.01045
   A28        2.17375  -0.00172   0.00000  -0.00406  -0.00407   2.16968
   A29        2.05335  -0.00831   0.00000  -0.01997  -0.01997   2.03337
   A30        2.05608   0.01003   0.00000   0.02403   0.02405   2.08013
   A31        2.10524  -0.00598   0.00000  -0.01533  -0.01533   2.08991
   A32        2.15600  -0.00342   0.00000  -0.01399  -0.01399   2.14201
   A33        2.02194   0.00941   0.00000   0.02932   0.02932   2.05127
   A34        2.11704  -0.00113   0.00000  -0.00288  -0.00286   2.11418
   A35        2.09861  -0.00022   0.00000  -0.00122  -0.00123   2.09738
   A36        2.06753   0.00135   0.00000   0.00409   0.00408   2.07162
   A37        2.09754  -0.00859   0.00000  -0.02175  -0.02176   2.07578
   A38        2.08198   0.00415   0.00000   0.01038   0.01038   2.09236
   A39        2.10367   0.00444   0.00000   0.01137   0.01137   2.11504
   A40        2.08559   0.01008   0.00000   0.02602   0.02600   2.11158
   A41        2.11066  -0.01350   0.00000  -0.03341  -0.03340   2.07726
   A42        2.08694   0.00342   0.00000   0.00738   0.00738   2.09432
   A43        2.10488  -0.00439   0.00000  -0.01008  -0.01010   2.09478
   A44        2.08409  -0.00035   0.00000  -0.00356  -0.00355   2.08054
   A45        2.09421   0.00474   0.00000   0.01364   0.01365   2.10786
   A46        1.88006   0.00838   0.00000   0.00929   0.00423   1.88429
   A47        1.87225   0.01321   0.00000   0.02253   0.01688   1.88913
   A48        2.17966  -0.04088   0.00000  -0.13770  -0.14333   2.03632
   A49        1.72731   0.02899   0.00000   0.17787   0.17658   1.90388
   A50        1.86890   0.00552   0.00000   0.00794   0.00382   1.87272
   A51        1.88310   0.00087   0.00000  -0.00467  -0.00843   1.87467
   A52        1.91063   0.00000   0.00000   0.00145   0.00122   1.91185
   A53        1.91064  -0.02075   0.00000  -0.07285  -0.07337   1.83727
   A54        1.91063  -0.00080   0.00000  -0.00136  -0.00163   1.90900
   A55        1.91064   0.00920   0.00000   0.02836   0.02787   1.93851
   A56        1.91064   0.00284   0.00000   0.01515   0.01512   1.92576
   A57        1.91063   0.00951   0.00000   0.02924   0.02865   1.93928
    D1        3.14039   0.00004   0.00000   0.00034   0.00034   3.14073
    D2        1.03387   0.00012   0.00000  -0.00025  -0.00024   1.03363
    D3       -1.03437  -0.00011   0.00000   0.00041   0.00040  -1.03397
    D4        1.05304  -0.00023   0.00000  -0.00132  -0.00133   1.05171
    D5       -1.05348  -0.00015   0.00000  -0.00191  -0.00191  -1.05539
    D6       -3.12172  -0.00037   0.00000  -0.00125  -0.00126  -3.12299
    D7       -1.05444   0.00028   0.00000   0.00186   0.00186  -1.05257
    D8        3.12222   0.00036   0.00000   0.00127   0.00129   3.12351
    D9        1.05399   0.00014   0.00000   0.00193   0.00193   1.05592
   D10       -3.13683  -0.00005   0.00000  -0.00033  -0.00032  -3.13715
   D11        1.04225  -0.00035   0.00000  -0.00280  -0.00279   1.03945
   D12       -1.03609   0.00034   0.00000   0.00284   0.00283  -1.03326
   D13       -1.03614   0.00105   0.00000   0.00648   0.00647  -1.02967
   D14       -3.14025   0.00075   0.00000   0.00400   0.00400  -3.13625
   D15        1.06460   0.00144   0.00000   0.00964   0.00963   1.07422
   D16        1.04333  -0.00106   0.00000  -0.00652  -0.00651   1.03681
   D17       -1.06078  -0.00136   0.00000  -0.00899  -0.00898  -1.06976
   D18       -3.13912  -0.00068   0.00000  -0.00336  -0.00336   3.14071
   D19        3.13512   0.00008   0.00000   0.00059   0.00059   3.13572
   D20       -0.00243   0.00010   0.00000   0.00081   0.00081  -0.00162
   D21       -1.04408   0.00050   0.00000   0.00355   0.00354  -1.04054
   D22        2.10154   0.00052   0.00000   0.00376   0.00376   2.10530
   D23        1.03496  -0.00051   0.00000  -0.00336  -0.00336   1.03160
   D24       -2.10260  -0.00049   0.00000  -0.00315  -0.00314  -2.10574
   D25        0.00255   0.00014   0.00000   0.00123   0.00123   0.00378
   D26       -3.13550  -0.00007   0.00000  -0.00062  -0.00062  -3.13612
   D27        3.14011   0.00011   0.00000   0.00098   0.00098   3.14109
   D28        0.00206  -0.00010   0.00000  -0.00086  -0.00087   0.00119
   D29        3.13478   0.00014   0.00000   0.00122   0.00122   3.13600
   D30       -0.00043   0.00018   0.00000   0.00158   0.00157   0.00114
   D31       -0.00320  -0.00008   0.00000  -0.00069  -0.00068  -0.00388
   D32       -3.13841  -0.00004   0.00000  -0.00033  -0.00033  -3.13874
   D33        0.01363   0.00005   0.00000   0.00058   0.00061   0.01424
   D34       -3.12659   0.00017   0.00000   0.00168   0.00166  -3.12494
   D35       -3.13432   0.00003   0.00000   0.00032   0.00034  -3.13398
   D36        0.00864   0.00015   0.00000   0.00142   0.00140   0.01003
   D37       -3.13835   0.00007   0.00000   0.00069   0.00067  -3.13769
   D38        0.00327   0.00005   0.00000   0.00049   0.00051   0.00378
   D39        0.00187  -0.00006   0.00000  -0.00044  -0.00044   0.00143
   D40       -3.13969  -0.00008   0.00000  -0.00064  -0.00060  -3.14029
   D41        3.13804  -0.00029   0.00000  -0.00260  -0.00262   3.13542
   D42       -0.00204  -0.00004   0.00000  -0.00038  -0.00040  -0.00245
   D43       -0.00228  -0.00017   0.00000  -0.00155  -0.00160  -0.00388
   D44        3.14082   0.00008   0.00000   0.00066   0.00061   3.14143
   D45        0.00066  -0.00022   0.00000  -0.00185  -0.00177  -0.00111
   D46        3.14120   0.00013   0.00000   0.00118   0.00125  -3.14074
   D47       -3.14097  -0.00020   0.00000  -0.00167  -0.00162   3.14060
   D48       -0.00043   0.00015   0.00000   0.00136   0.00139   0.00096
   D49        0.00016   0.00067   0.00000   0.00581   0.00574   0.00591
   D50       -3.14147   0.00021   0.00000   0.00179   0.00177  -3.13970
   D51        3.14027   0.00042   0.00000   0.00362   0.00356  -3.13936
   D52       -0.00136  -0.00004   0.00000  -0.00039  -0.00041  -0.00178
   D53        0.00242  -0.00093   0.00000  -0.00799  -0.00798  -0.00556
   D54       -3.14053  -0.00161   0.00000  -0.01444  -0.01439   3.12827
   D55       -3.13914  -0.00047   0.00000  -0.00392  -0.00395   3.14010
   D56        0.00110  -0.00114   0.00000  -0.01037  -0.01037  -0.00926
   D57       -0.00282   0.00071   0.00000   0.00603   0.00604   0.00321
   D58        3.13983   0.00036   0.00000   0.00300   0.00299  -3.14037
   D59        3.14010   0.00138   0.00000   0.01243   0.01254  -3.13054
[...]
 094,-0.00028129,-0.00014307,0.00001191,-0.00086942,-0.00021266,0.00019
 353,0.00036038,0.00063171,-0.00027871,-0.03069027,-0.36370794,-0.19588
 384,-0.00012959,-0.02538345,-0.02032414,0.03719559,0.40374166,-0.00000
 382,-0.00001112,-0.00000177,-0.00000685,0.00002478,0.00000446,0.000060
 35,-0.00004128,-0.00002336,-0.00032486,-0.00007760,0.00001341,0.000745
 31,-0.00050318,-0.00011688,-0.00018718,0.00024736,0.00006825,-0.001230
 98,-0.00004406,0.00004183,0.00084233,0.00074515,0.00015177,-0.00091936
 ,-0.00007594,-0.00000863,0.00022069,-0.00115084,-0.00066685,-0.0041985
 8,0.00066897,0.00091034,0.00429561,-0.00851476,0.00396639,0.00138403,-
 0.00109163,0.00019213,-0.00000549,0.00000149,0.00000002,-0.00000016,0.
 00000012,-0.00000018,-0.00000079,0.00000098,0.00000136,0.00000081,-0.0
 0000160,-0.00000022,0.00000058,-0.00000293,0.00000079,-0.00001857,0.00
 000622,0.00000502,-0.00002299,0.00000846,-0.00000261,0.00000459,0.0000
 3288,-0.00000402,-0.00000976,0.00007584,-0.00001814,-0.00012448,-0.000
 07443,-0.00004586,-0.00045788,-0.00006505,-0.00011781,0.00003784,0.000
 16864,0.00019973,-0.01847869,-0.19618989,-0.20842062,-0.00430165,0.006
 66093,0.01371060,0.02704578,0.23117161,0.20866191,-0.00000303,-0.00000
 830,-0.00000051,-0.00000712,0.00001799,0.00000108,0.00003900,-0.000039
 47,-0.00001412,-0.00021157,0.00000109,0.00000887,0.00053086,-0.0003119
 1,-0.00007689,-0.00009696,0.00019572,0.00004324,-0.00006179,-0.0016007
 6,-0.00025864,-0.00502777,-0.00048658,-0.00015267,-0.00318119,-0.02867
 877,-0.00423805,-0.00095401,0.00008255,0.00006058,-0.00373679,0.002962
 10,0.00039597,0.01015362,0.02042134,0.00312132,-0.07597304,-0.06828471
 ,-0.01017647,-0.00000360,0.00000111,0.00000009,-0.00000032,0.00000052,
 -0.00000036,-0.00000028,0.00000041,0.00000045,0.00000023,-0.00000125,-
 0.00000061,0.00000031,-0.00000130,0.00000031,-0.00000958,0.00000522,0.
 00000305,-0.00001247,0.00000720,-0.00000201,0.00001700,0.00002789,0.00
 000711,-0.00041359,-0.00003727,0.00000682,0.00149101,0.00040360,0.0000
 9572,0.00014894,-0.00007260,-0.00002298,0.00057603,0.00108995,0.000196
 05,-0.00106081,0.00188377,0.00051401,0.00051402,-0.00038830,-0.0000324
 4,-0.00023544,-0.00042384,0.00007753,0.07744329,-0.00000139,-0.0000042
 0,-0.00000085,-0.00000303,0.00000955,0.00000132,0.00002257,-0.00001913
 ,-0.00000829,-0.00011746,-0.00002267,0.00000644,0.00028523,-0.00018276
 ,-0.00004811,-0.00005545,0.00009352,0.00001265,-0.00027691,-0.00014683
 ,0.00000026,-0.00009389,0.00168269,-0.00105421,-0.00014418,-0.00170292
 ,-0.00117324,0.00003155,0.00057456,0.00026984,0.00359380,-0.00055562,-
 0.00104273,-0.00507015,-0.01493957,-0.00295923,-0.06874069,-0.32820534
 ,-0.04394243,-0.00000212,0.00000043,0.00000004,-0.00000022,0.00000037,
 -0.00000026,-0.00000017,0.00000039,0.00000044,0.00000017,-0.00000074,-
 0.00000051,0.00000024,-0.00000089,0.00000037,-0.00000668,0.00000201,0.
 00000130,-0.00000849,0.00000388,-0.00000107,0.00000268,0.00001139,0.00
 000332,-0.00003963,0.00004126,0.00005465,0.00015244,0.00058861,0.00090
 204,-0.00007356,-0.00006744,0.00010704,-0.00041850,-0.00056713,-0.0001
 6650,-0.00115454,-0.00250676,-0.00024552,0.00024667,0.00043390,-0.0000
 5273,-0.00164801,0.00110200,0.00027402,0.07332964,0.34436611,0.0000000
 4,0.00000020,-0.00000002,-0.00000023,-0.00000059,-0.00000036,-0.000003
 04,-0.00000095,0.00001221,0.00000614,0.00000871,-0.00001785,-0.0000006
 6,-0.00001826,0.00007675,0.00003985,-0.00000175,0.00006528,0.00007062,
 0.00007257,-0.00007648,-0.00000458,-0.00092238,0.00769618,0.00000450,-
 0.00071884,0.00499316,0.00012066,0.00017942,-0.00106155,0.00041506,-0.
 00097637,0.00566505,-0.00084995,-0.00303588,0.00324930,-0.01026119,-0.
 04485398,-0.04685155,0.00000010,-0.00000007,-0.00000005,-0.00000014,0.
 00000022,-0.00000012,0.00000017,-0.00000016,-0.00000014,-0.00000007,-0
 .00000008,-0.00000025,0.00000022,0.00000048,-0.00000013,-0.00000044,0.
 00000130,0.00000035,0.00000087,-0.00000154,0.00000006,0.00000067,0.000
 00392,-0.00001320,0.00000730,0.00004838,-0.00025576,-0.00005387,0.0008
 2770,-0.00467843,-0.00001484,0.00009478,-0.00067905,-0.00004233,-0.000
 15744,0.00049056,0.00053998,0.00016353,-0.00325742,-0.00048918,0.00010
 658,0.00024786,-0.00061665,-0.00021112,-0.00015855,0.01059729,0.049084
 06,0.03457842,-0.00001257,-0.00003178,-0.00000587,-0.00001844,0.000075
 08,0.00001177,0.00018600,-0.00011575,-0.00005917,-0.00099582,-0.000256
 74,0.00003257,0.00244526,-0.00170710,-0.00038254,-0.00039181,0.0008494
 6,0.00021699,-0.00433327,-0.00031857,0.00015502,0.00320475,0.00100325,
 0.00037238,-0.00166250,-0.00128069,-0.00163576,-0.00229417,0.00057077,
 -0.00132724,-0.00048180,0.00308159,0.00211809,-0.00674894,-0.00707101,
 0.01985212,0.00196160,-0.00299586,0.00083443,-0.00001617,0.00000386,0.
 00000022,-0.00000140,0.00000186,-0.00000089,-0.00000077,0.00000197,0.0
 0000178,0.00000159,-0.00000571,-0.00000342,0.00000079,-0.00000669,0.00
 000234,-0.00005775,0.00001709,0.00001060,-0.00007758,0.00002418,-0.000
 00626,0.00001088,0.00011096,-0.00000699,-0.00008681,0.00024159,-0.0000
 0024,-0.00015028,-0.00002679,-0.00014696,-0.00030167,-0.00011891,-0.00
 017617,0.00005669,-0.00025738,0.00052230,-0.07286005,-0.00852448,0.031
 35401,0.00459008,0.01649306,-0.02160227,0.00928026,-0.00323422,-0.0076
 9392,-0.00000871,0.00008682,0.00061898,0.58238206,-0.00000337,-0.00000
 820,-0.00000090,-0.00000514,0.00001933,0.00000196,0.00004643,-0.000027
 50,-0.00002026,-0.00024855,-0.00006150,0.00000686,0.00060775,-0.000426
 63,-0.00005614,-0.00011263,0.00019950,0.00005970,-0.00107526,-0.000094
 92,0.00003239,0.00077338,0.00032091,0.00009859,-0.00054448,-0.00000106
 ,-0.00044538,-0.00062049,0.00044983,-0.00033301,0.00108731,0.00072280,
 0.00031912,-0.00351617,0.00506466,0.00571451,-0.00060352,-0.00164482,0
 .00071351,-0.00000408,0.00000103,0.,-0.00000037,0.00000039,-0.00000023
 ,-0.00000032,0.00000046,0.00000052,0.00000080,-0.00000163,-0.00000061,
 0.00000019,-0.00000165,0.00000029,-0.00001464,0.00000445,0.00000278,-0
 .00001899,0.00000607,-0.00000140,0.00000253,0.00002752,-0.00000117,-0.
 00002460,0.00005955,0.00000248,-0.00009303,-0.00004387,-0.00010307,0.0
 0001053,-0.00003179,-0.00000021,0.00005085,-0.00000495,0.00013422,-0.0
 0644657,-0.06610706,0.02443629,0.00291607,-0.00892973,0.02594713,0.004
 22413,-0.00391423,-0.03436523,-0.00001667,0.00003804,0.00013733,-0.016
 71097,0.59756027,-0.00000138,-0.00000522,-0.00000028,-0.00000280,0.000
 01458,0.00000178,0.00003775,-0.00002345,-0.00001771,-0.00018536,-0.000
 04401,0.00000560,0.00046819,-0.00034203,-0.00003229,-0.00006236,0.0001
 6232,0.00004265,-0.00081500,-0.00006909,0.00001511,0.00057656,0.000231
 87,-0.00003257,-0.00027591,-0.00025779,-0.00032585,-0.00044044,0.00025
 598,-0.00018300,0.00056124,0.00043406,-0.00068879,-0.00170901,-0.00034
 915,0.00631147,0.00030863,-0.00012150,-0.00061275,-0.00000307,0.000000
 63,0.,-0.00000036,0.00000036,-0.00000035,-0.00000018,0.00000047,0.0000
 0047,0.00000042,-0.00000116,-0.00000068,0.00000014,-0.00000135,0.00000
 053,-0.00001004,0.00000385,0.00000257,-0.00001536,0.00000443,-0.000001
 54,0.00000161,0.00002038,-0.00000296,-0.00002239,0.00004502,-0.0000042
 2,-0.00004558,-0.00000714,-0.00000693,-0.00003429,-0.00003732,0.000009
 39,-0.00009722,-0.00015442,0.00019108,0.01929033,0.02104341,-0.1566510
 8,0.00365840,-0.00000421,-0.00285943,0.00357550,0.00182254,-0.01299004
 ,-0.00014561,0.00002723,0.00022092,0.05081391,0.04644985,0.41885240,0.
 00000055,0.00000144,-0.00000051,0.00000087,-0.00000215,-0.00000087,-0.
 00000485,0.00000092,0.00001081,0.00002228,0.00000729,-0.00000754,-0.00
 005582,0.00004707,-0.00001408,0.00000791,-0.00002188,-0.00000513,0.000
 10160,0.00000336,-0.00000149,-0.00005624,-0.00000900,0.00007402,0.0000
 3674,-0.00001172,0.00006893,0.00004449,-0.00010780,0.00000690,-0.00032
 931,-0.00006468,0.00005648,0.00004639,-0.00034244,-0.00024799,0.000033
 29,0.00014829,-0.00008784,0.00000041,-0.00000004,0.00000003,0.00000005
 ,0.00000001,0.00000002,0.00000004,-0.00000016,-0.00000015,-0.00000036,
 -0.00000013,0.00000007,0.00000025,0.00000026,-0.00000008,0.00000118,-0
 .00000058,-0.00000021,0.00000170,-0.00000015,0.00000005,-0.00000018,-0
 .00000309,0.00000047,-0.00000008,-0.00000553,0.00000047,0.00000434,0.0
 0000006,0.00000297,-0.00001005,0.00000211,-0.00001015,0.00002973,-0.00
 004539,-0.00001474,-0.00177541,0.00732362,0.00376109,-0.00020743,-0.00
 010041,-0.00082351,0.00110049,0.00064594,0.00358368,0.00004141,-0.0000
 0485,-0.00003266,-0.05193599,-0.03511121,-0.02437729,0.05076441,-0.000
 00044,-0.00000041,0.00000003,-0.00000032,0.00000108,0.00000058,0.00000
 432,-0.00000310,-0.00000358,-0.00002323,-0.00000915,0.00000421,0.00005
 086,-0.00002536,-0.00000071,-0.00000938,0.00001481,0.00000479,-0.00007
 623,-0.00001227,-0.00000764,0.00003398,0.00012501,-0.00002604,-0.00009
 248,-0.00008494,0.00000352,0.00006206,-0.00007570,0.00003559,-0.000310
 69,0.00014547,0.00009317,0.00007073,-0.00021267,-0.00011036,0.00025045
 ,-0.00012437,-0.00001751,-0.00000022,0.00000020,0.00000005,-0.00000002
 ,-0.00000012,0.00000015,0.00000004,0.,-0.00000008,-0.00000006,0.000000
 09,0.00000007,-0.00000012,-0.00000010,0.00000004,-0.00000100,0.0000003
 7,0.00000012,-0.00000155,0.00000044,0.00000006,0.00000043,0.00000195,-
 0.00000026,-0.00000413,0.00000461,0.00000157,-0.00000188,-0.00000329,-
 0.00000138,-0.00001839,-0.00000344,-0.00001018,0.00008561,-0.00001387,
 -0.00006180,0.00256712,0.00554236,0.00375256,-0.00024776,-0.00004153,0
 .00044607,-0.00068721,0.00200924,0.00407438,0.00000714,0.00000349,-0.0
 0000587,-0.03486921,-0.24357946,-0.13439768,0.03749069,0.25544529,-0.0
 0000115,-0.00000215,-0.00000013,-0.00000123,0.00000432,0.00000055,0.00
 001012,-0.00000511,-0.00000542,-0.00005674,-0.00001581,0.00000212,0.00
 013532,-0.00009628,-0.00002268,-0.00002124,0.00004391,0.00001195,-0.00
 023713,-0.00003061,0.00000549,0.00008887,0.00030142,0.00004329,-0.0003
 1155,-0.00018259,-0.00014078,0.00010615,0.00014590,-0.00001297,0.00040
 928,0.00007152,0.00002281,-0.00066523,0.00154838,0.00094165,0.00021975
 ,-0.00024251,0.00022373,-0.00000079,0.00000032,0.00000001,-0.00000004,
 0.,0.00000008,-0.00000002,0.00000008,0.00000005,0.00000020,-0.00000022
 ,0.00000005,-0.00000011,-0.00000035,0.00000002,-0.00000345,0.00000098,
 0.00000058,-0.00000415,0.00000138,-0.00000028,0.00000027,0.00000681,-0
 .00000010,-0.00000591,0.00001164,0.00000375,-0.00000820,-0.00000407,-0
 .00002992,0.00002251,-0.00000738,0.00000674,0.00000612,0.00008517,-0.0
 0005417,-0.00512994,-0.02361677,-0.01495226,0.00093872,0.00173032,0.00
 247928,0.00174792,-0.00188019,-0.00854629,-0.00002714,0.00000821,0.000
 04953,-0.02410586,-0.13206902,-0.13548033,0.02430240,0.14224101,0.1451
 1787,-0.00000022,-0.00000138,-0.00000052,-0.00000080,0.00000275,0.0000
 0084,0.00000546,-0.00000349,-0.00000025,-0.00003188,-0.00000615,0.0000
 0415,0.00008251,-0.00005564,-0.00001592,-0.00001496,0.00002790,0.00000
 777,-0.00015839,-0.00000823,-0.00000155,0.00018256,-0.00005878,-0.0000
 2496,-0.00002179,-0.00000238,-0.00003438,-0.00024150,0.00001297,-0.000
 04147,0.00022983,0.00032167,0.00020474,-0.00004839,-0.00043382,0.00062
 374,0.00027563,-0.00016966,0.00009802,-0.00000075,0.,0.,-0.00000007,0.
 00000022,-0.00000019,-0.00000016,0.00000015,0.00000026,0.00000013,-0.0
 0000027,-0.00000039,0.00000003,-0.00000040,0.00000014,-0.00000211,0.00
 000065,0.00000038,-0.00000284,0.00000057,-0.00000023,0.00000071,0.0000
 0367,-0.00000033,-0.00000083,0.00001012,-0.00000125,-0.00000471,-0.000
 00241,-0.00000889,-0.00001378,0.00000216,-0.00002156,0.00000291,-0.000
 02773,0.00000975,-0.00790679,-0.00172476,0.00066652,0.00105033,0.00009
 876,-0.00027970,0.00095131,0.00062617,-0.00006919,-0.00000216,0.000033
 34,-0.00001675,-0.31377451,-0.07556335,0.00052881,-0.00079924,0.000620
 79,-0.00004308,0.33297518,-0.00000074,-0.00000209,-0.00000035,-0.00000
 127,0.00000507,0.00000093,0.00001242,-0.00000778,-0.00000394,-0.000065
 32,-0.00001947,0.00000033,0.00015812,-0.00010262,-0.00002312,-0.000025
 12,0.00004746,0.00001366,-0.00026514,-0.00005116,0.00001133,0.00011105
 ,0.00045663,0.00005954,-0.00044892,-0.00028039,-0.00016696,0.00020400,
 0.00001046,-0.00004730,-0.00009910,0.00008624,0.00002973,-0.00057638,0
 .00077175,0.00127274,0.00038633,-0.00026388,0.00008362,-0.00000111,0.0
 0000022,0.00000001,-0.00000010,0.00000017,-0.00000008,-0.00000007,0.00
 000014,0.00000011,0.00000003,-0.00000041,-0.00000033,0.00000010,-0.000
 00045,0.00000015,-0.00000370,0.00000111,0.00000074,-0.00000510,0.00000
 164,-0.00000042,0.00000055,0.00000750,-0.00000025,-0.00000861,0.000013
 79,0.00000478,-0.00001550,-0.00000782,-0.00003671,-0.00001224,-0.00001
 443,0.00001062,0.00002047,-0.00000852,-0.00002489,-0.00700483,-0.00428
 667,0.00023415,0.00094458,0.00005520,-0.00006896,0.00065183,-0.0000234
 4,-0.00059348,-0.00001477,-0.00001573,0.00010611,-0.07553142,-0.067088
 89,-0.00002413,-0.02292449,-0.00470547,0.00287849,0.08215790,0.0665673
 6,0.00000397,0.00001021,0.00000153,0.00000589,-0.00002456,-0.00000332,
 -0.00005982,0.00003703,0.00001880,0.00032012,0.00008088,-0.00000246,-0
 .00079177,0.00055534,0.00011102,0.00013303,-0.00027372,-0.00006935,0.0
 0140010,0.00010093,-0.00005797,-0.00106763,-0.00027666,-0.00013412,0.0
 0052543,0.00034398,0.00050647,0.00081747,-0.00018091,0.00041131,0.0000
 5043,-0.00092755,-0.00040633,0.00147176,0.00144589,-0.00526880,-0.0004
 2773,0.00088390,-0.00006931,0.00000527,-0.00000127,-0.00000011,0.00000
 048,-0.00000064,0.00000035,0.00000027,-0.00000054,-0.00000049,-0.00000
 034,0.00000204,0.00000116,-0.00000066,0.00000201,-0.00000065,0.0000184
 1,-0.00000531,-0.00000340,0.00002546,-0.00000800,0.00000205,-0.0000033
 7,-0.00003555,0.00000086,0.00002810,-0.00007731,-0.00000158,0.00006189
 ,0.00001771,0.00004511,0.00010504,0.00004092,0.00005248,-0.00001232,0.
 00005702,-0.00022310,0.03252852,0.00916687,-0.00313097,-0.00250249,-0.
 00175537,0.00139855,-0.00293253,-0.00031273,0.00162933,-0.00000783,-0.
 00000062,-0.00022609,0.00037936,0.00004821,-0.04489208,-0.01810019,-0.
 00299268,0.00215490,-0.00257827,-0.00137797,0.04757367,-0.00000030,-0.
 00000034,0.00000168,-0.00000013,0.00000004,-0.00000164,-0.00000086,0.0
 0000362,-0.00000927,0.00000120,0.00000066,-0.00000288,0.00000353,-0.00
 001398,0.00003390,-0.00000663,0.00000092,-0.00000041,-0.00000374,0.000
 01310,-0.00000219,0.00004845,-0.00008154,-0.00003890,0.00000578,0.0001
 3235,0.00004572,-0.00008544,0.00000913,0.00008776,0.00016242,0.0001012
 2,-0.00007323,-0.00009090,0.00028281,-0.00004033,-0.00035778,-0.000296
 51,0.00011131,0.00000012,0.00000011,0.00000005,-0.00000008,-0.00000010
 ,0.00000008,0.00000009,-0.00000012,-0.00000021,-0.00000009,-0.00000002
 ,0.00000018,0.00000024,0.00000027,-0.00000015,0.00000039,-0.00000017,-
 0.00000019,-0.00000036,0.00000008,-0.00000028,-0.00000017,-0.00000022,
 0.00000041,0.00000160,0.00000011,-0.00000121,-0.00001432,-0.00000660,-
 0.00001317,-0.00000136,0.00000023,-0.00000140,0.00002726,0.00002731,-0
 .00001845,0.00303296,-0.00710670,0.00145293,0.00172718,-0.00214470,0.0
 0387712,-0.00017297,-0.00005093,-0.00024393,0.00004451,0.00007476,-0.0
 0003589,-0.14790893,0.13101443,-0.05157784,0.00293683,-0.00489988,0.00
 263532,-0.01273071,0.02235657,-0.00939605,0.15338219,0.00000094,0.0000
 0146,0.00000062,0.00000098,-0.00000334,-0.00000146,-0.00000857,0.00000
 612,0.00000349,0.00004632,0.00001173,-0.00000699,-0.00011235,0.0000753
 5,0.00001354,0.00002033,-0.00004087,-0.00001057,0.00019810,0.00000290,
 0.00000267,-0.00016342,0.00009873,0.00006577,-0.00007854,-0.00000589,0
 .00000487,0.00022839,-0.00002372,0.00003453,-0.00008816,-0.00028467,-0
 .00016992,-0.00012600,0.00054269,-0.00014437,-0.00011668,0.00013682,-0
 .00001428,0.00000061,-0.00000028,-0.00000001,0.00000007,0.00000014,-0.
 00000011,0.00000003,-0.00000005,-0.00000008,-0.00000025,0.00000015,-0.
 00000002,0.00000014,0.00000039,0.00000002,0.00000263,-0.00000077,-0.00
 000056,0.00000320,-0.00000082,0.00000021,-0.00000071,-0.00000523,0.000
 00023,0.00000284,-0.00001159,0.00000200,-0.00000076,-0.00000247,0.0000
 0002,0.00001430,0.00000154,0.00000988,0.00001489,0.00002407,-0.0000164
 4,0.00226570,-0.00682794,0.00135752,0.00022398,0.00055187,0.00133951,-
 0.00056632,0.00081799,-0.00135881,-0.00007073,-0.00001448,0.00006999,0
 .13050171,-0.21250694,0.06532269,0.01308465,-0.01439918,0.00907320,-0.
 00586136,0.00885448,-0.00454155,-0.13941594,0.22300178,-0.00000056,-0.
 00000096,-0.00000092,-0.00000071,0.00000264,0.00000017,0.00000658,-0.0
 0000570,0.00000380,-0.00003906,-0.00000796,-0.00000068,0.00009463,-0.0
 0006488,-0.00003072,-0.00001049,0.00003698,0.00000761,-0.00018134,-0.0
 0000566,0.00000884,0.00016956,-0.00017633,0.00001067,0.00016515,-0.000
 07014,-0.00002477,-0.00029490,0.00003194,-0.00011103,0.00002949,0.0001
 3000,0.00027864,0.00022797,-0.00182458,0.00030293,0.00041988,0.0002495
 3,-0.00002772,-0.00000057,0.00000016,0.00000002,0.00000004,0.00000005,
 0.00000009,-0.00000006,0.00000004,0.,-0.00000003,-0.00000020,-0.000000
 05,0.00000006,-0.00000031,0.00000013,-0.00000265,0.00000063,0.00000024
 ,-0.00000256,0.00000083,0.00000010,0.00000070,0.00000428,-0.00000058,-
 0.00000289,0.00001120,-0.00000241,0.00002116,0.00001640,0.00001241,-0.
 00001204,0.00000250,-0.00002744,-0.00001258,-0.00003339,0.00002935,-0.
 01806559,0.02072456,-0.00760010,-0.00027490,0.00564290,-0.00776064,0.0
 0182123,-0.00150253,0.00156448,0.00002682,-0.00005692,-0.00006863,-0.0
 5014329,0.06329090,-0.07087112,0.01185602,-0.01302219,0.00818088,0.000
 99378,-0.00233819,0.00058254,0.05321116,-0.07103561,0.07554390\\-0.000
 00046,0.00000466,-0.00000788,-0.00000176,0.00000432,-0.00000049,0.0000
 0076,0.00000388,-0.00000863,0.00000129,0.00000516,0.00000573,-0.000004
 01,-0.00000183,-0.00000090,-0.00000057,0.00000706,-0.00001512,0.000001
 46,0.00000475,-0.00000024,-0.00000172,-0.00000129,0.00001174,-0.000000
 65,0.00000238,-0.00000561,-0.00000024,-0.00000204,0.00001155,-0.000002
 05,-0.00000020,0.00001160,0.00000307,-0.00000099,0.00000550,0.00000137
 ,0.00000126,-0.00000616,-0.00000137,0.00000460,-0.00000370,0.00000137,
 -0.00000080,-0.00001403,-0.00000218,0.00001300,-0.00001195,0.00000045,
 -0.00000430,0.00000389,-0.00000272,0.00000971,0.00000614,-0.00000227,0
 .00001166,-0.00001035,0.00000174,-0.00000122,-0.00001291,-0.00000078,0
 .00000027,0.00000905,-0.00000131,-0.00000017,0.00001145,0.00000033,0.0
 0000331,-0.00001447,-0.00000051,-0.00000199,0.00002039,-0.00000067,-0.
 00000364,0.00002117,0.00000073,-0.00000252,-0.00000357,-0.00000403,0.0
 0000374,0.00001506,-0.00000123,0.00000620,-0.00000245,0.00000081,0.000
 00318,-0.00001429,0.00000148,-0.00001739,0.00000050,0.00000509,-0.0000
 1883,0.00000638,0.00000297,-0.00001554,-0.00000089,0.00000561,-0.00001
 640,-0.00000651\\\@


 NEVER LISTEN TO CRITICISM
 OR YOU'LL BE DOIN' EVERYBODY ELSE'S THING BUT BUT YOUR OWN.

                                               -- ANDY CAPP
 Job cpu time:       0 days  3 hours  9 minutes 12.6 seconds.
 File lengths (MBytes):  RWF=    578 Int=      0 D2E=      0 Chk=     21 Scr=      1
 Normal termination of Gaussian 09 at Tue Oct 30 12:45:25 2018.
WARNING: pbs_rusage is deprecated and values produced may not be accurate


=============================================================================
                                     Resource usage:
                                       CPU time:              10:09:06
   JobId:    1828129.r-man2            Elapsed time:          02:33:14
   Project:             q95            Requested time:        34:00:00
   Service Units:     10.22 
                                       Max physical memory:      696MB
                                       Max virtual memory:      1481MB
                                       Requested memory:           0MB

                                       Number of cpus:               4

                                       Max jobfs disk use:       0.6GB
                                       Requested jobfs:         16.0GB
=============================================================================

