 Entering Gaussian System, Link 0=/apps/gaussian/g09e01/g09/g09
 AtFile(1): /home/507/hio507/Basis/6-31pGd.gbs
 Initial command:
 /apps/gaussian/g09e01/g09/l1.exe "/jobfs/local/5875926.r-man2/Gau-31385.inp" -scrdir="/jobfs/local/5875926.r-man2/"
 Entering Link 1 = /apps/gaussian/g09e01/g09/l1.exe PID=     31403.
  
 Copyright (c) 1988,1990,1992,1993,1995,1998,2003,2009,2015,
            Gaussian, Inc.  All Rights Reserved.
  
 This is part of the Gaussian(R) 09 program.  It is based on
 the Gaussian(R) 03 system (copyright 2003, Gaussian, Inc.),
 the Gaussian(R) 98 system (copyright 1998, Gaussian, Inc.),
 the Gaussian(R) 94 system (copyright 1995, Gaussian, Inc.),
 the Gaussian 92(TM) system (copyright 1992, Gaussian, Inc.),
 the Gaussian 90(TM) system (copyright 1990, Gaussian, Inc.),
 the Gaussian 88(TM) system (copyright 1988, Gaussian, Inc.),
 the Gaussian 86(TM) system (copyright 1986, Carnegie Mellon
 University), and the Gaussian 82(TM) system (copyright 1983,
 Carnegie Mellon University). Gaussian is a federally registered
 trademark of Gaussian, Inc.
  
 This software contains proprietary and confidential information,
 including trade secrets, belonging to Gaussian, Inc.
  
 This software is provided under written license and may be
 used, copied, transmitted, or stored only in accord with that
 written license.
  
 The following legend is applicable only to US Government
 contracts under FAR:
  
                    RESTRICTED RIGHTS LEGEND
  
 Use, reproduction and disclosure by the US Government is
 subject to restrictions as set forth in subparagraphs (a)
 and (c) of the Commercial Computer Software - Restricted
 Rights clause in FAR 52.227-19.
  
 Gaussian, Inc.
 340 Quinnipiac St., Bldg. 40, Wallingford CT 06492
  
  
 ---------------------------------------------------------------
 Warning -- This program may not be used in any manner that
 competes with the business of Gaussian, Inc. or will provide
 assistance to any competitor of Gaussian, Inc.  The licensee
 of this program is prohibited from giving any competitor of
 Gaussian, Inc. access to this program.  By using this program,
 the user acknowledges that Gaussian, Inc. is engaged in the
 business of creating and licensing software in the field of
 computational chemistry and represents and warrants to the
 licensee that it is not a competitor of Gaussian, Inc. and that
 it will not use this program in any manner prohibited above.
 ---------------------------------------------------------------
  

 Cite this work as:
 Gaussian 09, Revision E.01,
 M. J. Frisch, G. W. Trucks, H. B. Schlegel, G. E. Scuseria, 
 M. A. Robb, J. R. Cheeseman, G. Scalmani, V. Barone, B. Mennucci, 
 G. A. Petersson, H. Nakatsuji, M. Caricato, X. Li, H. P. Hratchian, 
 A. F. Izmaylov, J. Bloino, G. Zheng, J. L. Sonnenberg, M. Hada, 
 M. Ehara, K. Toyota, R. Fukuda, J. Hasegawa, M. Ishida, T. Nakajima, 
 Y. Honda, O. Kitao, H. Nakai, T. Vreven, J. A. Montgomery, Jr., 
 J. E. Peralta, F. Ogliaro, M. Bearpark, J. J. Heyd, E. Brothers, 
 K. N. Kudin, V. N. Staroverov, T. Keith, R. Kobayashi, J. Normand, 
 K. Raghavachari, A. Rendell, J. C. Burant, S. S. Iyengar, J. Tomasi, 
 M. Cossi, N. Rega, J. M. Millam, M. Klene, J. E. Knox, J. B. Cross, 
 V. Bakken, C. Adamo, J. Jaramillo, R. Gomperts, R. E. Stratmann, 
 O. Yazyev, A. J. Austin, R. Cammi, C. Pomelli, J. W. Ochterski, 
 R. L. Martin, K. Morokuma, V. G. Zakrzewski, G. A. Voth, 
 P. Salvador, J. J. Dannenberg, S. Dapprich, A. D. Daniels, 
 O. Farkas, J. B. Foresman, J. V. Ortiz, J. Cioslowski, 
 and D. J. Fox, Gaussian, Inc., Wallingford CT, 2013.
 
 ******************************************
 Gaussian 09:  ES64L-G09RevE.01 30-Nov-2015
                19-Feb-2019 
 ******************************************
 %chk=4SulfOxyMethyl_C2_EtO.M062X_6-31pGd_opt_water.chk
 %mem=196608000
 %nproc=8
 Will use up to    8 processors via shared memory.
 ----------------------------------------------------------------------
 # M062X/Gen 6D SCF=Tight INT(grid=ultrafine) OPT IOP(2/17=4) SCRF=(SMD
 ,Solvent=h2o) maxdisk=2684354560
 ----------------------------------------------------------------------
 1/14=-1,18=20,19=15,26=4,38=1/1,3;
 2/9=110,12=2,17=4,18=5,40=1/2;
 3/5=7,8=2,11=2,16=1,25=1,30=1,70=32201,71=1,72=1,74=-55,75=-5/1,2,3;
 4//1;
 5/5=2,32=2,38=5,53=1/2;
 6/7=2,8=2,9=2,10=2,28=1/1;
 7//1,2,3,16;
 1/14=-1,18=20,19=15,26=4/3(2);
 2/9=110,17=4/2;
 99//99;
 2/9=110,17=4/2;
 3/5=7,6=1,8=2,11=2,16=1,25=1,30=1,70=32205,71=1,72=1,74=-55,75=-5,82=7/1,2,3;
 4/5=5,16=3,69=1/1;
 5/5=2,32=2,38=5,53=1/2;
 7//1,2,3,16;
 1/14=-1,18=20,19=15,26=4/3(-5);
 2/9=110,17=4/2;
 6/7=2,8=2,9=2,10=2,19=2,28=1/1;
 99/9=1/99;
 ---------------------------------------------
 4SulfOxyMethyl_C2_EtO.M062X_6-31pGd_opt_water
 ---------------------------------------------
 Symbolic Z-matrix:
 Charge = -1 Multiplicity = 1
 C                    -2.27186   2.79832  -0.11935 
 C                    -1.01145   1.94803   0.00906 
 C                     0.25124   2.80586  -0.12247 
 N                     1.45179   1.99473  -0.00353 
 C                     2.69622   2.54755  -0.08859 
 O                     2.79727   3.75048  -0.26652 
 N                     3.80646   1.74887   0.02339 
 C                     5.1896    2.15876  -0.0387 
 C                     5.62163   3.49952  -0.20548 
 C                     6.18341   1.16393   0.07561 
 C                     7.54271   1.48401   0.0244 
 C                     7.94659   2.8102   -0.14252 
 C                     6.98339   3.81239  -0.25538 
 H                    -3.16886   2.15156  -0.0197 
 H                    -2.30143   3.2971   -1.11158 
 H                    -2.2996    3.5708    0.67851 
 H                    -1.01816   1.17269  -0.78776 
 H                    -1.01605   1.44447   1.00028 
 H                     0.25137   3.57943   0.677 
 H                     0.24784   3.30979  -1.11428 
 H                     1.3448    0.87194   0.1643 
 H                     3.61241   0.62955   0.18047 
 H                     4.95438   4.33497  -0.29947 
 H                     5.91459   0.12512   0.20533 
 H                     8.27761   0.69472   0.11592 
 S                     9.68624   3.24597  -0.2108 
 O                     9.96475   4.2527    0.91622 
 O                     9.87845   4.175    -1.4187 
 H                     7.28864   4.84362  -0.38303 
 C                     11.0503   2.04912  -0.20937 
 H                     10.98378   1.41262   0.6968 
 H                     12.01797   2.59182  -0.19789 
 H                     10.99697   1.42259  -1.1234 
 O                     1.19798  -1.17591   0.45078 
 O                     3.41257  -1.42015   0.46308 
 C                     2.30581  -1.93971   0.54385 
 C                     2.15278  -3.42373   0.7458 
 C                     3.48862  -4.16162   0.82826 
 H                     1.56677  -3.83862  -0.10192 
 H                     1.58813  -3.59776   1.68659 
 H                     4.06373  -4.02442  -0.11235 
 H                     3.3047   -5.24669   0.97644 
 H                     4.08707  -3.78273   1.68412 
 
 Add virtual bond connecting atoms O34        and H21        Dist= 3.92D+00.
 Add virtual bond connecting atoms O35        and H22        Dist= 3.93D+00.

 GradGradGradGradGradGradGradGradGradGradGradGradGradGradGradGradGradGrad
 Berny optimization.
 Initialization pass.
                           ----------------------------
                           !    Initial Parameters    !
                           ! (Angstroms and Degrees)  !
 --------------------------                            --------------------------
 ! Name  Definition              Value          Derivative Info.                !
 --------------------------------------------------------------------------------
 ! R1    R(1,2)                  1.5258         estimate D2E/DX2                !
 ! R2    R(1,14)                 1.1103         estimate D2E/DX2                !
 ! R3    R(1,15)                 1.1109         estimate D2E/DX2                !
 ! R4    R(1,16)                 1.1109         estimate D2E/DX2                !
 ! R5    R(2,3)                  1.5322         estimate D2E/DX2                !
 ! R6    R(2,17)                 1.1118         estimate D2E/DX2                !
 ! R7    R(2,18)                 1.1118         estimate D2E/DX2                !
 ! R8    R(3,4)                  1.4538         estimate D2E/DX2                !
 ! R9    R(3,19)                 1.1125         estimate D2E/DX2                !
 ! R10   R(3,20)                 1.1125         estimate D2E/DX2                !
 ! R11   R(4,5)                  1.3644         estimate D2E/DX2                !
 ! R12   R(4,21)                 1.1403         estimate D2E/DX2                !
 ! R13   R(5,6)                  1.2202         estimate D2E/DX2                !
 ! R14   R(5,7)                  1.3722         estimate D2E/DX2                !
 ! R15   R(7,8)                  1.4439         estimate D2E/DX2                !
 ! R16   R(7,22)                 1.1468         estimate D2E/DX2                !
 ! R17   R(8,9)                  1.4185         estimate D2E/DX2                !
 ! R18   R(8,10)                 1.4108         estimate D2E/DX2                !
 ! R19   R(9,13)                 1.3981         estimate D2E/DX2                !
 ! R20   R(9,23)                 1.0733         estimate D2E/DX2                !
 ! R21   R(10,11)                1.3974         estimate D2E/DX2                !
 ! R22   R(10,24)                1.0808         estimate D2E/DX2                !
 ! R23   R(11,12)                1.3963         estimate D2E/DX2                !
 ! R24   R(11,25)                1.0823         estimate D2E/DX2                !
 ! R25   R(12,13)                1.3946         estimate D2E/DX2                !
 ! R26   R(12,26)                1.7947         estimate D2E/DX2                !
 ! R27   R(13,29)                1.083          estimate D2E/DX2                !
 ! R28   R(21,34)                2.073          estimate D2E/DX2                !
 ! R29   R(22,35)                2.0787         estimate D2E/DX2                !
 ! R30   R(26,27)                1.5366         estimate D2E/DX2                !
 ! R31   R(26,28)                1.5359         estimate D2E/DX2                !
 ! R32   R(26,30)                1.8147         estimate D2E/DX2                !
 ! R33   R(30,31)                1.1094         estimate D2E/DX2                !
 ! R34   R(30,32)                1.1095         estimate D2E/DX2                !
 ! R35   R(30,33)                1.1094         estimate D2E/DX2                !
 ! R36   R(34,36)                1.3488         estimate D2E/DX2                !
 ! R37   R(35,36)                1.2253         estimate D2E/DX2                !
 ! R38   R(36,37)                1.5055         estimate D2E/DX2                !
 ! R39   R(37,38)                1.5283         estimate D2E/DX2                !
 ! R40   R(37,39)                1.1109         estimate D2E/DX2                !
 ! R41   R(37,40)                1.1109         estimate D2E/DX2                !
 ! R42   R(38,41)                1.111          estimate D2E/DX2                !
 ! R43   R(38,42)                1.1105         estimate D2E/DX2                !
 ! R44   R(38,43)                1.1109         estimate D2E/DX2                !
 ! A1    A(2,1,14)             109.5838         estimate D2E/DX2                !
 ! A2    A(2,1,15)             110.3254         estimate D2E/DX2                !
 ! A3    A(2,1,16)             110.3462         estimate D2E/DX2                !
 ! A4    A(14,1,15)            108.6737         estimate D2E/DX2                !
 ! A5    A(14,1,16)            108.6881         estimate D2E/DX2                !
 ! A6    A(15,1,16)            109.1843         estimate D2E/DX2                !
 ! A7    A(1,2,3)              111.1948         estimate D2E/DX2                !
 ! A8    A(1,2,17)             108.8639         estimate D2E/DX2                !
 ! A9    A(1,2,18)             108.9057         estimate D2E/DX2                !
 ! A10   A(3,2,17)             109.5051         estimate D2E/DX2                !
 ! A11   A(3,2,18)             109.4828         estimate D2E/DX2                !
 ! A12   A(17,2,18)            108.8492         estimate D2E/DX2                !
 ! A13   A(2,3,4)              111.1719         estimate D2E/DX2                !
 ! A14   A(2,3,19)             109.1308         estimate D2E/DX2                !
 ! A15   A(2,3,20)             109.1246         estimate D2E/DX2                !
 ! A16   A(4,3,19)             109.2137         estimate D2E/DX2                !
 ! A17   A(4,3,20)             109.1597         estimate D2E/DX2                !
 ! A18   A(19,3,20)            109.0085         estimate D2E/DX2                !
 ! A19   A(3,4,5)              121.4707         estimate D2E/DX2                !
 ! A20   A(3,4,21)             118.9436         estimate D2E/DX2                !
 ! A21   A(5,4,21)             119.5857         estimate D2E/DX2                !
 ! A22   A(4,5,6)              118.952          estimate D2E/DX2                !
 ! A23   A(4,5,7)              119.8041         estimate D2E/DX2                !
 ! A24   A(6,5,7)              121.2437         estimate D2E/DX2                !
 ! A25   A(5,7,8)              127.3207         estimate D2E/DX2                !
 ! A26   A(5,7,22)             116.2534         estimate D2E/DX2                !
 ! A27   A(8,7,22)             116.4256         estimate D2E/DX2                !
 ! A28   A(7,8,9)              124.4106         estimate D2E/DX2                !
 ! A29   A(7,8,10)             118.1063         estimate D2E/DX2                !
 ! A30   A(9,8,10)             117.483          estimate D2E/DX2                !
 ! A31   A(8,9,13)             120.8212         estimate D2E/DX2                !
 ! A32   A(8,9,23)             123.8263         estimate D2E/DX2                !
 ! A33   A(13,9,23)            115.3524         estimate D2E/DX2                !
 ! A34   A(8,10,11)            121.3808         estimate D2E/DX2                !
 ! A35   A(8,10,24)            120.8136         estimate D2E/DX2                !
 ! A36   A(11,10,24)           117.8055         estimate D2E/DX2                !
 ! A37   A(10,11,12)           120.2171         estimate D2E/DX2                !
 ! A38   A(10,11,25)           119.3632         estimate D2E/DX2                !
 ! A39   A(12,11,25)           120.4197         estimate D2E/DX2                !
 ! A40   A(11,12,13)           119.5004         estimate D2E/DX2                !
 ! A41   A(11,12,26)           121.0329         estimate D2E/DX2                !
 ! A42   A(13,12,26)           119.4666         estimate D2E/DX2                !
 ! A43   A(9,13,12)            120.5974         estimate D2E/DX2                !
 ! A44   A(9,13,29)            119.4594         estimate D2E/DX2                !
 ! A45   A(12,13,29)           119.9432         estimate D2E/DX2                !
 ! A46   A(12,26,27)           107.8702         estimate D2E/DX2                !
 ! A47   A(12,26,28)           107.343          estimate D2E/DX2                !
 ! A48   A(12,26,30)           124.6421         estimate D2E/DX2                !
 ! A49   A(27,26,28)            99.0812         estimate D2E/DX2                !
 ! A50   A(27,26,30)           107.1742         estimate D2E/DX2                !
 ! A51   A(28,26,30)           107.7872         estimate D2E/DX2                !
 ! A52   A(26,30,31)           109.5104         estimate D2E/DX2                !
 ! A53   A(26,30,32)           109.45           estimate D2E/DX2                !
 ! A54   A(26,30,33)           109.6137         estimate D2E/DX2                !
 ! A55   A(31,30,32)           108.9342         estimate D2E/DX2                !
 ! A56   A(31,30,33)           110.2472         estimate D2E/DX2                !
 ! A57   A(32,30,33)           109.0671         estimate D2E/DX2                !
 ! A58   A(21,34,36)           120.7148         estimate D2E/DX2                !
 ! A59   A(22,35,36)           120.924          estimate D2E/DX2                !
 ! A60   A(34,36,35)           119.8152         estimate D2E/DX2                !
 ! A61   A(34,36,37)           118.9444         estimate D2E/DX2                !
 ! A62   A(35,36,37)           121.2404         estimate D2E/DX2                !
 ! A63   A(36,37,38)           113.2234         estimate D2E/DX2                !
 ! A64   A(36,37,39)           108.6262         estimate D2E/DX2                !
 ! A65   A(36,37,40)           108.6433         estimate D2E/DX2                !
 ! A66   A(38,37,39)           108.7791         estimate D2E/DX2                !
 ! A67   A(38,37,40)           108.84           estimate D2E/DX2                !
 ! A68   A(39,37,40)           108.6381         estimate D2E/DX2                !
 ! A69   A(37,38,41)           110.3133         estimate D2E/DX2                !
 ! A70   A(37,38,42)           109.524          estimate D2E/DX2                !
 ! A71   A(37,38,43)           110.3495         estimate D2E/DX2                !
 ! A72   A(41,38,42)           108.6251         estimate D2E/DX2                !
 ! A73   A(41,38,43)           109.3458         estimate D2E/DX2                !
 ! A74   A(42,38,43)           108.6429         estimate D2E/DX2                !
 ! A75   L(4,21,34,2,-1)       181.3225         estimate D2E/DX2                !
 ! A76   L(7,22,35,1,-1)       184.225          estimate D2E/DX2                !
 ! A77   L(4,21,34,2,-2)       179.4297         estimate D2E/DX2                !
 ! A78   L(7,22,35,1,-2)       179.861          estimate D2E/DX2                !
 ! D1    D(14,1,2,3)          -179.9715         estimate D2E/DX2                !
 ! D2    D(14,1,2,17)           59.3027         estimate D2E/DX2                !
 ! D3    D(14,1,2,18)          -59.2459         estimate D2E/DX2                !
 ! D4    D(15,1,2,3)            60.4126         estimate D2E/DX2                !
 ! D5    D(15,1,2,17)          -60.3133         estimate D2E/DX2                !
 ! D6    D(15,1,2,18)         -178.8619         estimate D2E/DX2                !
 ! D7    D(16,1,2,3)           -60.325          estimate D2E/DX2                !
 ! D8    D(16,1,2,17)          178.9492         estimate D2E/DX2                !
 ! D9    D(16,1,2,18)           60.4006         estimate D2E/DX2                !
 ! D10   D(1,2,3,4)           -179.8514         estimate D2E/DX2                !
 ! D11   D(1,2,3,19)            59.625          estimate D2E/DX2                !
 ! D12   D(1,2,3,20)           -59.3988         estimate D2E/DX2                !
 ! D13   D(17,2,3,4)           -59.5037         estimate D2E/DX2                !
 ! D14   D(17,2,3,19)          179.9726         estimate D2E/DX2                !
 ! D15   D(17,2,3,20)           60.9489         estimate D2E/DX2                !
 ! D16   D(18,2,3,4)            59.7634         estimate D2E/DX2                !
 ! D17   D(18,2,3,19)          -60.7603         estimate D2E/DX2                !
 ! D18   D(18,2,3,20)         -179.784          estimate D2E/DX2                !
 ! D19   D(2,3,4,5)           -179.9669         estimate D2E/DX2                !
 ! D20   D(2,3,4,21)             0.0466         estimate D2E/DX2                !
 ! D21   D(19,3,4,5)           -59.4921         estimate D2E/DX2                !
 ! D22   D(19,3,4,21)          120.5214         estimate D2E/DX2                !
 ! D23   D(20,3,4,5)            59.6013         estimate D2E/DX2                !
 ! D24   D(20,3,4,21)         -120.3852         estimate D2E/DX2                !
 ! D25   D(3,4,5,6)              0.1119         estimate D2E/DX2                !
 ! D26   D(3,4,5,7)           -179.749          estimate D2E/DX2                !
 ! D27   D(21,4,5,6)          -179.9017         estimate D2E/DX2                !
 ! D28   D(21,4,5,7)             0.2374         estimate D2E/DX2                !
 ! D29   D(3,4,34,36)          179.081          estimate D2E/DX2                !
 ! D30   D(5,4,34,36)           -0.5197         estimate D2E/DX2                !
 ! D31   D(4,5,7,8)           -179.8664         estimate D2E/DX2                !
 ! D32   D(4,5,7,22)             0.354          estimate D2E/DX2                !
 ! D33   D(6,5,7,8)              0.2759         estimate D2E/DX2                !
 ! D34   D(6,5,7,22)          -179.5037         estimate D2E/DX2                !
 ! D35   D(5,7,8,9)              1.2909         estimate D2E/DX2                !
 ! D36   D(5,7,8,10)          -178.8108         estimate D2E/DX2                !
 ! D37   D(22,7,8,9)          -178.9298         estimate D2E/DX2                !
 ! D38   D(22,7,8,10)            0.9685         estimate D2E/DX2                !
 ! D39   D(5,7,35,36)           -0.5316         estimate D2E/DX2                !
 ! D40   D(8,7,35,36)          179.7476         estimate D2E/DX2                !
 ! D41   D(7,8,9,13)           179.9901         estimate D2E/DX2                !
 ! D42   D(7,8,9,23)             0.1035         estimate D2E/DX2                !
 ! D43   D(10,8,9,13)            0.0912         estimate D2E/DX2                !
 ! D44   D(10,8,9,23)         -179.7954         estimate D2E/DX2                !
 ! D45   D(7,8,10,11)          179.9814         estimate D2E/DX2                !
 ! D46   D(7,8,10,24)            0.035          estimate D2E/DX2                !
 ! D47   D(9,8,10,11)           -0.1132         estimate D2E/DX2                !
 ! D48   D(9,8,10,24)          179.9404         estimate D2E/DX2                !
 ! D49   D(8,9,13,12)            0.0286         estimate D2E/DX2                !
 ! D50   D(8,9,13,29)         -179.9764         estimate D2E/DX2                !
 ! D51   D(23,9,13,12)         179.9244         estimate D2E/DX2                !
 ! D52   D(23,9,13,29)          -0.0806         estimate D2E/DX2                !
 ! D53   D(8,10,11,12)           0.0152         estimate D2E/DX2                !
 ! D54   D(8,10,11,25)         179.9779         estimate D2E/DX2                !
 ! D55   D(24,10,11,12)        179.9633         estimate D2E/DX2                !
 ! D56   D(24,10,11,25)         -0.0741         estimate D2E/DX2                !
 ! D57   D(10,11,12,13)          0.1077         estimate D2E/DX2                !
 ! D58   D(10,11,12,26)        179.9823         estimate D2E/DX2                !
 ! D59   D(25,11,12,13)       -179.8545         estimate D2E/DX2                !
 ! D60   D(25,11,12,26)          0.02           estimate D2E/DX2                !
 ! D61   D(11,12,13,9)          -0.1294         estimate D2E/DX2                !
 ! D62   D(11,12,13,29)        179.8756         estimate D2E/DX2                !
 ! D63   D(26,12,13,9)         179.994          estimate D2E/DX2                !
 ! D64   D(26,12,13,29)         -0.0009         estimate D2E/DX2                !
 ! D65   D(11,12,26,27)       -121.7209         estimate D2E/DX2                !
 ! D66   D(11,12,26,28)        132.3516         estimate D2E/DX2                !
 ! D67   D(11,12,26,30)          5.1396         estimate D2E/DX2                !
 ! D68   D(13,12,26,27)         58.1537         estimate D2E/DX2                !
 ! D69   D(13,12,26,28)        -47.7738         estimate D2E/DX2                !
 ! D70   D(13,12,26,30)       -174.9858         estimate D2E/DX2                !
 ! D71   D(12,26,30,31)        -57.3513         estimate D2E/DX2                !
 ! D72   D(12,26,30,32)       -176.7055         estimate D2E/DX2                !
 ! D73   D(12,26,30,33)         63.7152         estimate D2E/DX2                !
 ! D74   D(27,26,30,31)         69.8007         estimate D2E/DX2                !
 ! D75   D(27,26,30,32)        -49.5535         estimate D2E/DX2                !
 ! D76   D(27,26,30,33)       -169.1328         estimate D2E/DX2                !
 ! D77   D(28,26,30,31)        175.6225         estimate D2E/DX2                !
 ! D78   D(28,26,30,32)         56.2682         estimate D2E/DX2                !
 ! D79   D(28,26,30,33)        -63.3111         estimate D2E/DX2                !
 ! D80   D(21,34,36,35)          0.245          estimate D2E/DX2                !
 ! D81   D(21,34,36,37)       -179.7327         estimate D2E/DX2                !
 ! D82   D(22,35,36,34)         -0.0978         estimate D2E/DX2                !
 ! D83   D(22,35,36,37)        179.8793         estimate D2E/DX2                !
 ! D84   D(34,36,37,38)        179.7971         estimate D2E/DX2                !
 ! D85   D(34,36,37,39)         58.8472         estimate D2E/DX2                !
 ! D86   D(34,36,37,40)        -59.1639         estimate D2E/DX2                !
 ! D87   D(35,36,37,38)         -0.1802         estimate D2E/DX2                !
 ! D88   D(35,36,37,39)       -121.1301         estimate D2E/DX2                !
 ! D89   D(35,36,37,40)        120.8588         estimate D2E/DX2                !
 ! D90   D(36,37,38,41)        -60.4675         estimate D2E/DX2                !
 ! D91   D(36,37,38,42)       -179.9785         estimate D2E/DX2                !
 ! D92   D(36,37,38,43)         60.4662         estimate D2E/DX2                !
 ! D93   D(39,37,38,41)         60.3958         estimate D2E/DX2                !
 ! D94   D(39,37,38,42)        -59.1152         estimate D2E/DX2                !
 ! D95   D(39,37,38,43)       -178.6704         estimate D2E/DX2                !
 ! D96   D(40,37,38,41)        178.6045         estimate D2E/DX2                !
 ! D97   D(40,37,38,42)         59.0936         estimate D2E/DX2                !
 ! D98   D(40,37,38,43)        -60.4617         estimate D2E/DX2                !
 --------------------------------------------------------------------------------
 Trust Radius=3.00D-01 FncErr=1.00D-07 GrdErr=1.00D-06
 Number of steps in this run=    230 maximum allowed number of steps=    258.
 GradGradGradGradGradGradGradGradGradGradGradGradGradGradGradGradGradGrad

                          Input orientation:                          
 ---------------------------------------------------------------------
 Center     Atomic      Atomic             Coordinates (Angstroms)
 Number     Number       Type             X           Y           Z
 ---------------------------------------------------------------------
      1          6           0       -2.271860    2.798320   -0.119350
      2          6           0       -1.011450    1.948030    0.009060
      3          6           0        0.251240    2.805860   -0.122470
      4          7           0        1.451790    1.994730   -0.003530
      5          6           0        2.696220    2.547550   -0.088590
      6          8           0        2.797270    3.750480   -0.266520
      7          7           0        3.806460    1.748870    0.023390
      8          6           0        5.189600    2.158760   -0.038700
      9          6           0        5.621630    3.499520   -0.205480
     10          6           0        6.183410    1.163930    0.075610
     11          6           0        7.542710    1.484010    0.024400
     12          6           0        7.946590    2.810200   -0.142520
     13          6           0        6.983390    3.812390   -0.255380
     14          1           0       -3.168860    2.151560   -0.019700
     15          1           0       -2.301430    3.297100   -1.111580
     16          1           0       -2.299600    3.570800    0.678510
     17          1           0       -1.018160    1.172690   -0.787760
     18          1           0       -1.016050    1.444470    1.000280
     19          1           0        0.251370    3.579430    0.677000
     20          1           0        0.247840    3.309790   -1.114280
     21          1           0        1.344800    0.871940    0.164300
     22          1           0        3.612410    0.629550    0.180470
     23          1           0        4.954380    4.334970   -0.299470
     24          1           0        5.914590    0.125120    0.205330
     25          1           0        8.277610    0.694720    0.115920
     26         16           0        9.686240    3.245970   -0.210800
     27          8           0        9.964750    4.252700    0.916220
     28          8           0        9.878450    4.175000   -1.418700
     29          1           0        7.288640    4.843620   -0.383030
     30          6           0       11.050300    2.049120   -0.209370
     31          1           0       10.983780    1.412620    0.696800
     32          1           0       12.017970    2.591820   -0.197890
     33          1           0       10.996970    1.422590   -1.123400
     34          8           0        1.197980   -1.175910    0.450780
     35          8           0        3.412570   -1.420150    0.463080
     36          6           0        2.305810   -1.939710    0.543850
     37          6           0        2.152780   -3.423730    0.745800
     38          6           0        3.488620   -4.161620    0.828260
     39          1           0        1.566770   -3.838620   -0.101920
     40          1           0        1.588130   -3.597760    1.686590
     41          1           0        4.063730   -4.024420   -0.112350
     42          1           0        3.304700   -5.246690    0.976440
     43          1           0        4.087070   -3.782730    1.684120
 ---------------------------------------------------------------------
                    Distance matrix (angstroms):
                    1          2          3          4          5
     1  C    0.000000
     2  C    1.525816   0.000000
     3  C    2.523113   1.532174   0.000000
     4  N    3.811134   2.463715   1.453753   0.000000
     5  C    4.974500   3.757097   2.458821   1.364350   0.000000
     6  O    5.159879   4.222691   2.719435   2.227586   1.220209
     7  N    6.169902   4.822046   3.711885   2.367624   1.372247
     8  C    7.489254   6.204813   4.981280   3.741573   2.524003
     9  C    7.925042   6.815490   5.415639   4.437651   3.078625
    10  C    8.613990   7.237766   6.158394   4.804656   3.755244
    11  C    9.903225   8.566750   7.411774   6.112358   4.963099
    12  C   10.218483   9.000711   7.695377   6.547269   5.257212
    13  C    9.311632   8.213601   6.808275   5.828028   4.472971
    14  H    1.110332   2.167180   3.483641   4.623339   5.878836
    15  H    1.110935   2.177125   2.781327   4.124391   5.156049
    16  H    1.110889   2.177355   2.780915   4.125785   5.156908
    17  H    2.158983   1.111809   2.172839   2.718717   4.021902
    18  H    2.159523   1.111805   2.172550   2.720414   4.022856
    19  H    2.758803   2.168484   1.112458   2.101286   2.761919
    20  H    2.756878   2.168431   1.112495   2.100629   2.761814
    21  H    4.107509   2.594992   2.240124   1.140294   2.167477
    22  H    6.278383   4.811221   4.015665   2.562392   2.142550
    23  H    7.390012   6.433024   4.948639   4.222847   2.887668
    24  H    8.617968   7.164604   6.274341   4.843103   4.038869
    25  H   10.759731   9.373838   8.302792   6.949540   5.884447
    26  S   11.966825  10.778384   9.445672   8.331550   7.025888
    27  O   12.366174  11.252174   9.875449   8.855216   7.533174
    28  O   12.296894  11.206597   9.810093   8.818440   7.483463
    29  H    9.780385   8.799413   7.331122   6.506075   5.142855
    30  C   13.343513  12.064151  10.825890   9.600871   8.369807
    31  H   13.352837  12.026853  10.853559   9.575393   8.401699
    32  H   14.291538  13.046957  11.768918  10.584822   9.322496
    33  H   13.377690  12.073140  10.880534   9.627664   8.440309
    34  O    5.306538   3.851714   4.132726   3.213063   4.049666
    35  O    7.102637   5.578774   5.309994   3.965323   4.069415
    36  C    6.621467   5.138554   5.213988   4.063101   4.548396
    37  C    7.683738   6.277814   6.570962   5.514761   6.053736
    38  C    9.084154   7.632139   7.741466   6.537675   6.817732
    39  H    7.667096   6.335997   6.773489   5.835313   6.485291
    40  H    7.685752   6.350410   6.787218   5.843889   6.491838
    41  H    9.310721   7.838517   7.822270   6.562335   6.712782
    42  H    9.849922   8.445648   8.681865   7.538686   7.890166
    43  H    9.327310   7.851264   7.834978   6.570533   6.719331
                    6          7          8          9         10
     6  O    0.000000
     7  N    2.260300   0.000000
     8  C    2.882485   1.443933   0.000000
     9  C    2.836145   2.532193   1.418486   0.000000
    10  C    4.274721   2.448423   1.410820   2.418592   0.000000
    11  C    5.266946   3.745626   2.448754   2.793864   1.397416
    12  C    5.235933   4.277222   2.834810   2.425812   2.422104
    13  C    4.186593   3.798514   2.449311   1.398130   2.786371
    14  H    6.181600   6.987067   8.358485   8.895180   9.404757
    15  H    5.188104   6.402460   7.652609   7.977272   8.829062
    16  H    5.186854   6.405668   7.654826   7.970722   8.838437
    17  H    4.634026   4.926145   6.330064   7.059745   7.253144
    18  H    4.632912   4.929866   6.332439   7.052367   7.264017
    19  H    2.720495   4.051768   5.188125   5.442871   6.433149
    20  H    2.722590   4.049017   5.186785   5.453397   6.422737
    21  H    3.252886   2.616989   4.059508   5.033109   4.848223
    22  H    3.256449   1.146825   2.207724   3.524578   2.628041
    23  H    2.235137   2.847784   2.204364   1.073328   3.421505
    24  H    4.804536   2.667185   2.172752   3.411915   1.080841
    25  H    6.286339   4.594668   3.420983   3.876136   2.146499
    26  S    6.907644   6.071900   4.629408   4.072514   4.084941
    27  O    7.281749   6.707522   5.300803   4.548426   4.954357
    28  O    7.186852   6.695879   5.287243   4.477577   4.995280
    29  H    4.623952   4.676348   3.425347   2.148732   3.869367
    30  C    8.426767   7.253795   5.864210   5.619087   4.954936
    31  H    8.568111   7.216680   5.888141   5.824252   4.846780
    32  H    9.293466   8.257628   6.843940   6.460429   6.012966
    33  H    8.566703   7.288691   5.953492   5.835280   4.967383
    34  O    5.228916   3.942229   5.224236   6.469853   5.519974
    35  O    5.257977   3.223533   4.027185   5.434158   3.808564
    36  C    5.768578   4.016024   5.045103   6.414155   4.988749
    37  C    7.273888   5.478351   6.403273   7.801874   6.143432
    38  C    8.017346   5.973502   6.602436   8.019440   6.015801
    39  H    7.689972   6.020960   7.006958   8.384564   6.809581
    40  H    7.698915   6.022763   7.006050   8.379763   6.810694
    41  H    7.878881   5.780613   6.285278   7.684100   5.607794
    42  H    9.096785   7.077989   7.708699   9.124762   7.084809
    43  H    7.887828   5.782332   6.283708   7.678322   5.608154
                   11         12         13         14         15
    11  C    0.000000
    12  C    1.396339   0.000000
    13  C    2.410906   1.394588   0.000000
    14  H   10.732441  11.135624  10.289902   0.000000
    15  H   10.073968  10.305244   9.338441   1.804688   0.000000
    16  H   10.082342  10.307134   9.332975   1.804814   1.810894
    17  H    8.604942   9.135892   8.442526   2.484676   2.502950
    18  H    8.614307   9.137840   8.436514   2.484940   3.089400
    19  H    7.614480   7.776872   6.800272   3.771230   3.129779
    20  H    7.605603   7.775902   6.808667   3.770072   2.549303
    21  H    6.229630   6.887280   6.373074   4.695147   4.561169
    22  H    4.025136   4.862579   4.656602   6.952856   6.615037
    23  H    3.864236   3.361975   2.095690   8.416209   7.374515
    24  H    2.128401   3.385215   3.866594   9.309466   8.904981
    25  H    1.082327   2.156762   3.395988  11.539604  10.963358
    26  S    2.784698   1.794698   2.761923  12.903017  12.021574
    27  O    3.785137   2.697166   3.233423  13.333508  12.469335
    28  O    3.844431   2.687638   3.141046  13.277191  12.215339
    29  H    3.393749   2.150707   1.083008  10.804559   9.741250
    30  C    3.560504   3.196362   4.432944  14.220794  13.440243
    31  H    3.506876   3.447058   4.761162  14.190018  13.539509
    32  H    4.615691   4.077608   5.180742  15.194255  14.365844
    33  H    3.640485   3.491762   4.751150  14.227448  13.429869
    34  O    6.892936   7.860332   7.671556   5.510236   5.890217
    35  O    5.068002   6.230566   6.375454   7.503693   7.575077
    36  C    6.278281   7.406156   7.456888   6.857703   7.168772
    37  C    7.325140   8.556824   8.757773   7.745302   8.274020
    38  C    6.996783   8.331998   8.773399   9.213974   9.639510
    39  H    8.003637   9.214693   9.375568   7.636439   8.179296
    40  H    8.002767   9.210733   9.369653   7.654741   8.396281
    41  H    6.516502   7.860632   8.364237   9.511134   9.752865
    42  H    8.010582   9.365505   9.854799   9.880960  10.429998
    43  H    6.514190   7.854886   8.356804   9.527188   9.937448
                   16         17         18         19         20
    16  H    0.000000
    17  H    3.089169   0.000000
    18  H    2.504459   1.808578   0.000000
    19  H    2.550985   3.090247   2.503781   0.000000
    20  H    3.125967   2.505308   3.090016   1.811464   0.000000
    21  H    4.563979   2.565239   2.569098   2.964617   2.963309
    22  H    6.621998   4.761791   4.770621   4.499436   4.492259
    23  H    7.359390   6.775668   6.759466   4.862370   4.885328
    24  H    8.920175   7.081430   7.099747   6.650323   6.632914
    25  H   10.975687   9.351814   9.365700   8.547332   8.534002
    26  S   12.023175  10.918587  10.920216   9.482413   9.481758
    27  O   12.285592  11.533183  11.334513   9.739624   9.971477
    28  O   12.372075  11.320250  11.489012   9.870528   9.674188
    29  H    9.730431   9.090790   9.079408   7.228071   7.242943
    30  C   13.465648  12.114058  12.141897  10.942778  10.913354
    31  H   13.457573  12.095786  12.003709  10.948976  11.051682
    32  H   14.377736  13.126407  13.139167  11.840341  11.827562
    33  H   13.588983  12.022415  12.199309  11.106814  10.913542
    34  O    5.900524   3.458494   3.474229   4.853916   4.844965
    35  O    7.588470   5.283823   5.301632   5.919016   5.905583
    36  C    7.182872   4.744365   4.764006   5.890616   5.877235
    37  C    8.291662   5.790833   5.814260   7.257020   7.240786
    38  C    9.660033   7.167806   7.193739   8.392051   8.372460
    39  H    8.393890   5.680270   5.983046   7.573933   7.339224
    40  H    8.216990   5.972633   5.716368   7.370092   7.573341
    41  H    9.940060   7.300119   7.546580   8.542581   8.327996
    42  H   10.452037   7.937755   7.964990   9.344136   9.323564
    43  H    9.791589   7.531916   7.337104   8.362313   8.536660
                   21         22         23         24         25
    21  H    0.000000
    22  H    2.280585   0.000000
    23  H    5.023617   3.970058   0.000000
    24  H    4.630594   2.356926   4.347374   0.000000
    25  H    6.935243   4.666102   4.946496   2.432345   0.000000
    26  S    8.680803   6.624965   4.856365   4.913066   2.932552
    27  O    9.289696   7.349882   5.156402   5.826326   4.018226
    28  O    9.286510   7.375013   5.052201   5.895014   4.126754
    29  H    7.169592   5.620550   2.390497   4.949588   4.294227
    30  C    9.783768   7.582174   6.511027   5.499934   3.102906
    31  H    9.668807   7.430807   6.773946   5.253179   2.859398
    32  H   10.816919   8.639855   7.276207   6.595335   4.205682
    33  H    9.753244   7.540604   6.758233   5.411057   3.075813
    34  O    2.072997   3.026917   6.711424   4.898912   7.330249
    35  O    3.101390   2.078719   6.006669   2.952016   5.316184
    36  C    2.995492   2.905227   6.862778   4.171500   6.541081
    37  C    4.409507   4.345020   8.314985   5.199775   7.407558
    38  C    5.511219   4.836348   8.695532   4.964827   6.857543
    39  H    4.723295   4.922289   8.850000   5.891449   8.101481
    40  H    4.728086   4.923033   8.843318   5.896798   8.101946
    41  H    5.607447   4.684962   8.408785   4.554699   6.330811
    42  H    6.475987   5.937883   9.805998   6.021834   7.795555
    43  H    5.612116   4.685561   8.401423   4.560476   6.329884
                   26         27         28         29         30
    26  S    0.000000
    27  O    1.536635   0.000000
    28  O    1.535924   2.337806   0.000000
    29  H    2.886284   3.032953   2.868237   0.000000
    30  C    1.814693   2.702062   2.712025   4.689294   0.000000
    31  H    2.422503   3.025330   3.650731   5.156729   1.109370
    32  H    2.421785   2.866265   2.928205   5.241321   1.109523
    33  H    2.423957   3.638001   2.985641   5.099344   1.109430
    34  O    9.593814  10.321952  10.367148   8.603843  10.387725
    35  O    7.847657   8.678573   8.755250   7.414488   8.415637
    36  C    9.051603   9.856164   9.929056   8.467660   9.640758
    37  C   10.107077  10.953698  11.050418   9.797979  10.489533
    38  C    9.714038  10.618323  10.741415   9.848945   9.840171
    39  H   10.776320  11.706073  11.620501  10.401928  11.163081
    40  H   10.771078  11.506127  11.780833  10.394039  11.180992
    41  H    9.191348  10.217177  10.136469   9.440098   9.257940
    42  H   10.689194  11.601651  11.735379  10.933174  10.706508
    43  H    9.183902   9.985235  10.319547   9.430645   9.278057
                   31         32         33         34         35
    31  H    0.000000
    32  H    1.805694   0.000000
    33  H    1.820275   1.807238   0.000000
    34  O   10.125359  11.475572  10.259164   0.000000
    35  O    8.087177   9.517652   8.253558   2.228051   0.000000
    36  C    9.304229  10.742951   9.466839   1.348829   1.225310
    37  C   10.068726  11.593074  10.256726   2.459954   2.383555
    38  C    9.341673  10.927568   9.558645   3.782061   2.766731
    39  H   10.811732  12.271404  10.846770   2.744359   3.094382
    40  H   10.694009  12.273701  11.028428   2.746780   3.093145
    41  H    8.837603  10.346588   8.874793   4.079663   2.745424
    42  H   10.168229  11.778895  10.395174   4.613658   3.862329
    43  H    8.690861  10.347755   9.095287   4.082092   2.743661
                   36         37         38         39         40
    36  C    0.000000
    37  C    1.505496   0.000000
    38  C    2.533143   1.528316   0.000000
    39  H    2.137536   1.110932   2.159415   0.000000
    40  H    2.137767   1.110946   2.160215   1.804782   0.000000
    41  H    2.804799   2.179215   1.111001   2.503885   3.089793
    42  H    3.481527   2.168709   1.110478   2.483127   2.483927
    43  H    2.805321   2.179634   1.110944   3.089494   2.505778
                   41         42         43
    41  H    0.000000
    42  H    1.804310   0.000000
    43  H    1.812805   1.804465   0.000000
 Stoichiometry    C14H21N2O5S(1-)
 Framework group  C1[X(C14H21N2O5S)]
 Deg. of freedom   123
 Full point group                 C1      NOp   1
 Largest Abelian subgroup         C1      NOp   1
 Largest concise Abelian subgroup C1      NOp   1
                         Standard orientation:                         
 ---------------------------------------------------------------------
 Center     Atomic      Atomic             Coordinates (Angstroms)
 Number     Number       Type             X           Y           Z
 ---------------------------------------------------------------------
      1          6           0        6.264130   -3.381909   -0.020790
      2          6           0        5.338761   -2.168849   -0.003722
      3          6           0        3.866980   -2.594698   -0.012293
      4          7           0        2.985782   -1.438529    0.000458
      5          6           0        1.628518   -1.577343   -0.003556
      6          8           0        1.149570   -2.699556   -0.016112
      7          7           0        0.828830   -0.462216    0.003612
      8          6           0       -0.614485   -0.419987    0.003533
      9          6           0       -1.449980   -1.566157    0.022120
     10          6           0       -1.242458    0.843244   -0.014106
     11          6           0       -2.634662    0.963818   -0.015698
     12          6           0       -3.438907   -0.177534    0.000654
     13          6           0       -2.842210   -1.437860    0.020858
     14          1           0        7.321596   -3.043454   -0.013620
     15          1           0        6.090483   -3.986869   -0.936239
     16          1           0        6.087074   -4.015401    0.874427
     17          1           0        5.549452   -1.543385   -0.898442
     18          1           0        5.546280   -1.570284    0.909934
     19          1           0        3.663209   -3.220232    0.884784
     20          1           0        3.666910   -3.196205   -0.926517
     21          1           0        3.444931   -0.394846    0.013862
     22          1           0        1.369023    0.549411    0.006472
     23          1           0       -1.081344   -2.574043    0.039622
     24          1           0       -0.657659    1.752112   -0.027736
     25          1           0       -3.081999    1.949283   -0.029098
     26         16           0       -5.228934   -0.048144   -0.000551
     27          8           0       -5.754251   -0.763507    1.253859
     28          8           0       -5.757172   -1.015404   -1.070335
     29          1           0       -3.459127   -2.327861    0.035662
     30          6           0       -6.150646    1.507306   -0.155899
     31          1           0       -5.846917    2.200549    0.655188
     32          1           0       -7.237579    1.303151   -0.066800
     33          1           0       -5.947538    1.963182   -1.146737
     34          8           0        4.235595    1.521437    0.019071
     35          8           0        2.210404    2.450240    0.007373
     36          6           0        3.426445    2.600588    0.012228
     37          6           0        4.043413    3.973856    0.010206
     38          6           0        3.009293    5.099103   -0.002676
     39          1           0        4.689250    4.071365   -0.888436
     40          1           0        4.677462    4.079669    0.916289
     41          1           0        2.376797    5.031246   -0.913537
     42          1           0        3.528787    6.080574   -0.003941
     43          1           0        2.363243    5.040408    0.899195
 ---------------------------------------------------------------------
 Rotational constants (GHZ):      0.3219038      0.0963290      0.0753317
 General basis read from cards:  (6D, 7F)
 There are   464 symmetry adapted cartesian basis functions of A   symmetry.
 There are   464 symmetry adapted basis functions of A   symmetry.
   464 basis functions,   812 primitive gaussians,   464 cartesian basis functions
    88 alpha electrons       88 beta electrons
       nuclear repulsion energy      1874.4500937725 Hartrees.
 NAtoms=   43 NActive=   43 NUniq=   43 SFac= 1.00D+00 NAtFMM=   60 NAOKFM=F Big=F
 Integral buffers will be    131072 words long.
 Raffenetti 2 integral format.
 Two-electron integral symmetry is turned on.
 ------------------------------------------------------------------------------
 Polarizable Continuum Model (PCM)
 =================================
 Model                : PCM (using non-symmetric T matrix).
 Atomic radii         : SMD-Coulomb.
 Polarization charges : Total charges.
 Charge compensation  : None.
 Solution method      : On-the-fly selection.
 Cavity type          : VdW (van der Waals Surface) (Alpha=1.000).
 Cavity algorithm     : GePol (No added spheres)
                        Default sphere list used, NSphG=   43.
                        Lebedev-Laikov grids with approx.  5.0 points / Ang**2.
                        Smoothing algorithm: York/Karplus (Gamma=1.0000).
                        Polarization charges: spherical gaussians, with
                                              point-specific exponents (IZeta= 3).
                        Self-potential: point-specific (ISelfS= 7).
                        Self-field    : sphere-specific E.n sum rule (ISelfD= 2).
 1st derivatives      : Analytical E(r).r(x)/FMM algorithm (CHGder, D1EAlg=3).
                        Cavity 1st derivative terms included.
 Solvent              : Water, Eps=  78.355300 Eps(inf)=   1.777849
 ------------------------------------------------------------------------------
 ------------------------------------------------------------------------------
 Atomic radii for non-electrostatic terms: SMD-CDS.
 ------------------------------------------------------------------------------
 Nuclear repulsion after PCM non-electrostatic terms =     1874.4636296319 Hartrees.
 One-electron integrals computed using PRISM.
 NBasis=   464 RedAO= T EigKep=  2.05D-06  NBF=   464
 NBsUse=   462 1.00D-06 EigRej=  7.95D-07 NBFU=   462
 ExpMin= 4.05D-02 ExpMax= 2.19D+04 ExpMxC= 3.30D+03 IAcc=3 IRadAn=         5 AccDes= 0.00D+00
 Harris functional with IExCor= 1009 and IRadAn=       5 diagonalized for initial guess.
 HarFok:  IExCor= 1009 AccDes= 0.00D+00 IRadAn=         5 IDoV= 1 UseB2=F ITyADJ=14
 ICtDFT=  3500011 ScaDFX=  1.000000  1.000000  1.000000  1.000000
 FoFCou: FMM=F IPFlag=           0 FMFlag=      100000 FMFlg1=           0
         NFxFlg=           0 DoJE=T BraDBF=F KetDBF=T FulRan=T
         wScrn=  0.000000 ICntrl=     500 IOpCl=  0 I1Cent=   200000004 NGrid=           0
         NMat0=    1 NMatS0=      1 NMatT0=    0 NMatD0=    1 NMtDS0=    0 NMtDT0=    0
 Petite list used in FoFCou.
 Requested convergence on RMS density matrix=1.00D-08 within 128 cycles.
 Requested convergence on MAX density matrix=1.00D-06.
 Requested convergence on             energy=1.00D-06.
 No special actions if energy rises.
 Inv3:  Mode=1 IEnd=    31843692.
 Iteration    1 A*A^-1 deviation from unit magnitude is 7.33D-15 for   3235.
 Iteration    1 A*A^-1 deviation from orthogonality  is 3.47D-15 for   2373   2249.
 Iteration    1 A^-1*A deviation from unit magnitude is 7.77D-15 for   3233.
 Iteration    1 A^-1*A deviation from orthogonality  is 5.68D-11 for   3000   2943.
 Error on total polarization charges =  0.08409
 SCF Done:  E(RM062X) =  -1429.61862295     A.U. after   15 cycles
            NFock= 15  Conv=0.73D-08     -V/T= 2.0080
 SMD-CDS (non-electrostatic) energy       (kcal/mol) =       8.49
 (included in total energy above)

 **********************************************************************

            Population analysis using the SCF density.

 **********************************************************************

 Orbital symmetries:
       Occupied  (A) (A) (A) (A) (A) (A) (A) (A) (A) (A) (A) (A)
                 (A) (A) (A) (A) (A) (A) (A) (A) (A) (A) (A) (A)
                 (A) (A) (A) (A) (A) (A) (A) (A) (A) (A) (A) (A)
                 (A) (A) (A) (A) (A) (A) (A) (A) (A) (A) (A) (A)
                 (A) (A) (A) (A) (A) (A) (A) (A) (A) (A) (A) (A)
                 (A) (A) (A) (A) (A) (A) (A) (A) (A) (A) (A) (A)
                 (A) (A) (A) (A) (A) (A) (A) (A) (A) (A) (A) (A)
                 (A) (A) (A) (A)
       Virtual   (A) (A) (A) (A) (A) (A) (A) (A) (A) (A) (A) (A)
                 (A) (A) (A) (A) (A) (A) (A) (A) (A) (A) (A) (A)
                 (A) (A) (A) (A) (A) (A) (A) (A) (A) (A) (A) (A)
                 (A) (A) (A) (A) (A) (A) (A) (A) (A) (A) (A) (A)
                 (A) (A) (A) (A) (A) (A) (A) (A) (A) (A) (A) (A)
                 (A) (A) (A) (A) (A) (A) (A) (A) (A) (A) (A) (A)
                 (A) (A) (A) (A) (A) (A) (A) (A) (A) (A) (A) (A)
                 (A) (A) (A) (A) (A) (A) (A) (A) (A) (A) (A) (A)
                 (A) (A) (A) (A) (A) (A) (A) (A) (A) (A) (A) (A)
                 (A) (A) (A) (A) (A) (A) (A) (A) (A) (A) (A) (A)
                 (A) (A) (A) (A) (A) (A) (A) (A) (A) (A) (A) (A)
                 (A) (A) (A) (A) (A) (A) (A) (A) (A) (A) (A) (A)
                 (A) (A) (A) (A) (A) (A) (A) (A) (A) (A) (A) (A)
                 (A) (A) (A) (A) (A) (A) (A) (A) (A) (A) (A) (A)
                 (A) (A) (A) (A) (A) (A) (A) (A) (A) (A) (A) (A)
                 (A) (A) (A) (A) (A) (A) (A) (A) (A) (A) (A) (A)
                 (A) (A) (A) (A) (A) (A) (A) (A) (A) (A) (A) (A)
                 (A) (A) (A) (A) (A) (A) (A) (A) (A) (A) (A) (A)
                 (A) (A) (A) (A) (A) (A) (A) (A) (A) (A) (A) (A)
                 (A) (A) (A) (A) (A) (A) (A) (A) (A) (A) (A) (A)
                 (A) (A) (A) (A) (A) (A) (A) (A) (A) (A) (A) (A)
                 (A) (A) (A) (A) (A) (A) (A) (A) (A) (A) (A) (A)
                 (A) (A) (A) (A) (A) (A) (A) (A) (A) (A) (A) (A)
                 (A) (A) (A) (A) (A) (A) (A) (A) (A) (A) (A) (A)
                 (A) (A) (A) (A) (A) (A) (A) (A) (A) (A) (A) (A)
                 (A) (A) (A) (A) (A) (A) (A) (A) (A) (A) (A) (A)
                 (A) (A) (A) (A) (A) (A) (A) (A) (A) (A) (A) (A)
                 (A) (A) (A) (A) (A) (A) (A) (A) (A) (A) (A) (A)
                 (A) (A) (A) (A) (A) (A) (A) (A) (A) (A) (A) (A)
                 (A) (A) (A) (A) (A) (A) (A) (A) (A) (A) (A) (A)
                 (A) (A) (A) (A) (A) (A) (A) (A) (A) (A) (A) (A)
                 (A) (A)
 The electronic state is 1-A.
 Alpha  occ. eigenvalues --  -90.15892 -19.63626 -19.63584 -19.61427 -19.61359
 Alpha  occ. eigenvalues --  -19.59323 -14.80791 -14.78049 -10.68477 -10.65240
 Alpha  occ. eigenvalues --  -10.63251 -10.61168 -10.60415 -10.58605 -10.58582
 Alpha  occ. eigenvalues --  -10.57655 -10.57164 -10.57044 -10.54336 -10.54261
 Alpha  occ. eigenvalues --  -10.53279 -10.53252  -8.47378  -6.39487  -6.39457
 Alpha  occ. eigenvalues --   -6.39401  -1.20412  -1.18543  -1.16721  -1.07689
 Alpha  occ. eigenvalues --   -1.04037  -1.04004  -1.01093  -0.97750  -0.89694
 Alpha  occ. eigenvalues --   -0.87429  -0.86579  -0.86020  -0.85526  -0.78042
 Alpha  occ. eigenvalues --   -0.75044  -0.72148  -0.71903  -0.68980  -0.66648
 Alpha  occ. eigenvalues --   -0.65367  -0.61619  -0.61371  -0.59696  -0.58466
 Alpha  occ. eigenvalues --   -0.56080  -0.55221  -0.54857  -0.53597  -0.53233
 Alpha  occ. eigenvalues --   -0.53036  -0.52942  -0.52637  -0.51830  -0.50769
 Alpha  occ. eigenvalues --   -0.50379  -0.49702  -0.49360  -0.49247  -0.47066
 Alpha  occ. eigenvalues --   -0.46950  -0.45850  -0.45433  -0.45022  -0.43669
 Alpha  occ. eigenvalues --   -0.42776  -0.41383  -0.40955  -0.40378  -0.40161
 Alpha  occ. eigenvalues --   -0.39786  -0.39164  -0.38816  -0.37450  -0.37332
 Alpha  occ. eigenvalues --   -0.35093  -0.35017  -0.33153  -0.32955  -0.32774
 Alpha  occ. eigenvalues --   -0.31669  -0.31656  -0.28148
 Alpha virt. eigenvalues --   -0.02225   0.00096   0.00324   0.01879   0.02797
 Alpha virt. eigenvalues --    0.03357   0.03702   0.03755   0.04299   0.04318
 Alpha virt. eigenvalues --    0.04888   0.05029   0.05443   0.05868   0.06446
 Alpha virt. eigenvalues --    0.06467   0.07150   0.07245   0.07492   0.07609
 Alpha virt. eigenvalues --    0.07890   0.08053   0.08554   0.09131   0.09297
 Alpha virt. eigenvalues --    0.09358   0.09511   0.09700   0.10273   0.10835
 Alpha virt. eigenvalues --    0.11286   0.11653   0.11940   0.12032   0.12328
 Alpha virt. eigenvalues --    0.12385   0.12724   0.12932   0.14000   0.14282
 Alpha virt. eigenvalues --    0.14650   0.15064   0.15353   0.15698   0.16077
 Alpha virt. eigenvalues --    0.16180   0.16646   0.16761   0.17008   0.17692
 Alpha virt. eigenvalues --    0.17856   0.18519   0.19416   0.19570   0.19857
 Alpha virt. eigenvalues --    0.20336   0.20915   0.21051   0.21497   0.21683
 Alpha virt. eigenvalues --    0.22195   0.22841   0.23027   0.23425   0.23877
 Alpha virt. eigenvalues --    0.24049   0.24622   0.24650   0.25156   0.25394
 Alpha virt. eigenvalues --    0.25637   0.26035   0.26297   0.26474   0.26863
 Alpha virt. eigenvalues --    0.26911   0.27571   0.27802   0.27893   0.28196
 Alpha virt. eigenvalues --    0.28371   0.28612   0.29503   0.29732   0.29983
 Alpha virt. eigenvalues --    0.30252   0.30862   0.31037   0.31250   0.31407
 Alpha virt. eigenvalues --    0.32039   0.32258   0.32369   0.32787   0.33076
 Alpha virt. eigenvalues --    0.33245   0.33322   0.33554   0.34113   0.34760
 Alpha virt. eigenvalues --    0.35373   0.35557   0.35675   0.36090   0.36615
 Alpha virt. eigenvalues --    0.36760   0.37172   0.37357   0.37892   0.38365
 Alpha virt. eigenvalues --    0.39355   0.39921   0.40368   0.41508   0.41958
 Alpha virt. eigenvalues --    0.42614   0.43322   0.43366   0.45136   0.45339
 Alpha virt. eigenvalues --    0.46214   0.47862   0.48618   0.50843   0.50971
 Alpha virt. eigenvalues --    0.53114   0.53628   0.54422   0.55770   0.56437
 Alpha virt. eigenvalues --    0.56820   0.58438   0.59687   0.61072   0.61642
 Alpha virt. eigenvalues --    0.62555   0.66939   0.69030   0.70586   0.70904
 Alpha virt. eigenvalues --    0.71034   0.71955   0.71967   0.72977   0.73715
 Alpha virt. eigenvalues --    0.74744   0.75014   0.75170   0.75667   0.76672
 Alpha virt. eigenvalues --    0.77249   0.77859   0.78538   0.79022   0.79892
 Alpha virt. eigenvalues --    0.80985   0.81778   0.81912   0.82509   0.83206
 Alpha virt. eigenvalues --    0.84069   0.84328   0.86155   0.86386   0.87954
 Alpha virt. eigenvalues --    0.89058   0.89829   0.90613   0.91496   0.92207
 Alpha virt. eigenvalues --    0.93216   0.94269   0.95669   0.95946   0.97161
 Alpha virt. eigenvalues --    0.98754   0.99506   0.99977   1.00508   1.01090
 Alpha virt. eigenvalues --    1.01787   1.02550   1.03688   1.03807   1.05465
 Alpha virt. eigenvalues --    1.05800   1.06141   1.06338   1.07786   1.08784
 Alpha virt. eigenvalues --    1.09023   1.10592   1.12001   1.12052   1.12559
 Alpha virt. eigenvalues --    1.13574   1.14238   1.15174   1.16007   1.17177
 Alpha virt. eigenvalues --    1.17942   1.18524   1.19326   1.19581   1.20479
 Alpha virt. eigenvalues --    1.21942   1.22308   1.24247   1.26166   1.26938
 Alpha virt. eigenvalues --    1.27066   1.29269   1.29462   1.31440   1.31700
 Alpha virt. eigenvalues --    1.31776   1.32959   1.33455   1.34402   1.35006
 Alpha virt. eigenvalues --    1.35986   1.37162   1.38518   1.39311   1.39711
 Alpha virt. eigenvalues --    1.40140   1.42113   1.42260   1.42988   1.43866
 Alpha virt. eigenvalues --    1.45371   1.45444   1.46021   1.46161   1.47114
 Alpha virt. eigenvalues --    1.47942   1.49539   1.50679   1.50741   1.52398
 Alpha virt. eigenvalues --    1.53671   1.53920   1.54532   1.55486   1.57593
 Alpha virt. eigenvalues --    1.57900   1.57987   1.60224   1.62784   1.63280
 Alpha virt. eigenvalues --    1.64834   1.66714   1.71224   1.73175   1.73754
 Alpha virt. eigenvalues --    1.75554   1.76583   1.80808   1.82068   1.82968
 Alpha virt. eigenvalues --    1.84251   1.86376   1.87533   1.87937   1.88413
 Alpha virt. eigenvalues --    1.88770   1.89422   1.89547   1.90525   1.90873
 Alpha virt. eigenvalues --    1.91114   1.92572   1.93188   1.93219   1.94654
 Alpha virt. eigenvalues --    1.95622   1.96860   1.97451   1.98204   1.99061
 Alpha virt. eigenvalues --    2.00537   2.02276   2.03019   2.04115   2.04247
 Alpha virt. eigenvalues --    2.05335   2.05757   2.06630   2.06785   2.08154
 Alpha virt. eigenvalues --    2.09650   2.10370   2.11655   2.12659   2.13525
 Alpha virt. eigenvalues --    2.15423   2.16041   2.17036   2.17546   2.19768
 Alpha virt. eigenvalues --    2.20562   2.21186   2.22471   2.24362   2.24651
 Alpha virt. eigenvalues --    2.26911   2.27716   2.28479   2.29755   2.30432
 Alpha virt. eigenvalues --    2.30789   2.31183   2.31873   2.32262   2.35681
 Alpha virt. eigenvalues --    2.37237   2.38469   2.38897   2.39237   2.41231
 Alpha virt. eigenvalues --    2.42681   2.49312   2.55042   2.55238   2.56611
 Alpha virt. eigenvalues --    2.57236   2.62001   2.64300   2.65921   2.67088
 Alpha virt. eigenvalues --    2.68139   2.70497   2.73454   2.73738   2.75633
 Alpha virt. eigenvalues --    2.78999   2.79712   2.80631   2.82022   2.83260
 Alpha virt. eigenvalues --    2.84481   2.87544   2.90928   2.99189   3.02765
 Alpha virt. eigenvalues --    3.06739   3.12072   3.15387   3.18243   3.26581
 Alpha virt. eigenvalues --    3.31050   3.39433   4.01757   4.08751   4.20434
 Alpha virt. eigenvalues --    4.22201   4.26604   4.27467   4.29433   4.31003
 Alpha virt. eigenvalues --    4.34429   4.37280   4.39800   4.42514   4.43416
 Alpha virt. eigenvalues --    4.46409   4.46836   4.49423   4.52492   4.56761
 Alpha virt. eigenvalues --    4.64525   4.70423   4.73383   4.77540
          Condensed to atoms (all electrons):
               1          2          3          4          5          6
     1  C    5.794560  -0.136539   0.017453  -0.011318  -0.049399  -0.001654
     2  C   -0.136539   6.231506  -0.419375  -0.057294   0.158012   0.019935
     3  C    0.017453  -0.419375   7.101020   0.325175  -0.819030  -0.093428
     4  N   -0.011318  -0.057294   0.325175   7.660500   0.481980  -0.191306
     5  C   -0.049399   0.158012  -0.819030   0.481980   6.310292   0.568552
     6  O   -0.001654   0.019935  -0.093428  -0.191306   0.568552   8.497797
     7  N   -0.004473   0.011205  -0.215707  -0.347032   0.236554  -0.096656
     8  C   -0.002573   0.012978  -0.137868  -0.079781  -0.049034  -0.339008
     9  C   -0.005058  -0.017910  -0.184654  -0.075523  -0.350680   0.350363
    10  C   -0.000104   0.011116  -0.025140  -0.048323  -0.131577  -0.108622
    11  C    0.000031   0.002452  -0.004604  -0.016202  -0.106894  -0.028792
    12  C   -0.000274  -0.000525  -0.032181  -0.010510  -0.454889   0.005505
    13  C   -0.000795  -0.003849  -0.063588  -0.011380  -0.368525   0.143168
    14  H    0.435511  -0.109664   0.026944   0.000361  -0.001974   0.000005
    15  H    0.422006  -0.068453  -0.011252   0.000543   0.001202  -0.000039
    16  H    0.421712  -0.067771  -0.011394   0.000537   0.000943  -0.000039
    17  H   -0.024174   0.420713  -0.084182   0.007185  -0.003917  -0.000133
    18  H   -0.023802   0.421166  -0.087514   0.006859  -0.001147  -0.000109
    19  H   -0.003126  -0.044285   0.439436  -0.050805  -0.033677   0.002515
    20  H   -0.002257  -0.044854   0.440348  -0.051867  -0.034354   0.002884
    21  H   -0.001481   0.001076  -0.060748   0.190296   0.024700   0.005417
    22  H    0.000136   0.000524   0.004319   0.028428  -0.036465   0.004158
    23  H    0.000014   0.000128   0.003252  -0.000690   0.017120  -0.002831
    24  H   -0.000001   0.000016  -0.000111   0.000832   0.000153   0.000062
    25  H    0.000000   0.000000   0.000027   0.000006   0.004114  -0.000000
    26  S   -0.000004  -0.000030  -0.000695   0.000467  -0.029814   0.001030
    27  O   -0.000000  -0.000000  -0.000009   0.000002  -0.001220  -0.000010
    28  O   -0.000000  -0.000000  -0.000006   0.000003  -0.001257  -0.000010
    29  H   -0.000000   0.000002  -0.000029   0.000009  -0.002267   0.000301
    30  C    0.000000   0.000001   0.000029   0.000004   0.001464   0.000039
    31  H   -0.000000  -0.000000  -0.000000  -0.000000  -0.000027  -0.000000
    32  H    0.000000   0.000000   0.000000  -0.000000   0.000004   0.000000
    33  H   -0.000000  -0.000000  -0.000000   0.000000  -0.000022  -0.000000
    34  O    0.003635   0.004650  -0.007752  -0.023707  -0.004389  -0.000393
    35  O    0.000057  -0.001107   0.008183   0.008748  -0.001528  -0.000077
    36  C   -0.001607  -0.003874   0.004888  -0.009940  -0.001943  -0.000428
    37  C    0.001367   0.000151   0.011820  -0.005678  -0.007558  -0.000363
    38  C   -0.000150  -0.000380  -0.000529   0.001289   0.000159   0.000040
    39  H    0.000005   0.000027  -0.000008  -0.000011  -0.000055  -0.000000
    40  H    0.000005   0.000027  -0.000004  -0.000005  -0.000070  -0.000000
    41  H    0.000000   0.000004  -0.000005   0.000000  -0.000024   0.000000
    42  H    0.000000   0.000001  -0.000002  -0.000001   0.000010   0.000000
    43  H    0.000000   0.000004  -0.000007  -0.000001  -0.000012   0.000000
               7          8          9         10         11         12
     1  C   -0.004473  -0.002573  -0.005058  -0.000104   0.000031  -0.000274
     2  C    0.011205   0.012978  -0.017910   0.011116   0.002452  -0.000525
     3  C   -0.215707  -0.137868  -0.184654  -0.025140  -0.004604  -0.032181
     4  N   -0.347032  -0.079781  -0.075523  -0.048323  -0.016202  -0.010510
     5  C    0.236554  -0.049034  -0.350680  -0.131577  -0.106894  -0.454889
     6  O   -0.096656  -0.339008   0.350363  -0.108622  -0.028792   0.005505
     7  N    7.782472   0.084748  -0.047278  -0.015047  -0.024273  -0.008628
     8  C    0.084748  12.351763   0.241831   0.947872  -1.155228  -2.312616
     9  C   -0.047278   0.241831  11.467144  -2.813438  -1.602850  -2.421564
    10  C   -0.015047   0.947872  -2.813438   9.354200   1.303005  -0.688966
    11  C   -0.024273  -1.155228  -1.602850   1.303005  10.165455  -0.467079
    12  C   -0.008628  -2.312616  -2.421564  -0.688966  -0.467079  13.488157
    13  C    0.119555  -3.461534   1.038667  -1.442839  -2.765982   0.874945
    14  H    0.000007  -0.000026  -0.000002  -0.000001  -0.000000  -0.000000
    15  H    0.000021   0.000033  -0.000037   0.000006   0.000000  -0.000000
    16  H    0.000017   0.000033  -0.000048   0.000008   0.000000  -0.000000
    17  H    0.000006  -0.000518  -0.000255   0.000168   0.000008  -0.000002
    18  H    0.000128  -0.000572   0.000023   0.000049  -0.000000  -0.000001
    19  H   -0.000475  -0.001140  -0.001010   0.000296   0.000013  -0.000002
    20  H   -0.000190  -0.002826   0.000793  -0.000248  -0.000043   0.000004
    21  H    0.028060   0.009513   0.003473  -0.000193   0.000026   0.000010
    22  H    0.176058   0.043950   0.043356  -0.071158  -0.018515   0.004365
    23  H   -0.011054   0.013238   0.318075   0.009480  -0.004054   0.013508
    24  H   -0.001654  -0.073707  -0.007653   0.271116   0.067279   0.061087
    25  H    0.000638   0.051193  -0.007863   0.004833   0.322260  -0.048855
    26  S    0.002520  -0.226403   0.044547   0.101583   0.384149  -1.459195
    27  O    0.000135  -0.021520  -0.002723   0.011459   0.136298  -0.040266
    28  O    0.000165  -0.026888  -0.042996   0.006152   0.084246   0.037164
    29  H   -0.001021   0.036866   0.009739  -0.004528   0.011971  -0.041785
    30  C   -0.000261   0.034191   0.093959  -0.034052  -0.051853  -0.284800
    31  H   -0.000001  -0.002240  -0.003034   0.004408   0.020923  -0.039841
    32  H   -0.000000   0.001245  -0.000542   0.003517   0.003807   0.051380
    33  H   -0.000000  -0.002477  -0.001798  -0.000980  -0.001587  -0.018713
    34  O    0.009037   0.006183  -0.000008  -0.002726  -0.002091  -0.000232
    35  O    0.000331  -0.126918  -0.017190   0.102591   0.031977   0.001661
    36  C   -0.009777   0.032511  -0.004962  -0.026878  -0.006703  -0.004304
    37  C   -0.012695  -0.016038  -0.008214   0.010199   0.001945   0.000058
    38  C    0.002890  -0.013083  -0.001159   0.006399   0.006834  -0.000088
    39  H    0.000058  -0.000277  -0.000027   0.000271   0.000011  -0.000001
    40  H    0.000053  -0.000214  -0.000024   0.000218   0.000000  -0.000001
    41  H    0.000017  -0.000129  -0.000001  -0.000010   0.000014  -0.000023
    42  H   -0.000001   0.000078   0.000004  -0.000082  -0.000013   0.000001
    43  H    0.000023  -0.000373  -0.000004   0.000116   0.000164  -0.000017
              13         14         15         16         17         18
     1  C   -0.000795   0.435511   0.422006   0.421712  -0.024174  -0.023802
     2  C   -0.003849  -0.109664  -0.068453  -0.067771   0.420713   0.421166
     3  C   -0.063588   0.026944  -0.011252  -0.011394  -0.084182  -0.087514
     4  N   -0.011380   0.000361   0.000543   0.000537   0.007185   0.006859
     5  C   -0.368525  -0.001974   0.001202   0.000943  -0.003917  -0.001147
     6  O    0.143168   0.000005  -0.000039  -0.000039  -0.000133  -0.000109
     7  N    0.119555   0.000007   0.000021   0.000017   0.000006   0.000128
     8  C   -3.461534  -0.000026   0.000033   0.000033  -0.000518  -0.000572
     9  C    1.038667  -0.000002  -0.000037  -0.000048  -0.000255   0.000023
    10  C   -1.442839  -0.000001   0.000006   0.000008   0.000168   0.000049
    11  C   -2.765982  -0.000000   0.000000   0.000000   0.000008  -0.000000
    12  C    0.874945  -0.000000  -0.000000  -0.000000  -0.000002  -0.000001
    13  C   11.964553  -0.000000  -0.000002  -0.000003  -0.000013   0.000004
    14  H   -0.000000   0.481991  -0.023947  -0.023938  -0.003126  -0.003130
    15  H   -0.000002  -0.023947   0.487889  -0.028560  -0.004651   0.003773
    16  H   -0.000003  -0.023938  -0.028560   0.487926   0.003777  -0.004633
    17  H   -0.000013  -0.003126  -0.004651   0.003777   0.489321  -0.031406
    18  H    0.000004  -0.003130   0.003773  -0.004633  -0.031406   0.489090
    19  H   -0.000023  -0.000054  -0.000306   0.002759   0.003799  -0.005299
    20  H    0.000192  -0.000053   0.002764  -0.000312  -0.005281   0.003805
    21  H    0.000002  -0.000002   0.000000   0.000000   0.000629   0.000646
    22  H    0.010096  -0.000000  -0.000000  -0.000000   0.000001   0.000001
    23  H   -0.050544  -0.000000   0.000000   0.000000  -0.000000  -0.000000
    24  H   -0.015511  -0.000000   0.000000   0.000000   0.000000   0.000000
    25  H    0.000178  -0.000000   0.000000   0.000000  -0.000000  -0.000000
    26  S    0.050872  -0.000000  -0.000000  -0.000000  -0.000000  -0.000000
    27  O   -0.248878  -0.000000   0.000000  -0.000000  -0.000000   0.000000
    28  O   -0.218476  -0.000000  -0.000000  -0.000000   0.000000  -0.000000
    29  H    0.302302  -0.000000   0.000000   0.000000  -0.000000   0.000000
    30  C    0.155884  -0.000000   0.000000   0.000000  -0.000000  -0.000000
    31  H   -0.012066   0.000000   0.000000   0.000000   0.000000   0.000000
    32  H   -0.002864   0.000000   0.000000   0.000000  -0.000000  -0.000000
    33  H   -0.007141   0.000000   0.000000   0.000000   0.000000   0.000000
    34  O    0.000422  -0.000022  -0.000001  -0.000001  -0.000440  -0.000415
    35  O   -0.000232  -0.000000   0.000000   0.000000   0.000006   0.000006
    36  C   -0.001991  -0.000034  -0.000009  -0.000008  -0.000486  -0.000569
    37  C   -0.001255   0.000021  -0.000002  -0.000002  -0.000007  -0.000079
    38  C   -0.000398   0.000000  -0.000000  -0.000000  -0.000015  -0.000014
    39  H   -0.000001  -0.000000  -0.000000   0.000000  -0.000000  -0.000000
    40  H   -0.000001  -0.000000   0.000000  -0.000000  -0.000000  -0.000000
    41  H    0.000001   0.000000   0.000000  -0.000000  -0.000000   0.000000
    42  H    0.000000   0.000000  -0.000000  -0.000000  -0.000000  -0.000000
    43  H   -0.000001   0.000000  -0.000000   0.000000   0.000000  -0.000000
              19         20         21         22         23         24
     1  C   -0.003126  -0.002257  -0.001481   0.000136   0.000014  -0.000001
     2  C   -0.044285  -0.044854   0.001076   0.000524   0.000128   0.000016
     3  C    0.439436   0.440348  -0.060748   0.004319   0.003252  -0.000111
     4  N   -0.050805  -0.051867   0.190296   0.028428  -0.000690   0.000832
     5  C   -0.033677  -0.034354   0.024700  -0.036465   0.017120   0.000153
     6  O    0.002515   0.002884   0.005417   0.004158  -0.002831   0.000062
     7  N   -0.000475  -0.000190   0.028060   0.176058  -0.011054  -0.001654
     8  C   -0.001140  -0.002826   0.009513   0.043950   0.013238  -0.073707
     9  C   -0.001010   0.000793   0.003473   0.043356   0.318075  -0.007653
    10  C    0.000296  -0.000248  -0.000193  -0.071158   0.009480   0.271116
    11  C    0.000013  -0.000043   0.000026  -0.018515  -0.004054   0.067279
    12  C   -0.000002   0.000004   0.000010   0.004365   0.013508   0.061087
    13  C   -0.000023   0.000192   0.000002   0.010096  -0.050544  -0.015511
    14  H   -0.000054  -0.000053  -0.000002  -0.000000  -0.000000  -0.000000
    15  H   -0.000306   0.002764   0.000000  -0.000000   0.000000   0.000000
    16  H    0.002759  -0.000312   0.000000  -0.000000   0.000000   0.000000
    17  H    0.003799  -0.005281   0.000629   0.000001  -0.000000   0.000000
    18  H   -0.005299   0.003805   0.000646   0.000001  -0.000000   0.000000
    19  H    0.498856  -0.040496   0.001666   0.000004  -0.000000   0.000000
    20  H   -0.040496   0.499048   0.001681   0.000004  -0.000000   0.000000
    21  H    0.001666   0.001681   0.260928   0.003482   0.000001   0.000003
    22  H    0.000004   0.000004   0.003482   0.256208  -0.000078   0.004265
    23  H   -0.000000  -0.000000   0.000001  -0.000078   0.414185  -0.000089
    24  H    0.000000   0.000000   0.000003   0.004265  -0.000089   0.422143
    25  H   -0.000000  -0.000000   0.000000  -0.000007   0.000010  -0.003634
    26  S   -0.000000   0.000000  -0.000002   0.000155  -0.002528   0.000652
    27  O   -0.000000   0.000000  -0.000000   0.000000  -0.000034   0.000033
    28  O    0.000000  -0.000000  -0.000000   0.000000  -0.000028   0.000031
    29  H   -0.000000  -0.000000  -0.000000   0.000001  -0.004716   0.000011
    30  C   -0.000000  -0.000000   0.000000   0.000006   0.000116   0.000208
    31  H    0.000000   0.000000  -0.000000   0.000000   0.000000  -0.000000
    32  H   -0.000000  -0.000000   0.000000  -0.000000  -0.000000  -0.000000
    33  H    0.000000   0.000000  -0.000000   0.000000  -0.000000  -0.000000
    34  O   -0.000015  -0.000013   0.041940   0.002208   0.000001  -0.000018
    35  O   -0.000003  -0.000002   0.001140   0.039586   0.000005  -0.001585
    36  C    0.000184   0.000157  -0.005709  -0.003660  -0.000017  -0.000909
    37  C    0.000029   0.000027   0.001951   0.003698  -0.000002   0.001562
    38  C    0.000000   0.000000  -0.000292  -0.000035  -0.000000  -0.000388
    39  H    0.000000  -0.000000  -0.000001  -0.000005   0.000000   0.000000
    40  H   -0.000000   0.000000  -0.000001  -0.000005   0.000000   0.000000
    41  H   -0.000000   0.000000   0.000000  -0.000001   0.000000   0.000001
    42  H   -0.000000  -0.000000   0.000000   0.000000  -0.000000   0.000000
    43  H    0.000000  -0.000000   0.000000  -0.000001   0.000000   0.000001
              25         26         27         28         29         30
     1  C    0.000000  -0.000004  -0.000000  -0.000000  -0.000000   0.000000
     2  C    0.000000  -0.000030  -0.000000  -0.000000   0.000002   0.000001
     3  C    0.000027  -0.000695  -0.000009  -0.000006  -0.000029   0.000029
     4  N    0.000006   0.000467   0.000002   0.000003   0.000009   0.000004
     5  C    0.004114  -0.029814  -0.001220  -0.001257  -0.002267   0.001464
     6  O   -0.000000   0.001030  -0.000010  -0.000010   0.000301   0.000039
     7  N    0.000638   0.002520   0.000135   0.000165  -0.001021  -0.000261
     8  C    0.051193  -0.226403  -0.021520  -0.026888   0.036866   0.034191
     9  C   -0.007863   0.044547  -0.002723  -0.042996   0.009739   0.093959
    10  C    0.004833   0.101583   0.011459   0.006152  -0.004528  -0.034052
    11  C    0.322260   0.384149   0.136298   0.084246   0.011971  -0.051853
    12  C   -0.048855  -1.459195  -0.040266   0.037164  -0.041785  -0.284800
    13  C    0.000178   0.050872  -0.248878  -0.218476   0.302302   0.155884
    14  H   -0.000000  -0.000000  -0.000000  -0.000000  -0.000000  -0.000000
    15  H    0.000000  -0.000000   0.000000  -0.000000   0.000000   0.000000
    16  H    0.000000  -0.000000  -0.000000  -0.000000   0.000000   0.000000
    17  H   -0.000000  -0.000000  -0.000000   0.000000  -0.000000  -0.000000
    18  H   -0.000000  -0.000000   0.000000  -0.000000   0.000000  -0.000000
    19  H   -0.000000  -0.000000  -0.000000   0.000000  -0.000000  -0.000000
    20  H   -0.000000   0.000000   0.000000  -0.000000  -0.000000  -0.000000
    21  H    0.000000  -0.000002  -0.000000  -0.000000  -0.000000   0.000000
    22  H   -0.000007   0.000155   0.000000   0.000000   0.000001   0.000006
    23  H    0.000010  -0.002528  -0.000034  -0.000028  -0.004716   0.000116
    24  H   -0.003634   0.000652   0.000033   0.000031   0.000011   0.000208
    25  H    0.415430  -0.016731  -0.000558  -0.000286  -0.000112  -0.000199
    26  S   -0.016731  15.547931   0.358324   0.340102  -0.007013  -0.311499
    27  O   -0.000558   0.358324   8.854332  -0.198773   0.000329  -0.145194
    28  O   -0.000286   0.340102  -0.198773   8.866475   0.001447  -0.141465
    29  H   -0.000112  -0.007013   0.000329   0.001447   0.411685  -0.000637
    30  C   -0.000199  -0.311499  -0.145194  -0.141465  -0.000637   6.589041
    31  H   -0.000281   0.030224  -0.002263   0.007765  -0.000000   0.316664
    32  H    0.000015  -0.086322  -0.008814  -0.009312  -0.000000   0.383464
    33  H   -0.000248   0.024088   0.007840  -0.002410   0.000001   0.323284
    34  O    0.000000  -0.000006  -0.000000  -0.000000  -0.000000  -0.000000
    35  O    0.000013  -0.000130  -0.000000  -0.000000  -0.000000   0.000015
    36  C    0.000025  -0.000105  -0.000002  -0.000003   0.000002   0.000033
    37  C    0.000000   0.000048  -0.000000  -0.000000   0.000000   0.000007
    38  C   -0.000007   0.000002   0.000000   0.000000   0.000000  -0.000001
    39  H   -0.000000   0.000000   0.000000  -0.000000   0.000000  -0.000000
    40  H   -0.000000   0.000000  -0.000000   0.000000   0.000000  -0.000000
    41  H    0.000000   0.000000  -0.000000   0.000000  -0.000000  -0.000000
    42  H    0.000000  -0.000000  -0.000000  -0.000000   0.000000   0.000000
    43  H    0.000000  -0.000000  -0.000000  -0.000000  -0.000000   0.000000
              31         32         33         34         35         36
     1  C   -0.000000   0.000000  -0.000000   0.003635   0.000057  -0.001607
     2  C   -0.000000   0.000000  -0.000000   0.004650  -0.001107  -0.003874
     3  C   -0.000000   0.000000  -0.000000  -0.007752   0.008183   0.004888
     4  N   -0.000000  -0.000000   0.000000  -0.023707   0.008748  -0.009940
     5  C   -0.000027   0.000004  -0.000022  -0.004389  -0.001528  -0.001943
     6  O   -0.000000   0.000000  -0.000000  -0.000393  -0.000077  -0.000428
     7  N   -0.000001  -0.000000  -0.000000   0.009037   0.000331  -0.009777
     8  C   -0.002240   0.001245  -0.002477   0.006183  -0.126918   0.032511
     9  C   -0.003034  -0.000542  -0.001798  -0.000008  -0.017190  -0.004962
    10  C    0.004408   0.003517  -0.000980  -0.002726   0.102591  -0.026878
    11  C    0.020923   0.003807  -0.001587  -0.002091   0.031977  -0.006703
    12  C   -0.039841   0.051380  -0.018713  -0.000232   0.001661  -0.004304
    13  C   -0.012066  -0.002864  -0.007141   0.000422  -0.000232  -0.001991
    14  H    0.000000   0.000000   0.000000  -0.000022  -0.000000  -0.000034
    15  H    0.000000   0.000000   0.000000  -0.000001   0.000000  -0.000009
    16  H    0.000000   0.000000   0.000000  -0.000001   0.000000  -0.000008
    17  H    0.000000  -0.000000   0.000000  -0.000440   0.000006  -0.000486
    18  H    0.000000  -0.000000   0.000000  -0.000415   0.000006  -0.000569
    19  H    0.000000  -0.000000   0.000000  -0.000015  -0.000003   0.000184
    20  H    0.000000  -0.000000   0.000000  -0.000013  -0.000002   0.000157
    21  H   -0.000000   0.000000  -0.000000   0.041940   0.001140  -0.005709
    22  H    0.000000  -0.000000   0.000000   0.002208   0.039586  -0.003660
    23  H    0.000000  -0.000000  -0.000000   0.000001   0.000005  -0.000017
    24  H   -0.000000  -0.000000  -0.000000  -0.000018  -0.001585  -0.000909
    25  H   -0.000281   0.000015  -0.000248   0.000000   0.000013   0.000025
    26  S    0.030224  -0.086322   0.024088  -0.000006  -0.000130  -0.000105
    27  O   -0.002263  -0.008814   0.007840  -0.000000  -0.000000  -0.000002
    28  O    0.007765  -0.009312  -0.002410  -0.000000  -0.000000  -0.000003
    29  H   -0.000000  -0.000000   0.000001  -0.000000  -0.000000   0.000002
    30  C    0.316664   0.383464   0.323284  -0.000000   0.000015   0.000033
[...]
 4176,0.00003496,-0.00001208,0.00000706,-0.00001165,-0.00000330,0.00000
 002,-0.00000481,0.00001014,-0.00000299,0.00000174,0.00000020,-0.000001
 22,-0.00000538,-0.00000116,-0.00000097,0.00000223,-0.00000377,-0.00000
 013,-0.00000051,0.00000058,-0.00000022,-0.00000026,0.00000011,-0.00000
 024,-0.00000035,0.00000027,-0.00000001,-0.00000058,0.00000185,0.000001
 05,0.00000014,0.00000045,-0.00000095,-0.00000283,0.00000334,-0.0000005
 3,-0.00000189,0.00000248,-0.00000192,-0.00003619,-0.00017623,0.0000126
 1,0.00002467,0.00022755,-0.00006018,0.00000003,-0.00000018,0.00000057,
 0.00000418,-0.00000064,0.00000310,-0.00000062,0.00000021,0.00000075,0.
 00000622,0.00000148,0.00000347,-0.00000167,0.00000084,-0.00000172,-0.0
 0000141,-0.00000193,-0.00000098,-0.00000098,-0.00000019,0.00000039,-0.
 00000145,-0.00000023,-0.00000041,0.00000015,-0.00000006,-0.00000004,-0
 .00000011,0.00000007,0.00000032,0.00000014,0.00000004,-0.00000010,-0.0
 0014455,0.00212792,-0.00125255,-0.00017315,-0.00241104,-0.00071061,-0.
 00462503,-0.00198712,0.00644919,-0.08729301,-0.01145842,0.09914936,-0.
 01141758,-0.00288128,0.02512880,0.00920171,0.00367925,-0.02043797,0.09
 646645,0.00000140,0.00000220,-0.00000065,0.00000072,-0.00000260,0.0000
 0279,-0.00001220,0.00000756,-0.00000590,0.00004090,0.00003821,0.000027
 37,-0.00016840,0.00008045,-0.00004462,0.00004628,-0.00009660,0.0000272
 8,-0.00006144,-0.00041899,0.00014121,0.00014596,-0.00002024,0.00001493
 ,-0.00004372,-0.00001801,-0.00000005,-0.00003406,0.00003843,-0.0000090
 2,0.00001072,0.00000052,0.00000276,-0.00002788,-0.00000646,-0.00000383
 ,0.00001120,-0.00001172,0.00000099,0.00000131,-0.00000031,0.00000042,-
 0.00000001,0.,0.00000009,0.00000043,-0.00000036,0.00000006,-0.00000106
 ,-0.00000093,-0.00000170,-0.00000187,0.00000050,-0.00000017,0.00000215
 ,-0.00000267,-0.00000013,0.00000459,-0.00000226,0.00000225,-0.00004767
 ,0.00004918,-0.00006005,0.00010268,0.00073726,-0.00024086,0.00000089,0
 .00000078,0.00000019,0.00002093,-0.00001205,0.00000786,-0.00000281,0.0
 0000001,0.00000048,0.00003299,0.00000439,0.00000462,-0.00000885,0.0000
 0384,-0.00000313,-0.00000752,-0.00000680,-0.00000079,-0.00000349,-0.00
 000066,0.00000058,-0.00000679,-0.00000118,-0.00000121,0.00000013,-0.00
 000029,-0.00000011,-0.00000047,0.00000044,0.00000215,0.00000014,0.0000
 0021,-0.00000034,0.00000824,-0.00038626,-0.00345659,-0.00339714,-0.006
 38081,-0.00275868,-0.01084472,-0.00135400,0.03360775,-0.01153752,-0.05
 052036,0.03359812,0.00795428,0.00164677,-0.01822884,0.00466131,0.00143
 687,-0.01003935,0.01090591,0.05571640,0.00000091,-0.00000029,-0.000000
 15,-0.00000162,0.00000372,-0.00000214,0.00000748,-0.00000376,0.0000008
 7,-0.00001388,0.00000733,-0.00001882,0.00005960,-0.00002523,0.00001029
 ,-0.00001471,0.00003077,-0.00000951,0.00002407,0.00012335,-0.00001790,
 -0.00004791,0.00001139,-0.00000350,0.00001501,0.00000545,0.00000061,0.
 00001025,-0.00001377,-0.00000353,-0.00000451,-0.00000038,0.00000267,0.
 00001009,0.00000256,0.00000102,-0.00000275,0.00000493,-0.00000153,-0.0
 0000186,-0.00000043,-0.00000034,0.00000009,-0.00000041,0.00000031,-0.0
 0000034,0.00000057,0.00000030,0.00000107,-0.00000158,0.00000028,-0.000
 00075,0.00000002,0.00000220,-0.00000125,0.00000090,0.00000044,-0.00000
 292,0.00000066,-0.00000021,0.00001129,0.00000590,0.00002882,-0.0000412
 8,-0.00021546,0.00001695,-0.00000006,-0.00000020,-0.00000053,-0.000005
 61,0.00000416,-0.00000335,0.00000067,-0.00000045,-0.00000033,-0.000012
 79,-0.00000372,-0.00000315,0.00000356,-0.00000093,0.00000181,0.0000030
 9,0.00000373,0.00000090,0.00000126,0.00000028,-0.00000011,0.00000255,0
 .00000060,0.00000041,-0.00000025,0.,0.00000013,0.00000029,-0.00000015,
 -0.00000071,-0.00000013,-0.00000008,0.00000013,-0.00055291,0.00017942,
 0.00159658,-0.00010927,0.00143077,-0.00013548,0.00190456,-0.00209371,-
 0.00401342,0.09799473,0.03137394,-0.26846470,-0.00008321,-0.00039165,-
 0.00036717,0.00841932,0.00320719,-0.01968603,-0.10807642,-0.03296987,0
 .28878424,0.00000040,-0.00000083,0.00000009,-0.00000035,0.00000177,0.0
 0000119,0.00000910,-0.00000155,0.00000182,0.00001031,0.00004246,-0.000
 01786,-0.00001411,-0.00000788,0.00000595,0.00000459,0.00001741,-0.0000
 0621,0.00000952,0.00002750,-0.00000860,-0.00001183,-0.00000027,0.00000
 493,0.00000412,0.00000142,-0.00000179,0.00000366,-0.00000441,-0.000004
 14,-0.00000121,0.00000142,0.00000058,0.00000324,0.00000067,0.00000024,
 -0.00000105,0.00000084,-0.00000015,-0.00000045,0.00000011,0.00000014,-
 0.00000038,0.00000067,-0.00000071,-0.00000009,0.00000009,-0.00000003,-
 0.00000087,-0.00000009,0.00000015,0.00000007,-0.00000095,-0.00000156,-
 0.00000172,0.00000157,-0.00000035,-0.00000184,0.00000231,-0.00000158,-
 0.00000680,-0.00007040,0.00002412,-0.00000544,-0.00004809,0.00000676,-
 0.00000013,0.00000003,0.00000031,-0.00000212,0.00000305,-0.00000038,-0
 .00000005,-0.00000070,-0.00000001,-0.00000394,-0.00000130,0.00000038,0
 .00000098,0.00000017,-0.00000031,0.00000106,0.00000105,-0.00000029,0.0
 0000024,0.00000016,0.00000007,0.00000104,0.00000051,0.00000016,-0.0000
 0008,-0.00000035,0.00000021,0.00000024,-0.00000007,-0.00000029,-0.0000
 0007,0.00000003,0.00000008,0.00006019,0.00048082,-0.00030696,0.0008902
 9,0.00018766,-0.00047602,-0.00015581,-0.00189475,0.00029221,-0.0115742
 2,-0.00284104,0.02644837,-0.08989511,-0.01096451,0.09714096,0.00105926
 ,-0.00088493,-0.00023692,-0.00417387,0.00379789,0.00012966,0.09730642,
 -0.00000021,-0.00000022,0.00000038,0.00000018,0.00000039,-0.00000055,0
 .00000049,-0.00000151,-0.00000016,-0.00000572,-0.00001023,0.00000325,0
 .00002080,-0.00000902,0.00000078,-0.00000568,0.00000699,-0.00000120,0.
 00000422,0.00003143,-0.00000626,-0.00000885,0.00000416,0.00000453,0.00
 000206,0.00000060,-0.00000112,0.00000085,-0.00000518,-0.00000036,-0.00
 000206,-0.00000063,-0.00000044,0.00000320,0.00000140,0.00000063,0.0000
 0023,0.00000144,-0.00000013,-0.00000022,-0.00000003,-0.00000009,0.0000
 0022,-0.00000022,0.00000017,-0.00000010,0.00000011,0.00000003,0.000000
 82,-0.00000028,-0.00000013,-0.00000013,0.00000035,0.00000069,-0.000000
 04,0.00000020,0.00000025,-0.00000025,-0.00000025,0.00000015,0.00000170
 ,0.00001146,-0.00000040,-0.00001380,-0.00005230,0.00000785,0.00000024,
 -0.00000002,-0.00000043,-0.00000247,0.00000045,-0.00000519,-0.00000033
 ,-0.00000033,-0.00000051,-0.00000596,-0.00000238,-0.00000262,0.0000017
 4,-0.00000010,0.00000128,0.00000160,0.00000221,0.00000102,0.00000024,0
 .00000004,-0.00000018,0.00000124,0.00000032,0.00000014,-0.00000042,0.0
 0000011,0.00000017,0.00000007,0.,-0.00000021,-0.00000018,-0.00000019,0
 .00000013,0.00001162,-0.00000290,0.00027204,0.00012148,-0.00026367,-0.
 00018517,-0.00042910,0.00047452,-0.00067914,0.00720580,0.00151037,-0.0
 1793922,-0.01155008,-0.05008928,0.02573694,-0.00078549,0.00060438,0.00
 037200,0.00324788,-0.00176396,-0.00023084,0.00945721,0.05093848,-0.000
 00075,0.00000044,-0.00000013,0.00000009,-0.00000090,-0.00000167,-0.000
 00367,-0.00000001,-0.00000147,-0.00001319,-0.00002753,0.00001441,0.000
 02280,-0.00000240,-0.00000022,-0.00000636,-0.00000408,0.00000178,-0.00
 000393,0.00000636,0.00000156,0.00000663,0.00000126,-0.00000969,-0.0000
 0161,0.00000045,0.00000179,-0.00000254,0.00000143,0.00000988,0.0000009
 1,-0.00000148,-0.00000029,-0.00000072,0.00000117,0.00000061,0.00000082
 ,0.00000077,0.00000005,0.00000025,0.00000018,-0.00000009,0.00000028,-0
 .00000044,0.00000080,0.00000013,-0.00000010,-0.00000009,0.00000028,0.0
 0000082,0.00000024,0.00000011,0.00000033,0.00000122,0.00000027,-0.0000
 0051,0.,0.00000081,-0.00000132,0.00000126,0.00001107,0.00004126,-0.000
 02103,-0.00001060,-0.00001113,-0.00000340,0.00000041,0.00000022,-0.000
 00061,-0.00000138,-0.00000708,-0.00000400,-0.00000148,-0.00000014,-0.0
 0000114,-0.00000182,-0.00000425,-0.00000315,0.00000056,0.00000133,0.00
 000130,0.00000084,0.00000301,0.00000125,0.00000005,-0.00000005,-0.0000
 0021,0.00000028,-0.00000047,-0.00000021,-0.00000018,0.00000062,0.00000
 021,-0.00000032,0.00000001,0.00000018,-0.00000005,-0.00000027,0.000000
 35,-0.00022990,-0.00054118,0.00004865,-0.00112788,0.00056339,0.0005406
 6,0.00130067,0.00115909,-0.00018321,0.00015562,-0.00035133,-0.00091140
 ,0.09816954,0.02383328,-0.27775035,0.00029244,-0.00029501,0.00067697,0
 .00044872,-0.00010281,0.00148458,-0.10823884,-0.02769824,0.29786193,0.
 00000145,-0.00000104,0.00000011,-0.00000431,0.00000230,0.00000063,0.00
 003850,-0.00000729,0.00000395,0.00007110,0.00019132,-0.00007589,-0.000
 09678,-0.00003033,0.00000012,0.00002832,0.00006301,-0.00001654,0.00004
 115,0.00004959,-0.00000508,-0.00004370,-0.00000697,-0.00000043,0.00001
 248,0.00000649,-0.00000077,0.00001272,-0.00000502,0.00000134,-0.000003
 72,-0.00000069,-0.00000015,0.00000877,0.00000121,0.00000070,-0.0000046
 4,0.00000141,-0.00000057,-0.00000185,0.00000051,-0.00000031,-0.0000008
 4,0.00000109,-0.00000105,-0.00000079,0.00000112,0.00000004,-0.00000095
 ,-0.00000033,0.00000327,-0.00000119,-0.00000169,-0.00000398,-0.0000063
 6,0.00000691,-0.00000115,-0.00000734,0.00000686,-0.00000475,-0.0000556
 6,-0.00029251,0.00012961,-0.00001762,-0.00010039,0.00001715,-0.0000006
 5,-0.00000113,0.,-0.00000590,0.00000507,-0.00000154,0.00000132,0.00000
 015,0.00000001,-0.00000775,-0.00000039,-0.00000078,0.00000180,-0.00000
 134,0.00000064,0.00000139,0.00000090,-0.00000004,0.00000068,0.00000015
 ,0.00000005,0.00000171,0.00000039,0.00000035,0.00000010,0.00000006,0.0
 0000003,0.00000008,-0.00000016,-0.00000058,0.00000003,-0.00000001,0.00
 000010,-0.00093878,0.00362035,-0.00026711,0.00142144,-0.00018518,-0.00
 019853,-0.00552557,-0.00145145,0.00133396,0.00651651,0.02998508,-0.004
 90420,-0.06004034,-0.05776609,0.00881079,0.00117850,-0.00085109,-0.000
 29401,0.00112688,-0.00086978,0.00009712,-0.00336021,-0.01169637,0.0005
 4008,0.06414923,-0.00000206,0.00000161,-0.00000072,0.00000381,-0.00000
 377,0.00000068,-0.00004101,0.00001069,-0.00000551,-0.00005488,-0.00016
 790,0.00006849,0.00005432,0.00005641,-0.00001279,-0.00001721,-0.000084
 42,0.00002590,-0.00006178,-0.00012469,0.00001503,0.00006868,-0.0000021
 1,0.00000658,-0.00002080,-0.00001141,0.00000093,-0.00001770,0.00001160
 ,-0.00000616,0.00000672,0.00000212,0.00000140,-0.00001664,-0.00000442,
 -0.00000169,0.00000618,-0.00000453,0.00000159,0.00000285,0.00000002,0.
 00000029,0.00000094,-0.00000119,0.00000152,0.00000110,-0.00000161,-0.0
 0000030,0.00000048,0.00000009,-0.00000302,0.00000062,0.00000219,0.0000
 0337,0.00000737,-0.00000787,0.00000089,0.00000784,-0.00000720,0.000005
 27,0.00003880,0.00030107,-0.00012755,0.00007094,0.00025994,-0.00003703
 ,0.00000066,0.00000091,-0.00000035,0.00001081,0.00000028,0.00000067,-0
 .00000099,0.00000052,-0.00000010,0.00002170,0.00000370,0.00000258,-0.0
 0000633,0.00000210,-0.00000214,-0.00000512,-0.00000476,-0.00000037,-0.
 00000145,-0.00000048,-0.00000006,-0.00000423,-0.00000095,-0.00000077,0
 .00000034,0.00000019,-0.00000004,-0.00000060,0.00000018,0.00000134,0.0
 0000020,0.00000006,-0.00000006,0.00125019,-0.00300137,0.00015740,0.000
 00217,-0.00115500,0.00014738,0.00259779,0.00298681,-0.00071633,-0.0053
 8781,-0.01628734,0.00274449,-0.05603489,-0.30219093,0.03982074,-0.0000
 8142,0.00071579,0.00033633,-0.00029187,0.00058513,-0.00039429,-0.00047
 541,-0.00156841,0.00056295,0.06001706,0.32731468,0.00000010,-0.0000001
 5,-0.00000005,0.00000050,0.00000041,0.00000016,-0.00000167,0.00000049,
 -0.00000039,-0.00000729,-0.00001264,0.00000851,0.00000939,-0.00000241,
 0.00000088,-0.00000277,-0.00000105,-0.00000023,0.00000101,0.00000941,0
 .00000703,-0.00000142,0.00000066,-0.00000125,0.00000071,0.00000011,-0.
 00000132,0.00000045,0.00000096,-0.00000034,-0.00000032,-0.00000018,0.0
 0000117,0.00000046,0.00000018,-0.00000031,-0.00000018,0.00000025,0.000
 00115,-0.00000009,-0.00000008,0.00000009,0.00000007,-0.00000005,-0.000
 00002,0.,-0.00000005,0.00000005,0.00000041,0.00000015,-0.00000058,0.00
 000001,0.00000026,0.00000056,-0.00000003,-0.00000026,0.00000013,0.0000
 0047,-0.00000062,0.00000015,0.00000742,0.00001862,-0.00001017,-0.00000
 569,-0.00001407,-0.00000220,0.00000003,0.00000002,-0.00000003,-0.00000
 028,0.00000039,-0.00000256,0.00000007,-0.00000014,-0.00000024,-0.00000
 122,-0.00000032,-0.00000089,0.00000041,-0.00000017,0.00000048,0.000000
 33,0.00000046,0.00000018,0.00000008,0.00000002,-0.00000008,0.00000022,
 0.,0.00000002,-0.00000012,0.00000002,0.00000001,0.00000006,0.00000003,
 0.,-0.00000007,-0.00000004,0.00000003,0.00003165,-0.00029299,0.0001009
 5,-0.00024150,0.00018820,0.00024431,0.00086774,0.00000021,0.00066166,-
 0.00074311,-0.00366138,-0.00055441,0.00863203,0.04011332,-0.05518490,0
 .00009227,0.00027270,0.00000347,-0.00045334,-0.00009316,0.00017114,0.0
 0569965,0.02935761,-0.00299614,-0.01025492,-0.04374930,0.05342483,0.00
 000062,-0.00000024,0.00000055,-0.00000046,-0.00000032,-0.00000139,0.00
 000840,-0.00000058,-0.00000012,0.00001145,0.00004875,-0.00001420,-0.00
 002443,-0.00000709,-0.00000114,0.00000633,0.00001623,-0.00000399,0.000
 01075,0.00002441,0.00000052,-0.00001593,-0.00000140,0.00000328,0.00000
 448,0.00000147,-0.00000039,0.00000435,-0.00000396,-0.00000573,-0.00000
 148,0.00000140,0.00000267,0.00000312,-0.00000002,0.00000091,-0.0000012
 9,0.00000050,-0.00000013,-0.00000020,-0.00000005,-0.00000019,-0.000000
 17,0.00000015,-0.00000040,-0.00000050,0.00000091,0.00000023,0.00000002
 ,0.00000025,0.00000225,-0.00000041,-0.00000125,-0.00000100,-0.00000140
 ,0.00000252,0.00000019,-0.00000157,0.00000172,-0.00000128,-0.00000277,
 -0.00006517,0.00002720,-0.00000232,-0.00004489,-0.00000086,-0.00000030
 ,-0.00000034,-0.00000049,-0.00000052,0.00001240,-0.00000570,0.00000103
 ,-0.00000049,-0.00000034,-0.00000194,0.00000184,-0.00000304,0.00000060
 ,-0.00000168,0.00000174,0.00000012,-0.00000035,0.00000069,0.00000027,0
 .00000011,-0.00000014,0.00000039,0.00000004,0.00000046,-0.00000018,-0.
 00000038,-0.00000002,0.00000028,0.00000005,-0.00000010,-0.00000014,0.0
 0000007,0.00000003,0.00020521,0.00069137,0.00010116,0.00133233,0.00009
 283,0.00014094,-0.00055763,-0.00222699,0.00032509,-0.01921795,-0.00790
 964,-0.01906401,-0.17414571,-0.05280136,-0.12516553,-0.00399304,0.0038
 5617,0.00099523,0.00106123,-0.00067366,0.00027775,0.00984704,0.0044235
 7,0.00869157,-0.00448920,-0.00164937,-0.00363153,0.18996153,0.00000007
 ,-0.00000030,-0.00000008,0.00000003,0.00000056,0.00000038,0.00000171,-
 0.00000130,0.00000165,0.00000178,0.00000361,-0.00000039,0.00000984,-0.
 00000342,0.00000561,-0.00000162,0.00000663,-0.00000423,0.00000415,0.00
 002682,0.00000023,-0.00000708,0.00000067,-0.00000503,0.00000260,0.0000
 0036,-0.00000060,-0.00000013,-0.00000421,0.00000291,-0.00000177,0.0000
 0072,0.00000009,0.00000210,0.00000067,-0.00000043,-0.00000029,0.000001
 62,0.00000066,-0.00000016,0.,-0.00000003,-0.00000005,0.00000005,0.0000
 0002,0.00000001,-0.00000006,-0.00000002,-0.00000028,-0.00000013,-0.000
 00036,-0.00000028,0.00000036,0.00000010,-0.00000018,0.00000016,0.00000
 006,-0.00000059,-0.00000001,-0.00000033,-0.00000565,-0.00000634,0.0000
 0009,-0.00001223,-0.00004620,-0.00000160,-0.00000004,0.00000001,0.0000
 0026,-0.00000059,0.00000803,0.00000117,-0.00000028,0.,0.00000004,-0.00
 000465,0.00000048,-0.00000057,0.00000143,-0.00000119,0.00000031,0.0000
 0117,0.00000034,-0.00000021,0.00000030,0.00000008,0.,0.00000099,0.0000
 0007,0.00000035,-0.00000007,0.00000002,-0.00000003,0.00000007,0.,-0.00
 000024,0.00000001,-0.00000004,0.00000006,-0.00002196,0.00003375,-0.000
 30864,0.00051204,-0.00028768,0.00019915,-0.00051647,0.00049258,0.00079
 344,0.01326707,0.00542873,0.01375979,-0.05432395,-0.06982042,-0.053515
 87,0.00331737,-0.00180794,-0.00020374,-0.00091583,0.00065832,-0.000050
 45,0.00317071,0.00018170,0.00287234,-0.02069176,-0.00762577,-0.0221353
 9,0.05621247,0.07275868,0.00000073,0.00000011,-0.00000011,-0.00000030,
 -0.00000098,0.00000031,0.00000047,0.00000061,-0.00000076,0.00001058,0.
 00001617,-0.00000323,-0.00002372,0.00000576,-0.00000581,0.00000563,-0.
 00000303,0.00000282,0.00000163,-0.00002110,0.00000341,-0.00000306,-0.0
 0000317,0.00000689,-0.00000036,-0.00000200,-0.00000043,0.00000358,0.00
 000288,-0.00000825,-0.00000112,0.00000187,0.00000185,-0.00000059,-0.00
 000192,-0.00000013,-0.00000040,-0.00000116,0.00000049,0.00000002,-0.00
 000020,-0.00000001,-0.00000007,0.,-0.00000010,-0.00000021,0.00000042,0
 .00000019,0.00000005,0.00000040,0.00000064,-0.00000027,-0.00000011,-0.
 00000004,0.00000004,0.00000040,0.00000018,0.00000024,-0.00000012,-0.00
 000009,-0.00000639,-0.00001513,0.00000603,0.00001425,0.00003775,-0.000
 01312,-0.00000037,-0.00000047,-0.00000032,0.00000232,0.00000873,-0.000
 00389,0.00000226,0.00000032,-0.00000014,0.00000367,0.00000609,-0.00000
 223,-0.00000082,-0.00000254,0.00000159,-0.00000146,-0.00000363,0.00000
 023,-0.00000017,-0.00000013,-0.00000008,-0.00000067,-0.00000015,0.0000
 0029,0.00000003,-0.00000011,-0.00000029,0.00000017,0.00000013,0.000000
 24,-0.00000013,0.00000006,-0.00000006,0.00015665,0.00029838,-0.0001435
 4,0.00072453,-0.00049411,0.00015807,-0.00098803,-0.00047602,0.00027236
 ,0.00359546,0.00183522,0.00298559,-0.12603336,-0.05197961,-0.17382005,
 0.00080442,-0.00052446,0.00130154,-0.00023177,0.00057997,0.00062793,-0
 .02045505,-0.00900744,-0.01876117,0.00509234,0.00115278,0.00412912,0.1
 3732925,0.05858953,0.18326408\\0.00000058,-0.00000082,-0.00000318,0.00
 000014,-0.00000013,-0.00000197,-0.00000009,-0.00000115,-0.00000426,0.0
 0000064,0.00000058,0.00000221,-0.00000284,0.00000380,-0.00000636,0.000
 00326,-0.00000205,-0.00000246,0.00000004,-0.00000427,0.00000643,0.0000
 0573,0.00000326,-0.00000533,-0.00000817,-0.00000694,-0.00000199,0.0000
 0349,-0.00000069,0.00000128,-0.00000132,-0.00000247,0.00000099,-0.0000
 0536,0.00000742,-0.00000231,0.00000540,-0.00000069,-0.00000270,0.00000
 007,-0.00000038,-0.00000246,0.00000039,-0.00000223,-0.00000363,0.00000
 004,0.00000028,-0.00000447,0.00000013,-0.00000113,-0.00000071,-0.00000
 036,0.00000078,-0.00000162,-0.00000012,0.00000017,-0.00000371,0.000000
 59,-0.00000147,-0.00000323,-0.00000094,-0.00000267,-0.00000122,0.00000
 098,0.00000492,-0.00000252,-0.00000074,0.00000086,-0.00000443,-0.00000
 108,0.00000120,0.00000128,0.00000148,0.00000096,0.00000204,0.00000348,
 0.00000220,0.00000039,-0.00000081,0.00000075,0.00000065,-0.00000149,-0
 .00000183,-0.00000308,-0.00000029,-0.00000048,-0.00000335,-0.00000002,
 -0.00000092,-0.00000150,0.00000007,-0.00000280,0.00000103,0.00000056,-
 0.00000322,-0.00000035,0.00000003,-0.00000372,-0.00000104,-0.00000292,
 0.00000396,0.00000157,-0.00000306,-0.00000128,0.00000946,0.00000530,0.
 00000054,-0.00000249,-0.00000120,0.00000094,0.00000168,-0.00000042,0.0
 0000119,0.00000704,-0.00000099,0.00000085,0.00000736,0.00000066,0.0000
 0308,0.00000677,0.00000013,0.00000004,0.00000626,-0.00000041,0.0000015
 2,0.00000776,-0.00000056,0.00000208,0.00000617\\\@


 THE LENGTH OF A MEETING IS PROPORTIONAL TO THE
 SQUARE OF THE PARTICIPANTS.
 Job cpu time:       0 days  6 hours 52 minutes 30.8 seconds.
 File lengths (MBytes):  RWF=   1197 Int=      0 D2E=      0 Chk=     30 Scr=      1
 Normal termination of Gaussian 09 at Tue Feb 19 14:09:27 2019.
WARNING: pbs_rusage is deprecated and values produced may not be accurate


=============================================================================
                                     Resource usage:
                                       CPU time:              33:13:40
   JobId:    5875926.r-man2            Elapsed time:          04:10:33
   Project:             q95            Requested time:        44:00:00
   Service Units:     33.41 
                                       Max physical memory:     1572MB
                                       Max virtual memory:      3017MB
                                       Requested memory:           0MB

                                       Number of cpus:               8

                                       Max jobfs disk use:       1.2GB
                                       Requested jobfs:         20.0GB
=============================================================================

