 Entering Gaussian System, Link 0=/apps/gaussian/g09e01/g09/g09
 AtFile(1): /home/507/hio507/Basis/6-31pGd.gbs
 Initial command:
 /apps/gaussian/g09e01/g09/l1.exe "/jobfs/local/5976731.r-man2/Gau-42117.inp" -scrdir="/jobfs/local/5976731.r-man2/"
 Entering Link 1 = /apps/gaussian/g09e01/g09/l1.exe PID=     42118.
  
 Copyright (c) 1988,1990,1992,1993,1995,1998,2003,2009,2015,
            Gaussian, Inc.  All Rights Reserved.
  
 This is part of the Gaussian(R) 09 program.  It is based on
 the Gaussian(R) 03 system (copyright 2003, Gaussian, Inc.),
 the Gaussian(R) 98 system (copyright 1998, Gaussian, Inc.),
 the Gaussian(R) 94 system (copyright 1995, Gaussian, Inc.),
 the Gaussian 92(TM) system (copyright 1992, Gaussian, Inc.),
 the Gaussian 90(TM) system (copyright 1990, Gaussian, Inc.),
 the Gaussian 88(TM) system (copyright 1988, Gaussian, Inc.),
 the Gaussian 86(TM) system (copyright 1986, Carnegie Mellon
 University), and the Gaussian 82(TM) system (copyright 1983,
 Carnegie Mellon University). Gaussian is a federally registered
 trademark of Gaussian, Inc.
  
 This software contains proprietary and confidential information,
 including trade secrets, belonging to Gaussian, Inc.
  
 This software is provided under written license and may be
 used, copied, transmitted, or stored only in accord with that
 written license.
  
 The following legend is applicable only to US Government
 contracts under FAR:
  
                    RESTRICTED RIGHTS LEGEND
  
 Use, reproduction and disclosure by the US Government is
 subject to restrictions as set forth in subparagraphs (a)
 and (c) of the Commercial Computer Software - Restricted
 Rights clause in FAR 52.227-19.
  
 Gaussian, Inc.
 340 Quinnipiac St., Bldg. 40, Wallingford CT 06492
  
  
 ---------------------------------------------------------------
 Warning -- This program may not be used in any manner that
 competes with the business of Gaussian, Inc. or will provide
 assistance to any competitor of Gaussian, Inc.  The licensee
 of this program is prohibited from giving any competitor of
 Gaussian, Inc. access to this program.  By using this program,
 the user acknowledges that Gaussian, Inc. is engaged in the
 business of creating and licensing software in the field of
 computational chemistry and represents and warrants to the
 licensee that it is not a competitor of Gaussian, Inc. and that
 it will not use this program in any manner prohibited above.
 ---------------------------------------------------------------
  

 Cite this work as:
 Gaussian 09, Revision E.01,
 M. J. Frisch, G. W. Trucks, H. B. Schlegel, G. E. Scuseria, 
 M. A. Robb, J. R. Cheeseman, G. Scalmani, V. Barone, B. Mennucci, 
 G. A. Petersson, H. Nakatsuji, M. Caricato, X. Li, H. P. Hratchian, 
 A. F. Izmaylov, J. Bloino, G. Zheng, J. L. Sonnenberg, M. Hada, 
 M. Ehara, K. Toyota, R. Fukuda, J. Hasegawa, M. Ishida, T. Nakajima, 
 Y. Honda, O. Kitao, H. Nakai, T. Vreven, J. A. Montgomery, Jr., 
 J. E. Peralta, F. Ogliaro, M. Bearpark, J. J. Heyd, E. Brothers, 
 K. N. Kudin, V. N. Staroverov, T. Keith, R. Kobayashi, J. Normand, 
 K. Raghavachari, A. Rendell, J. C. Burant, S. S. Iyengar, J. Tomasi, 
 M. Cossi, N. Rega, J. M. Millam, M. Klene, J. E. Knox, J. B. Cross, 
 V. Bakken, C. Adamo, J. Jaramillo, R. Gomperts, R. E. Stratmann, 
 O. Yazyev, A. J. Austin, R. Cammi, C. Pomelli, J. W. Ochterski, 
 R. L. Martin, K. Morokuma, V. G. Zakrzewski, G. A. Voth, 
 P. Salvador, J. J. Dannenberg, S. Dapprich, A. D. Daniels, 
 O. Farkas, J. B. Foresman, J. V. Ortiz, J. Cioslowski, 
 and D. J. Fox, Gaussian, Inc., Wallingford CT, 2013.
 
 ******************************************
 Gaussian 09:  ES64L-G09RevE.01 30-Nov-2015
                21-Feb-2019 
 ******************************************
 %chk=4SulfOxyMethyl_C2_EtO.M062X_6-31pGd_bsse.chk
 %mem=196608000
 %nproc=4
 Will use up to    4 processors via shared memory.
 ----------------------------------------------------------------------
 # M062X/Gen 6D SCF=Tight INT(grid=ultrafine) Counterpoise=2 maxdisk=67
 1088640
 ----------------------------------------------------------------------
 1/38=1,62=2/1;
 2/12=2,17=6,18=5,40=1/2;
 1/38=1,53=2,62=2,63=1/22;
 3/5=7,8=2,11=2,16=1,25=1,30=1,74=-55,75=-5/1,2,3;
 4//1;
 5/5=2,32=2,38=5/2;
 6/7=2,8=2,9=2,10=2,28=1/1;
 1/53=2,62=2,63=1/22;
 3/5=7,6=11,8=2,11=2,16=1,25=1,30=1,74=-55,75=-5,82=7/1,2,3;
 4//1;
 5/5=2,32=2,38=5/2;
 6/7=2,8=2,9=2,10=2,28=1/1;
 1/53=2,62=2,63=1/22(-4);
 99/5=1,9=1/99;
 ----------------------------------------
 4SulfOxyMethyl_C2_EtO.M062X_6-31pGd_bsse
 ----------------------------------------
 Symbolic Z-matrix:
 Charge = -1 Multiplicity = 1 in supermolecule
 Charge =  0 Multiplicity = 1 in fragment      1.
 Charge = -1 Multiplicity = 1 in fragment      2.
 C(Fragment=1)        -2.11385   2.44348  -0.45316 
 C(Fragment=1)        -0.80269   1.76559  -0.06249 
 C(Fragment=1)         0.40401   2.62653  -0.42032 
 N(Fragment=1)         1.62316   1.93523  -0.06812 
 C(Fragment=1)         2.80996   2.58356  -0.10881 
 O(Fragment=1)         2.9217    3.78084  -0.38272 
 N(Fragment=1)         3.88389   1.75274   0.19938 
 C(Fragment=1)         5.21618   2.08611   0.23375 
 C(Fragment=1)         5.7288    3.37936  -0.01074 
 C(Fragment=1)         6.11794   1.03857   0.54465 
 C(Fragment=1)         7.47982   1.26892   0.59181 
 C(Fragment=1)         7.97186   2.55341   0.3355 
 C(Fragment=1)         7.09873   3.59945   0.03718 
 H(Fragment=1)        -2.97765   1.82543  -0.18708 
 H(Fragment=1)        -2.15467   2.62813  -1.53322 
 H(Fragment=1)        -2.22426   3.41054   0.05206 
 H(Fragment=1)        -0.71071   0.7911   -0.55624 
 H(Fragment=1)        -0.78426   1.56115   1.0148 
 H(Fragment=1)         0.36572   3.58577   0.11149 
 H(Fragment=1)         0.38896   2.86611  -1.49577 
 H(Fragment=1)         1.57867   0.90878   0.07686 
 H(Fragment=1)         3.6711    0.75161   0.39947 
 H(Fragment=1)         5.04262   4.1849   -0.23233 
 H(Fragment=1)         5.71011   0.05055   0.74515 
 H(Fragment=1)         8.16897   0.46728   0.84318 
 S(Fragment=1)         9.70919   2.82601   0.28275 
 O(Fragment=1)         10.38405   1.82097   1.11179 
 O(Fragment=1)         9.98347   4.25274   0.48912 
 H(Fragment=1)         7.49852   4.59438  -0.14007 
 C(Fragment=1)         10.16019   2.46488  -1.41687 
 H(Fragment=1)         9.90063   1.42744  -1.63338 
 H(Fragment=1)         11.23902   2.62018  -1.49137 
 H(Fragment=1)         9.62177   3.15041  -2.07304 
 O(Fragment=2)         1.34575  -0.83913   0.28782 
 O(Fragment=2)         3.5466   -0.94817   0.71973 
 C(Fragment=2)         2.39861  -1.45444   0.59368 
 C(Fragment=2)         2.25632  -2.96589   0.83562 
 C(Fragment=2)         3.55887  -3.67466   1.1856 
 H(Fragment=2)         1.80284  -3.39439  -0.06672 
 H(Fragment=2)         1.51188  -3.09367   1.63136 
 H(Fragment=2)         4.29265  -3.5526    0.38351 
 H(Fragment=2)         3.39586  -4.74688   1.35028 
 H(Fragment=2)         4.00084  -3.24541   2.08931 
 
                          Input orientation:                          
 ---------------------------------------------------------------------
 Center     Atomic      Atomic             Coordinates (Angstroms)
 Number     Number       Type             X           Y           Z
 ---------------------------------------------------------------------
      1          6           0       -2.113853    2.443477   -0.453164
      2          6           0       -0.802685    1.765586   -0.062488
      3          6           0        0.404006    2.626525   -0.420320
      4          7           0        1.623158    1.935230   -0.068123
      5          6           0        2.809956    2.583562   -0.108808
      6          8           0        2.921704    3.780835   -0.382716
      7          7           0        3.883890    1.752743    0.199383
      8          6           0        5.216182    2.086108    0.233752
      9          6           0        5.728799    3.379364   -0.010743
     10          6           0        6.117940    1.038570    0.544652
     11          6           0        7.479825    1.268921    0.591813
     12          6           0        7.971863    2.553413    0.335496
     13          6           0        7.098728    3.599449    0.037182
     14          1           0       -2.977651    1.825433   -0.187084
     15          1           0       -2.154673    2.628134   -1.533222
     16          1           0       -2.224260    3.410543    0.052058
     17          1           0       -0.710713    0.791100   -0.556244
     18          1           0       -0.784264    1.561146    1.014796
     19          1           0        0.365717    3.585765    0.111492
     20          1           0        0.388957    2.866114   -1.495766
     21          1           0        1.578668    0.908779    0.076856
     22          1           0        3.671103    0.751609    0.399467
     23          1           0        5.042619    4.184899   -0.232330
     24          1           0        5.710114    0.050547    0.745149
     25          1           0        8.168969    0.467276    0.843184
     26         16           0        9.709187    2.826013    0.282753
     27          8           0       10.384051    1.820966    1.111785
     28          8           0        9.983465    4.252741    0.489115
     29          1           0        7.498523    4.594381   -0.140072
     30          6           0       10.160192    2.464875   -1.416867
     31          1           0        9.900628    1.427440   -1.633376
     32          1           0       11.239020    2.620175   -1.491367
     33          1           0        9.621765    3.150409   -2.073037
     34          8           0        1.345750   -0.839133    0.287824
     35          8           0        3.546600   -0.948169    0.719728
     36          6           0        2.398610   -1.454440    0.593683
     37          6           0        2.256325   -2.965891    0.835623
     38          6           0        3.558874   -3.674656    1.185602
     39          1           0        1.802844   -3.394391   -0.066716
     40          1           0        1.511876   -3.093668    1.631361
     41          1           0        4.292651   -3.552598    0.383512
     42          1           0        3.395857   -4.746883    1.350285
     43          1           0        4.000840   -3.245409    2.089312
 ---------------------------------------------------------------------
                    Distance matrix (angstroms):
                    1          2          3          4          5
     1  C    0.000000
     2  C    1.526867   0.000000
     3  C    2.524717   1.524914   0.000000
     4  N    3.791019   2.431774   1.445083   0.000000
     5  C    4.937824   3.704377   2.426414   1.352952   0.000000
     6  O    5.210598   4.246746   2.769955   2.278475   1.233279
     7  N    6.072549   4.693904   3.641033   2.283806   1.392328
     8  C    7.370819   6.034671   4.886399   3.608838   2.480873
     9  C    7.910677   6.728094   5.393324   4.352597   3.026972
    10  C    8.410221   6.985144   6.008479   4.624128   3.709012
    11  C    9.721636   8.323146   7.275625   5.931276   4.901716
    12  C   10.117102   8.818830   7.605858   6.391488   5.181081
    13  C    9.297761   8.112048   6.780501   5.723860   4.409864
    14  H    1.094954   2.179353   3.483066   4.603656   5.837575
    15  H    1.096490   2.175987   2.790232   4.110796   5.165122
    16  H    1.096657   2.177126   2.783093   4.122331   5.104224
    17  H    2.170202   1.096302   2.151710   2.644664   3.975956
    18  H    2.168230   1.096666   2.146294   2.666146   3.902081
    19  H    2.787818   2.169904   1.097466   2.082711   2.650896
    20  H    2.744029   2.164592   1.101913   2.104272   2.804412
    21  H    4.033724   2.534636   2.139548   1.037593   2.086969
    22  H    6.087291   4.610459   3.855034   2.411157   2.087096
    23  H    7.368610   6.328468   4.896999   4.096424   2.750331
    24  H    8.269010   6.783082   6.012385   4.573473   3.944151
    25  H   10.550939   9.110237   8.158030   6.770008   5.839860
    26  S   11.852096  10.570864   9.333837   8.142510   6.914585
    27  O   12.610876  11.248335  10.129046   8.840729   7.709624
    28  O   12.268106  11.082926   9.758980   8.693452   7.389378
    29  H    9.855059   8.770300   7.367712   6.449510   5.101669
    30  C   12.311838  11.068335   9.808283   8.659133   7.466664
    31  H   12.114990  10.823260   9.648583   8.439454   7.344287
    32  H   13.394338  12.156261  10.887824   9.744720   8.541775
    33  H   11.867960  10.706503   9.379393   8.335110   7.111979
    34  O    4.826329   3.394563   3.660483   2.810826   3.743803
    35  O    6.702214   5.185809   4.894288   3.554481   3.701654
    36  C    6.054087   4.587747   4.654130   3.539658   4.119243
    37  C    7.072531   5.705351   6.023587   5.023808   5.656403
    38  C    8.502761   7.083584   7.227521   6.065447   6.434413
    39  H    7.040636   5.780499   6.191382   5.332649   6.062340
    40  H    6.939102   5.642577   6.177166   5.309468   6.078170
    41  H    8.814547   7.378649   7.345017   6.119349   6.331922
    42  H    9.236374   7.876290   8.151893   7.057264   7.497176
    43  H    8.730239   7.267336   7.329057   6.094827   6.342463
                    6          7          8          9         10
     6  O    0.000000
     7  N    2.319008   0.000000
     8  C    2.918349   1.373795   0.000000
     9  C    2.859952   2.468549   1.412468   0.000000
    10  C    4.312303   2.370703   1.416744   2.437050   0.000000
    11  C    5.294892   3.649497   2.433122   2.807692   1.382033
    12  C    5.246571   4.167868   2.796875   2.415246   2.403233
    13  C    4.201993   3.711039   2.423390   1.388323   2.788830
    14  H    6.218060   6.872801   8.208773   8.845794   9.158841
    15  H    5.331228   6.342908   7.599046   8.064206   8.676429
    16  H    5.177556   6.330837   7.559584   7.953368   8.686841
    17  H    4.707768   4.754588   6.117942   6.961608   6.921251
    18  H    4.540293   4.742707   6.073793   6.839418   6.937906
    19  H    2.610625   3.968027   5.078477   5.368444   6.305863
    20  H    2.913830   4.040753   5.186689   5.566204   6.350155
    21  H    3.203694   2.457913   3.826516   4.830637   4.565159
    22  H    3.217082   1.042872   2.048320   3.362660   2.467881
    23  H    2.164293   2.728445   2.156915   1.081125   3.414588
    24  H    4.791906   2.555470   2.156155   3.413612   1.087525
    25  H    6.325843   4.519823   3.422130   3.894082   2.149934
    26  S    6.886542   5.923930   4.553785   4.029371   4.020025
    27  O    7.858832   6.564238   5.248630   5.035876   4.374184
    28  O    7.131006   6.598390   5.242757   4.372051   5.027551
    29  H    4.654890   4.610391   3.411783   2.150562   3.875390
    30  C    7.429464   6.520074   5.226016   4.738219   4.713990
    31  H    7.470475   6.298092   5.085671   4.883350   4.382209
    32  H    8.470772   7.596645   6.287754   5.755967   5.733438
    33  H    6.938691   6.327762   5.085585   4.411424   4.856846
    34  O    4.927207   3.628746   4.851824   6.090647   5.134737
    35  O    4.895852   2.771183   3.497215   4.901339   3.254162
    36  C    5.351177   3.556340   4.539134   5.900945   4.477825
    37  C    6.888062   5.031827   5.886059   7.282629   5.570677
    38  C    7.645257   5.525842   6.069521   7.476564   5.401308
    39  H    7.268809   5.558287   6.463515   7.829433   6.216508
    40  H    7.300885   5.582537   6.519607   7.898044   6.282687
    41  H    7.499723   5.324250   5.715798   7.090138   4.943326
    42  H    8.714935   6.618753   7.158909   8.563346   6.444396
    43  H    7.526192   5.344814   5.774532   7.161263   5.022007
                   11         12         13         14         15
    11  C    0.000000
    12  C    1.399185   0.000000
    13  C    2.425739   1.394829   0.000000
    14  H   10.501199  10.986124  10.233809   0.000000
    15  H    9.959257  10.297788   9.435839   1.770229   0.000000
    16  H    9.952243  10.236012   9.324913   1.771260   1.769214
    17  H    8.284398   8.904385   8.320236   2.518955   2.532628
    18  H    8.280065   8.838315   8.200730   2.515017   3.083648
    19  H    7.497266   7.679153   6.733435   3.790255   3.158245
    20  H    7.562368   7.807162   6.921614   3.758951   2.555013
    21  H    5.934521   6.606411   6.141037   4.655100   4.414337
    22  H    3.848503   4.663382   4.471024   6.760404   6.418435
    23  H    3.888716   3.400684   2.154756   8.360255   7.477757
    24  H    2.154025   3.398185   3.876102   8.916084   8.584277
    25  H    1.086619   2.156053   3.406693  11.276221  10.811762
    26  S    2.736807   1.759371   2.733680  12.734904  12.003671
    27  O    3.001608   2.637755   3.887302  13.424685  12.840062
    28  O    3.896401   2.637775   2.992114  13.203772  12.412236
    29  H    3.405097   2.148434   1.086805  10.836029   9.949432
    30  C    3.556610   2.804888   3.574084  13.210760  12.316497
    31  H    3.291942   2.977315   3.919060  12.965348  12.115362
    32  H    4.505228   3.743821   4.520781  14.298479  13.393761
    33  H    3.902478   2.979868   3.319696  12.808500  11.800367
    34  O    6.493317   7.444260   7.270528   5.100711   5.252725
    35  O    4.516869   5.656117   5.810706   7.147100   7.097200
    36  C    5.765019   6.869549   6.924059   6.345971   6.474838
    37  C    6.728896   7.961170   8.196955   7.169185   7.507427
    38  C    6.337617   7.680234   8.170804   8.652249   8.930946
    39  H    7.376195   8.578750   8.773311   7.079137   7.354141
    40  H    7.465204   8.677571   8.862964   6.903633   7.496479
    41  H    5.783469   7.128975   7.690630   9.061241   9.134732
    42  H    7.310538   8.675479   9.224789   9.283342   9.670257
    43  H    5.892793   7.243702   7.788467   8.921589   9.247249
                   16         17         18         19         20
    16  H    0.000000
    17  H    3.085828   0.000000
    18  H    2.533914   1.751156   0.000000
    19  H    2.596578   3.068342   2.497498   0.000000
    20  H    3.085622   2.529358   3.063055   1.761169   0.000000
    21  H    4.552109   2.378219   2.624645   2.939167   2.778436
    22  H    6.476567   4.485003   4.569931   4.363593   4.339990
    23  H    7.313551   6.687572   6.510912   4.727641   4.999204
    24  H    8.644318   6.593107   6.673198   6.439089   6.423693
    25  H   10.830877   8.995110   9.021440   8.435110   8.470755
    26  S   11.949981  10.649840  10.594730   9.375873   9.488489
    27  O   12.752226  11.266620  11.171758  10.221649  10.382368
    28  O   12.244544  11.288984  11.111481   9.648240   9.895306
    29  H    9.796474   9.057025   8.895999   7.208156   7.441152
    30  C   12.507065  11.032623  11.247703   9.976173   9.779788
    31  H   12.401060  10.684835  11.008979   9.930633   9.620843
    32  H   13.574489  12.125019  12.327277  11.033143  10.852851
    33  H   12.037940  10.706404  10.970228   9.520301   9.255204
    34  O    5.555205   2.756656   3.290409   4.535558   4.222026
    35  O    7.262712   4.772617   5.013992   5.571762   5.424747
    36  C    6.732929   4.004082   4.404745   5.456082   5.203046
    37  C    7.832530   4.985538   5.456312   6.857329   6.552459
    38  C    9.215726   6.419220   6.804825   8.003979   7.747243
    39  H    7.908147   4.906724   5.693868   7.128792   6.575346
    40  H    7.665355   4.981661   5.226825   6.945395   6.823406
    41  H    9.542815   6.692123   7.233531   8.151751   7.744054
    42  H    9.990731   7.153183   7.574773   8.952619   8.665977
    43  H    9.338307   6.744710   6.866933   7.986916   7.952936
                   21         22         23         24         25
    21  H    0.000000
    22  H    2.122985   0.000000
    23  H    4.777815   3.750694   0.000000
    24  H    4.272239   2.183702   4.300452   0.000000
    25  H    6.649379   4.528634   4.975090   2.495844   0.000000
    26  S    8.356047   6.385549   4.887611   4.889745   2.872281
    27  O    8.912796   6.834807   5.993807   5.011436   2.609830
    28  O    9.054980   7.218856   4.993701   5.998793   4.212779
    29  H    6.976776   5.450426   2.491516   4.962706   4.295263
    30  C    8.848458   6.952886   5.527311   5.505133   3.614306
    31  H    8.511693   6.587578   5.759060   5.011349   3.170790
    32  H    9.935321   8.021232   6.513749   6.494135   4.417049
    33  H    8.621969   6.875892   5.042515   5.731695   4.220683
    34  O    1.775938   2.819608   6.259257   4.477538   6.969321
    35  O    2.781061   1.734161   5.430735   2.383039   4.835806
    36  C    2.554256   2.554136   6.282932   3.640603   6.087059
    37  C    4.005998   4.001455   7.748404   4.586474   6.837109
    38  C    5.114530   4.496936   8.123093   4.324230   6.206917
    39  H    4.311397   4.571328   8.244344   5.271953   7.501196
    40  H    4.294244   4.578863   8.301629   5.319461   7.590681
    41  H    5.231026   4.348883   7.798114   3.888784   5.603260
    42  H    6.075386   5.586880   9.219177   5.360719   7.087115
    43  H    5.212886   4.352064   7.853967   3.948635   5.719279
                   26         27         28         29         30
    26  S    0.000000
    27  O    1.467262   0.000000
    28  O    1.467435   2.541991   0.000000
    29  H    2.862331   4.193477   2.586026   0.000000
    30  C    1.795142   2.618934   2.619249   3.639983   0.000000
    31  H    2.379959   2.815044   3.534708   4.246125   1.091111
    32  H    2.351650   2.854139   2.857271   4.440135   1.092491
    33  H    2.379627   3.534345   2.812577   3.213964   1.091063
    34  O    9.131287   9.457585  10.028849   8.219658   9.566443
    35  O    7.239674   7.387323   8.278640   6.861254   7.742965
    36  C    8.477234   8.646617   9.492781   7.945800   8.924433
    37  C    9.454998   9.436641  10.580049   9.251505   9.850790
    38  C    8.994453   8.763010  10.227614   9.255010   9.383181
    39  H   10.066073  10.110684  11.212054   9.811555  10.295591
    40  H   10.200847  10.155741  11.271304   9.903738  10.722988
    41  H    8.368734   8.155411   9.660220   8.770691   8.595312
    42  H    9.916981   9.593142  11.186216  10.310783  10.267561
    43  H    8.527077   8.207867   9.724952   8.869399   9.101552
                   31         32         33         34         35
    31  H    0.000000
    32  H    1.798354   0.000000
    33  H    1.799914   1.798611   0.000000
    34  O    9.056175  10.630575   9.485912   0.000000
    35  O    7.180131   8.763295   7.842545   2.245478   0.000000
    36  C    8.339383   9.955038   8.971622   1.257245   1.260983
    37  C    9.156020  10.830874  10.005956   2.377463   2.397800
    38  C    8.613702  10.284731   9.693239   3.707305   2.766029
    39  H    9.553983  11.280340  10.392077   2.619919   3.105347
    40  H   10.073236  11.705416  10.884915   2.629756   3.094244
    41  H    7.766468   9.479997   8.908669   4.007028   2.729960
    42  H    9.451801  11.129408  10.623007   4.538972   3.853641
    43  H    8.396512   9.980861   9.477680   4.010614   2.712822
                   36         37         38         39         40
    36  C    0.000000
    37  C    1.537292   0.000000
    38  C    2.574090   1.523637   0.000000
    39  H    2.134122   1.097029   2.174970   0.000000
    40  H    2.133106   1.097146   2.174040   1.748874   0.000000
    41  H    2.834402   2.166854   1.093927   2.535128   3.082281
    42  H    3.522375   2.176084   1.096980   2.524840   2.522203
    43  H    2.830480   2.166380   1.093746   3.082506   2.535289
                   41         42         43
    41  H    0.000000
    42  H    1.779102   0.000000
    43  H    1.757633   1.779492   0.000000
 Stoichiometry    C14H21N2O5S(1-)
 Framework group  C1[X(C14H21N2O5S)]
 Deg. of freedom   123
 Full point group                 C1      NOp   1
 Largest Abelian subgroup         C1      NOp   1
 Largest concise Abelian subgroup C1      NOp   1
                         Standard orientation:                         
 ---------------------------------------------------------------------
 Center     Atomic      Atomic             Coordinates (Angstroms)
 Number     Number       Type             X           Y           Z
 ---------------------------------------------------------------------
      1          6           0       -6.464007   -2.689887    0.077836
      2          6           0       -5.355908   -1.655093   -0.102840
      3          6           0       -3.977309   -2.258404    0.143824
      4          7           0       -2.961877   -1.240535   -0.001444
      5          6           0       -1.653062   -1.582484   -0.024966
      6          8           0       -1.254112   -2.748745    0.015692
      7          7           0       -0.812645   -0.475488   -0.107642
      8          6           0        0.560850   -0.468434   -0.135496
      9          6           0        1.372092   -1.624611   -0.121055
     10          6           0        1.181491    0.804060   -0.187706
     11          6           0        2.558642    0.918605   -0.206422
     12          6           0        3.347741   -0.236528   -0.179787
     13          6           0        2.754546   -1.498245   -0.138088
     14          1           0       -7.451249   -2.254343   -0.108119
     15          1           0       -6.463061   -3.093339    1.097402
     16          1           0       -6.333390   -3.532782   -0.611455
     17          1           0       -5.506164   -0.807215    0.575690
     18          1           0       -5.383409   -1.238733   -1.117021
     19          1           0       -3.778545   -3.071340   -0.566147
     20          1           0       -3.937967   -2.706983    1.149529
     21          1           0       -3.254509   -0.246631    0.054422
     22          1           0       -1.262106    0.465481   -0.119629
     23          1           0        0.901938   -2.597873   -0.097648
     24          1           0        0.546066    1.686276   -0.213024
     25          1           0        3.032740    1.894896   -0.259598
     26         16           0        5.098897   -0.093036   -0.088943
     27          8           0        5.511971    1.189864   -0.668937
     28          8           0        5.713361   -1.341563   -0.554754
     29          1           0        3.383962   -2.384236   -0.137307
     30          6           0        5.441312    0.013769    1.670000
     31          1           0        4.935922    0.893897    2.070596
     32          1           0        6.525151    0.107714    1.770024
     33          1           0        5.083429   -0.898191    2.150278
     34          8           0       -3.905390    1.401228    0.176368
     35          8           0       -1.795663    2.115482   -0.108343
     36          6           0       -3.032916    2.297994    0.052818
     37          6           0       -3.538159    3.749016    0.103128
     38          6           0       -2.446109    4.802866   -0.032126
     39          1           0       -4.086091    3.865884    1.046307
     40          1           0       -4.288019    3.854222   -0.690831
     41          1           0       -1.708019    4.699272    0.768604
     42          1           0       -2.864767    5.816056    0.007070
     43          1           0       -1.909158    4.682826   -0.977406
 ---------------------------------------------------------------------
 Rotational constants (GHZ):      0.3758221      0.1038241      0.0832054
 Counterpoise: doing full dimer calculation.
 General basis read from cards:  (6D, 7F)
 There are   464 symmetry adapted cartesian basis functions of A   symmetry.
 There are   464 symmetry adapted basis functions of A   symmetry.
   464 basis functions,   812 primitive gaussians,   464 cartesian basis functions
    88 alpha electrons       88 beta electrons
       nuclear repulsion energy      1940.3949202169 Hartrees.
 NAtoms=   43 NActive=   43 NUniq=   43 SFac= 1.00D+00 NAtFMM=   60 NAOKFM=F Big=F
 Integral buffers will be    131072 words long.
 Raffenetti 2 integral format.
 Two-electron integral symmetry is turned on.
 One-electron integrals computed using PRISM.
 NBasis=   464 RedAO= T EigKep=  1.73D-06  NBF=   464
 NBsUse=   462 1.00D-06 EigRej=  8.56D-07 NBFU=   462
 ExpMin= 4.05D-02 ExpMax= 2.19D+04 ExpMxC= 3.30D+03 IAcc=3 IRadAn=         5 AccDes= 0.00D+00
 Harris functional with IExCor= 1009 and IRadAn=       5 diagonalized for initial guess.
 HarFok:  IExCor= 1009 AccDes= 0.00D+00 IRadAn=         5 IDoV= 1 UseB2=F ITyADJ=14
 ICtDFT=  3500011 ScaDFX=  1.000000  1.000000  1.000000  1.000000
 FoFCou: FMM=F IPFlag=           0 FMFlag=      100000 FMFlg1=           0
         NFxFlg=           0 DoJE=T BraDBF=F KetDBF=T FulRan=T
         wScrn=  0.000000 ICntrl=     500 IOpCl=  0 I1Cent=   200000004 NGrid=           0
         NMat0=    1 NMatS0=      1 NMatT0=    0 NMatD0=    1 NMtDS0=    0 NMtDT0=    0
 Petite list used in FoFCou.
 Requested convergence on RMS density matrix=1.00D-08 within 128 cycles.
 Requested convergence on MAX density matrix=1.00D-06.
 Requested convergence on             energy=1.00D-06.
 No special actions if energy rises.
 SCF Done:  E(RM062X) =  -1429.60733309     A.U. after   16 cycles
            NFock= 16  Conv=0.37D-08     -V/T= 2.0071

 **********************************************************************

            Population analysis using the SCF density.

 **********************************************************************

 Orbital symmetries:
       Occupied  (A) (A) (A) (A) (A) (A) (A) (A) (A) (A) (A) (A)
                 (A) (A) (A) (A) (A) (A) (A) (A) (A) (A) (A) (A)
                 (A) (A) (A) (A) (A) (A) (A) (A) (A) (A) (A) (A)
                 (A) (A) (A) (A) (A) (A) (A) (A) (A) (A) (A) (A)
                 (A) (A) (A) (A) (A) (A) (A) (A) (A) (A) (A) (A)
                 (A) (A) (A) (A) (A) (A) (A) (A) (A) (A) (A) (A)
                 (A) (A) (A) (A) (A) (A) (A) (A) (A) (A) (A) (A)
                 (A) (A) (A) (A)
       Virtual   (A) (A) (A) (A) (A) (A) (A) (A) (A) (A) (A) (A)
                 (A) (A) (A) (A) (A) (A) (A) (A) (A) (A) (A) (A)
                 (A) (A) (A) (A) (A) (A) (A) (A) (A) (A) (A) (A)
                 (A) (A) (A) (A) (A) (A) (A) (A) (A) (A) (A) (A)
                 (A) (A) (A) (A) (A) (A) (A) (A) (A) (A) (A) (A)
                 (A) (A) (A) (A) (A) (A) (A) (A) (A) (A) (A) (A)
                 (A) (A) (A) (A) (A) (A) (A) (A) (A) (A) (A) (A)
                 (A) (A) (A) (A) (A) (A) (A) (A) (A) (A) (A) (A)
                 (A) (A) (A) (A) (A) (A) (A) (A) (A) (A) (A) (A)
                 (A) (A) (A) (A) (A) (A) (A) (A) (A) (A) (A) (A)
                 (A) (A) (A) (A) (A) (A) (A) (A) (A) (A) (A) (A)
                 (A) (A) (A) (A) (A) (A) (A) (A) (A) (A) (A) (A)
                 (A) (A) (A) (A) (A) (A) (A) (A) (A) (A) (A) (A)
                 (A) (A) (A) (A) (A) (A) (A) (A) (A) (A) (A) (A)
                 (A) (A) (A) (A) (A) (A) (A) (A) (A) (A) (A) (A)
                 (A) (A) (A) (A) (A) (A) (A) (A) (A) (A) (A) (A)
                 (A) (A) (A) (A) (A) (A) (A) (A) (A) (A) (A) (A)
                 (A) (A) (A) (A) (A) (A) (A) (A) (A) (A) (A) (A)
                 (A) (A) (A) (A) (A) (A) (A) (A) (A) (A) (A) (A)
                 (A) (A) (A) (A) (A) (A) (A) (A) (A) (A) (A) (A)
                 (A) (A) (A) (A) (A) (A) (A) (A) (A) (A) (A) (A)
                 (A) (A) (A) (A) (A) (A) (A) (A) (A) (A) (A) (A)
                 (A) (A) (A) (A) (A) (A) (A) (A) (A) (A) (A) (A)
                 (A) (A) (A) (A) (A) (A) (A) (A) (A) (A) (A) (A)
                 (A) (A) (A) (A) (A) (A) (A) (A) (A) (A) (A) (A)
                 (A) (A) (A) (A) (A) (A) (A) (A) (A) (A) (A) (A)
                 (A) (A) (A) (A) (A) (A) (A) (A) (A) (A) (A) (A)
                 (A) (A) (A) (A) (A) (A) (A) (A) (A) (A) (A) (A)
                 (A) (A) (A) (A) (A) (A) (A) (A) (A) (A) (A) (A)
                 (A) (A) (A) (A) (A) (A) (A) (A) (A) (A) (A) (A)
                 (A) (A) (A) (A) (A) (A) (A) (A) (A) (A) (A) (A)
                 (A) (A)
 The electronic state is 1-A.
 Alpha  occ. eigenvalues --  -90.05221 -19.54641 -19.54620 -19.49374 -19.47438
 Alpha  occ. eigenvalues --  -19.46911 -14.67088 -14.65151 -10.56321 -10.52068
 Alpha  occ. eigenvalues --  -10.50986 -10.50233 -10.48302 -10.47611 -10.47592
 Alpha  occ. eigenvalues --  -10.47348 -10.45598 -10.45573 -10.45320 -10.44793
 Alpha  occ. eigenvalues --  -10.43184 -10.43137  -8.36577  -6.28749  -6.28688
 Alpha  occ. eigenvalues --   -6.28639  -1.13523  -1.05505  -1.03517  -1.02788
 Alpha  occ. eigenvalues --   -0.94212  -0.93698  -0.90862  -0.86694  -0.79675
 Alpha  occ. eigenvalues --   -0.78478  -0.75840  -0.75242  -0.74916  -0.68622
 Alpha  occ. eigenvalues --   -0.64522  -0.61801  -0.61402  -0.58924  -0.57361
 Alpha  occ. eigenvalues --   -0.55203  -0.51733  -0.51253  -0.49859  -0.47314
 Alpha  occ. eigenvalues --   -0.46514  -0.46010  -0.45237  -0.43553  -0.42915
 Alpha  occ. eigenvalues --   -0.42520  -0.41770  -0.41450  -0.41145  -0.41021
 Alpha  occ. eigenvalues --   -0.40780  -0.40224  -0.39009  -0.38275  -0.37350
 Alpha  occ. eigenvalues --   -0.36686  -0.35997  -0.34594  -0.34343  -0.33865
 Alpha  occ. eigenvalues --   -0.32904  -0.31528  -0.31301  -0.30990  -0.30630
 Alpha  occ. eigenvalues --   -0.30400  -0.29991  -0.29060  -0.28339  -0.27571
 Alpha  occ. eigenvalues --   -0.26453  -0.22882  -0.22173  -0.20374  -0.19846
 Alpha  occ. eigenvalues --   -0.19671  -0.19123  -0.16061
 Alpha virt. eigenvalues --    0.08688   0.09160   0.10069   0.10896   0.11050
 Alpha virt. eigenvalues --    0.11548   0.11977   0.12362   0.12417   0.13045
 Alpha virt. eigenvalues --    0.13100   0.13580   0.14073   0.14449   0.14603
 Alpha virt. eigenvalues --    0.14994   0.15182   0.15306   0.15862   0.16233
 Alpha virt. eigenvalues --    0.16678   0.17094   0.17531   0.17994   0.18402
 Alpha virt. eigenvalues --    0.18742   0.19402   0.19570   0.19683   0.20422
 Alpha virt. eigenvalues --    0.20629   0.20822   0.21362   0.21925   0.22024
 Alpha virt. eigenvalues --    0.22515   0.23151   0.23389   0.23667   0.23833
 Alpha virt. eigenvalues --    0.24086   0.24331   0.24827   0.25004   0.25378
 Alpha virt. eigenvalues --    0.26202   0.26559   0.26743   0.27293   0.27732
 Alpha virt. eigenvalues --    0.28130   0.28907   0.29211   0.29474   0.30094
 Alpha virt. eigenvalues --    0.30773   0.30934   0.31465   0.31658   0.32268
 Alpha virt. eigenvalues --    0.32680   0.33183   0.33283   0.33382   0.33987
 Alpha virt. eigenvalues --    0.34051   0.34431   0.34988   0.35114   0.35428
 Alpha virt. eigenvalues --    0.35663   0.35846   0.35969   0.36566   0.36700
 Alpha virt. eigenvalues --    0.37447   0.37628   0.37890   0.38387   0.38441
 Alpha virt. eigenvalues --    0.38683   0.39345   0.39594   0.39826   0.40319
 Alpha virt. eigenvalues --    0.40682   0.41170   0.41390   0.41996   0.42080
 Alpha virt. eigenvalues --    0.42718   0.43016   0.43369   0.43559   0.43681
 Alpha virt. eigenvalues --    0.43858   0.44399   0.44725   0.45299   0.45774
 Alpha virt. eigenvalues --    0.45961   0.46685   0.46831   0.47314   0.47810
 Alpha virt. eigenvalues --    0.48208   0.48436   0.49400   0.49607   0.49986
 Alpha virt. eigenvalues --    0.50380   0.50869   0.51322   0.53286   0.53996
 Alpha virt. eigenvalues --    0.55113   0.55733   0.56303   0.56999   0.57736
 Alpha virt. eigenvalues --    0.58182   0.59109   0.60019   0.61382   0.62472
 Alpha virt. eigenvalues --    0.63865   0.64841   0.65469   0.66346   0.67990
 Alpha virt. eigenvalues --    0.68608   0.70058   0.71344   0.72035   0.73695
 Alpha virt. eigenvalues --    0.75930   0.77124   0.79019   0.79040   0.79756
 Alpha virt. eigenvalues --    0.80523   0.80611   0.83538   0.83881   0.84452
 Alpha virt. eigenvalues --    0.84958   0.86224   0.86567   0.86921   0.87714
 Alpha virt. eigenvalues --    0.87950   0.88397   0.89672   0.89974   0.90736
 Alpha virt. eigenvalues --    0.91906   0.92261   0.92420   0.92922   0.94263
 Alpha virt. eigenvalues --    0.96141   0.96657   0.97369   0.97717   0.98452
 Alpha virt. eigenvalues --    0.98989   1.00774   1.01532   1.02558   1.04479
 Alpha virt. eigenvalues --    1.05355   1.06032   1.06902   1.08369   1.09488
 Alpha virt. eigenvalues --    1.09923   1.10355   1.10793   1.11529   1.12635
 Alpha virt. eigenvalues --    1.13280   1.13917   1.14517   1.16137   1.16925
 Alpha virt. eigenvalues --    1.17956   1.18397   1.18972   1.19405   1.19753
 Alpha virt. eigenvalues --    1.20324   1.21241   1.21979   1.22656   1.24249
 Alpha virt. eigenvalues --    1.25704   1.27109   1.27470   1.28252   1.28664
 Alpha virt. eigenvalues --    1.28987   1.29261   1.31889   1.33177   1.33533
 Alpha virt. eigenvalues --    1.34362   1.34485   1.36437   1.38296   1.41188
 Alpha virt. eigenvalues --    1.41358   1.43519   1.44155   1.45089   1.46376
 Alpha virt. eigenvalues --    1.47186   1.47552   1.47874   1.48636   1.48958
 Alpha virt. eigenvalues --    1.49780   1.50047   1.50534   1.51158   1.51857
 Alpha virt. eigenvalues --    1.52600   1.52990   1.53831   1.53912   1.55223
 Alpha virt. eigenvalues --    1.55855   1.56492   1.57586   1.58652   1.59846
 Alpha virt. eigenvalues --    1.61199   1.61899   1.62362   1.64294   1.64945
 Alpha virt. eigenvalues --    1.65410   1.66176   1.67302   1.68937   1.69077
 Alpha virt. eigenvalues --    1.70475   1.71259   1.72429   1.74980   1.76817
 Alpha virt. eigenvalues --    1.78170   1.79588   1.84492   1.85276   1.88042
 Alpha virt. eigenvalues --    1.89479   1.90969   1.92022   1.93576   1.95131
 Alpha virt. eigenvalues --    1.95705   1.97190   1.97664   1.98329   1.99157
 Alpha virt. eigenvalues --    1.99390   2.00924   2.01854   2.02189   2.03512
 Alpha virt. eigenvalues --    2.04478   2.05063   2.06448   2.07068   2.07455
 Alpha virt. eigenvalues --    2.07656   2.08467   2.09718   2.11699   2.13155
 Alpha virt. eigenvalues --    2.14085   2.15159   2.15641   2.16530   2.16824
 Alpha virt. eigenvalues --    2.17655   2.18719   2.20581   2.21376   2.22620
 Alpha virt. eigenvalues --    2.23616   2.23774   2.24551   2.25268   2.26180
 Alpha virt. eigenvalues --    2.28056   2.28830   2.30749   2.31446   2.32298
 Alpha virt. eigenvalues --    2.33187   2.34889   2.36260   2.36880   2.37998
 Alpha virt. eigenvalues --    2.38551   2.39288   2.41243   2.42529   2.43088
 Alpha virt. eigenvalues --    2.43779   2.46809   2.47148   2.49258   2.49348
 Alpha virt. eigenvalues --    2.50284   2.51167   2.53531   2.55398   2.58397
 Alpha virt. eigenvalues --    2.60383   2.65185   2.65609   2.66939   2.71408
 Alpha virt. eigenvalues --    2.72996   2.75169   2.76225   2.77154   2.79075
 Alpha virt. eigenvalues --    2.82343   2.84162   2.88732   2.89484   2.90306
 Alpha virt. eigenvalues --    2.91297   2.92870   2.93414   2.96374   3.00582
 Alpha virt. eigenvalues --    3.02662   3.05121   3.06497   3.10630   3.16756
 Alpha virt. eigenvalues --    3.23617   3.26005   3.28378   3.35131   3.40842
 Alpha virt. eigenvalues --    3.47417   3.53516   4.12470   4.35032   4.36640
 Alpha virt. eigenvalues --    4.37097   4.39276   4.40356   4.40930   4.42772
 Alpha virt. eigenvalues --    4.46091   4.51404   4.53504   4.55659   4.56496
 Alpha virt. eigenvalues --    4.58624   4.60313   4.63335   4.68271   4.73090
 Alpha virt. eigenvalues --    4.79721   4.86271   4.88382   4.99528
          Condensed to atoms (all electrons):
               1          2          3          4          5          6
     1  C    5.904064  -0.302501   0.109001  -0.030820  -0.088024  -0.002240
     2  C   -0.302501   6.505986  -0.565243  -0.051113   0.220480   0.019210
     3  C    0.109001  -0.565243   7.273975   0.325913  -0.855800  -0.141102
     4  N   -0.030820  -0.051113   0.325913   7.842951   0.391295  -0.189243
     5  C   -0.088024   0.220480  -0.855800   0.391295   6.974337   0.566245
     6  O   -0.002240   0.019210  -0.141102  -0.189243   0.566245   8.357610
     7  N   -0.000578   0.021265  -0.148541  -0.375713   0.195614  -0.059093
     8  C   -0.007884   0.010123  -0.273187  -0.138608   0.001673  -0.319564
     9  C   -0.003414  -0.013669  -0.204758  -0.056636  -0.523130   0.346976
    10  C   -0.004303   0.010267  -0.050142  -0.012847  -0.101485  -0.073305
    11  C   -0.000719   0.001678  -0.012254  -0.002835  -0.030145  -0.014808
    12  C   -0.000606  -0.000456  -0.054167   0.014606  -0.805162   0.013314
    13  C    0.000277  -0.004911  -0.036969   0.020976  -0.509679   0.109039
    14  H    0.452920  -0.127384   0.029668   0.000472  -0.001949   0.000001
    15  H    0.395393  -0.057646   0.005356  -0.000514   0.003949   0.000002
    16  H    0.446476  -0.070920  -0.024968   0.001074  -0.004043  -0.000051
    17  H   -0.021795   0.444361  -0.100805   0.009518  -0.005535  -0.000099
    18  H   -0.061403   0.427125  -0.054538   0.001370   0.000577  -0.000132
    19  H    0.001514  -0.033041   0.505420  -0.041786  -0.098442  -0.001074
    20  H   -0.017000  -0.078950   0.414660  -0.067928   0.034332   0.001878
    21  H    0.004122  -0.002757  -0.014351   0.143040  -0.008385   0.003108
    22  H   -0.000095  -0.001139  -0.001751   0.011808  -0.042542   0.003527
    23  H    0.000021  -0.000037   0.003855   0.001242   0.030641  -0.007925
    24  H   -0.000006   0.000019  -0.000984   0.000709  -0.012985   0.000125
    25  H    0.000000  -0.000000   0.000037   0.000021   0.003566  -0.000003
    26  S   -0.000011   0.000007  -0.003257   0.000710  -0.088915   0.000428
    27  O   -0.000000   0.000000  -0.000020  -0.000001  -0.002268   0.000006
    28  O   -0.000000   0.000000   0.000007   0.000008  -0.000221  -0.000025
    29  H   -0.000000   0.000001  -0.000129  -0.000006  -0.006856   0.000331
    30  C   -0.000000  -0.000000   0.000256  -0.000096   0.010292   0.000056
    31  H   -0.000000  -0.000000   0.000000   0.000000   0.000080   0.000000
    32  H   -0.000000   0.000000  -0.000000  -0.000000  -0.000017   0.000000
    33  H   -0.000000   0.000000  -0.000001   0.000000  -0.000319  -0.000000
    34  O    0.007039  -0.008195   0.020316  -0.035677  -0.012834  -0.000101
    35  O   -0.000902  -0.005029   0.006726   0.010746  -0.003713   0.000030
    36  C   -0.005378  -0.002135   0.005040  -0.004193  -0.000598  -0.001232
    37  C    0.006026  -0.005972   0.043570  -0.031514  -0.028391  -0.001291
    38  C   -0.000853  -0.000638  -0.004201   0.004832   0.001347   0.000068
    39  H    0.000011  -0.000122   0.000358  -0.000119  -0.000356  -0.000000
    40  H    0.000092   0.000349  -0.000026  -0.000242  -0.000169  -0.000000
    41  H    0.000001   0.000023  -0.000009  -0.000007   0.000072  -0.000000
    42  H    0.000000   0.000003  -0.000008  -0.000005   0.000017   0.000000
    43  H    0.000001   0.000011  -0.000007  -0.000012   0.000001  -0.000000
               7          8          9         10         11         12
     1  C   -0.000578  -0.007884  -0.003414  -0.004303  -0.000719  -0.000606
     2  C    0.021265   0.010123  -0.013669   0.010267   0.001678  -0.000456
     3  C   -0.148541  -0.273187  -0.204758  -0.050142  -0.012254  -0.054167
     4  N   -0.375713  -0.138608  -0.056636  -0.012847  -0.002835   0.014606
     5  C    0.195614   0.001673  -0.523130  -0.101485  -0.030145  -0.805162
     6  O   -0.059093  -0.319564   0.346976  -0.073305  -0.014808   0.013314
     7  N    7.973451  -0.012934  -0.128670  -0.110455   0.110051  -0.002196
     8  C   -0.012934  21.466046   2.667060   2.335689  -6.360178  -5.222144
     9  C   -0.128670   2.667060  20.114913  -6.492063  -3.107546  -4.765961
    10  C   -0.110455   2.335689  -6.492063  19.009983  -2.614338  -2.849384
    11  C    0.110051  -6.360178  -3.107546  -2.614338  24.967416   1.966124
    12  C   -0.002196  -5.222144  -4.765961  -2.849384   1.966124  16.043316
    13  C    0.148528  -7.400946  -1.579855  -3.236812  -9.326586   2.333986
    14  H    0.000015  -0.000029  -0.000010   0.000000   0.000000  -0.000000
    15  H    0.000024   0.000128  -0.000010   0.000007   0.000000   0.000000
    16  H    0.000029  -0.000114  -0.000071   0.000012   0.000001  -0.000001
    17  H    0.000696  -0.002508  -0.000547   0.000472   0.000039  -0.000010
    18  H   -0.000814   0.000945   0.000126  -0.000016  -0.000009   0.000007
    19  H   -0.000985  -0.005093  -0.013091   0.003086   0.000317  -0.000224
    20  H   -0.000407   0.006157   0.004684  -0.001408  -0.000134   0.000127
    21  H    0.006427   0.002291  -0.009750   0.001860   0.000112  -0.000612
    22  H    0.090641  -0.004551   0.060530  -0.045459  -0.001798   0.014736
    23  H   -0.015529  -0.085209   0.299157  -0.020358  -0.029397   0.038415
    24  H   -0.008087  -0.086277  -0.019291   0.288725   0.082714   0.067183
    25  H    0.000141   0.073550  -0.003675  -0.000381   0.224634  -0.014911
    26  S    0.007394  -0.720185  -0.252527   0.316026  -0.059504   0.365208
    27  O    0.000010  -0.013932   0.117663  -0.169000  -0.270311  -0.035040
    28  O    0.000373  -0.014614  -0.185908   0.136155   0.216013  -0.032013
    29  H   -0.001184   0.037777   0.005795  -0.005887   0.027695   0.001903
    30  C   -0.001600   0.205590   0.133156  -0.029883   0.153977  -0.397694
    31  H    0.000042  -0.003686   0.009993  -0.024559  -0.022425  -0.012984
    32  H   -0.000002   0.000577  -0.001781   0.001017  -0.001680   0.057642
    33  H    0.000022  -0.011301  -0.029638   0.012525   0.024774  -0.001048
    34  O    0.009088   0.009374  -0.001120  -0.024588  -0.009841  -0.001653
    35  O    0.004704  -0.234145   0.003228   0.211448   0.001746  -0.001602
    36  C   -0.012988   0.211599  -0.007214  -0.103741  -0.113509  -0.021836
    37  C   -0.026824  -0.102196  -0.043374   0.065115   0.050812  -0.000978
    38  C    0.003754  -0.034844  -0.000941   0.010775   0.028708   0.002721
    39  H    0.000108  -0.000739  -0.000106   0.000793  -0.000051  -0.000012
    40  H    0.000127  -0.000496  -0.000061   0.000328  -0.000053  -0.000012
    41  H   -0.000092   0.000498   0.000086  -0.000987  -0.000295  -0.000083
    42  H    0.000028   0.000215   0.000009  -0.000172  -0.000157  -0.000005
    43  H   -0.000105   0.000880   0.000095  -0.000451  -0.000817  -0.000089
              13         14         15         16         17         18
     1  C    0.000277   0.452920   0.395393   0.446476  -0.021795  -0.061403
     2  C   -0.004911  -0.127384  -0.057646  -0.070920   0.444361   0.427125
     3  C   -0.036969   0.029668   0.005356  -0.024968  -0.100805  -0.054538
     4  N    0.020976   0.000472  -0.000514   0.001074   0.009518   0.001370
     5  C   -0.509679  -0.001949   0.003949  -0.004043  -0.005535   0.000577
     6  O    0.109039   0.000001   0.000002  -0.000051  -0.000099  -0.000132
     7  N    0.148528   0.000015   0.000024   0.000029   0.000696  -0.000814
     8  C   -7.400946  -0.000029   0.000128  -0.000114  -0.002508   0.000945
     9  C   -1.579855  -0.000010  -0.000010  -0.000071  -0.000547   0.000126
    10  C   -3.236812   0.000000   0.000007   0.000012   0.000472  -0.000016
    11  C   -9.326586   0.000000   0.000000   0.000001   0.000039  -0.000009
    12  C    2.333986  -0.000000   0.000000  -0.000001  -0.000010   0.000007
    13  C   26.072066  -0.000000  -0.000000  -0.000004  -0.000044   0.000021
    14  H   -0.000000   0.509689  -0.027355  -0.027999  -0.002856  -0.003003
    15  H   -0.000000  -0.027355   0.510843  -0.033333  -0.004265   0.003934
    16  H   -0.000004  -0.027999  -0.033333   0.514079   0.003731  -0.004748
    17  H   -0.000044  -0.002856  -0.004265   0.003731   0.466583  -0.031839
    18  H    0.000021  -0.003003   0.003934  -0.004748  -0.031839   0.499251
    19  H   -0.001882  -0.000079  -0.000253   0.002715   0.003968  -0.005931
    20  H    0.000744  -0.000081   0.002905  -0.000466  -0.005395   0.004458
    21  H   -0.001058   0.000000  -0.000007   0.000004   0.002211  -0.000289
    22  H    0.011039  -0.000000  -0.000000  -0.000000   0.000005  -0.000000
    23  H    0.083337   0.000000   0.000000  -0.000000  -0.000000   0.000000
    24  H   -0.028554   0.000000   0.000000  -0.000000  -0.000000   0.000000
    25  H    0.034355  -0.000000   0.000000   0.000000   0.000000  -0.000000
    26  S   -0.951426  -0.000000   0.000000  -0.000000  -0.000000   0.000000
    27  O    0.215605  -0.000000   0.000000  -0.000000  -0.000000   0.000000
    28  O   -0.299162  -0.000000   0.000000  -0.000000  -0.000000   0.000000
    29  H    0.234634  -0.000000  -0.000000   0.000000   0.000000  -0.000000
    30  C    0.538479   0.000000  -0.000000   0.000000   0.000000  -0.000000
    31  H    0.016536  -0.000000   0.000000  -0.000000   0.000000   0.000000
    32  H   -0.006958   0.000000   0.000000   0.000000  -0.000000   0.000000
    33  H   -0.042409   0.000000  -0.000000   0.000000   0.000000  -0.000000
    34  O    0.001632  -0.000008   0.000047  -0.000050  -0.005812   0.000410
    35  O    0.021320  -0.000000   0.000001  -0.000000  -0.000086   0.000070
    36  C   -0.003675  -0.000100   0.000078  -0.000069  -0.000844   0.000597
    37  C   -0.009531   0.000072  -0.000026  -0.000004  -0.000281  -0.000007
    38  C   -0.001828  -0.000000  -0.000000   0.000000  -0.000012  -0.000025
    39  H   -0.000007  -0.000000   0.000000  -0.000000  -0.000001   0.000000
    40  H   -0.000003  -0.000000   0.000000  -0.000000  -0.000000   0.000000
    41  H    0.000022  -0.000000  -0.000000  -0.000000   0.000000  -0.000000
    42  H    0.000001   0.000000  -0.000000  -0.000000  -0.000000  -0.000000
    43  H    0.000021   0.000000  -0.000000  -0.000000  -0.000000  -0.000000
              19         20         21         22         23         24
     1  C    0.001514  -0.017000   0.004122  -0.000095   0.000021  -0.000006
     2  C   -0.033041  -0.078950  -0.002757  -0.001139  -0.000037   0.000019
     3  C    0.505420   0.414660  -0.014351  -0.001751   0.003855  -0.000984
     4  N   -0.041786  -0.067928   0.143040   0.011808   0.001242   0.000709
     5  C   -0.098442   0.034332  -0.008385  -0.042542   0.030641  -0.012985
     6  O   -0.001074   0.001878   0.003108   0.003527  -0.007925   0.000125
     7  N   -0.000985  -0.000407   0.006427   0.090641  -0.015529  -0.008087
     8  C   -0.005093   0.006157   0.002291  -0.004551  -0.085209  -0.086277
     9  C   -0.013091   0.004684  -0.009750   0.060530   0.299157  -0.019291
    10  C    0.003086  -0.001408   0.001860  -0.045459  -0.020358   0.288725
    11  C    0.000317  -0.000134   0.000112  -0.001798  -0.029397   0.082714
    12  C   -0.000224   0.000127  -0.000612   0.014736   0.038415   0.067183
    13  C   -0.001882   0.000744  -0.001058   0.011039   0.083337  -0.028554
    14  H   -0.000079  -0.000081   0.000000  -0.000000   0.000000   0.000000
    15  H   -0.000253   0.002905  -0.000007  -0.000000   0.000000   0.000000
    16  H    0.002715  -0.000466   0.000004  -0.000000  -0.000000  -0.000000
    17  H    0.003968  -0.005395   0.002211   0.000005  -0.000000  -0.000000
    18  H   -0.005931   0.004458  -0.000289  -0.000000   0.000000   0.000000
    19  H    0.512448  -0.046969   0.001885   0.000012  -0.000002   0.000000
    20  H   -0.046969   0.546580   0.001147  -0.000000   0.000000   0.000000
    21  H    0.001885   0.001147   0.249039   0.009388   0.000001   0.000004
    22  H    0.000012  -0.000000   0.009388   0.268592  -0.000189   0.007147
    23  H   -0.000002   0.000000   0.000001  -0.000189   0.432681  -0.000106
    24  H    0.000000   0.000000   0.000004   0.007147  -0.000106   0.429662
    25  H    0.000000  -0.000000   0.000000  -0.000008   0.000012  -0.003388
    26  S   -0.000004   0.000004  -0.000008   0.000505   0.000247   0.006725
    27  O   -0.000000   0.000000  -0.000000   0.000000   0.000018   0.000131
    28  O    0.000000  -0.000000  -0.000000   0.000001   0.000068   0.000029
    29  H    0.000000   0.000000  -0.000000   0.000002  -0.003523   0.000012
    30  C    0.000000  -0.000000   0.000000  -0.000014  -0.000059  -0.000384
    31  H    0.000000  -0.000000  -0.000000   0.000000  -0.000000   0.000001
    32  H   -0.000000   0.000000   0.000000  -0.000000  -0.000000  -0.000000
    33  H    0.000000  -0.000000  -0.000000   0.000000   0.000000  -0.000000
    34  O   -0.000608   0.000635   0.081356  -0.002479   0.000002  -0.000063
    35  O   -0.000020   0.000001  -0.000679   0.097353   0.000024  -0.003942
    36  C    0.001156  -0.000046  -0.003826  -0.010494   0.000029  -0.000398
    37  C    0.000059   0.000068   0.019791   0.021701   0.000006   0.002523
    38  C    0.000007  -0.000004  -0.003309  -0.002768  -0.000002  -0.000357
    39  H   -0.000000  -0.000000  -0.000003  -0.000028   0.000000   0.000001
    40  H   -0.000000   0.000000  -0.000005  -0.000029   0.000000   0.000000
    41  H   -0.000000   0.000000  -0.000000  -0.000014   0.000000   0.000019
    42  H   -0.000000  -0.000000   0.000000  -0.000000  -0.000000  -0.000000
    43  H    0.000000  -0.000000  -0.000000  -0.000015   0.000000   0.000016
              25         26         27         28         29         30
     1  C    0.000000  -0.000011  -0.000000  -0.000000  -0.000000  -0.000000
     2  C   -0.000000   0.000007   0.000000   0.000000   0.000001  -0.000000
     3  C    0.000037  -0.003257  -0.000020   0.000007  -0.000129   0.000256
     4  N    0.000021   0.000710  -0.000001   0.000008  -0.000006  -0.000096
     5  C    0.003566  -0.088915  -0.002268  -0.000221  -0.006856   0.010292
     6  O   -0.000003   0.000428   0.000006  -0.000025   0.000331   0.000056
     7  N    0.000141   0.007394   0.000010   0.000373  -0.001184  -0.001600
     8  C    0.073550  -0.720185  -0.013932  -0.014614   0.037777   0.205590
     9  C   -0.003675  -0.252527   0.117663  -0.185908   0.005795   0.133156
    10  C   -0.000381   0.316026  -0.169000   0.136155  -0.005887  -0.029883
    11  C    0.224634  -0.059504  -0.270311   0.216013   0.027695   0.153977
    12  C   -0.014911   0.365208  -0.035040  -0.032013   0.001903  -0.397694
    13  C    0.034355  -0.951426   0.215605  -0.299162   0.234634   0.538479
    14  H   -0.000000  -0.000000  -0.000000  -0.000000  -0.000000   0.000000
    15  H    0.000000   0.000000   0.000000   0.000000  -0.000000  -0.000000
    16  H    0.000000  -0.000000  -0.000000  -0.000000   0.000000   0.000000
    17  H    0.000000  -0.000000  -0.000000  -0.000000   0.000000   0.000000
    18  H   -0.000000   0.000000   0.000000   0.000000  -0.000000  -0.000000
    19  H    0.000000  -0.000004  -0.000000   0.000000   0.000000   0.000000
    20  H   -0.000000   0.000004   0.000000  -0.000000   0.000000  -0.000000
    21  H    0.000000  -0.000008  -0.000000  -0.000000  -0.000000   0.000000
    22  H   -0.000008   0.000505   0.000000   0.000001   0.000002  -0.000014
    23  H    0.000012   0.000247   0.000018   0.000068  -0.003523  -0.000059
    24  H   -0.003388   0.006725   0.000131   0.000029   0.000012  -0.000384
    25  H    0.463329  -0.017792   0.001356   0.000717  -0.000140   0.002173
    26  S   -0.017792  17.118545   0.319100   0.328007   0.005880  -1.837820
    27  O    0.001356   0.319100   8.656938  -0.160379   0.000813  -0.152377
    28  O    0.000717   0.328007  -0.160379   8.669994   0.002601  -0.135773
    29  H   -0.000140   0.005880   0.000813   0.002601   0.466607  -0.000430
    30  C    0.002173  -1.837820  -0.152377  -0.135773  -0.000430   7.173013
    31  H   -0.000021   0.011356  -0.004963   0.010202   0.000008   0.354233
    32  H   -0.000002  -0.038605  -0.008921  -0.009555  -0.000001   0.351614
    33  H    0.000008   0.024018   0.010446  -0.005181   0.000015   0.353190
    34  O    0.000000  -0.000038  -0.000000  -0.000000  -0.000000   0.000001
    35  O    0.000141   0.000385  -0.000019   0.000002  -0.000001  -0.000076
    36  C    0.000050  -0.000430  -0.000036  -0.000007   0.000001  -0.000048
    37  C   -0.000002  -0.000455  -0.000005  -0.000001  -0.000000   0.000030
    38  C   -0.000057   0.000136   0.000007  -0.000001   0.000000  -0.000007
    39  H   -0.000000  -0.000000  -0.000000  -0.000000   0.000000   0.000000
    40  H   -0.000000  -0.000000  -0.000000  -0.000000   0.000000   0.000000
    41  H    0.000000  -0.000003  -0.000000  -0.000000  -0.000000   0.000000
    42  H    0.000000   0.000000   0.000000  -0.000000   0.000000  -0.000000
    43  H    0.000000  -0.000001  -0.000000   0.000000  -0.000000  -0.000000
              31         32         33         34         35         36
     1  C   -0.000000  -0.000000  -0.000000   0.007039  -0.000902  -0.005378
     2  C   -0.000000   0.000000   0.000000  -0.008195  -0.005029  -0.002135
     3  C    0.000000  -0.000000  -0.000001   0.020316   0.006726   0.005040
     4  N    0.000000  -0.000000   0.000000  -0.035677   0.010746  -0.004193
     5  C    0.000080  -0.000017  -0.000319  -0.012834  -0.003713  -0.000598
     6  O    0.000000   0.000000  -0.000000  -0.000101   0.000030  -0.001232
     7  N    0.000042  -0.000002   0.000022   0.009088   0.004704  -0.012988
     8  C   -0.003686   0.000577  -0.011301   0.009374  -0.234145   0.211599
     9  C    0.009993  -0.001781  -0.029638  -0.001120   0.003228  -0.007214
    10  C   -0.024559   0.001017   0.012525  -0.024588   0.211448  -0.103741
    11  C   -0.022425  -0.001680   0.024774  -0.009841   0.001746  -0.113509
    12  C   -0.012984   0.057642  -0.001048  -0.001653  -0.001602  -0.021836
    13  C    0.016536  -0.006958  -0.042409   0.001632   0.021320  -0.003675
    14  H   -0.000000   0.000000   0.000000  -0.000008  -0.000000  -0.000100
    15  H    0.000000   0.000000  -0.000000   0.000047   0.000001   0.000078
    16  H   -0.000000   0.000000   0.000000  -0.000050  -0.000000  -0.000069
    17  H    0.000000  -0.000000   0.000000  -0.005812  -0.000086  -0.000844
    18  H    0.000000   0.000000  -0.000000   0.000410   0.000070   0.000597
    19  H    0.000000  -0.000000   0.000000  -0.000608  -0.000020   0.001156
    20  H   -0.000000   0.000000  -0.000000   0.000635   0.000001  -0.000046
    21  H   -0.000000   0.000000  -0.000000   0.081356  -0.000679  -0.003826
    22  H    0.000000  -0.000000   0.000000  -0.002479   0.097353  -0.010494
    23  H   -0.000000  -0.000000   0.000000   0.000002   0.000024   0.000029
    24  H    0.000001  -0.000000  -0.000000  -0.000063  -0.003942  -0.000398
    25  H   -0.000021  -0.000002   0.000008   0.000000   0.000141   0.000050
    26  S    0.011356  -0.038605   0.024018  -0.000038   0.000385  -0.000430
    27  O   -0.004963  -0.008921   0.010446  -0.000000  -0.000019  -0.000036
    28  O    0.010202  -0.009555  -0.005181  -0.000000   0.000002  -0.000007
    29  H    0.000008  -0.000001   0.000015  -0.000000  -0.000001   0.000001
    30  C    0.354233   0.351614   0.353190   0.000001  -0.000076  -0.000048
    31  H    0.446244  -0.021280  -0.021138  -0.000000  -0.000001  -0.000005
    32  H   -0.021280   0.440004  -0.021357   0.000000   0.000000   0.000000
    33  H   -0.021138  -0.021357   0.447425  -0.000000   0.000000  -0.000000
    34  O   -0.000000   0.000000  -0.000000   8.515984  -0.183103   0.547330
    35  O   -0.000001   0.000000   0.000000  -0.183103   8.567342   0.237039
    36  C   -0.000005   0.000000  -0.000000   0.547330   0.237039   5.783599
    37  C    0.000000  -0.000000  -0.000000  -0.304639  -0.104970  -1.068912
    38  C   -0.000000  -0.000000   0.000000   0.036236   0.057079   0.030099
    39  H   -0.000000   0.000000   0.000000  -0.003108   0.002575  -0.083405
    40  H   -0.000000  -0.000000   0.000000  -0.001863   0.000995  -0.083269
    41  H    0.000000   0.000000  -0.000000   0.000142  -0.004988  -0.005862
    42  H   -0.000000   0.000000  -0.000000  -0.000194   0.001976   0.036120
    43  H    0.000000   0.000000  -0.000000   0.000132  -0.004743  -0.006627
              37         38         39         40         41         42
     1  C    0.006026  -0.000853   0.000011   0.000092   0.000001   0.000000
     2  C   -0.005972  -0.000638  -0.000122   0.000349   0.000023   0.000003
     3  C    0.043570  -0.004201   0.000358  -0.000026  -0.000009  -0.000008
     4  N   -0.031514   0.004832  -0.000119  -0.000242  -0.000007  -0.000005
     5  C   -0.028391   0.001347  -0.000356  -0.000169   0.000072   0.000017
     6  O   -0.001291   0.000068  -0.000000  -0.000000  -0.000000   0.000000
     7  N   -0.026824   0.003754   0.000108   0.000127  -0.000092   0.000028
     8  C   -0.102196  -0.034844  -0.000739  -0.000496   0.000498   0.000215
     9  C   -0.043374  -0.000941  -0.000106  -0.000061   0.000086   0.000009
    10  C    0.065115   0.010775   0.000793   0.000328  -0.000987  -0.000172
    11  C    0.050812   0.028708  -0.000051  -0.000053  -0.000295  -0.000157
    12  C   -0.000978   0.002721  -0.000012  -0.000012  -0.000083  -0.000005
    13  C   -0.009531  -0.001828  -0.000007  -0.000003   0.000022   0.000001
    14  H    0.000072  -0.000000  -0.000000  -0.000000  -0.000000   0.000000
    15  H   -0.000026  -0.000000   0.000000   0.000000  -0.000000  -0.000000
    16  H   -0.000004   0.000000  -0.000000  -0.000000  -0.000000  -0.000000
    17  H   -0.000281  -0.000012  -0.000001  -0.000000   0.000000  -0.000000
    18  H   -0.000007  -0.000025   0.000000   0.000000  -0.000000  -0.000000
    19  H    0.000059   0.000007  -0.000000  -0.000000  -0.000000  -0.000000
    20  H    0.000068  -0.000004  -0.000000   0.000000   0.000000  -0.000000
    21  H    0.019791  -0.003309  -0.000003  -0.000005  -0.000000   0.000000
    22  H    0.021701  -0.002768  -0.000028  -0.000029  -0.000014  -0.000000
    23  H    0.000006  -0.000002   0.000000   0.000000   0.000000  -0.000000
    24  H    0.002523  -0.000357   0.000001   0.000000   0.000019  -0.000000
    25  H   -0.000002  -0.000057  -0.000000  -0.000000   0.000000   0.000000
    26  S   -0.000455   0.000136  -0.000000  -0.000000  -0.000003   0.000000
    27  O   -0.000005   0.000007  -0.000000  -0.000000  -0.000000   0.000000
    28  O   -0.000001  -0.000001  -0.000000  -0.000000  -0.000000  -0.000000
    29  H   -0.000000   0.000000   0.000000   0.000000  -0.000000   0.000000
    30  C    0.000030  -0.000007   0.000000   0.000000   0.000000  -0.000000
    31  H    0.000000  -0.000000  -0.000000  -0.000000   0.000000  -0.000000
    32  H   -0.000000  -0.000000   0.000000  -0.000000   0.000000   0.000000
    33  H   -0.000000   0.000000   0.000000   0.000000  -0.000000  -0.000000
    34  O   -0.304639   0.036236  -0.003108  -0.001863   0.000142  -0.000194
    35  O   -0.104970   0.057079   0.002575   0.000995  -0.004988   0.001976
    36  C   -1.068912   0.030099  -0.083405  -0.083269  -0.005862   0.036120
    37  C    7.719210  -0.394545   0.455387   0.450497  -0.059869  -0.083250
    38  C   -0.394545   5.854271  -0.052757  -0.047682   0.423469   0.385900
    39  H    0.455387  -0.052757   0.504489  -0.030087  -0.003916  -0.002035
    40  H    0.450497  -0.047682  -0.030087   0.503908   0.003703  -0.002077
    41  H   -0.059869   0.423469  -0.003916   0.003703   0.490078  -0.030057
    42  H   -0.083250   0.385900  -0.002035  -0.002077  -0.030057   0.550164
    43  H   -0.055299   0.419062   0.003696  -0.003917  -0.027105  -0.029802
              43
     1  C    0.000001
     2  C    0.000011
     3  C   -0.000007
     4  N   -0.000012
     5  C    0.000001
     6  O   -0.000000
     7  N   -0.000105
     8  C    0.000880
     9  C    0.000095
    10  C   -0.000451
    11  C   -0.000817
    12  C   -0.000089
    13  C    0.000021
    14  H    0.000000
    15  H   -0.000000
    16  H   -0.000000
    17  H   -0.000000
    18  H   -0.000000
    19  H    0.000000
    20  H   -0.000000
    21  H   -0.000000
    22  H   -0.000015
    23  H    0.000000
    24  H    0.000016
    25  H    0.000000
    26  S   -0.000001
    27  O   -0.000000
    28  O    0.000000
    29  H   -0.000000
    30  C   -0.000000
    31  H    0.000000
    32  H    0.000000
    33  H   -0.000000
    34  O    0.000132
    35  O   -0.004743
    36  C   -0.006627
    37  C   -0.055299
    38  C    0.419062
    39  H    0.003696
    40  H   -0.003917
    41  H   -0.027105
    42  H   -0.029802
    43  H    0.487160
 Mulliken charges:
               1
     1  C   -0.778427
     2  C   -0.329051
     3  C   -0.196942
     4  N   -0.741373
     5  C    0.797445
     6  O   -0.610664
     7  N   -0.665739
     8  C    0.025191
     9  C   -0.318650
    10  C   -0.432257
    11  C    0.122578
    12  C   -0.698404
    13  C   -0.400320
    14  H    0.198017
    15  H    0.200742
    16  H    0.198719
    17  H    0.251151
    18  H    0.223861
    19  H    0.216898
    20  H    0.200407
    21  H    0.519255
    22  H    0.516389
    23  H    0.272578
    24  H    0.279079
    25  H    0.236286
    26  S    1.466302
    27  O   -0.504821
    28  O   -0.521335
    29  H    0.234082
    30  C   -0.719797
    31  H    0.262363
    32  H    0.259306
    33  H    0.259968
    34  O   -0.633746
    35  O   -0.676912
    36  C    0.688139
    37  C   -0.512531
    38  C   -0.713641
    39  H    0.209437
    40  H    0.209996
    41  H    0.215173
    42  H    0.173331
    43  H    0.217917
 Sum of Mulliken charges =  -1.00000
 Mulliken charges with hydrogens summed into heavy atoms:
               1
     1  C   -0.180949
     2  C    0.145961
     3  C    0.220363
     4  N   -0.222118
     5  C    0.797445
     6  O   -0.610664
     7  N   -0.149350
     8  C    0.025191
     9  C   -0.046073
    10  C   -0.153178
    11  C    0.358865
    12  C   -0.698404
    13  C   -0.166238
    26  S    1.466302
    27  O   -0.504821
    28  O   -0.521335
    30  C    0.061841
    34  O   -0.633746
    35  O   -0.676912
    36  C    0.688139
    37  C   -0.093098
    38  C   -0.107221
         Mulliken charges condensed to fragments:
      1     -0.177162
      2     -0.822838
 Electronic spatial extent (au):  <R**2>=          12435.1557
 Charge=             -1.0000 electrons
 Dipole moment (field-independent basis, Debye):
    X=              0.5050    Y=             -0.2085    Z=              3.4754  Tot=              3.5181
 Quadrupole moment (field-independent basis, Debye-Ang):
   XX=           -221.0637   YY=           -171.4574   ZZ=           -144.2386
   XY=              7.4048   XZ=             21.9389   YZ=              0.4163
 Traceless Quadrupole moment (field-independent basis, Debye-Ang):
   XX=            -42.1438   YY=              7.4626   ZZ=             34.6813
   XY=              7.4048   XZ=             21.9389   YZ=              0.4163
 Octapole moment (field-independent basis, Debye-Ang**2):
  XXX=           -152.0836  YYY=              2.8182  ZZZ=              4.2807  XYY=             26.3620
  XXY=            -14.9816  XXZ=            112.7424  XZZ=              7.8260  YZZ=              0.8238
  YYZ=              3.5226  XYZ=              1.0805
 Hexadecapole moment (field-independent basis, Debye-Ang**3):
 XXXX=         -15213.1823 YYYY=          -4116.6847 ZZZZ=           -370.9341 XXXY=            133.9461
 XXXZ=            712.4318 YYYX=            -19.7150 YYYZ=             10.6215 ZZZX=             11.5046
 ZZZY=             -1.3858 XXYY=          -3076.5201 XXZZ=          -2160.8388 YYZZ=           -689.8263
 XXYZ=             -4.8039 YYXZ=             32.2172 ZZXY=             -4.3437
 N-N= 1.940394920217D+03 E-N=-7.250538183747D+03  KE= 1.419487269653D+03
 CPIOFr:  IOpCl= 0 IRwI=-1 IRwCP=  731 ICalc= -1 LCPTot=      337946 Len1MO=      869690 IndFrg=      337946
 CPIOFr:  IOpCl= 0 IRwI=-1 IRwCP=  731 ICalc=  0 LCPTot=      337946 Len1MO=      869690 IndFrg=     1207636
 Counterpoise: doing DCBS calculation for fragment   1 NewBq=T
 Basis read from rwf:  (6D, 7F)
 There are   464 symmetry adapted cartesian basis functions of A   symmetry.
 There are   464 symmetry adapted basis functions of A   symmetry.
   464 basis functions,   812 primitive gaussians,   464 cartesian basis functions
    68 alpha electrons       68 beta electrons
       nuclear repulsion energy      1298.1921432385 Hartrees.
 NAtoms=   43 NActive=   43 NUniq=   43 SFac= 1.00D+00 NAtFMM=   60 NAOKFM=F Big=F
 Integral buffers will be    131072 words long.
 Raffenetti 2 integral format.
 Two-electron integral symmetry is turned on.
 One-electron integrals computed using PRISM.
 NBasis=   464 RedAO= T EigKep=  1.73D-06  NBF=   464
 NBsUse=   462 1.00D-06 EigRej=  8.56D-07 NBFU=   462
 ExpMin= 4.05D-02 ExpMax= 2.19D+04 ExpMxC= 3.30D+03 IAcc=3 IRadAn=         5 AccDes= 0.00D+00
 Harris functional with IExCor= 1009 and IRadAn=       5 diagonalized for initial guess.
 HarFok:  IExCor= 1009 AccDes= 0.00D+00 IRadAn=         5 IDoV= 1 UseB2=F ITyADJ=14
 ICtDFT=  3500011 ScaDFX=  1.000000  1.000000  1.000000  1.000000
 FoFCou: FMM=F IPFlag=           0 FMFlag=      100000 FMFlg1=           0
         NFxFlg=           0 DoJE=T BraDBF=F KetDBF=T FulRan=T
         wScrn=  0.000000 ICntrl=     500 IOpCl=  0 I1Cent=   200000004 NGrid=           0
         NMat0=    1 NMatS0=      1 NMatT0=    0 NMatD0=    1 NMtDS0=    0 NMtDT0=    0
 Petite list used in FoFCou.
 Requested convergence on RMS density matrix=1.00D-08 within 128 cycles.
 Requested convergence on MAX density matrix=1.00D-06.
 Requested convergence on             energy=1.00D-06.
 No special actions if energy rises.
 SCF Done:  E(RM062X) =  -1161.79673039     A.U. after   15 cycles
            NFock= 15  Conv=0.68D-08     -V/T= 2.0069

 **********************************************************************

            Population analysis using the SCF density.

 **********************************************************************

 Orbital symmetries:
       Occupied  (A) (A) (A) (A) (A) (A) (A) (A) (A) (A) (A) (A)
                 (A) (A) (A) (A) (A) (A) (A) (A) (A) (A) (A) (A)
                 (A) (A) (A) (A) (A) (A) (A) (A) (A) (A) (A) (A)
                 (A) (A) (A) (A) (A) (A) (A) (A) (A) (A) (A) (A)
                 (A) (A) (A) (A) (A) (A) (A) (A) (A) (A) (A) (A)
                 (A) (A) (A) (A) (A) (A) (A) (A)
       Virtual   (A) (A) (A) (A) (A) (A) (A) (A) (A) (A) (A) (A)
                 (A) (A) (A) (A) (A) (A) (A) (A) (A) (A) (A) (A)
                 (A) (A) (A) (A) (A) (A) (A) (A) (A) (A) (A) (A)
                 (A) (A) (A) (A) (A) (A) (A) (A) (A) (A) (A) (A)
                 (A) (A) (A) (A) (A) (A) (A) (A) (A) (A) (A) (A)
                 (A) (A) (A) (A) (A) (A) (A) (A) (A) (A) (A) (A)
                 (A) (A) (A) (A) (A) (A) (A) (A) (A) (A) (A) (A)
                 (A) (A) (A) (A) (A) (A) (A) (A) (A) (A) (A) (A)
                 (A) (A) (A) (A) (A) (A) (A) (A) (A) (A) (A) (A)
                 (A) (A) (A) (A) (A) (A) (A) (A) (A) (A) (A) (A)
                 (A) (A) (A) (A) (A) (A) (A) (A) (A) (A) (A) (A)
                 (A) (A) (A) (A) (A) (A) (A) (A) (A) (A) (A) (A)
                 (A) (A) (A) (A) (A) (A) (A) (A) (A) (A) (A) (A)
                 (A) (A) (A) (A) (A) (A) (A) (A) (A) (A) (A) (A)
                 (A) (A) (A) (A) (A) (A) (A) (A) (A) (A) (A) (A)
                 (A) (A) (A) (A) (A) (A) (A) (A) (A) (A) (A) (A)
                 (A) (A) (A) (A) (A) (A) (A) (A) (A) (A) (A) (A)
                 (A) (A) (A) (A) (A) (A) (A) (A) (A) (A) (A) (A)
                 (A) (A) (A) (A) (A) (A) (A) (A) (A) (A) (A) (A)
                 (A) (A) (A) (A) (A) (A) (A) (A) (A) (A) (A) (A)
                 (A) (A) (A) (A) (A) (A) (A) (A) (A) (A) (A) (A)
                 (A) (A) (A) (A) (A) (A) (A) (A) (A) (A) (A) (A)
                 (A) (A) (A) (A) (A) (A) (A) (A) (A) (A) (A) (A)
                 (A) (A) (A) (A) (A) (A) (A) (A) (A) (A) (A) (A)
                 (A) (A) (A) (A) (A) (A) (A) (A) (A) (A) (A) (A)
                 (A) (A) (A) (A) (A) (A) (A) (A) (A) (A) (A) (A)
                 (A) (A) (A) (A) (A) (A) (A) (A) (A) (A) (A) (A)
                 (A) (A) (A) (A) (A) (A) (A) (A) (A) (A) (A) (A)
                 (A) (A) (A) (A) (A) (A) (A) (A) (A) (A) (A) (A)
                 (A) (A) (A) (A) (A) (A) (A) (A) (A) (A) (A) (A)
                 (A) (A) (A) (A) (A) (A) (A) (A) (A) (A) (A) (A)
                 (A) (A) (A) (A) (A) (A) (A) (A) (A) (A) (A) (A)
                 (A) (A) (A) (A) (A) (A) (A) (A) (A) (A)
 The electronic state is 1-A.
 Alpha  occ. eigenvalues --  -90.13765 -19.62916 -19.62886 -19.62884 -14.82923
 Alpha  occ. eigenvalues --  -14.81206 -10.70580 -10.63110 -10.59892 -10.58805
 Alpha  occ. eigenvalues --  -10.58555 -10.58152 -10.58124 -10.57999 -10.57104
 Alpha  occ. eigenvalues --  -10.56701 -10.55653  -8.45124  -6.37281  -6.37235
 Alpha  occ. eigenvalues --   -6.37205  -1.21841  -1.19297  -1.11026  -1.08364
 Alpha  occ. eigenvalues --   -1.05440  -0.98007  -0.90920  -0.88632  -0.87058
 Alpha  occ. eigenvalues --   -0.85364  -0.80396  -0.75472  -0.73406  -0.71092
 Alpha  occ. eigenvalues --   -0.69815  -0.67306  -0.65020  -0.63366  -0.60110
 Alpha  occ. eigenvalues --   -0.57807  -0.56164  -0.55482  -0.55207  -0.54060
 Alpha  occ. eigenvalues --   -0.53552  -0.52949  -0.51894  -0.50997  -0.50498
 Alpha  occ. eigenvalues --   -0.49327  -0.49268  -0.48599  -0.47544  -0.46008
 Alpha  occ. eigenvalues --   -0.44766  -0.42941  -0.42485  -0.41993  -0.40252
 Alpha  occ. eigenvalues --   -0.39160  -0.38628  -0.36519  -0.36205  -0.34872
 Alpha  occ. eigenvalues --   -0.34081  -0.33104  -0.28931
 Alpha virt. eigenvalues --   -0.02807  -0.01511  -0.00034   0.00777   0.01609
 Alpha virt. eigenvalues --    0.01847   0.02255   0.02460   0.03717   0.03999
 Alpha virt. eigenvalues --    0.04339   0.04581   0.05104   0.05396   0.05626
 Alpha virt. eigenvalues --    0.06426   0.06606   0.06684   0.07229   0.07579
 Alpha virt. eigenvalues --    0.07719   0.08028   0.08280   0.08644   0.09001
 Alpha virt. eigenvalues --    0.09142   0.09447   0.10195   0.10310   0.10810
 Alpha virt. eigenvalues --    0.11236   0.11350   0.11966   0.12269   0.12517
 Alpha virt. eigenvalues --    0.13206   0.13436   0.13814   0.14267   0.14470
 Alpha virt. eigenvalues --    0.14733   0.15358   0.15582   0.15956   0.16314
 Alpha virt. eigenvalues --    0.16453   0.16723   0.17053   0.17331   0.17517
 Alpha virt. eigenvalues --    0.18201   0.18738   0.19022   0.19176   0.19395
 Alpha virt. eigenvalues --    0.19913   0.20618   0.20705   0.20751   0.21000
 Alpha virt. eigenvalues --    0.21442   0.21984   0.22904   0.23138   0.23304
 Alpha virt. eigenvalues --    0.23576   0.23720   0.24196   0.24743   0.25292
 Alpha virt. eigenvalues --    0.25468   0.26015   0.26130   0.26411   0.26731
 Alpha virt. eigenvalues --    0.26952   0.27278   0.27552   0.27902   0.28322
 Alpha virt. eigenvalues --    0.28748   0.28897   0.29514   0.29746   0.29855
 Alpha virt. eigenvalues --    0.30129   0.30785   0.31069   0.31934   0.32227
 Alpha virt. eigenvalues --    0.32487   0.32684   0.33558   0.34082   0.34322
 Alpha virt. eigenvalues --    0.34922   0.35018   0.35243   0.35604   0.36454
 Alpha virt. eigenvalues --    0.36961   0.37069   0.38092   0.38240   0.38650
 Alpha virt. eigenvalues --    0.39207   0.39633   0.39645   0.40423   0.40843
 Alpha virt. eigenvalues --    0.41526   0.42709   0.42958   0.44035   0.44363
 Alpha virt. eigenvalues --    0.45033   0.46535   0.47066   0.47615   0.48653
 Alpha virt. eigenvalues --    0.49571   0.50622   0.51294   0.53011   0.53470
 Alpha virt. eigenvalues --    0.55143   0.55894   0.57182   0.57945   0.58344
 Alpha virt. eigenvalues --    0.59808   0.60465   0.61229   0.62866   0.63690
 Alpha virt. eigenvalues --    0.66349   0.67272   0.67849   0.68001   0.68894
 Alpha virt. eigenvalues --    0.69255   0.69699   0.70361   0.72720   0.72960
 Alpha virt. eigenvalues --    0.73078   0.73759   0.74116   0.74562   0.74867
 Alpha virt. eigenvalues --    0.76003   0.76418   0.77768   0.77937   0.78983
 Alpha virt. eigenvalues --    0.79185   0.80389   0.80577   0.81052   0.82190
 Alpha virt. eigenvalues --    0.83393   0.83544   0.84615   0.85370   0.85827
 Alpha virt. eigenvalues --    0.86361   0.87509   0.88635   0.89002   0.89888
 Alpha virt. eigenvalues --    0.91760   0.92067   0.92427   0.93522   0.94220
 Alpha virt. eigenvalues --    0.96297   0.97208   0.97819   0.99549   1.00927
 Alpha virt. eigenvalues --    1.01198   1.01915   1.02517   1.02892   1.03325
 Alpha virt. eigenvalues --    1.04601   1.04845   1.05252   1.06509   1.07209
 Alpha virt. eigenvalues --    1.08829   1.10176   1.11251   1.11515   1.11917
 Alpha virt. eigenvalues --    1.13004   1.15418   1.16565   1.17327   1.17980
 Alpha virt. eigenvalues --    1.19344   1.19475   1.20505   1.22276   1.23087
 Alpha virt. eigenvalues --    1.24451   1.24750   1.27079   1.27481   1.29578
 Alpha virt. eigenvalues --    1.30715   1.32766   1.34241   1.35153   1.35816
 Alpha virt. eigenvalues --    1.37377   1.37813   1.38997   1.39440   1.39813
 Alpha virt. eigenvalues --    1.40162   1.41614   1.41980   1.42927   1.43415
 Alpha virt. eigenvalues --    1.44417   1.45357   1.46139   1.47053   1.50030
 Alpha virt. eigenvalues --    1.50512   1.51730   1.53073   1.53966   1.55266
 Alpha virt. eigenvalues --    1.55960   1.56433   1.57935   1.61572   1.63140
 Alpha virt. eigenvalues --    1.68570   1.69163   1.71828   1.78394   1.79405
 Alpha virt. eigenvalues --    1.80224   1.84483   1.84898   1.85950   1.86429
 Alpha virt. eigenvalues --    1.87712   1.88062   1.89132   1.89705   1.90505
 Alpha virt. eigenvalues --    1.91805   1.93293   1.93993   1.94737   1.95371
 Alpha virt. eigenvalues --    1.96236   1.98011   1.99830   2.01345   2.01678
 Alpha virt. eigenvalues --    2.03627   2.04264   2.04913   2.05244   2.05599
 Alpha virt. eigenvalues --    2.06480   2.09476   2.11314   2.13189   2.14228
 Alpha virt. eigenvalues --    2.14361   2.15398   2.15728   2.17122   2.17729
 Alpha virt. eigenvalues --    2.19197   2.20067   2.20820   2.21290   2.22010
 Alpha virt. eigenvalues --    2.22856   2.23720   2.24285   2.27015   2.27772
 Alpha virt. eigenvalues --    2.28272   2.30733   2.32410   2.32692   2.34188
 Alpha virt. eigenvalues --    2.35022   2.36971   2.38476   2.39048   2.39632
 Alpha virt. eigenvalues --    2.39975   2.40449   2.42724   2.43363   2.50867
 Alpha virt. eigenvalues --    2.51978   2.53461   2.59231   2.59425   2.59945
 Alpha virt. eigenvalues --    2.62532   2.63984   2.64759   2.66353   2.67535
 Alpha virt. eigenvalues --    2.68142   2.70749   2.71601   2.71955   2.75022
 Alpha virt. eigenvalues --    2.76929   2.77675   2.79276   2.80680   2.81086
 Alpha virt. eigenvalues --    2.81951   2.82794   2.84762   2.85604   2.86851
 Alpha virt. eigenvalues --    2.91233   2.92154   2.95953   2.96253   2.97629
 Alpha virt. eigenvalues --    3.01239   3.03512   3.05315   3.05576   3.11951
 Alpha virt. eigenvalues --    3.14176   3.16466   3.21965   3.24519   3.27452
 Alpha virt. eigenvalues --    3.31701   3.33191   3.36091   3.41060   3.52248
 Alpha virt. eigenvalues --    3.55436   3.63648   3.69819   3.76209   3.77166
 Alpha virt. eigenvalues --    3.84946   3.86451   4.03908   4.05169   4.15696
 Alpha virt. eigenvalues --    4.22966   4.26524   4.27655   4.29315   4.30532
 Alpha virt. eigenvalues --    4.30682   4.33016   4.36715   4.40222   4.41635
 Alpha virt. eigenvalues --    4.44422   4.44877   4.47168   4.50282   4.53239
 Alpha virt. eigenvalues --    4.56088   4.60747   4.65058   4.71532   4.75647
 Alpha virt. eigenvalues --    4.79098   4.85101   5.21258   5.21671   5.26161
 Alpha virt. eigenvalues --    5.57515   5.68182   6.45561   6.49830  23.86916
 Alpha virt. eigenvalues --   24.11151  24.29685  38.23284  38.80065
          Condensed to atoms (all electrons):
               1          2          3          4          5          6
     1  C    5.653353  -0.045174   0.005562  -0.013688  -0.031621   0.000335
     2  C   -0.045174   6.110218  -0.361048  -0.063670   0.158412   0.014440
     3  C    0.005562  -0.361048   6.911162   0.348778  -0.670965  -0.111217
     4  N   -0.013688  -0.063670   0.348778   7.711857   0.266471  -0.164467
[...]
     9  C    0.009782  -0.319184   0.088038  -0.077479  -0.097884   0.133086
    10  C    0.008580   0.060307   0.022805   0.156840  -0.025142   0.126252
    11  C    0.197512   0.339826  -0.623086   0.133067   0.046580   0.000931
    12  C    0.063328   0.452457   0.053429   0.008112   0.023817  -0.404933
    13  C    0.022302  -1.181364   0.349377  -0.369902   0.344095   0.569037
    14  H   -0.000000  -0.000000  -0.000000  -0.000000  -0.000000   0.000000
    15  H    0.000000   0.000000   0.000000   0.000000   0.000000  -0.000000
    16  H    0.000000  -0.000000  -0.000000  -0.000000   0.000000   0.000000
    17  H    0.000000  -0.000000  -0.000000  -0.000000   0.000000   0.000000
    18  H    0.000000   0.000000   0.000000   0.000000   0.000000  -0.000000
    19  H    0.000000  -0.000002  -0.000000  -0.000000  -0.000000   0.000000
    20  H   -0.000000   0.000002   0.000000  -0.000000  -0.000000  -0.000000
    21  H   -0.000000  -0.000012  -0.000000  -0.000000  -0.000000  -0.000000
    22  H   -0.000016   0.000717   0.000001   0.000000   0.000003  -0.000043
    23  H    0.000011  -0.000059   0.000017   0.000072  -0.003153   0.000077
    24  H   -0.003682   0.008646   0.000126   0.000028   0.000013  -0.000601
    25  H    0.441618  -0.014056   0.002726   0.000927  -0.000123   0.002974
    26  S   -0.014056  17.090733   0.304582   0.312153   0.008072  -1.732377
    27  O    0.002726   0.304582   8.648769  -0.157336   0.000779  -0.143508
    28  O    0.000927   0.312153  -0.157336   8.645209   0.002758  -0.133783
    29  H   -0.000123   0.008072   0.000779   0.002758   0.435826  -0.001131
    30  C    0.002974  -1.732377  -0.143508  -0.133783  -0.001131   7.044839
    31  H   -0.000015   0.015920  -0.006702   0.010791   0.000006   0.345135
    32  H   -0.000001  -0.048570  -0.008073  -0.008480   0.000000   0.365386
    33  H    0.000009   0.033522   0.011021  -0.006079  -0.000003   0.344616
              31         32         33
     1  C    0.000000  -0.000000  -0.000000
     2  C   -0.000000   0.000000   0.000000
     3  C    0.000000  -0.000000  -0.000001
     4  N    0.000001  -0.000000   0.000000
     5  C   -0.000053  -0.000019  -0.000323
     6  O    0.000000   0.000000  -0.000000
     7  N    0.000030  -0.000002   0.000023
     8  C   -0.007881  -0.000028  -0.010261
     9  C    0.010905  -0.000616  -0.017977
    10  C    0.005412   0.000351   0.010775
    11  C   -0.070556  -0.006889   0.021126
    12  C    0.002558   0.057725  -0.002790
    13  C    0.026835  -0.005293  -0.050530
    14  H   -0.000000   0.000000  -0.000000
    15  H    0.000000   0.000000   0.000000
    16  H   -0.000000   0.000000   0.000000
    17  H   -0.000000  -0.000000   0.000000
    18  H    0.000000   0.000000   0.000000
    19  H    0.000000  -0.000000   0.000000
    20  H   -0.000000   0.000000  -0.000000
    21  H   -0.000000   0.000000  -0.000000
    22  H    0.000000  -0.000000   0.000000
    23  H   -0.000000  -0.000000   0.000000
    24  H    0.000000  -0.000000   0.000000
    25  H   -0.000015  -0.000001   0.000009
    26  S    0.015920  -0.048570   0.033522
    27  O   -0.006702  -0.008073   0.011021
    28  O    0.010791  -0.008480  -0.006079
    29  H    0.000006   0.000000  -0.000003
    30  C    0.345135   0.365386   0.344616
    31  H    0.446549  -0.019029  -0.021691
    32  H   -0.019029   0.412304  -0.018788
    33  H   -0.021691  -0.018788   0.443401
 Mulliken charges:
               1
     1  C   -0.728195
     2  C   -0.350333
     3  C   -0.157710
     4  N   -0.661399
     5  C    0.821751
     6  O   -0.578551
     7  N   -0.601892
     8  C    0.150811
     9  C    0.206946
    10  C   -1.241176
    11  C    0.085888
    12  C   -1.009400
    13  C    0.153203
    14  H    0.216302
    15  H    0.216065
    16  H    0.217391
    17  H    0.208964
    18  H    0.226849
    19  H    0.243989
    20  H    0.224097
    21  H    0.397696
    22  H    0.400017
    23  H    0.281341
    24  H    0.195366
    25  H    0.255799
    26  S    1.424461
    27  O   -0.487402
    28  O   -0.481339
    29  H    0.260192
    30  C   -0.695488
    31  H    0.261786
    32  H    0.280023
    33  H    0.263950
    34  O    0.000000
    35  O    0.000000
    36  C    0.000000
    37  C    0.000000
    38  C    0.000000
    39  H    0.000000
    40  H    0.000000
    41  H    0.000000
    42  H    0.000000
    43  H    0.000000
 Sum of Mulliken charges =  -0.00000
 Mulliken charges with hydrogens summed into heavy atoms:
               1
     1  C   -0.078437
     2  C    0.085479
     3  C    0.310375
     4  N   -0.263703
     5  C    0.821751
     6  O   -0.578551
     7  N   -0.201875
     8  C    0.150811
     9  C    0.488287
    10  C   -1.045811
    11  C    0.341687
    12  C   -1.009400
    13  C    0.413395
    26  S    1.424461
    27  O   -0.487402
    28  O   -0.481339
    30  C    0.110272
    34  O    0.000000
    35  O    0.000000
    36  C    0.000000
    37  C    0.000000
    38  C    0.000000
         Mulliken charges condensed to fragments:
      1     -0.000000
      2      0.000000
 Electronic spatial extent (au):  <R**2>=           9509.6951
 Charge=             -0.0000 electrons
 Dipole moment (field-independent basis, Debye):
    X=             -8.5904    Y=              2.8747    Z=              3.6290  Tot=              9.7585
 Quadrupole moment (field-independent basis, Debye-Ang):
   XX=           -125.1195   YY=           -117.1388   ZZ=           -110.8832
   XY=              0.6717   XZ=             20.9505   YZ=              0.2177
 Traceless Quadrupole moment (field-independent basis, Debye-Ang):
   XX=             -7.4057   YY=              0.5751   ZZ=              6.8306
   XY=              0.6717   XZ=             20.9505   YZ=              0.2177
 Octapole moment (field-independent basis, Debye-Ang**2):
  XXX=           -567.7801  YYY=            302.7510  ZZZ=              9.0917  XYY=           -111.2939
  XXY=             74.4514  XXZ=            125.2561  XZZ=            -81.0653  YZZ=             92.7418
  YYZ=              3.5776  XYZ=              0.1715
 Hexadecapole moment (field-independent basis, Debye-Ang**3):
 XXXX=         -11629.3856 YYYY=          -1649.3189 ZZZZ=           -312.0331 XXXY=           -596.8850
 XXXZ=            691.0550 YYYX=           -824.6959 YYYZ=             13.2306 ZZZX=             -0.6286
 ZZZY=              4.3253 XXYY=          -2157.4418 XXZZ=          -1800.3025 YYZZ=           -318.3035
 XXYZ=              6.4785 YYXZ=             22.3380 ZZXY=           -266.4737
 N-N= 1.298192143238D+03 E-N=-5.318232036585D+03  KE= 1.153804158142D+03
 CPIOFr:  IOpCl= 0 IRwI=-1 IRwCP=  731 ICalc=  3 LCPTot=      337946 Len1MO=      869690 IndFrg=     3816706
 Counterpoise: doing MCBS calculation for fragment   2
 Basis read from rwf:  (6D, 7F)
 There are   105 symmetry adapted cartesian basis functions of A   symmetry.
 There are   105 symmetry adapted basis functions of A   symmetry.
   105 basis functions,   180 primitive gaussians,   105 cartesian basis functions
    20 alpha electrons       20 beta electrons
       nuclear repulsion energy       168.5450319169 Hartrees.
 NAtoms=   43 NActive=   10 NUniq=   10 SFac= 1.00D+00 NAtFMM=   60 NAOKFM=F Big=F
 Integral buffers will be    131072 words long.
 Raffenetti 2 integral format.
 Two-electron integral symmetry is turned on.
 One-electron integrals computed using PRISM.
 NBasis=   105 RedAO= T EigKep=  1.23D-04  NBF=   105
 NBsUse=   105 1.00D-06 EigRej= -1.00D+00 NBFU=   105
 ExpMin= 4.38D-02 ExpMax= 5.48D+03 ExpMxC= 8.25D+02 IAcc=3 IRadAn=         5 AccDes= 0.00D+00
 Harris functional with IExCor= 1009 and IRadAn=       5 diagonalized for initial guess.
 HarFok:  IExCor= 1009 AccDes= 0.00D+00 IRadAn=         5 IDoV= 1 UseB2=F ITyADJ=14
 ICtDFT=  3500011 ScaDFX=  1.000000  1.000000  1.000000  1.000000
 FoFCou: FMM=F IPFlag=           0 FMFlag=      100000 FMFlg1=           0
         NFxFlg=           0 DoJE=T BraDBF=F KetDBF=T FulRan=T
         wScrn=  0.000000 ICntrl=     500 IOpCl=  0 I1Cent=   200000004 NGrid=           0
         NMat0=    1 NMatS0=      1 NMatT0=    0 NMatD0=    1 NMtDS0=    0 NMtDT0=    0
 Petite list used in FoFCou.
 Keep R1 ints in memory in canonical form, NReq=16474728.
 Requested convergence on RMS density matrix=1.00D-08 within 128 cycles.
 Requested convergence on MAX density matrix=1.00D-06.
 Requested convergence on             energy=1.00D-06.
 No special actions if energy rises.
 SCF Done:  E(RM062X) =  -267.728486348     A.U. after   14 cycles
            NFock= 14  Conv=0.40D-08     -V/T= 2.0084

 **********************************************************************

            Population analysis using the SCF density.

 **********************************************************************

 Orbital symmetries:
       Occupied  (A) (A) (A) (A) (A) (A) (A) (A) (A) (A) (A) (A)
                 (A) (A) (A) (A) (A) (A) (A) (A)
       Virtual   (A) (A) (A) (A) (A) (A) (A) (A) (A) (A) (A) (A)
                 (A) (A) (A) (A) (A) (A) (A) (A) (A) (A) (A) (A)
                 (A) (A) (A) (A) (A) (A) (A) (A) (A) (A) (A) (A)
                 (A) (A) (A) (A) (A) (A) (A) (A) (A) (A) (A) (A)
                 (A) (A) (A) (A) (A) (A) (A) (A) (A) (A) (A) (A)
                 (A) (A) (A) (A) (A) (A) (A) (A) (A) (A) (A) (A)
                 (A) (A) (A) (A) (A) (A) (A) (A) (A) (A) (A) (A)
                 (A)
 The electronic state is 1-A.
 Alpha  occ. eigenvalues --  -19.38315 -19.37982 -10.43618 -10.38686 -10.37527
 Alpha  occ. eigenvalues --   -0.94231  -0.84524  -0.69913  -0.56013  -0.39484
 Alpha  occ. eigenvalues --   -0.36274  -0.33517  -0.30139  -0.27616  -0.27396
 Alpha  occ. eigenvalues --   -0.25017  -0.22641  -0.10888  -0.10844  -0.10176
 Alpha virt. eigenvalues --    0.14617   0.16485   0.18637   0.19568   0.21556
 Alpha virt. eigenvalues --    0.21833   0.22418   0.22880   0.23464   0.25913
 Alpha virt. eigenvalues --    0.28391   0.29735   0.30030   0.38007   0.38906
 Alpha virt. eigenvalues --    0.42270   0.42503   0.43636   0.45463   0.46255
 Alpha virt. eigenvalues --    0.46735   0.48001   0.49566   0.49785   0.50774
 Alpha virt. eigenvalues --    0.55096   0.56094   0.57224   0.71676   0.75215
 Alpha virt. eigenvalues --    0.84455   0.86644   0.89650   0.92067   0.94819
 Alpha virt. eigenvalues --    0.99481   1.01986   1.08488   1.10006   1.14581
 Alpha virt. eigenvalues --    1.20092   1.21328   1.31095   1.32742   1.33995
 Alpha virt. eigenvalues --    1.34584   1.49193   1.54762   1.57828   1.59166
 Alpha virt. eigenvalues --    1.61032   1.63166   1.63279   1.74395   1.78266
 Alpha virt. eigenvalues --    1.80803   1.86855   2.02537   2.02793   2.08639
 Alpha virt. eigenvalues --    2.10104   2.12084   2.14398   2.16413   2.22703
 Alpha virt. eigenvalues --    2.26491   2.28163   2.29480   2.45077   2.52362
 Alpha virt. eigenvalues --    2.54097   2.54334   2.73485   2.74149   2.78552
 Alpha virt. eigenvalues --    2.97712   3.13251   3.27235   3.32690   3.42448
 Alpha virt. eigenvalues --    4.36344   4.41515   4.58214   4.66951   4.82506
          Condensed to atoms (all electrons):
               1          2          3          4          5          6
     1  O    8.618070  -0.169720   0.529790  -0.393051   0.079444  -0.002868
     2  O   -0.169720   8.597191   0.462557  -0.323836   0.096324   0.001425
     3  C    0.529790   0.462557   4.836363  -0.362156   0.050770  -0.015097
     4  C   -0.393051  -0.323836  -0.362156   7.537287  -0.642334   0.388723
     5  C    0.079444   0.096324   0.050770  -0.642334   6.026190  -0.056146
     6  H   -0.002868   0.001425  -0.015097   0.388723  -0.056146   0.530278
     7  H   -0.002788   0.001204  -0.015387   0.388436  -0.055591  -0.032668
     8  H   -0.000091  -0.006576  -0.003382  -0.047516   0.410799  -0.004346
     9  H   -0.000311   0.002877   0.012400  -0.060112   0.378390  -0.002019
    10  H   -0.000119  -0.006678  -0.002257  -0.048860   0.411341   0.003863
               7          8          9         10
     1  O   -0.002788  -0.000091  -0.000311  -0.000119
     2  O    0.001204  -0.006576   0.002877  -0.006678
     3  C   -0.015387  -0.003382   0.012400  -0.002257
     4  C    0.388436  -0.047516  -0.060112  -0.048860
     5  C   -0.055591   0.410799   0.378390   0.411341
     6  H   -0.032668  -0.004346  -0.002019   0.003863
     7  H    0.530644   0.003863  -0.002051  -0.004333
     8  H    0.003863   0.499827  -0.033972  -0.025595
     9  H   -0.002051  -0.033972   0.589087  -0.033868
    10  H   -0.004333  -0.025595  -0.033868   0.498106
 Mulliken charges:
               1
     1  C    0.000000
     2  C    0.000000
     3  C    0.000000
     4  N    0.000000
     5  C    0.000000
     6  O    0.000000
     7  N    0.000000
     8  C    0.000000
     9  C    0.000000
    10  C    0.000000
    11  C    0.000000
    12  C    0.000000
    13  C    0.000000
    14  H    0.000000
    15  H    0.000000
    16  H    0.000000
    17  H    0.000000
    18  H    0.000000
    19  H    0.000000
    20  H    0.000000
    21  H    0.000000
    22  H    0.000000
    23  H    0.000000
    24  H    0.000000
    25  H    0.000000
    26  S    0.000000
    27  O    0.000000
    28  O    0.000000
    29  H    0.000000
    30  C    0.000000
    31  H    0.000000
    32  H    0.000000
    33  H    0.000000
    34  O   -0.658356
    35  O   -0.654768
    36  C    0.506399
    37  C   -0.436581
    38  C   -0.699188
    39  H    0.188856
    40  H    0.188670
    41  H    0.206990
    42  H    0.149578
    43  H    0.208400
 Sum of Mulliken charges =  -1.00000
 Mulliken charges with hydrogens summed into heavy atoms:
               1
     1  C    0.000000
     2  C    0.000000
     3  C    0.000000
     4  N    0.000000
     5  C    0.000000
     6  O    0.000000
     7  N    0.000000
     8  C    0.000000
     9  C    0.000000
    10  C    0.000000
    11  C    0.000000
    12  C    0.000000
    13  C    0.000000
    26  S    0.000000
    27  O    0.000000
    28  O    0.000000
    30  C    0.000000
    34  O   -0.658356
    35  O   -0.654768
    36  C    0.506399
    37  C   -0.059055
    38  C   -0.134220
         Mulliken charges condensed to fragments:
      1      0.000000
      2     -1.000000
 Electronic spatial extent (au):  <R**2>=           2913.0042
 Charge=             -1.0000 electrons
 Dipole moment (field-independent basis, Debye):
    X=             13.4942    Y=             -8.4202    Z=             -0.1438  Tot=             15.9064
 Quadrupole moment (field-independent basis, Debye-Ang):
   XX=            -80.0882   YY=            -54.2405   ZZ=            -32.5352
   XY=             20.8694   XZ=              1.7115   YZ=              0.1565
 Traceless Quadrupole moment (field-independent basis, Debye-Ang):
   XX=            -24.4669   YY=              1.3808   ZZ=             23.0861
   XY=             20.8694   XZ=              1.7115   YZ=              0.1565
 Octapole moment (field-independent basis, Debye-Ang**2):
  XXX=            477.6908  YYY=           -382.2308  ZZZ=             -3.6201  XYY=            146.1792
  XXY=           -168.0717  XXZ=            -10.3319  XZZ=             95.7758  YZZ=            -98.0739
  YYZ=             -0.1944  XYZ=              2.0499
 Hexadecapole moment (field-independent basis, Debye-Ang**3):
 XXXX=          -2668.5108 YYYY=          -2619.3257 ZZZZ=            -52.4865 XXXY=           1128.0139
 XXXZ=             60.7217 YYYX=           1053.8476 YYYZ=             -3.3212 ZZZX=             18.8048
 ZZZY=             -6.8886 XXYY=           -829.6302 XXZZ=           -319.8813 YYZZ=           -371.4109
 XXYZ=            -15.9704 YYXZ=              8.9236 ZZXY=            280.8885
 N-N= 1.685450319169D+02 E-N=-9.724327415745D+02  KE= 2.654889244353D+02
 CPIOFr:  IOpCl= 0 IRwI=-1 IRwCP=  731 ICalc=  4 LCPTot=      337946 Len1MO=      869690 IndFrg=     4686396
 CPIOFr:  IOpCl= 0 IRwI=-2 IRwCP=  731 ICalc=  0 LCPTot=      337946 Len1MO=      869690 IndFrg=     1207636
 Counterpoise corrected energy =   -1429.605579161891
                   BSSE energy =       0.001753929834
               sum of monomers =   -1429.524420969156
           complexation energy =     -52.03 kcal/mole (raw)
           complexation energy =     -50.93 kcal/mole (corrected)
 1\1\GINC-R3726\SP\RM062X\Gen\C14H21N2O5S1(1-)\ROOT\21-Feb-2019\0\\# M0
 62X/Gen 6D SCF=Tight INT(grid=ultrafine) Counterpoise=2 maxdisk=671088
 640\\4SulfOxyMethyl_C2_EtO.M062X_6-31pGd_bsse\\-1,1\C,0,-2.1138528668,
 2.4434768491,-0.4531644221\C,0,-0.802685361,1.7655864782,-0.062487788\
 C,0,0.4040058079,2.6265251475,-0.4203202077\N,0,1.6231580602,1.9352301
 831,-0.0681226456\C,0,2.8099562601,2.5835622122,-0.1088076913\O,0,2.92
 17043009,3.7808354687,-0.3827156849\N,0,3.8838902269,1.7527433325,0.19
 93833586\C,0,5.216181756,2.0861075318,0.2337520138\C,0,5.7287989598,3.
 3793641123,-0.0107428266\C,0,6.1179403267,1.0385695424,0.5446519648\C,
 0,7.4798248692,1.2689212297,0.5918133178\C,0,7.9718634871,2.5534125824
 ,0.3354958792\C,0,7.0987279539,3.5994486594,0.0371819732\H,0,-2.977651
 0508,1.8254326377,-0.1870839435\H,0,-2.1546732342,2.6281344664,-1.5332
 222699\H,0,-2.2242596995,3.4105429737,0.0520580868\H,0,-0.7107125147,0
 .7911004291,-0.556244375\H,0,-0.7842639142,1.56114586,1.0147958629\H,0
 ,0.3657172143,3.5857654142,0.1114922576\H,0,0.3889570387,2.8661136515,
 -1.4957658914\H,0,1.5786679465,0.9087794191,0.0768556029\H,0,3.6711029
 238,0.7516094153,0.3994669135\H,0,5.0426189351,4.1848994758,-0.2323297
 734\H,0,5.7101143273,0.0505465959,0.745148549\H,0,8.1689685742,0.46727
 59703,0.8431840941\S,0,9.7091872677,2.8260132285,0.2827528983\O,0,10.3
 840507684,1.8209656198,1.1117854336\O,0,9.9834652192,4.2527412407,0.48
 91150243\H,0,7.4985233665,4.5943806571,-0.1400722058\C,0,10.1601922694
 ,2.4648752997,-1.4168670317\H,0,9.9006283481,1.4274395682,-1.633375751
 2\H,0,11.2390200166,2.620175043,-1.4913672847\H,0,9.621765014,3.150408
 6286,-2.0730373746\O,0,1.3457504508,-0.8391331479,0.2878242112\O,0,3.5
 46600369,-0.9481694174,0.7197278058\C,0,2.3986098687,-1.454439899,0.59
 36834618\C,0,2.2563245208,-2.9658912666,0.8356234396\C,0,3.5588742992,
 -3.6746560307,1.1856018158\H,0,1.8028435575,-3.3943909257,-0.066716052
 \H,0,1.5118757206,-3.0936683412,1.6313607666\H,0,4.2926511508,-3.55259
 84477,0.3835115666\H,0,3.395857037,-4.7468828076,1.3502845544\H,0,4.00
 08404284,-3.2454086402,2.0893123672\\Version=ES64L-G09RevE.01\State=1-
 A\HF=-267.7284863\RMSD=4.016e-09\Dipole=0.2424068,-0.1686383,-1.351430
 7\Quadrupole=-24.8848572,0.2837493,24.6011079,-16.4363066,-15.7002718,
 0.4063578\PG=C01 [X(C14H21N2O5S1)]\\@


 Once you get people laughing, they're
 listening and you can tell them almost anything.
                                 -- Herb Gardner
 Job cpu time:       0 days  1 hours 53 minutes 13.8 seconds.
 File lengths (MBytes):  RWF=    177 Int=      0 D2E=      0 Chk=     49 Scr=      1
 Normal termination of Gaussian 09 at Thu Feb 21 21:09:17 2019.
WARNING: pbs_rusage is deprecated and values produced may not be accurate


=============================================================================
                                     Resource usage:
                                       CPU time:              01:42:31
   JobId:    5976731.r-man2            Elapsed time:          00:27:47
   Project:             q95            Requested time:        48:00:00
   Service Units:      1.85 
                                       Max physical memory:      153MB
                                       Max virtual memory:       402MB
                                       Requested memory:           0MB

                                       Number of cpus:               4

                                       Max jobfs disk use:       0.2GB
                                       Requested jobfs:          5.0GB
=============================================================================

