 Entering Gaussian System, Link 0=/apps/gaussian/g09e01/g09/g09
 AtFile(1): /home/507/hio507/Basis/6-31pGd.gbs
 Initial command:
 /apps/gaussian/g09e01/g09/l1.exe "/jobfs/local/6207875.r-man2/Gau-1771.inp" -scrdir="/jobfs/local/6207875.r-man2/"
 Entering Link 1 = /apps/gaussian/g09e01/g09/l1.exe PID=      1772.
  
 Copyright (c) 1988,1990,1992,1993,1995,1998,2003,2009,2015,
            Gaussian, Inc.  All Rights Reserved.
  
 This is part of the Gaussian(R) 09 program.  It is based on
 the Gaussian(R) 03 system (copyright 2003, Gaussian, Inc.),
 the Gaussian(R) 98 system (copyright 1998, Gaussian, Inc.),
 the Gaussian(R) 94 system (copyright 1995, Gaussian, Inc.),
 the Gaussian 92(TM) system (copyright 1992, Gaussian, Inc.),
 the Gaussian 90(TM) system (copyright 1990, Gaussian, Inc.),
 the Gaussian 88(TM) system (copyright 1988, Gaussian, Inc.),
 the Gaussian 86(TM) system (copyright 1986, Carnegie Mellon
 University), and the Gaussian 82(TM) system (copyright 1983,
 Carnegie Mellon University). Gaussian is a federally registered
 trademark of Gaussian, Inc.
  
 This software contains proprietary and confidential information,
 including trade secrets, belonging to Gaussian, Inc.
  
 This software is provided under written license and may be
 used, copied, transmitted, or stored only in accord with that
 written license.
  
 The following legend is applicable only to US Government
 contracts under FAR:
  
                    RESTRICTED RIGHTS LEGEND
  
 Use, reproduction and disclosure by the US Government is
 subject to restrictions as set forth in subparagraphs (a)
 and (c) of the Commercial Computer Software - Restricted
 Rights clause in FAR 52.227-19.
  
 Gaussian, Inc.
 340 Quinnipiac St., Bldg. 40, Wallingford CT 06492
  
  
 ---------------------------------------------------------------
 Warning -- This program may not be used in any manner that
 competes with the business of Gaussian, Inc. or will provide
 assistance to any competitor of Gaussian, Inc.  The licensee
 of this program is prohibited from giving any competitor of
 Gaussian, Inc. access to this program.  By using this program,
 the user acknowledges that Gaussian, Inc. is engaged in the
 business of creating and licensing software in the field of
 computational chemistry and represents and warrants to the
 licensee that it is not a competitor of Gaussian, Inc. and that
 it will not use this program in any manner prohibited above.
 ---------------------------------------------------------------
  

 Cite this work as:
 Gaussian 09, Revision E.01,
 M. J. Frisch, G. W. Trucks, H. B. Schlegel, G. E. Scuseria, 
 M. A. Robb, J. R. Cheeseman, G. Scalmani, V. Barone, B. Mennucci, 
 G. A. Petersson, H. Nakatsuji, M. Caricato, X. Li, H. P. Hratchian, 
 A. F. Izmaylov, J. Bloino, G. Zheng, J. L. Sonnenberg, M. Hada, 
 M. Ehara, K. Toyota, R. Fukuda, J. Hasegawa, M. Ishida, T. Nakajima, 
 Y. Honda, O. Kitao, H. Nakai, T. Vreven, J. A. Montgomery, Jr., 
 J. E. Peralta, F. Ogliaro, M. Bearpark, J. J. Heyd, E. Brothers, 
 K. N. Kudin, V. N. Staroverov, T. Keith, R. Kobayashi, J. Normand, 
 K. Raghavachari, A. Rendell, J. C. Burant, S. S. Iyengar, J. Tomasi, 
 M. Cossi, N. Rega, J. M. Millam, M. Klene, J. E. Knox, J. B. Cross, 
 V. Bakken, C. Adamo, J. Jaramillo, R. Gomperts, R. E. Stratmann, 
 O. Yazyev, A. J. Austin, R. Cammi, C. Pomelli, J. W. Ochterski, 
 R. L. Martin, K. Morokuma, V. G. Zakrzewski, G. A. Voth, 
 P. Salvador, J. J. Dannenberg, S. Dapprich, A. D. Daniels, 
 O. Farkas, J. B. Foresman, J. V. Ortiz, J. Cioslowski, 
 and D. J. Fox, Gaussian, Inc., Wallingford CT, 2013.
 
 ******************************************
 Gaussian 09:  ES64L-G09RevE.01 30-Nov-2015
                27-Feb-2019 
 ******************************************
 %chk=3TFM4Chloro.M062X_6-31pGd_opt_Pentadecane.chk
 %mem=196608000
 %nproc=4
 Will use up to    4 processors via shared memory.
 ----------------------------------------------------------------------
 # M062X/Gen 6D SCF=Tight INT(grid=ultrafine) OPT=CalcFC IOP(2/17=4) SC
 RF=(SMD,Solvent=n-Pentadecane) maxdisk=2147483648
 ----------------------------------------------------------------------
 1/10=4,14=-1,18=20,19=15,26=4,38=1/1,3;
 2/9=110,12=2,17=4,18=5,40=1/2;
 3/5=7,8=2,11=2,16=1,25=1,30=1,70=32201,71=2,72=151,74=-55,75=-5,140=1/1,2,3;
 4//1;
 5/5=2,32=2,38=5,53=151/2;
 8/6=4,10=90,11=11/1;
 11/6=1,8=1,9=11,15=111,16=1/1,2,10;
 10/6=1,13=1/2;
 6/7=2,8=2,9=2,10=2,28=1/1;
 7/10=1,18=20,25=1/1,2,3,16;
 1/10=4,14=-1,18=20,19=15,26=4/3(2);
 2/9=110,17=4/2;
 99//99;
 2/9=110,17=4/2;
 3/5=7,6=1,8=2,11=2,16=1,25=1,30=1,70=32205,71=1,72=151,74=-55,75=-5,82=7/1,2,3;
 4/5=5,16=3,69=1/1;
 5/5=2,32=2,38=5,53=151/2;
 7//1,2,3,16;
 1/14=-1,18=20,19=15,26=4/3(-5);
 2/9=110,17=4/2;
 6/7=2,8=2,9=2,10=2,19=2,28=1/1;
 99/9=1/99;
 -----------------------------------------
 3TFM4Chloro.M062X_6-31pGd_opt_Pentadecane
 -----------------------------------------
 Symbolic Z-matrix:
 Charge =  0 Multiplicity = 1
 C                    -1.97352   2.15591  -0.08665 
 C                    -0.61057   1.47905   0.02572 
 C                     0.52777   2.49435  -0.12759 
 N                     1.82295   1.84516  -0.01995 
 C                     2.98899   2.5429   -0.1301 
 O                     2.94608   3.74708  -0.3245 
 N                     4.18252   1.88041  -0.01988 
 C                     5.51424   2.42235  -0.10987 
 C                     5.81465   3.78466  -0.35717 
 C                     6.58885   1.53178   0.05767 
 C                     7.90925   1.96903  -0.01485 
 C                     8.19863   3.31099  -0.2583 
 C                     7.14968   4.23819  -0.43342 
 H                    -2.77633   1.39719   0.02635 
 H                    -2.08202   2.64337  -1.07898 
 H                    -2.09175   2.92044   0.71058 
 H                    -0.5258    0.70533  -0.76829 
 H                    -0.53467   0.98327   1.01798 
 H                     0.43864   3.26762   0.66725 
 H                     0.44619   2.98614  -1.12213 
 H                     1.86066   0.82654   0.14315 
 H                     4.122     0.86408   0.14975 
 H                     5.04149   4.51331  -0.49616 
 H                     6.40354   0.48178   0.24796 
 H                     8.71312   1.25604   0.1194 
 Cl                    9.89316   3.78785  -0.33698 
 C                     7.45655   5.6986   -0.70029 
 F                     6.30689   6.45616  -0.84519 
 F                     8.19576   5.81192  -1.86392 
 F                     8.18515   6.21972   0.35364 
 

 GradGradGradGradGradGradGradGradGradGradGradGradGradGradGradGradGradGrad
 Berny optimization.
 Initialization pass.
                           ----------------------------
                           !    Initial Parameters    !
                           ! (Angstroms and Degrees)  !
 --------------------------                            --------------------------
 ! Name  Definition              Value          Derivative Info.                !
 --------------------------------------------------------------------------------
 ! R1    R(1,2)                  1.5259         calculate D2E/DX2 analytically  !
 ! R2    R(1,14)                 1.1104         calculate D2E/DX2 analytically  !
 ! R3    R(1,15)                 1.1109         calculate D2E/DX2 analytically  !
 ! R4    R(1,16)                 1.1109         calculate D2E/DX2 analytically  !
 ! R5    R(2,3)                  1.533          calculate D2E/DX2 analytically  !
 ! R6    R(2,17)                 1.1119         calculate D2E/DX2 analytically  !
 ! R7    R(2,18)                 1.1118         calculate D2E/DX2 analytically  !
 ! R8    R(3,4)                  1.4528         calculate D2E/DX2 analytically  !
 ! R9    R(3,19)                 1.1125         calculate D2E/DX2 analytically  !
 ! R10   R(3,20)                 1.1125         calculate D2E/DX2 analytically  !
 ! R11   R(4,5)                  1.3633         calculate D2E/DX2 analytically  !
 ! R12   R(4,21)                 1.0323         calculate D2E/DX2 analytically  !
 ! R13   R(5,6)                  1.2205         calculate D2E/DX2 analytically  !
 ! R14   R(5,7)                  1.3695         calculate D2E/DX2 analytically  !
 ! R15   R(7,8)                  1.4406         calculate D2E/DX2 analytically  !
 ! R16   R(7,22)                 1.0322         calculate D2E/DX2 analytically  !
 ! R17   R(8,9)                  1.4168         calculate D2E/DX2 analytically  !
 ! R18   R(8,10)                 1.4057         calculate D2E/DX2 analytically  !
 ! R19   R(9,13)                 1.412          calculate D2E/DX2 analytically  !
 ! R20   R(9,23)                 1.0715         calculate D2E/DX2 analytically  !
 ! R21   R(10,11)                1.3928         calculate D2E/DX2 analytically  !
 ! R22   R(10,24)                1.0831         calculate D2E/DX2 analytically  !
 ! R23   R(11,12)                1.3942         calculate D2E/DX2 analytically  !
 ! R24   R(11,25)                1.0829         calculate D2E/DX2 analytically  !
 ! R25   R(12,13)                1.4109         calculate D2E/DX2 analytically  !
 ! R26   R(12,26)                1.7621         calculate D2E/DX2 analytically  !
 ! R27   R(13,27)                1.516          calculate D2E/DX2 analytically  !
 ! R28   R(27,28)                1.3844         calculate D2E/DX2 analytically  !
 ! R29   R(27,29)                1.3832         calculate D2E/DX2 analytically  !
 ! R30   R(27,30)                1.3832         calculate D2E/DX2 analytically  !
 ! A1    A(2,1,14)             109.5849         calculate D2E/DX2 analytically  !
 ! A2    A(2,1,15)             110.3442         calculate D2E/DX2 analytically  !
 ! A3    A(2,1,16)             110.334          calculate D2E/DX2 analytically  !
 ! A4    A(14,1,15)            108.6702         calculate D2E/DX2 analytically  !
 ! A5    A(14,1,16)            108.6797         calculate D2E/DX2 analytically  !
 ! A6    A(15,1,16)            109.1882         calculate D2E/DX2 analytically  !
 ! A7    A(1,2,3)              111.2296         calculate D2E/DX2 analytically  !
 ! A8    A(1,2,17)             108.9159         calculate D2E/DX2 analytically  !
 ! A9    A(1,2,18)             108.9352         calculate D2E/DX2 analytically  !
 ! A10   A(3,2,17)             109.441          calculate D2E/DX2 analytically  !
 ! A11   A(3,2,18)             109.5048         calculate D2E/DX2 analytically  !
 ! A12   A(17,2,18)            108.773          calculate D2E/DX2 analytically  !
 ! A13   A(2,3,4)              111.0166         calculate D2E/DX2 analytically  !
 ! A14   A(2,3,19)             109.2322         calculate D2E/DX2 analytically  !
 ! A15   A(2,3,20)             109.1307         calculate D2E/DX2 analytically  !
 ! A16   A(4,3,19)             109.2138         calculate D2E/DX2 analytically  !
 ! A17   A(4,3,20)             109.2177         calculate D2E/DX2 analytically  !
 ! A18   A(19,3,20)            109.0003         calculate D2E/DX2 analytically  !
 ! A19   A(3,4,5)              121.8591         calculate D2E/DX2 analytically  !
 ! A20   A(3,4,21)             119.0272         calculate D2E/DX2 analytically  !
 ! A21   A(5,4,21)             119.1137         calculate D2E/DX2 analytically  !
 ! A22   A(4,5,6)              119.1923         calculate D2E/DX2 analytically  !
 ! A23   A(4,5,7)              119.427          calculate D2E/DX2 analytically  !
 ! A24   A(6,5,7)              121.3807         calculate D2E/DX2 analytically  !
 ! A25   A(5,7,8)              128.2165         calculate D2E/DX2 analytically  !
 ! A26   A(5,7,22)             116.0049         calculate D2E/DX2 analytically  !
 ! A27   A(8,7,22)             115.7785         calculate D2E/DX2 analytically  !
 ! A28   A(7,8,9)              124.6559         calculate D2E/DX2 analytically  !
 ! A29   A(7,8,10)             117.4464         calculate D2E/DX2 analytically  !
 ! A30   A(9,8,10)             117.8976         calculate D2E/DX2 analytically  !
 ! A31   A(8,9,13)             121.2478         calculate D2E/DX2 analytically  !
 ! A32   A(8,9,23)             121.5702         calculate D2E/DX2 analytically  !
 ! A33   A(13,9,23)            117.1819         calculate D2E/DX2 analytically  !
 ! A34   A(8,10,11)            121.3076         calculate D2E/DX2 analytically  !
 ! A35   A(8,10,24)            120.2876         calculate D2E/DX2 analytically  !
 ! A36   A(11,10,24)           118.4048         calculate D2E/DX2 analytically  !
 ! A37   A(10,11,12)           120.5323         calculate D2E/DX2 analytically  !
 ! A38   A(10,11,25)           119.3805         calculate D2E/DX2 analytically  !
 ! A39   A(12,11,25)           120.0872         calculate D2E/DX2 analytically  !
 ! A40   A(11,12,13)           119.993          calculate D2E/DX2 analytically  !
 ! A41   A(11,12,26)           117.896          calculate D2E/DX2 analytically  !
 ! A42   A(13,12,26)           122.1111         calculate D2E/DX2 analytically  !
 ! A43   A(9,13,12)            119.0217         calculate D2E/DX2 analytically  !
 ! A44   A(9,13,27)            120.6846         calculate D2E/DX2 analytically  !
 ! A45   A(12,13,27)           120.2937         calculate D2E/DX2 analytically  !
 ! A46   A(13,27,28)           112.1773         calculate D2E/DX2 analytically  !
 ! A47   A(13,27,29)           109.5841         calculate D2E/DX2 analytically  !
 ! A48   A(13,27,30)           109.5992         calculate D2E/DX2 analytically  !
 ! A49   A(28,27,29)           108.1142         calculate D2E/DX2 analytically  !
 ! A50   A(28,27,30)           108.1209         calculate D2E/DX2 analytically  !
 ! A51   A(29,27,30)           109.1854         calculate D2E/DX2 analytically  !
 ! D1    D(14,1,2,3)           179.9028         calculate D2E/DX2 analytically  !
 ! D2    D(14,1,2,17)           59.2007         calculate D2E/DX2 analytically  !
 ! D3    D(14,1,2,18)          -59.303          calculate D2E/DX2 analytically  !
 ! D4    D(15,1,2,3)            60.2789         calculate D2E/DX2 analytically  !
 ! D5    D(15,1,2,17)          -60.4232         calculate D2E/DX2 analytically  !
 ! D6    D(15,1,2,18)         -178.9269         calculate D2E/DX2 analytically  !
 ! D7    D(16,1,2,3)           -60.4678         calculate D2E/DX2 analytically  !
 ! D8    D(16,1,2,17)          178.8301         calculate D2E/DX2 analytically  !
 ! D9    D(16,1,2,18)           60.3263         calculate D2E/DX2 analytically  !
 ! D10   D(1,2,3,4)           -179.9967         calculate D2E/DX2 analytically  !
 ! D11   D(1,2,3,19)            59.5113         calculate D2E/DX2 analytically  !
 ! D12   D(1,2,3,20)           -59.5659         calculate D2E/DX2 analytically  !
 ! D13   D(17,2,3,4)           -59.604          calculate D2E/DX2 analytically  !
 ! D14   D(17,2,3,19)          179.904          calculate D2E/DX2 analytically  !
 ! D15   D(17,2,3,20)           60.8268         calculate D2E/DX2 analytically  !
 ! D16   D(18,2,3,4)            59.5446         calculate D2E/DX2 analytically  !
 ! D17   D(18,2,3,19)          -60.9474         calculate D2E/DX2 analytically  !
 ! D18   D(18,2,3,20)          179.9754         calculate D2E/DX2 analytically  !
 ! D19   D(2,3,4,5)            179.6766         calculate D2E/DX2 analytically  !
 ! D20   D(2,3,4,21)            -0.231          calculate D2E/DX2 analytically  !
 ! D21   D(19,3,4,5)           -59.8205         calculate D2E/DX2 analytically  !
 ! D22   D(19,3,4,21)          120.2719         calculate D2E/DX2 analytically  !
 ! D23   D(20,3,4,5)            59.2973         calculate D2E/DX2 analytically  !
 ! D24   D(20,3,4,21)         -120.6103         calculate D2E/DX2 analytically  !
 ! D25   D(3,4,5,6)              0.008          calculate D2E/DX2 analytically  !
 ! D26   D(3,4,5,7)            179.9691         calculate D2E/DX2 analytically  !
 ! D27   D(21,4,5,6)           179.9155         calculate D2E/DX2 analytically  !
 ! D28   D(21,4,5,7)            -0.1234         calculate D2E/DX2 analytically  !
 ! D29   D(4,5,7,8)            179.7262         calculate D2E/DX2 analytically  !
 ! D30   D(4,5,7,22)            -0.3154         calculate D2E/DX2 analytically  !
 ! D31   D(6,5,7,8)             -0.3136         calculate D2E/DX2 analytically  !
 ! D32   D(6,5,7,22)           179.6447         calculate D2E/DX2 analytically  !
 ! D33   D(5,7,8,9)             -1.0116         calculate D2E/DX2 analytically  !
 ! D34   D(5,7,8,10)           179.1204         calculate D2E/DX2 analytically  !
 ! D35   D(22,7,8,9)           179.03           calculate D2E/DX2 analytically  !
 ! D36   D(22,7,8,10)           -0.8381         calculate D2E/DX2 analytically  !
 ! D37   D(7,8,9,13)          -179.8848         calculate D2E/DX2 analytically  !
 ! D38   D(7,8,9,23)            -0.0158         calculate D2E/DX2 analytically  !
 ! D39   D(10,8,9,13)           -0.0173         calculate D2E/DX2 analytically  !
 ! D40   D(10,8,9,23)          179.8517         calculate D2E/DX2 analytically  !
 ! D41   D(7,8,10,11)          179.9339         calculate D2E/DX2 analytically  !
 ! D42   D(7,8,10,24)           -0.0908         calculate D2E/DX2 analytically  !
 ! D43   D(9,8,10,11)            0.0567         calculate D2E/DX2 analytically  !
 ! D44   D(9,8,10,24)         -179.9681         calculate D2E/DX2 analytically  !
 ! D45   D(8,9,13,12)           -0.029          calculate D2E/DX2 analytically  !
 ! D46   D(8,9,13,27)          179.9271         calculate D2E/DX2 analytically  !
 ! D47   D(23,9,13,12)        -179.9036         calculate D2E/DX2 analytically  !
 ! D48   D(23,9,13,27)           0.0525         calculate D2E/DX2 analytically  !
 ! D49   D(8,10,11,12)          -0.0493         calculate D2E/DX2 analytically  !
 ! D50   D(8,10,11,25)         179.9752         calculate D2E/DX2 analytically  !
 ! D51   D(24,10,11,12)        179.975          calculate D2E/DX2 analytically  !
 ! D52   D(24,10,11,25)         -0.0005         calculate D2E/DX2 analytically  !
 ! D53   D(10,11,12,13)          0.0008         calculate D2E/DX2 analytically  !
 ! D54   D(10,11,12,26)       -179.9637         calculate D2E/DX2 analytically  !
 ! D55   D(25,11,12,13)        179.9761         calculate D2E/DX2 analytically  !
 ! D56   D(25,11,12,26)          0.0116         calculate D2E/DX2 analytically  !
 ! D57   D(11,12,13,9)           0.0375         calculate D2E/DX2 analytically  !
 ! D58   D(11,12,13,27)       -179.9187         calculate D2E/DX2 analytically  !
 ! D59   D(26,12,13,9)        -179.9996         calculate D2E/DX2 analytically  !
 ! D60   D(26,12,13,27)          0.0442         calculate D2E/DX2 analytically  !
 ! D61   D(9,13,27,28)           0.0233         calculate D2E/DX2 analytically  !
 ! D62   D(9,13,27,29)        -120.0687         calculate D2E/DX2 analytically  !
 ! D63   D(9,13,27,30)         120.1339         calculate D2E/DX2 analytically  !
 ! D64   D(12,13,27,28)        179.9788         calculate D2E/DX2 analytically  !
 ! D65   D(12,13,27,29)         59.8868         calculate D2E/DX2 analytically  !
 ! D66   D(12,13,27,30)        -59.9106         calculate D2E/DX2 analytically  !
 --------------------------------------------------------------------------------
 Trust Radius=3.00D-01 FncErr=1.00D-07 GrdErr=1.00D-06
 Number of steps in this run=    157 maximum allowed number of steps=    180.
 GradGradGradGradGradGradGradGradGradGradGradGradGradGradGradGradGradGrad

                          Input orientation:                          
 ---------------------------------------------------------------------
 Center     Atomic      Atomic             Coordinates (Angstroms)
 Number     Number       Type             X           Y           Z
 ---------------------------------------------------------------------
      1          6           0       -1.973520    2.155910   -0.086650
      2          6           0       -0.610570    1.479050    0.025720
      3          6           0        0.527770    2.494350   -0.127590
      4          7           0        1.822950    1.845160   -0.019950
      5          6           0        2.988990    2.542900   -0.130100
      6          8           0        2.946080    3.747080   -0.324500
      7          7           0        4.182520    1.880410   -0.019880
      8          6           0        5.514240    2.422350   -0.109870
      9          6           0        5.814650    3.784660   -0.357170
     10          6           0        6.588850    1.531780    0.057670
     11          6           0        7.909250    1.969030   -0.014850
     12          6           0        8.198630    3.310990   -0.258300
     13          6           0        7.149680    4.238190   -0.433420
     14          1           0       -2.776330    1.397190    0.026350
     15          1           0       -2.082020    2.643370   -1.078980
     16          1           0       -2.091750    2.920440    0.710580
     17          1           0       -0.525800    0.705330   -0.768290
     18          1           0       -0.534670    0.983270    1.017980
     19          1           0        0.438640    3.267620    0.667250
     20          1           0        0.446190    2.986140   -1.122130
     21          1           0        1.860660    0.826540    0.143150
     22          1           0        4.122000    0.864080    0.149750
     23          1           0        5.041490    4.513310   -0.496160
     24          1           0        6.403540    0.481780    0.247960
     25          1           0        8.713120    1.256040    0.119400
     26         17           0        9.893160    3.787850   -0.336980
     27          6           0        7.456550    5.698600   -0.700290
     28          9           0        6.306890    6.456160   -0.845190
     29          9           0        8.195760    5.811920   -1.863920
     30          9           0        8.185150    6.219720    0.353640
 ---------------------------------------------------------------------
                    Distance matrix (angstroms):
                    1          2          3          4          5
     1  C    0.000000
     2  C    1.525909   0.000000
     3  C    2.524415   1.533022   0.000000
     4  N    3.809751   2.461329   1.452765   0.000000
     5  C    4.977766   3.756713   2.461700   1.363313   0.000000
     6  O    5.175989   4.232774   2.730628   2.229680   1.220525
     7  N    6.162563   4.810081   3.707522   2.359833   1.369509
     8  C    7.492535   6.198508   4.987021   3.737226   2.528207
     9  C    7.961256   6.837097   5.446899   4.450735   3.094816
    10  C    8.586300   7.199684   6.139833   4.776823   3.743877
    11  C    9.884798   8.533994   7.401008   6.087563   4.954954
    12  C   10.238960   9.002148   7.715315   6.546355   5.267518
    13  C    9.364236   8.248948   6.854502   5.854195   4.503038
    14  H    1.110373   2.167307   3.484901   4.621277   5.880140
    15  H    1.110904   2.177422   2.781790   4.124012   5.160001
    16  H    1.110883   2.177276   2.783158   4.124897   5.163642
    17  H    2.159794   1.111882   2.172809   2.715852   4.017175
    18  H    2.159996   1.111818   2.173585   2.716344   4.020785
    19  H    2.760938   2.170573   1.112502   2.100464   2.768623
    20  H    2.759800   2.169244   1.112485   2.100501   2.765216
    21  H    4.064599   2.558620   2.152089   1.032284   2.072121
    22  H    6.235389   4.773970   3.956411   2.505384   2.044618
    23  H    7.411842   6.436216   4.958398   4.207707   2.868671
    24  H    8.549258   7.088136   6.222230   4.786688   4.006282
    25  H   10.726439   9.326827   8.282172   6.916713   5.872301
    26  Cl  11.980984  10.760597   9.456612   8.306795   7.018566
    27  C   10.092246   9.132914   7.655272   6.859250   5.499332
    28  F    9.361235   8.566292   7.043374   6.484448   5.180098
    29  F   10.951683   9.994796   8.533416   7.729691   6.387729
    30  F   10.950205   9.997308   8.529093   7.730067   6.383815
                    6          7          8          9         10
     6  O    0.000000
     7  N    2.259654   0.000000
     8  C    2.897658   1.440582   0.000000
     9  C    2.869002   2.530569   1.416789   0.000000
    10  C    4.280582   2.432690   1.405692   2.418046   0.000000
    11  C    5.281136   3.727787   2.439385   2.793035   1.392804
    12  C    5.271038   4.269958   2.831548   2.432591   2.420086
    13  C    4.233593   3.812372   2.465081   1.412023   2.807197
    14  H    6.196052   6.975760   8.354823   8.924799   9.366199
    15  H    5.202807   6.399083   7.661018   8.011301   8.815418
    16  H    5.209074   6.401695   7.666310   8.024844   8.815185
    17  H    4.637148   4.910113   6.313775   7.060637   7.209957
    18  H    4.642900   4.912626   6.319202   7.074792   7.208855
    19  H    2.738742   4.051313   5.203856   5.497113   6.419487
    20  H    2.732159   4.049414   5.198813   5.481164   6.421788
    21  H    3.150617   2.555045   3.994906   4.963349   4.781260
    22  H    3.149506   1.032165   2.105692   3.413476   2.557274
    23  H    2.237704   2.810131   2.178262   1.071459   3.404493
    24  H    4.789982   2.638339   2.164419   3.409104   1.083074
    25  H    6.297704   4.575541   3.412576   3.875844   2.142981
    26  Cl   6.947211   6.029120   4.592506   4.078561   4.020456
    27  C    4.928893   5.075510   3.854216   2.544943   4.323170
    28  F    4.348020   5.111905   4.176196   2.759959   5.014397
    29  F    5.847437   5.912981   4.664378   3.471277   4.959261
    30  F    5.832810   5.915249   4.665685   3.471893   4.961104
                   11         12         13         14         15
    11  C    0.000000
    12  C    1.394226   0.000000
    13  C    2.429246   1.410909   0.000000
    14  H   10.700949  11.144209  10.334812   0.000000
    15  H   10.070381  10.334941   9.390659   1.804657   0.000000
    16  H   10.072310  10.343267   9.404745   1.804747   1.810908
    17  H    8.562399   9.119497   8.456136   2.484956   2.504865
    18  H    8.563775   9.127853   8.470555   2.485900   3.089897
    19  H    7.613252   7.815112   6.869610   3.774294   3.129334
    20  H    7.613005   7.807180   6.854103   3.772056   2.551705
    21  H    6.157572   6.819349   6.320247   4.673431   4.509900
    22  H    3.948578   4.772084   4.570728   6.919999   6.570047
    23  H    3.863815   3.386692   2.126991   8.432172   7.387879
    24  H    2.132638   3.388669   3.889938   9.228060   8.856521
    25  H    1.082860   2.151785   3.412209  11.490694  10.949696
    26  Cl   2.710678   1.762106   2.781868  12.898187  12.052607
    27  C    3.818960   2.539039   1.515977  11.123937  10.023081
    28  F    4.836461   3.716882   2.408161  10.433487   9.217691
    29  F    4.274219   2.971982   2.370072  11.977050  10.783719
    30  F    4.275543   2.972434   2.370258  11.979898  10.966196
                   16         17         18         19         20
    16  H    0.000000
    17  H    3.089655   0.000000
    18  H    2.504320   1.807786   0.000000
    19  H    2.554464   3.091318   2.507708   0.000000
    20  H    3.131179   2.504408   3.090897   1.811400   0.000000
    21  H    4.508652   2.557461   2.554897   2.873272   2.874984
    22  H    6.569158   4.740258   4.738418   4.428538   4.430846
    23  H    7.407872   6.750517   6.771068   4.908309   4.882711
    24  H    8.850482   7.007032   6.998799   6.596722   6.605981
    25  H   10.948285   9.297791   9.295347   8.533089   8.536789
    26  Cl  12.061834  10.873945  10.883071   9.521926   9.513382
    27  C   10.043842   9.415693   9.436439   7.551880   7.528648
    28  F    9.244398   8.931048   8.957169   6.847673   6.816564
    29  F   10.991887  10.165789  10.384682   8.547116   8.281976
    30  F   10.799413  10.370529  10.192989   8.295882   8.516187
                   21         22         23         24         25
    21  H    0.000000
    22  H    2.261661   0.000000
    23  H    4.911076   3.818317   0.000000
    24  H    4.557149   2.315432   4.319969   0.000000
    25  H    6.865948   4.607921   4.946675   2.439296   0.000000
    26  Cl   8.574435   6.487806   4.908190   4.842489   2.830343
    27  C    7.467419   5.934170   2.697980   5.405850   4.689051
    28  F    7.241436   6.085640   2.344723   6.074334   5.810475
    29  F    8.307577   6.717999   3.675129   6.006870   4.995724
    30  F    8.314437   6.725596   3.676492   6.009098   4.997173
                   26         27         28         29         30
    26  Cl   0.000000
    27  C    3.117696   0.000000
    28  F    4.498832   1.384417   0.000000
    29  F    3.051159   1.383224   2.240689   0.000000
    30  F    3.050942   1.383182   2.240749   2.254770   0.000000
 Stoichiometry    C11H12ClF3N2O
 Framework group  C1[X(C11H12ClF3N2O)]
 Deg. of freedom    84
 Full point group                 C1      NOp   1
 Largest Abelian subgroup         C1      NOp   1
 Largest concise Abelian subgroup C1      NOp   1
                         Standard orientation:                         
 ---------------------------------------------------------------------
 Center     Atomic      Atomic             Coordinates (Angstroms)
 Number     Number       Type             X           Y           Z
 ---------------------------------------------------------------------
      1          6           0        7.289264    0.807057    0.001815
      2          6           0        6.182092   -0.242872    0.016532
      3          6           0        4.796046    0.411595   -0.010018
      4          7           0        3.745668   -0.591915    0.004191
      5          6           0        2.425471   -0.251986   -0.008071
      6          8           0        2.114800    0.928100   -0.031799
      7          7           0        1.476331   -1.239154    0.005637
      8          6           0        0.042763   -1.097226    0.001887
      9          6           0       -0.644157    0.141899    0.003129
     10          6           0       -0.724894   -2.274795   -0.000502
     11          6           0       -2.117014   -2.231221   -0.002799
     12          6           0       -2.787400   -1.008745   -0.001750
     13          6           0       -2.055094    0.197231    0.001646
     14          1           0        8.279139    0.304452    0.023355
     15          1           0        7.206596    1.467999    0.890877
     16          1           0        7.223645    1.424366   -0.919425
     17          1           0        6.282518   -0.859743    0.936133
     18          1           0        6.298337   -0.902238   -0.871085
     19          1           0        4.699962    1.029156   -0.930370
     20          1           0        4.686263    1.069232    0.880535
     21          1           0        4.007048   -1.590330    0.025590
     22          1           0        1.831432   -2.208207    0.019877
     23          1           0       -0.117727    1.075109    0.007315
     24          1           0       -0.239733   -3.243129   -0.000995
     25          1           0       -2.677530   -3.157720   -0.005014
     26         17           0       -4.549314   -1.034689   -0.003817
     27          6           0       -2.777036    1.530265    0.004661
     28          9           0       -1.898607    2.600294    0.008258
     29          9           0       -3.573306    1.623746    1.131835
     30          9           0       -3.571893    1.629986   -1.122925
 ---------------------------------------------------------------------
 Rotational constants (GHZ):      0.8635534      0.1371228      0.1213605
 General basis read from cards:  (6D, 7F)
 There are   370 symmetry adapted cartesian basis functions of A   symmetry.
 There are   370 symmetry adapted basis functions of A   symmetry.
   370 basis functions,   648 primitive gaussians,   370 cartesian basis functions
    72 alpha electrons       72 beta electrons
       nuclear repulsion energy      1427.9536518124 Hartrees.
 NAtoms=   30 NActive=   30 NUniq=   30 SFac= 1.00D+00 NAtFMM=   60 NAOKFM=F Big=F
 Integral buffers will be    131072 words long.
 Raffenetti 2 integral format.
 Two-electron integral symmetry is turned on.
 Force inversion solution in PCM.
 ------------------------------------------------------------------------------
 Polarizable Continuum Model (PCM)
 =================================
 Model                : PCM (using non-symmetric T matrix).
 Atomic radii         : SMD-Coulomb.
 Polarization charges : Total charges.
 Charge compensation  : None.
 Solution method      : Matrix inversion.
 Cavity type          : VdW (van der Waals Surface) (Alpha=1.000).
 Cavity algorithm     : GePol (No added spheres)
                        Default sphere list used, NSphG=   30.
                        Lebedev-Laikov grids with approx.  5.0 points / Ang**2.
                        Smoothing algorithm: York/Karplus (Gamma=1.0000).
                        Polarization charges: spherical gaussians, with
                                              point-specific exponents (IZeta= 3).
                        Self-potential: point-specific (ISelfS= 7).
                        Self-field    : sphere-specific E.n sum rule (ISelfD= 2).
 1st derivatives      : Analytical E(r).r(x)/FMM algorithm (CHGder, D1EAlg=3).
                        Cavity 1st derivative terms included.
 2nd derivatives      : Analytical E(r).r(xy)/FMM algorithm (CHGder, D2EAlg=3).
                        Cavity 2nd derivative terms included.
 Solvent              : n-Pentadecane, Eps=   2.033300 Eps(inf)=   2.049192
 ------------------------------------------------------------------------------
 ------------------------------------------------------------------------------
 Atomic radii for non-electrostatic terms: SMD-CDS.
 ------------------------------------------------------------------------------
 Nuclear repulsion after PCM non-electrostatic terms =     1427.9463770970 Hartrees.
 One-electron integrals computed using PRISM.
 NBasis=   370 RedAO= T EigKep=  1.50D-06  NBF=   370
 NBsUse=   369 1.00D-06 EigRej=  3.58D-07 NBFU=   369
 ExpMin= 4.38D-02 ExpMax= 2.52D+04 ExpMxC= 3.78D+03 IAcc=3 IRadAn=         5 AccDes= 0.00D+00
 Harris functional with IExCor= 1009 and IRadAn=       5 diagonalized for initial guess.
 HarFok:  IExCor= 1009 AccDes= 0.00D+00 IRadAn=         5 IDoV= 1 UseB2=F ITyADJ=14
 ICtDFT=  3500011 ScaDFX=  1.000000  1.000000  1.000000  1.000000
 FoFCou: FMM=F IPFlag=           0 FMFlag=      100000 FMFlg1=           0
         NFxFlg=           0 DoJE=T BraDBF=F KetDBF=T FulRan=T
         wScrn=  0.000000 ICntrl=     500 IOpCl=  0 I1Cent=   200000004 NGrid=           0
         NMat0=    1 NMatS0=      1 NMatT0=    0 NMatD0=    1 NMtDS0=    0 NMtDT0=    0
 Petite list used in FoFCou.
 Requested convergence on RMS density matrix=1.00D-08 within 128 cycles.
 Requested convergence on MAX density matrix=1.00D-06.
 Requested convergence on             energy=1.00D-06.
 No special actions if energy rises.
 Inv3:  Mode=1 IEnd=    18495867.
 Iteration    1 A*A^-1 deviation from unit magnitude is 5.55D-15 for    605.
 Iteration    1 A*A^-1 deviation from orthogonality  is 2.59D-15 for   1583   1059.
 Iteration    1 A^-1*A deviation from unit magnitude is 5.55D-15 for    606.
 Iteration    1 A^-1*A deviation from orthogonality  is 1.21D-13 for   1172   1147.
 Error on total polarization charges =  0.02106
 SCF Done:  E(RM062X) =  -1370.53549837     A.U. after   15 cycles
            NFock= 15  Conv=0.50D-08     -V/T= 2.0069
 SMD-CDS (non-electrostatic) energy       (kcal/mol) =      -4.56
 (included in total energy above)
 DoSCS=F DFT=T ScalE2(SS,OS)=  1.000000  1.000000
 Range of M.O.s used for correlation:     1   369
 NBasis=   370 NAE=    72 NBE=    72 NFC=     0 NFV=     0
 NROrb=    369 NOA=    72 NOB=    72 NVA=   297 NVB=   297

 **** Warning!!: The largest alpha MO coefficient is  0.12903621D+03

 Symmetrizing basis deriv contribution to polar:
 IMax=3 JMax=2 DiffMx= 0.00D+00
 G2DrvN: will do    31 centers at a time, making    1 passes.
 Calling FoFCou, ICntrl=  3107 FMM=F I1Cent=   0 AccDes= 0.00D+00.
 NEqPCM:  Using equilibrium solvation (IEInf=0, Eps=   2.0333, EpsInf=   2.0492)
 G2PCM: DoFxE=T DoFxN=T DoGrad=T DoDP/DQ/DG/TGxP=FFFF NFrqRd=   0 IEInf=0 SqF1=F DoCFld=F IF1Alg=4.
 End of G2Drv F.D. properties file   721 does not exist.
 End of G2Drv F.D. properties file   722 does not exist.
 End of G2Drv F.D. properties file   788 does not exist.
          IDoAtm=111111111111111111111111111111
 NEqPCM:  Using equilibrium solvation (IEInf=0, Eps=   2.0333, EpsInf=   2.0492)
          Differentiating once with respect to nuclear coordinates.
          There are    93 degrees of freedom in the 1st order CPHF.  IDoFFX=6 NUNeed=     0.
     87 vectors produced by pass  0 Test12= 2.30D-14 1.08D-09 XBig12= 3.33D-01 1.39D-01.
 AX will form    87 AO Fock derivatives at one time.
     87 vectors produced by pass  1 Test12= 2.30D-14 1.08D-09 XBig12= 2.73D-02 4.22D-02.
     87 vectors produced by pass  2 Test12= 2.30D-14 1.08D-09 XBig12= 5.93D-04 2.79D-03.
     87 vectors produced by pass  3 Test12= 2.30D-14 1.08D-09 XBig12= 4.23D-06 3.12D-04.
     87 vectors produced by pass  4 Test12= 2.30D-14 1.08D-09 XBig12= 3.11D-08 1.94D-05.
     87 vectors produced by pass  5 Test12= 2.30D-14 1.08D-09 XBig12= 1.58D-10 1.19D-06.
     67 vectors produced by pass  6 Test12= 2.30D-14 1.08D-09 XBig12= 6.68D-13 8.10D-08.
     23 vectors produced by pass  7 Test12= 2.30D-14 1.08D-09 XBig12= 3.73D-15 5.64D-09.
     16 vectors produced by pass  8 Test12= 2.30D-14 1.08D-09 XBig12= 3.37D-15 5.99D-09.
     15 vectors produced by pass  9 Test12= 2.30D-14 1.08D-09 XBig12= 5.84D-15 6.50D-09.
     14 vectors produced by pass 10 Test12= 2.30D-14 1.08D-09 XBig12= 7.61D-15 1.12D-08.
      9 vectors produced by pass 11 Test12= 2.30D-14 1.08D-09 XBig12= 3.15D-15 4.19D-09.
      9 vectors produced by pass 12 Test12= 2.30D-14 1.08D-09 XBig12= 1.97D-14 9.92D-09.
      9 vectors produced by pass 13 Test12= 2.30D-14 1.08D-09 XBig12= 4.94D-15 7.81D-09.
      9 vectors produced by pass 14 Test12= 2.30D-14 1.08D-09 XBig12= 1.75D-14 1.17D-08.
      9 vectors produced by pass 15 Test12= 2.30D-14 1.08D-09 XBig12= 1.17D-14 1.06D-08.
      9 vectors produced by pass 16 Test12= 2.30D-14 1.08D-09 XBig12= 1.38D-14 8.97D-09.
      6 vectors produced by pass 17 Test12= 2.30D-14 1.08D-09 XBig12= 2.66D-15 3.94D-09.
      6 vectors produced by pass 18 Test12= 2.30D-14 1.08D-09 XBig12= 5.24D-15 6.79D-09.
      6 vectors produced by pass 19 Test12= 2.30D-14 1.08D-09 XBig12= 3.87D-15 4.55D-09.
      6 vectors produced by pass 20 Test12= 2.30D-14 1.08D-09 XBig12= 1.24D-14 9.62D-09.
      6 vectors produced by pass 21 Test12= 2.30D-14 1.08D-09 XBig12= 8.05D-15 6.35D-09.
      6 vectors produced by pass 22 Test12= 2.30D-14 1.08D-09 XBig12= 9.11D-15 6.76D-09.
      6 vectors produced by pass 23 Test12= 2.30D-14 1.08D-09 XBig12= 8.56D-15 7.92D-09.
      6 vectors produced by pass 24 Test12= 2.30D-14 1.08D-09 XBig12= 7.19D-15 7.16D-09.
      4 vectors produced by pass 25 Test12= 2.30D-14 1.08D-09 XBig12= 2.86D-15 3.47D-09.
      4 vectors produced by pass 26 Test12= 2.30D-14 1.08D-09 XBig12= 4.08D-15 4.30D-09.
      4 vectors produced by pass 27 Test12= 2.30D-14 1.08D-09 XBig12= 3.63D-15 4.24D-09.
      4 vectors produced by pass 28 Test12= 2.30D-14 1.08D-09 XBig12= 4.84D-15 5.35D-09.
      4 vectors produced by pass 29 Test12= 2.30D-14 1.08D-09 XBig12= 1.42D-15 2.32D-09.
      4 vectors produced by pass 30 Test12= 2.30D-14 1.08D-09 XBig12= 3.88D-15 4.78D-09.
      4 vectors produced by pass 31 Test12= 2.30D-14 1.08D-09 XBig12= 2.53D-15 3.87D-09.
      4 vectors produced by pass 32 Test12= 2.30D-14 1.08D-09 XBig12= 9.02D-15 6.58D-09.
      4 vectors produced by pass 33 Test12= 2.30D-14 1.08D-09 XBig12= 6.66D-15 5.67D-09.
      4 vectors produced by pass 34 Test12= 2.30D-14 1.08D-09 XBig12= 2.23D-15 4.06D-09.
      4 vectors produced by pass 35 Test12= 2.30D-14 1.08D-09 XBig12= 3.24D-15 4.48D-09.
      4 vectors produced by pass 36 Test12= 2.30D-14 1.08D-09 XBig12= 1.87D-15 3.78D-09.
      4 vectors produced by pass 37 Test12= 2.30D-14 1.08D-09 XBig12= 8.70D-15 7.62D-09.
      4 vectors produced by pass 38 Test12= 2.30D-14 1.08D-09 XBig12= 3.83D-15 4.71D-09.
      4 vectors produced by pass 39 Test12= 2.30D-14 1.08D-09 XBig12= 5.63D-15 4.97D-09.
      4 vectors produced by pass 40 Test12= 2.30D-14 1.08D-09 XBig12= 9.40D-15 7.37D-09.
      4 vectors produced by pass 41 Test12= 2.30D-14 1.08D-09 XBig12= 1.78D-15 2.76D-09.
      4 vectors produced by pass 42 Test12= 2.30D-14 1.08D-09 XBig12= 4.18D-15 4.52D-09.
      4 vectors produced by pass 43 Test12= 2.30D-14 1.08D-09 XBig12= 2.74D-15 3.73D-09.
      4 vectors produced by pass 44 Test12= 2.30D-14 1.08D-09 XBig12= 2.96D-15 3.42D-09.
      4 vectors produced by pass 45 Test12= 2.30D-14 1.08D-09 XBig12= 3.48D-15 4.63D-09.
      4 vectors produced by pass 46 Test12= 2.30D-14 1.08D-09 XBig12= 5.45D-15 5.00D-09.
      4 vectors produced by pass 47 Test12= 2.30D-14 1.08D-09 XBig12= 6.35D-15 5.87D-09.
      4 vectors produced by pass 48 Test12= 2.30D-14 1.08D-09 XBig12= 2.64D-15 3.40D-09.
      3 vectors produced by pass 49 Test12= 2.30D-14 1.08D-09 XBig12= 2.07D-15 3.08D-09.
      3 vectors produced by pass 50 Test12= 2.30D-14 1.08D-09 XBig12= 1.76D-15 2.51D-09.
      3 vectors produced by pass 51 Test12= 2.30D-14 1.08D-09 XBig12= 4.26D-15 4.46D-09.
      3 vectors produced by pass 52 Test12= 2.30D-14 1.08D-09 XBig12= 1.78D-15 3.74D-09.
      3 vectors produced by pass 53 Test12= 2.30D-14 1.08D-09 XBig12= 2.43D-15 3.26D-09.
      3 vectors produced by pass 54 Test12= 2.30D-14 1.08D-09 XBig12= 4.14D-15 4.64D-09.
      3 vectors produced by pass 55 Test12= 2.30D-14 1.08D-09 XBig12= 2.08D-15 3.36D-09.
      3 vectors produced by pass 56 Test12= 2.30D-14 1.08D-09 XBig12= 2.48D-15 3.37D-09.
      3 vectors produced by pass 57 Test12= 2.30D-14 1.08D-09 XBig12= 1.28D-15 2.75D-09.
      3 vectors produced by pass 58 Test12= 2.30D-14 1.08D-09 XBig12= 1.98D-15 4.21D-09.
      3 vectors produced by pass 59 Test12= 2.30D-14 1.08D-09 XBig12= 2.18D-15 3.49D-09.
      3 vectors produced by pass 60 Test12= 2.30D-14 1.08D-09 XBig12= 3.52D-15 4.41D-09.
      3 vectors produced by pass 61 Test12= 2.30D-14 1.08D-09 XBig12= 1.26D-15 2.44D-09.
      3 vectors produced by pass 62 Test12= 2.30D-14 1.08D-09 XBig12= 2.19D-15 3.39D-09.
      3 vectors produced by pass 63 Test12= 2.30D-14 1.08D-09 XBig12= 4.70D-15 4.51D-09.
      3 vectors produced by pass 64 Test12= 2.30D-14 1.08D-09 XBig12= 1.10D-15 2.93D-09.
      3 vectors produced by pass 65 Test12= 2.30D-14 1.08D-09 XBig12= 2.34D-15 3.31D-09.
      3 vectors produced by pass 66 Test12= 2.30D-14 1.08D-09 XBig12= 1.73D-15 2.92D-09.
      3 vectors produced by pass 67 Test12= 2.30D-14 1.08D-09 XBig12= 2.28D-15 3.62D-09.
      3 vectors produced by pass 68 Test12= 2.30D-14 1.08D-09 XBig12= 3.05D-15 3.57D-09.
      3 vectors produced by pass 69 Test12= 2.30D-14 1.08D-09 XBig12= 2.63D-15 3.42D-09.
      3 vectors produced by pass 70 Test12= 2.30D-14 1.08D-09 XBig12= 1.83D-15 2.87D-09.
      3 vectors produced by pass 71 Test12= 2.30D-14 1.08D-09 XBig12= 3.39D-15 3.56D-09.
      3 vectors produced by pass 72 Test12= 2.30D-14 1.08D-09 XBig12= 8.84D-16 2.38D-09.
      3 vectors produced by pass 73 Test12= 2.30D-14 1.08D-09 XBig12= 6.21D-15 5.05D-09.
      3 vectors produced by pass 74 Test12= 2.30D-14 1.08D-09 XBig12= 1.23D-15 2.68D-09.
      3 vectors produced by pass 75 Test12= 2.30D-14 1.08D-09 XBig12= 2.41D-15 2.85D-09.
      3 vectors produced by pass 76 Test12= 2.30D-14 1.08D-09 XBig12= 2.74D-15 3.34D-09.
      3 vectors produced by pass 77 Test12= 2.30D-14 1.08D-09 XBig12= 2.00D-15 2.80D-09.
      2 vectors produced by pass 78 Test12= 2.30D-14 1.08D-09 XBig12= 6.92D-16 1.69D-09.
 InvSVY:  IOpt=1 It=  1 EMax= 9.44D-16
 Solved reduced A of dimension   944 with    93 vectors.
 End of Minotr F.D. properties file   721 does not exist.
 End of Minotr F.D. properties file   722 does not exist.
 End of Minotr F.D. properties file   788 does not exist.

 **********************************************************************

            Population analysis using the SCF density.

 **********************************************************************

 Orbital symmetries:
       Occupied  (A) (A) (A) (A) (A) (A) (A) (A) (A) (A) (A) (A)
                 (A) (A) (A) (A) (A) (A) (A) (A) (A) (A) (A) (A)
                 (A) (A) (A) (A) (A) (A) (A) (A) (A) (A) (A) (A)
                 (A) (A) (A) (A) (A) (A) (A) (A) (A) (A) (A) (A)
                 (A) (A) (A) (A) (A) (A) (A) (A) (A) (A) (A) (A)
                 (A) (A) (A) (A) (A) (A) (A) (A) (A) (A) (A) (A)
       Virtual   (A) (A) (A) (A) (A) (A) (A) (A) (A) (A) (A) (A)
                 (A) (A) (A) (A) (A) (A) (A) (A) (A) (A) (A) (A)
                 (A) (A) (A) (A) (A) (A) (A) (A) (A) (A) (A) (A)
                 (A) (A) (A) (A) (A) (A) (A) (A) (A) (A) (A) (A)
                 (A) (A) (A) (A) (A) (A) (A) (A) (A) (A) (A) (A)
                 (A) (A) (A) (A) (A) (A) (A) (A) (A) (A) (A) (A)
                 (A) (A) (A) (A) (A) (A) (A) (A) (A) (A) (A) (A)
                 (A) (A) (A) (A) (A) (A) (A) (A) (A) (A) (A) (A)
                 (A) (A) (A) (A) (A) (A) (A) (A) (A) (A) (A) (A)
                 (A) (A) (A) (A) (A) (A) (A) (A) (A) (A) (A) (A)
                 (A) (A) (A) (A) (A) (A) (A) (A) (A) (A) (A) (A)
                 (A) (A) (A) (A) (A) (A) (A) (A) (A) (A) (A) (A)
                 (A) (A) (A) (A) (A) (A) (A) (A) (A) (A) (A) (A)
                 (A) (A) (A) (A) (A) (A) (A) (A) (A) (A) (A) (A)
                 (A) (A) (A) (A) (A) (A) (A) (A) (A) (A) (A) (A)
                 (A) (A) (A) (A) (A) (A) (A) (A) (A) (A) (A) (A)
                 (A) (A) (A) (A) (A) (A) (A) (A) (A) (A) (A) (A)
                 (A) (A) (A) (A) (A) (A) (A) (A) (A) (A) (A) (A)
                 (A) (A) (A) (A) (A) (A) (A) (A) (A) (A) (A) (A)
                 (A) (A) (A) (A) (A) (A) (A) (A) (A) (A) (A) (A)
                 (A) (A) (A) (A) (A) (A) (A) (A) (A) (A) (A) (A)
                 (A) (A) (A) (A) (A) (A) (A) (A) (A) (A) (A) (A)
                 (A) (A) (A) (A) (A) (A) (A) (A) (A) (A) (A) (A)
                 (A) (A) (A) (A) (A) (A) (A) (A) (A) (A) (A) (A)
                 (A) (A) (A) (A) (A) (A) (A) (A) (A)
 The electronic state is 1-A.
 Alpha  occ. eigenvalues -- -102.68036 -25.30677 -25.30309 -25.30307 -19.60826
 Alpha  occ. eigenvalues --  -14.81813 -14.79361 -10.82776 -10.68835 -10.63731
 Alpha  occ. eigenvalues --  -10.63470 -10.60600 -10.58840 -10.58479 -10.58400
 Alpha  occ. eigenvalues --  -10.58203 -10.55867 -10.54597  -9.82646  -7.55061
 Alpha  occ. eigenvalues --   -7.54380  -7.54363  -1.44440  -1.36651  -1.36560
 Alpha  occ. eigenvalues --   -1.18435  -1.05944  -1.03293  -1.00734  -0.94498
 Alpha  occ. eigenvalues --   -0.90189  -0.88641  -0.84729  -0.81164  -0.77992
 Alpha  occ. eigenvalues --   -0.73647  -0.71943  -0.68868  -0.68457  -0.68022
 Alpha  occ. eigenvalues --   -0.67427  -0.65526  -0.63758  -0.59511  -0.57272
 Alpha  occ. eigenvalues --   -0.56803  -0.56687  -0.56310  -0.55127  -0.54193
 Alpha  occ. eigenvalues --   -0.53380  -0.52912  -0.52689  -0.51525  -0.51430
 Alpha  occ. eigenvalues --   -0.50055  -0.48937  -0.48339  -0.46935  -0.46298
 Alpha  occ. eigenvalues --   -0.45561  -0.44355  -0.42793  -0.42339  -0.40508
 Alpha  occ. eigenvalues --   -0.40267  -0.38446  -0.36943  -0.34611  -0.33622
 Alpha  occ. eigenvalues --   -0.32277  -0.28317
 Alpha virt. eigenvalues --   -0.01594  -0.00181  -0.00046   0.02010   0.02589
 Alpha virt. eigenvalues --    0.03250   0.03420   0.04011   0.04548   0.04926
 Alpha virt. eigenvalues --    0.05814   0.05985   0.06431   0.06951   0.07280
 Alpha virt. eigenvalues --    0.07434   0.08059   0.08480   0.08808   0.09057
 Alpha virt. eigenvalues --    0.09449   0.09602   0.10395   0.10914   0.11694
 Alpha virt. eigenvalues --    0.12175   0.12203   0.12931   0.13185   0.13814
 Alpha virt. eigenvalues --    0.14132   0.14522   0.14742   0.15175   0.16092
 Alpha virt. eigenvalues --    0.16490   0.17128   0.17875   0.18191   0.18338
 Alpha virt. eigenvalues --    0.19185   0.19434   0.19699   0.20503   0.20922
 Alpha virt. eigenvalues --    0.21478   0.21706   0.22047   0.22143   0.22689
 Alpha virt. eigenvalues --    0.23147   0.23538   0.23709   0.24053   0.24593
 Alpha virt. eigenvalues --    0.24768   0.24876   0.25426   0.25755   0.26874
 Alpha virt. eigenvalues --    0.27024   0.27673   0.28282   0.28629   0.28991
 Alpha virt. eigenvalues --    0.29655   0.30195   0.30687   0.30951   0.31110
 Alpha virt. eigenvalues --    0.31742   0.32112   0.32138   0.32804   0.33510
 Alpha virt. eigenvalues --    0.34276   0.34487   0.35054   0.35461   0.35668
 Alpha virt. eigenvalues --    0.36599   0.37579   0.37867   0.38564   0.39079
 Alpha virt. eigenvalues --    0.39171   0.39763   0.41214   0.41374   0.42056
 Alpha virt. eigenvalues --    0.43180   0.44049   0.44795   0.44859   0.46371
 Alpha virt. eigenvalues --    0.47748   0.48039   0.49556   0.51611   0.52523
 Alpha virt. eigenvalues --    0.53643   0.56665   0.57551   0.60612   0.61300
 Alpha virt. eigenvalues --    0.66897   0.67703   0.68235   0.69044   0.69422
 Alpha virt. eigenvalues --    0.70028   0.72648   0.73571   0.73868   0.73925
 Alpha virt. eigenvalues --    0.75007   0.75339   0.75984   0.76364   0.77829
 Alpha virt. eigenvalues --    0.78887   0.78967   0.80977   0.81230   0.82058
 Alpha virt. eigenvalues --    0.83159   0.83426   0.85746   0.86625   0.87413
 Alpha virt. eigenvalues --    0.88616   0.88922   0.90036   0.92296   0.94661
 Alpha virt. eigenvalues --    0.97399   0.97457   0.97709   0.98570   0.99523
 Alpha virt. eigenvalues --    1.00914   1.02159   1.02722   1.02885   1.04109
 Alpha virt. eigenvalues --    1.04337   1.05125   1.06786   1.07835   1.10393
 Alpha virt. eigenvalues --    1.10496   1.11525   1.12418   1.14026   1.15079
 Alpha virt. eigenvalues --    1.16225   1.16476   1.17841   1.18377   1.21453
 Alpha virt. eigenvalues --    1.22110   1.22149   1.25655   1.26467   1.27437
 Alpha virt. eigenvalues --    1.30884   1.31012   1.32256   1.35567   1.37124
 Alpha virt. eigenvalues --    1.37722   1.39144   1.40801   1.43099   1.44486
 Alpha virt. eigenvalues --    1.44688   1.45681   1.47201   1.48548   1.48965
 Alpha virt. eigenvalues --    1.50884   1.51103   1.54600   1.56354   1.56867
 Alpha virt. eigenvalues --    1.57841   1.59857   1.60964   1.65363   1.67267
 Alpha virt. eigenvalues --    1.67473   1.69183   1.70263   1.73999   1.74218
 Alpha virt. eigenvalues --    1.75331   1.76300   1.76560   1.79131   1.79640
 Alpha virt. eigenvalues --    1.81676   1.83658   1.85103   1.85978   1.86357
 Alpha virt. eigenvalues --    1.86907   1.87635   1.87997   1.88551   1.88899
 Alpha virt. eigenvalues --    1.91467   1.91598   1.92227   1.92368   1.94271
 Alpha virt. eigenvalues --    1.96926   1.97402   1.98692   2.01863   2.02264
 Alpha virt. eigenvalues --    2.03018   2.03742   2.04278   2.05349   2.05746
 Alpha virt. eigenvalues --    2.07013   2.07977   2.08790   2.08940   2.12784
 Alpha virt. eigenvalues --    2.13868   2.14362   2.16515   2.19499   2.20229
 Alpha virt. eigenvalues --    2.20321   2.21029   2.23346   2.26133   2.26252
 Alpha virt. eigenvalues --    2.28477   2.29341   2.29845   2.35387   2.36810
 Alpha virt. eigenvalues --    2.37649   2.39042   2.39432   2.41505   2.41574
 Alpha virt. eigenvalues --    2.46441   2.49671   2.49744   2.55747   2.59279
 Alpha virt. eigenvalues --    2.63697   2.63801   2.65381   2.67284   2.70423
 Alpha virt. eigenvalues --    2.73680   2.74569   2.76767   2.77574   2.78869
 Alpha virt. eigenvalues --    2.80102   2.81117   2.85272   2.90507   2.96887
 Alpha virt. eigenvalues --    3.01127   3.09015   3.12058   3.13873   3.25625
 Alpha virt. eigenvalues --    3.27361   3.28338   3.32553   3.40075   4.14559
 Alpha virt. eigenvalues --    4.24649   4.25627   4.31196   4.35370   4.37651
 Alpha virt. eigenvalues --    4.41262   4.43334   4.46289   4.48685   4.50368
 Alpha virt. eigenvalues --    4.57909   4.60642   4.69010   4.77865   5.52085
 Alpha virt. eigenvalues --    6.09379   6.86673
          Condensed to atoms (all electrons):
               1          2          3          4          5          6
     1  C    5.578632  -0.000452  -0.023753  -0.003703  -0.023272  -0.002319
     2  C   -0.000452   6.132008  -0.365996  -0.087973   0.117147   0.018215
     3  C   -0.023753  -0.365996   6.553881   0.334124  -0.464544  -0.075440
     4  N   -0.003703  -0.087973   0.334124   7.709962   0.360981  -0.202840
     5  C   -0.023272   0.117147  -0.464544   0.360981   5.994474   0.681741
     6  O   -0.002319   0.018215  -0.075440  -0.202840   0.681741   8.315833
     7  N   -0.001502   0.017366  -0.120385  -0.411497   0.035759  -0.076888
     8  C   -0.005658   0.008940  -0.320416  -0.187745  -0.970517  -0.491753
     9  C    0.001583   0.000561   0.068420   0.067612   0.806197   0.471009
    10  C   -0.001614   0.004326  -0.099872  -0.103601  -1.489422  -0.120608
    11  C   -0.000018  -0.000564   0.003603   0.003362   0.019819   0.008373
    12  C   -0.000017   0.000204  -0.008751  -0.006965  -0.037681  -0.016604
    13  C    0.000244  -0.000452   0.009791   0.033815   0.292666   0.085805
    14  H    0.409937  -0.085515   0.028062   0.000544  -0.002026   0.000009
    15  H    0.416216  -0.063774  -0.009235   0.000515   0.000824  -0.000061
    16  H    0.414981  -0.063675  -0.008752   0.000546   0.001448  -0.000060
    17  H   -0.033323   0.421575  -0.082785   0.006948   0.000393  -0.000230
    18  H   -0.031478   0.419252  -0.078514   0.006847  -0.003102  -0.000224
    19  H    0.004580  -0.050928   0.423069  -0.056614  -0.010484   0.001499
    20  H    0.004956  -0.051711   0.426299  -0.056891  -0.012763   0.001448
    21  H   -0.002384   0.001921  -0.080596   0.235888   0.033328   0.008533
    22  H   -0.000079   0.000133   0.002277   0.020604  -0.012341   0.007292
    23  H    0.000005  -0.000006   0.002370   0.000241   0.013610   0.000624
    24  H   -0.000000   0.000007  -0.000177   0.001226  -0.005013   0.000019
    25  H    0.000000   0.000000   0.000017   0.000008   0.001975   0.000001
    26  Cl  -0.000001   0.000005  -0.000145   0.000064  -0.008031   0.000079
    27  C   -0.000047   0.000231  -0.007519   0.005580  -0.120472   0.010010
    28  F    0.000000   0.000007   0.000265  -0.000021   0.005888  -0.000646
    29  F    0.000000  -0.000001   0.000024   0.000002   0.002265  -0.000007
    30  F    0.000000  -0.000001   0.000030   0.000003   0.002615  -0.000009
               7          8          9         10         11         12
     1  C   -0.001502  -0.005658   0.001583  -0.001614  -0.000018  -0.000017
     2  C    0.017366   0.008940   0.000561   0.004326  -0.000564   0.000204
     3  C   -0.120385  -0.320416   0.068420  -0.099872   0.003603  -0.008751
     4  N   -0.411497  -0.187745   0.067612  -0.103601   0.003362  -0.006965
     5  C    0.035759  -0.970517   0.806197  -1.489422   0.019819  -0.037681
     6  O   -0.076888  -0.491753   0.471009  -0.120608   0.008373  -0.016604
     7  N    7.848630  -0.025957  -0.338680   0.352517   0.044402   0.028784
     8  C   -0.025957  16.507063  -3.236291   0.747632  -0.130588  -1.566764
     9  C   -0.338680  -3.236291  13.050334  -6.031879  -0.020156  -2.301749
    10  C    0.352517   0.747632  -6.031879  15.828766  -0.757462   0.061171
    11  C    0.044402  -0.130588  -0.020156  -0.757462   8.793239  -1.047436
    12  C    0.028784  -1.566764  -2.301749   0.061171  -1.047436  15.887767
    13  C    0.044368  -3.318597   2.535960  -1.918021  -0.939819  -4.022507
    14  H    0.000010  -0.000040   0.000003  -0.000001   0.000000  -0.000000
    15  H    0.000015   0.000037  -0.000031   0.000001   0.000000   0.000000
    16  H    0.000018   0.000042  -0.000023   0.000000   0.000000   0.000000
    17  H    0.000182  -0.000248  -0.000064   0.000067   0.000000   0.000001
    18  H    0.000070  -0.000314  -0.000179   0.000076   0.000002   0.000001
    19  H    0.000348  -0.004705   0.003674  -0.001038  -0.000011   0.000022
    20  H    0.000362  -0.004889   0.003497  -0.000904  -0.000015   0.000031
    21  H    0.029977   0.018287   0.001182  -0.000684  -0.000026   0.000174
    22  H    0.233893  -0.028041   0.058648  -0.077880   0.028378  -0.006439
    23  H   -0.015124   0.065259   0.341515   0.053139  -0.032607  -0.069570
    24  H   -0.011435   0.074639   0.062863   0.214247  -0.021772  -0.045456
    25  H    0.000360  -0.006351  -0.008291  -0.039999   0.214452   0.038257
    26  Cl  -0.000854   0.003679   0.017434   0.119799  -0.081146  -0.287728
    27  C    0.004088  -1.162467  -0.202090   0.400089   0.055902  -0.481077
    28  F   -0.000947   0.120502   0.069100   0.001577   0.013158  -0.031606
    29  F    0.000246   0.034424   0.046810  -0.017451   0.000110  -0.260202
    30  F    0.000264   0.034786   0.047561  -0.019237   0.001843  -0.261383
              13         14         15         16         17         18
     1  C    0.000244   0.409937   0.416216   0.414981  -0.033323  -0.031478
     2  C   -0.000452  -0.085515  -0.063774  -0.063675   0.421575   0.419252
     3  C    0.009791   0.028062  -0.009235  -0.008752  -0.082785  -0.078514
     4  N    0.033815   0.000544   0.000515   0.000546   0.006948   0.006847
     5  C    0.292666  -0.002026   0.000824   0.001448   0.000393  -0.003102
     6  O    0.085805   0.000009  -0.000061  -0.000060  -0.000230  -0.000224
     7  N    0.044368   0.000010   0.000015   0.000018   0.000182   0.000070
     8  C   -3.318597  -0.000040   0.000037   0.000042  -0.000248  -0.000314
     9  C    2.535960   0.000003  -0.000031  -0.000023  -0.000064  -0.000179
    10  C   -1.918021  -0.000001   0.000001   0.000000   0.000067   0.000076
    11  C   -0.939819   0.000000   0.000000   0.000000   0.000000   0.000002
    12  C   -4.022507  -0.000000   0.000000   0.000000   0.000001   0.000001
    13  C   15.640704  -0.000000   0.000001   0.000001   0.000000  -0.000003
    14  H   -0.000000   0.487447  -0.023969  -0.023956  -0.003054  -0.003035
    15  H    0.000001  -0.023969   0.489049  -0.027790  -0.004752   0.003888
    16  H    0.000001  -0.023956  -0.027790   0.488977   0.003887  -0.004767
    17  H    0.000000  -0.003054  -0.004752   0.003887   0.505159  -0.033223
    18  H   -0.000003  -0.003035   0.003888  -0.004767  -0.033223   0.505435
    19  H    0.000243  -0.000059  -0.000324   0.002650   0.003821  -0.005330
    20  H    0.000262  -0.000059   0.002667  -0.000319  -0.005368   0.003828
    21  H   -0.000676  -0.000003   0.000001   0.000001   0.000877   0.000875
    22  H    0.009503  -0.000000  -0.000000  -0.000000   0.000001   0.000001
    23  H   -0.067999  -0.000000  -0.000000  -0.000000  -0.000000  -0.000000
    24  H    0.020324   0.000000  -0.000000  -0.000000   0.000000   0.000000
    25  H    0.114367  -0.000000   0.000000   0.000000   0.000000   0.000000
    26  Cl  -0.038948  -0.000000  -0.000000  -0.000000  -0.000000  -0.000000
    27  C   -1.737519  -0.000000  -0.000000  -0.000000  -0.000000  -0.000000
    28  F   -0.229368   0.000000  -0.000000   0.000000  -0.000000  -0.000000
    29  F    0.286279  -0.000000  -0.000000   0.000000   0.000000  -0.000000
    30  F    0.287901  -0.000000   0.000000  -0.000000  -0.000000   0.000000
              19         20         21         22         23         24
     1  C    0.004580   0.004956  -0.002384  -0.000079   0.000005  -0.000000
     2  C   -0.050928  -0.051711   0.001921   0.000133  -0.000006   0.000007
     3  C    0.423069   0.426299  -0.080596   0.002277   0.002370  -0.000177
     4  N   -0.056614  -0.056891   0.235888   0.020604   0.000241   0.001226
     5  C   -0.010484  -0.012763   0.033328  -0.012341   0.013610  -0.005013
     6  O    0.001499   0.001448   0.008533   0.007292   0.000624   0.000019
     7  N    0.000348   0.000362   0.029977   0.233893  -0.015124  -0.011435
     8  C   -0.004705  -0.004889   0.018287  -0.028041   0.065259   0.074639
     9  C    0.003674   0.003497   0.001182   0.058648   0.341515   0.062863
    10  C   -0.001038  -0.000904  -0.000684  -0.077880   0.053139   0.214247
    11  C   -0.000011  -0.000015  -0.000026   0.028378  -0.032607  -0.021772
    12  C    0.000022   0.000031   0.000174  -0.006439  -0.069570  -0.045456
    13  C    0.000243   0.000262  -0.000676   0.009503  -0.067999   0.020324
    14  H   -0.000059  -0.000059  -0.000003  -0.000000  -0.000000   0.000000
    15  H   -0.000324   0.002667   0.000001  -0.000000  -0.000000  -0.000000
    16  H    0.002650  -0.000319   0.000001  -0.000000  -0.000000  -0.000000
    17  H    0.003821  -0.005368   0.000877   0.000001  -0.000000   0.000000
    18  H   -0.005330   0.003828   0.000875   0.000001  -0.000000   0.000000
    19  H    0.492826  -0.035688   0.002568   0.000004  -0.000000   0.000000
    20  H   -0.035688   0.492653   0.002570   0.000004  -0.000000   0.000000
    21  H    0.002568   0.002570   0.319235   0.002408  -0.000001   0.000004
    22  H    0.000004   0.000004   0.002408   0.315089  -0.000127   0.005731
    23  H   -0.000000  -0.000000  -0.000001  -0.000127   0.399240  -0.000104
    24  H    0.000000   0.000000   0.000004   0.005731  -0.000104   0.472213
    25  H   -0.000000  -0.000000  -0.000000  -0.000009   0.000010  -0.003881
    26  Cl  -0.000000  -0.000000   0.000000   0.000031   0.000644   0.000616
    27  C   -0.000013  -0.000016  -0.000048   0.001306  -0.003442   0.006151
    28  F    0.000000   0.000000   0.000000  -0.000001   0.008606  -0.000001
    29  F   -0.000000   0.000000  -0.000000  -0.000000  -0.000043   0.000002
    30  F    0.000000  -0.000000  -0.000000  -0.000000  -0.000045   0.000002
              25         26         27         28         29         30
     1  C    0.000000  -0.000001  -0.000047   0.000000   0.000000   0.000000
     2  C    0.000000   0.000005   0.000231   0.000007  -0.000001  -0.000001
     3  C    0.000017  -0.000145  -0.007519   0.000265   0.000024   0.000030
     4  N    0.000008   0.000064   0.005580  -0.000021   0.000002   0.000003
     5  C    0.001975  -0.008031  -0.120472   0.005888   0.002265   0.002615
     6  O    0.000001   0.000079   0.010010  -0.000646  -0.000007  -0.000009
     7  N    0.000360  -0.000854   0.004088  -0.000947   0.000246   0.000264
     8  C   -0.006351   0.003679  -1.162467   0.120502   0.034424   0.034786
     9  C   -0.008291   0.017434  -0.202090   0.069100   0.046810   0.047561
    10  C   -0.039999   0.119799   0.400089   0.001577  -0.017451  -0.019237
    11  C    0.214452  -0.081146   0.055902   0.013158   0.000110   0.001843
    12  C    0.038257  -0.287728  -0.481077  -0.031606  -0.260202  -0.261383
    13  C    0.114367  -0.038948  -1.737519  -0.229368   0.286279   0.287901
    14  H   -0.000000  -0.000000  -0.000000   0.000000  -0.000000  -0.000000
    15  H    0.000000  -0.000000  -0.000000  -0.000000  -0.000000   0.000000
    16  H    0.000000  -0.000000  -0.000000   0.000000   0.000000  -0.000000
    17  H    0.000000  -0.000000  -0.000000  -0.000000   0.000000  -0.000000
    18  H    0.000000  -0.000000  -0.000000  -0.000000  -0.000000   0.000000
    19  H   -0.000000  -0.000000  -0.000013   0.000000  -0.000000   0.000000
    20  H   -0.000000  -0.000000  -0.000016   0.000000   0.000000  -0.000000
    21  H   -0.000000   0.000000  -0.000048   0.000000  -0.000000  -0.000000
    22  H   -0.000009   0.000031   0.001306  -0.000001  -0.000000  -0.000000
    23  H    0.000010   0.000644  -0.003442   0.008606  -0.000043  -0.000045
    24  H   -0.003881   0.000616   0.006151  -0.000001   0.000002   0.000002
    25  H    0.437509  -0.002906   0.001599   0.000011   0.000004   0.000004
    26  Cl  -0.002906  17.000103   0.008276   0.000383   0.002047   0.001892
    27  C    0.001599   0.008276   7.675968   0.171512   0.038288   0.036738
    28  F    0.000011   0.000383   0.171512   9.273042  -0.036367  -0.036451
    29  F    0.000004   0.002047   0.038288  -0.036367   9.221849  -0.050473
    30  F    0.000004   0.001892   0.036738  -0.036451  -0.050473   9.221583
 Mulliken charges:
               1
     1  C   -0.701516
     2  C   -0.370853
     3  C   -0.105355
     4  N   -0.671023
     5  C    0.788536
     6  O   -0.622801
     7  N   -0.638392
     8  C   -0.153951
     9  C    0.485468
    10  C   -1.103733
    11  C   -0.155025
    12  C    0.435522
    13  C   -1.088324
    14  H    0.215705
    15  H    0.216723
    16  H    0.216791
    17  H    0.220134
    18  H    0.219894
    19  H    0.229891
    20  H    0.230046
    21  H    0.426588
    22  H    0.439612
    23  H    0.303804
    24  H    0.229796
    25  H    0.252862
    26  Cl   0.264707
    27  C    1.298970
    28  F   -0.328644
    29  F   -0.267807
    30  F   -0.267624
 Sum of Mulliken charges =  -0.00000
 Mulliken charges with hydrogens summed into heavy atoms:
               1
     1  C   -0.052296
     2  C    0.069175
     3  C    0.354581
     4  N   -0.244435
     5  C    0.788536
     6  O   -0.622801
     7  N   -0.198780
     8  C   -0.153951
     9  C    0.789272
    10  C   -0.873937
    11  C    0.097836
    12  C    0.435522
    13  C   -1.088324
    26  Cl   0.264707
    27  C    1.298970
    28  F   -0.328644
    29  F   -0.267807
    30  F   -0.267624
 APT charges:
               1
     1  C   -2.636646
     2  C   -0.750859
     3  C   -0.093718
     4  N   -0.265213
     5  C    0.521901
     6  O   -0.724007
     7  N   -0.992146
     8  C   -1.344434
     9  C   -0.249712
    10  C   -0.643850
    11  C   -0.593673
    12  C    1.794527
    13  C   -0.841266
    14  H    1.173876
    15  H    0.353374
    16  H    0.363042
    17  H    0.493785
    18  H    0.502725
    19  H    0.370274
    20  H    0.363631
    21  H    0.800809
    22  H    0.809420
    23  H    0.413936
    24  H    0.651271
    25  H    0.890522
    26  Cl  -0.060565
    27  C    0.065045
    28  F   -0.288662
    29  F   -0.041678
    30  F   -0.041710
 Sum of APT charges =  -0.00000
 APT charges with hydrogens summed into heavy atoms:
               1
     1  C   -0.746353
     2  C    0.245651
     3  C    0.640187
     4  N    0.535596
     5  C    0.521901
     6  O   -0.724007
     7  N   -0.182726
     8  C   -1.344434
     9  C    0.164224
    10  C    0.007421
    11  C    0.296849
    12  C    1.794527
    13  C   -0.841266
    26  Cl  -0.060565
    27  C    0.065045
    28  F   -0.288662
    29  F   -0.041678
    30  F   -0.041710
 Electronic spatial extent (au):  <R**2>=           8323.1741
 Charge=              0.0000 electrons
 Dipole moment (field-independent basis, Debye):
    X=              6.6692    Y=             -6.8611    Z=              0.0922  Tot=              9.5688
 Quadrupole moment (field-independent basis, Debye-Ang):
   XX=           -101.5965   YY=           -103.3370   ZZ=           -115.8145
   XY=             -5.0686   XZ=              0.2582   YZ=             -0.0012
 Traceless Quadrupole moment (field-independent basis, Debye-Ang):
   XX=              5.3195   YY=              3.5790   ZZ=             -8.8985
   XY=             -5.0686   XZ=              0.2582   YZ=             -0.0012
 Octapole moment (field-independent basis, Debye-Ang**2):
  XXX=            130.5635  YYY=            -17.7231  ZZZ=             -0.0518  XYY=             -4.0409
  XXY=            -28.4432  XXZ=              0.6037  XZZ=             -9.1926  YZZ=             16.4125
  YYZ=              0.3608  XYZ=             -0.0897
 Hexadecapole moment (field-independent basis, Debye-Ang**3):
 XXXX=          -8685.0469 YYYY=          -1191.9784 ZZZZ=           -216.8855 XXXY=           -149.6203
 XXXZ=              2.5372 YYYX=           -102.5803 YYYZ=             -0.0823 ZZZX=             -0.6958
 ZZZY=             -0.0245 XXYY=          -1728.8220 XXZZ=          -1601.8862 YYZZ=           -266.2576
 XXYZ=             -0.3565 YYXZ=              1.1668 ZZXY=            -24.1341
 N-N= 1.427946377097D+03 E-N=-6.080666260053D+03  KE= 1.361194560612D+03
  Exact polarizability:   0.000   0.000   0.000   0.000   0.000   0.000
 Approx polarizability: 239.520   0.345 201.750   0.160  -0.242 133.148
 D2PCM: PCM CHGder 2nd derivatives, FixD1E=F FixD2E=F DoIter=F DoCFld=F I1PDM=0
 Calling FoFJK, ICntrl=    100147 FMM=F ISym2X=0 I1Cent= 0 IOpClX= 0 NMat=1 NMatS=1 NMatT=0.
 ***** Axes restored to original set *****
 -------------------------------------------------------------------
 Center     Atomic                   Forces (Hartrees/Bohr)
 Number     Number              X              Y              Z
 -------------------------------------------------------------------
      1        6          -0.005106331    0.001089089   -0.000164395
      2        6           0.004918516   -0.005252601    0.000787162
      3        6          -0.005712439    0.006490050   -0.001094549
      4        7           0.013873181   -0.034972117    0.005591001
      5        6          -0.013094854    0.020739885   -0.003337251
      6        8           0.002734281    0.016900446   -0.002817005
      7        7           0.023369642   -0.023321540    0.003690376
      8        6          -0.012385366    0.001494405   -0.000360454
      9        6           0.011600138   -0.003042169    0.000465602
     10        6          -0.002280660    0.006588162   -0.001124276
     11        6          -0.005614275    0.004303138   -0.000894276
     12        6           0.000280532    0.005816028   -0.001063349
     13        6          -0.004104308   -0.016670476    0.003051112
     14        1           0.005724520    0.009293337   -0.001390740
     15        1          -0.001026175   -0.003313776    0.009951755
     16        1          -0.000946161   -0.006167083   -0.008494896
     17        1           0.000892229    0.004670844    0.008133963
     18        1           0.000983374    0.001986668   -0.009102662
     19        1           0.001309948   -0.004907335   -0.009587039
     20        1           0.001350181   -0.001673649    0.010663559
     21        1          -0.004280661    0.015991391   -0.002567114
     22        1           0.006376144    0.015295932   -0.002502137
     23        1          -0.008961354    0.001753875   -0.000234649
     24        1          -0.001606835   -0.002491251    0.000472071
     25        1           0.001774120    0.000105629   -0.000006095
     26       17          -0.008996199   -0.002153864    0.000364746
     27        6          -0.001716383    0.004621024   -0.000850824
     28        9           0.037126762   -0.017507462    0.003405109
     29        9          -0.018381841    0.008132015    0.031930389
     30        9          -0.018099727   -0.003798595   -0.032915135
 -------------------------------------------------------------------
 Cartesian Forces:  Max     0.037126762 RMS     0.010764470
 FormGI is forming the generalized inverse of G from B-inverse, IUseBI=4.
 GSVD:  received Info=                   1 from GESDD.

 GradGradGradGradGradGradGradGradGradGradGradGradGradGradGradGradGradGrad
 Berny optimization.
 Internal  Forces:  Max     0.040773932 RMS     0.008579604
 Search for a local minimum.
 Step number   1 out of a maximum of  157
 All quantities printed in internal units (Hartrees-Bohrs-Radians)
 Mixed Optimization -- RFO/linear search
 Second derivative matrix not updated -- analytic derivatives used.
 ITU=  0
     Eigenvalues ---   -0.00112   0.00054   0.00140   0.00197   0.00222
     Eigenvalues ---    0.00328   0.00382   0.00485   0.01321   0.01515
     Eigenvalues ---    0.01747   0.01826   0.02149   0.02249   0.02378
     Eigenvalues ---    0.02563   0.02694   0.03057   0.03663   0.03958
     Eigenvalues ---    0.04500   0.04616   0.04650   0.05053   0.05834
     Eigenvalues ---    0.06825   0.08109   0.10241   0.10929   0.11287
     Eigenvalues ---    0.11378   0.11625   0.12107   0.12535   0.12887
     Eigenvalues ---    0.13387   0.13600   0.13893   0.15752   0.16276
     Eigenvalues ---    0.16430   0.17933   0.18152   0.18509   0.18849
     Eigenvalues ---    0.19183   0.21567   0.21860   0.23186   0.23908
     Eigenvalues ---    0.23935   0.24975   0.25427   0.27036   0.29640
     Eigenvalues ---    0.30445   0.30642   0.30788   0.30951   0.31008
     Eigenvalues ---    0.31225   0.31534   0.31677   0.31961   0.32117
     Eigenvalues ---    0.33009   0.33159   0.36802   0.37588   0.37773
     Eigenvalues ---    0.37848   0.38798   0.40813   0.40851   0.41679
     Eigenvalues ---    0.42478   0.43142   0.44812   0.46687   0.47709
     Eigenvalues ---    0.49868   0.50287   0.56295   0.88480
 RFO step:  Lambda=-2.65720326D-02 EMin=-1.11896581D-03
 Linear search not attempted -- first point.
 Iteration  1 RMS(Cart)=  0.09053086 RMS(Int)=  0.02153509
 Iteration  2 RMS(Cart)=  0.02552284 RMS(Int)=  0.00239812
 Iteration  3 RMS(Cart)=  0.00165867 RMS(Int)=  0.00230589
 Iteration  4 RMS(Cart)=  0.00000447 RMS(Int)=  0.00230589
 Iteration  5 RMS(Cart)=  0.00000003 RMS(Int)=  0.00230589
 Variable       Old X    -DE/DX   Delta X   Delta X   Delta X     New X
                                 (Linear)    (Quad)   (Total)
    R1        2.88355   0.00163   0.00000   0.00183   0.00183   2.88538
    R2        2.09830  -0.01064   0.00000  -0.03001  -0.03001   2.06829
    R3        2.09930  -0.01024   0.00000  -0.02862  -0.02862   2.07068
    R4        2.09926  -0.01024   0.00000  -0.02860  -0.02860   2.07066
    R5        2.89699  -0.00562   0.00000  -0.01749  -0.01749   2.87950
    R6        2.10115  -0.00899   0.00000  -0.02465  -0.02465   2.07650
    R7        2.10103  -0.00895   0.00000  -0.02681  -0.02681   2.07422
    R8        2.74533  -0.00108   0.00000   0.00580   0.00580   2.75113
    R9        2.10232  -0.01036   0.00000  -0.03304  -0.03304   2.06929
   R10        2.10229  -0.01037   0.00000  -0.02647  -0.02647   2.07582
   R11        2.57629  -0.00147   0.00000  -0.00505  -0.00505   2.57124
   R12        1.95073  -0.01634   0.00000  -0.03950  -0.03950   1.91123
   R13        2.30646   0.01703   0.00000   0.00654   0.00654   2.31299
   R14        2.58800   0.00901   0.00000   0.03028   0.03028   2.61828
   R15        2.72230  -0.03398   0.00000  -0.08632  -0.08632   2.63599
   R16        1.95051  -0.01585   0.00000  -0.03849  -0.03849   1.91202
   R17        2.67734  -0.01860   0.00000  -0.03109  -0.03109   2.64626
   R18        2.65637  -0.00851   0.00000  -0.00835  -0.00838   2.64799
   R19        2.66834  -0.01679   0.00000  -0.03436  -0.03432   2.63401
   R20        2.02476   0.00769   0.00000   0.01584   0.01584   2.04061
   R21        2.63202  -0.00564   0.00000  -0.01148  -0.01151   2.62050
   R22        2.04671   0.00278   0.00000   0.00722   0.00722   2.05393
   R23        2.63470  -0.00652   0.00000  -0.00709  -0.00710   2.62761
   R24        2.04631   0.00125   0.00000   0.00365   0.00365   2.04996
   R25        2.66623  -0.01211   0.00000  -0.02832  -0.02830   2.63793
   R26        3.32990  -0.00925   0.00000  -0.03547  -0.03547   3.29442
   R27        2.86478  -0.00875   0.00000  -0.01302  -0.01302   2.85177
   R28        2.61617  -0.04077   0.00000  -0.09004  -0.09004   2.52613
   R29        2.61391  -0.03602   0.00000  -0.07865  -0.07865   2.53527
   R30        2.61384  -0.03604   0.00000  -0.07940  -0.07940   2.53444
    A1        1.91262   0.00330   0.00000   0.02104   0.02089   1.93350
    A2        1.92587   0.00230   0.00000   0.01196   0.01187   1.93774
    A3        1.92569   0.00233   0.00000   0.00961   0.00953   1.93523
    A4        1.89665  -0.00261   0.00000  -0.01248  -0.01265   1.88401
    A5        1.89682  -0.00263   0.00000  -0.01299  -0.01312   1.88370
    A6        1.90569  -0.00286   0.00000  -0.01798  -0.01800   1.88770
    A7        1.94132  -0.00096   0.00000   0.00099   0.00098   1.94230
    A8        1.90094   0.00141   0.00000   0.00822   0.00822   1.90916
    A9        1.90128   0.00138   0.00000   0.01306   0.01306   1.91434
   A10        1.91011  -0.00016   0.00000  -0.00034  -0.00038   1.90972
   A11        1.91122  -0.00019   0.00000  -0.00522  -0.00526   1.90596
   A12        1.89845  -0.00150   0.00000  -0.01706  -0.01712   1.88132
   A13        1.93760  -0.00438   0.00000  -0.01222  -0.01225   1.92536
   A14        1.90646   0.00232   0.00000   0.01334   0.01322   1.91968
   A15        1.90469   0.00249   0.00000   0.01855   0.01849   1.92318
   A16        1.90614   0.00114   0.00000  -0.01570  -0.01564   1.89050
   A17        1.90621   0.00106   0.00000   0.01813   0.01814   1.92435
   A18        1.90241  -0.00263   0.00000  -0.02243  -0.02245   1.87997
   A19        2.12684  -0.00521   0.00000  -0.02274  -0.03817   2.08868
   A20        2.07742  -0.00099   0.00000  -0.00677  -0.02186   2.05556
   A21        2.07893   0.00620   0.00000   0.02906   0.01234   2.09126
   A22        2.08030   0.01651   0.00000   0.05255   0.05250   2.13280
   A23        2.08439  -0.02533   0.00000  -0.08725  -0.08731   1.99709
   A24        2.11849   0.00882   0.00000   0.03469   0.03464   2.15313
   A25        2.23780  -0.00697   0.00000  -0.00727  -0.00771   2.23009
   A26        2.02467   0.00880   0.00000   0.01855   0.01810   2.04277
   A27        2.02072  -0.00184   0.00000  -0.01132  -0.01175   2.00897
   A28        2.17566  -0.00620   0.00000  -0.01273  -0.01273   2.16293
   A29        2.04983  -0.00062   0.00000  -0.00134  -0.00134   2.04849
   A30        2.05770   0.00682   0.00000   0.01406   0.01402   2.07173
   A31        2.11617  -0.00524   0.00000  -0.02038  -0.02034   2.09583
   A32        2.12180  -0.00237   0.00000  -0.02223  -0.02225   2.09955
   A33        2.04521   0.00761   0.00000   0.04261   0.04259   2.08780
   A34        2.11722  -0.00327   0.00000  -0.00403  -0.00409   2.11312
   A35        2.09941   0.00046   0.00000  -0.00726  -0.00723   2.09218
   A36        2.06655   0.00281   0.00000   0.01129   0.01131   2.07787
   A37        2.10369  -0.00333   0.00000  -0.00817  -0.00821   2.09548
   A38        2.08358   0.00296   0.00000   0.01326   0.01328   2.09687
   A39        2.09592   0.00038   0.00000  -0.00510  -0.00508   2.09084
   A40        2.09427  -0.00185   0.00000  -0.00905  -0.00903   2.08524
   A41        2.05767   0.00152   0.00000   0.01106   0.01105   2.06872
   A42        2.13124   0.00033   0.00000  -0.00201  -0.00202   2.12922
   A43        2.07732   0.00687   0.00000   0.02757   0.02763   2.10495
   A44        2.10634  -0.00887   0.00000  -0.03489  -0.03492   2.07142
   A45        2.09952   0.00199   0.00000   0.00732   0.00729   2.10681
   A46        1.95786   0.00390   0.00000  -0.00008  -0.00016   1.95770
   A47        1.91260   0.01592   0.00000   0.04174   0.04123   1.95384
   A48        1.91287   0.01591   0.00000   0.04188   0.04136   1.95423
   A49        1.88695  -0.01114   0.00000  -0.02418  -0.02425   1.86270
   A50        1.88706  -0.01115   0.00000  -0.02328  -0.02337   1.86370
   A51        1.90564  -0.01475   0.00000  -0.03925  -0.04012   1.86553
    D1        3.13990   0.00002   0.00000  -0.00156  -0.00155   3.13835
    D2        1.03325  -0.00010   0.00000  -0.00714  -0.00713   1.02612
    D3       -1.03503   0.00009   0.00000   0.00115   0.00116  -1.03387
    D4        1.05207  -0.00026   0.00000  -0.00682  -0.00686   1.04520
    D5       -1.05458  -0.00038   0.00000  -0.01240  -0.01244  -1.06702
    D6       -3.12286  -0.00019   0.00000  -0.00411  -0.00415  -3.12701
    D7       -1.05536   0.00030   0.00000   0.00160   0.00163  -1.05373
    D8        3.12117   0.00018   0.00000  -0.00398  -0.00395   3.11722
    D9        1.05289   0.00037   0.00000   0.00430   0.00434   1.05723
   D10       -3.14154  -0.00003   0.00000  -0.02159  -0.02162   3.12003
   D11        1.03867  -0.00020   0.00000  -0.00305  -0.00300   1.03567
   D12       -1.03962   0.00015   0.00000   0.00530   0.00528  -1.03435
   D13       -1.04029   0.00101   0.00000  -0.01093  -0.01098  -1.05126
[...]
 ,-0.00000327,0.00000285,0.00000289,-0.00000773,-0.00000901,-0.00001006
 ,-0.00000291,0.00001126,0.00000231,-0.00001078,-0.00002781,0.00002840,
 0.00003020,-0.00088019,0.00017656,0.00080322,0.00011048,0.00010375,-0.
 00037483,-0.00971352,-0.06040428,0.03547850,-0.00000591,-0.00001579,0.
 00000544,-0.00001497,0.00003268,-0.00001235,0.00005508,-0.00007965,0.0
 0001290,-0.00034593,0.00004790,0.00003095,0.00034677,-0.00065016,0.000
 02253,-0.00005249,0.00021285,-0.00002388,-0.00128530,0.00132112,-0.000
 20829,-0.00308919,-0.00295574,0.00027209,-0.00037615,-0.00084721,0.000
 20245,-0.01606915,0.01976605,-0.00446727,-0.21748260,0.14518646,-0.033
 45885,0.00698896,-0.00712585,0.00148603,0.00044494,-0.00181099,0.00020
 286,-0.00000922,0.00000047,0.00000001,0.00000069,0.00000145,-0.0000006
 9,0.00000109,0.00000148,-0.00000048,0.00000027,-0.00000390,-0.00000140
 ,0.00000145,-0.00000085,0.00000262,-0.00000285,0.00000482,-0.00000211,
 -0.00001885,0.00000837,-0.00000809,0.00001185,0.00003085,-0.00001296,0
 .00002687,0.00008005,-0.00000819,0.00002698,0.00008727,-0.00000145,0.0
 0104254,0.00003658,0.00014169,0.22800600,-0.00000190,-0.00000333,0.000
 00122,-0.00000534,0.00000826,-0.00000105,-0.00000006,-0.00002320,0.000
 00880,-0.00006980,0.00004663,-0.00000943,-0.00012240,-0.00014715,-0.00
 003745,0.00001916,0.00001278,-0.00000266,-0.00022550,0.00063786,-0.000
 05823,-0.00293252,0.00025393,0.00128528,-0.00100961,-0.00026831,-0.000
 16775,-0.00889121,0.01094891,-0.00166245,0.14286612,-0.18627375,0.0330
 4628,0.02256355,-0.01524974,0.00425121,-0.00261006,-0.00463000,0.00190
 161,-0.00000161,0.00000051,0.00000004,0.00000010,0.00000019,-0.0000001
 4,0.00000040,-0.00000040,-0.00000013,0.00000018,-0.00000108,-0.0000012
 0,0.00000025,0.00000041,0.00000033,0.00000015,0.00000032,0.00000037,-0
 .00000087,0.00000113,-0.00000175,0.00000344,0.00000586,0.00000141,0.00
 002297,0.00000092,0.00001145,0.00006635,0.00001205,-0.00008880,0.00029
 506,0.00051149,-0.00096836,-0.15209230,0.19400176,0.00000050,0.0000000
 3,0.00000001,0.00000060,0.00000227,0.00000493,0.00000058,-0.00000019,0
 .00000861,0.00000740,-0.00000559,-0.00003699,0.00001491,0.00003560,-0.
 00012343,-0.00002067,-0.00001267,0.00002526,0.00003035,-0.00006363,0.0
 0014721,0.00030589,0.00126475,0.00704066,0.00021607,-0.00018306,-0.000
 96469,0.00114751,-0.00082532,0.00406339,-0.03300196,0.03315557,-0.0447
 4296,-0.00428536,0.00336590,0.00258563,0.00034442,0.00191530,0.0050613
 1,0.00000015,0.00000019,0.00000049,-0.00000102,0.00000086,-0.00000150,
 0.00000047,-0.00000117,-0.00000011,0.00000003,-0.00000213,-0.00000059,
 0.00000042,0.00000076,-0.00000251,-0.00000065,-0.00000190,-0.00000020,
 -0.00000030,0.00000214,-0.00000321,0.00000037,0.00000169,0.00001551,-0
 .00000591,0.00001086,0.00003717,-0.00001099,-0.00009157,-0.00046016,0.
 00009998,-0.00097581,-0.00427147,0.03544799,-0.03708581,0.03381292,-0.
 00002065,-0.00007812,0.00002839,-0.00004054,0.00013728,-0.00006460,0.0
 0051270,-0.00032295,-0.00001556,-0.00188886,-0.00061283,0.00033696,0.0
 0408139,-0.00162431,0.00033351,-0.00118384,0.00087967,-0.00005813,-0.0
 0574115,-0.00040133,-0.00011216,0.00277849,0.00246204,-0.00031575,-0.0
 0154955,0.00398332,-0.00099956,0.00292683,-0.00206857,0.00043262,-0.02
 816382,-0.01049841,0.00106319,-0.16771313,-0.03601610,0.00320008,-0.03
 408412,-0.01141078,0.00115462,-0.00005811,-0.00000561,0.00000288,0.000
 00159,0.00001202,-0.00001121,0.00000575,0.00001604,-0.00000021,-0.0000
 0131,-0.00001730,0.00000580,0.00001342,-0.00000726,0.00000311,-0.00002
 231,0.00002374,-0.00001464,-0.00014785,0.00006166,-0.00006412,0.000033
 85,0.00017346,-0.00011111,-0.00008733,0.00024988,-0.00006134,-0.000866
 96,-0.00128095,0.00015317,-0.00112868,-0.00030899,0.00001960,0.0012289
 3,0.00082560,-0.00004355,0.23339332,-0.00000447,-0.00001871,0.00000596
 ,-0.00001323,0.00003335,-0.00001417,0.00012104,-0.00008096,0.00000362,
 -0.00045774,-0.00007531,0.00008661,0.00104589,-0.00077012,0.00006664,-
 0.00008158,0.00044257,-0.00007484,-0.00158372,0.00006044,-0.00015890,-
 0.00014862,0.00244756,-0.00054631,-0.00059889,-0.00381323,0.00147701,0
 .00332556,-0.00373130,0.00173436,-0.03712447,-0.00807893,0.00134634,-0
 .03622548,-0.04964885,0.00464561,0.01240315,0.00866173,-0.00078034,-0.
 00001306,-0.00000071,0.00000044,-0.00000036,0.00000238,-0.00000332,0.0
 0000060,0.00000424,0.00000097,0.00000077,-0.00000201,0.00000248,0.0000
 0425,-0.00000148,-0.00000089,-0.00001080,0.00000528,-0.00000116,-0.000
 03630,0.00001361,-0.00001871,0.00002017,0.00004406,-0.00001900,0.00006
 662,0.00006079,-0.00000013,0.00040248,0.00027198,0.00007273,-0.0012292
 9,-0.00028258,0.00003243,-0.00088330,0.00050092,-0.00063086,0.05539504
 ,0.05967366,-0.00000019,0.00000042,-0.00000023,0.00000005,-0.00000046,
 0.00000046,-0.00001082,0.00001436,0.00001567,0.00004326,0.00000835,0.0
 0005445,-0.00010545,0.00010990,-0.00016853,-0.00007166,-0.00008865,-0.
 00000862,0.00016619,-0.00011563,-0.00055682,0.00015815,-0.00053876,-0.
 00054283,-0.00010228,0.00160980,0.00377760,-0.00069422,0.00164558,0.00
 453374,0.00629258,0.00203802,0.00367288,0.00315083,0.00472003,-0.02229
 590,-0.00337151,-0.00150511,0.00288744,0.00000051,0.00000007,-0.000000
 16,-0.00000005,-0.00000013,0.00000060,0.00000025,-0.00000005,-0.000000
 21,-0.00000051,-0.00000027,-0.00000026,0.00000032,0.00000032,0.0000002
 2,-0.00000368,-0.00000642,-0.00000281,0.00000750,-0.00000140,-0.000002
 38,0.00000438,-0.00000171,0.00001135,-0.00001701,0.00001153,0.00003481
 ,-0.00008715,0.00000414,0.00050504,0.00021051,0.00006468,0.00006766,0.
 00030371,-0.00058961,-0.00250419,-0.00488177,-0.00783678,0.01382514,0.
 00002160,0.00004339,-0.00002105,-0.00002296,-0.00007846,0.00003480,-0.
 00027547,0.00009493,0.00001629,0.00086439,0.00099321,-0.00028614,-0.00
 049761,-0.00319819,0.00027477,0.00095471,0.00221991,-0.00033801,-0.000
 05259,-0.00063009,0.00024912,-0.00679400,-0.00231531,-0.00004913,-0.00
 001513,-0.02765060,0.00542212,-0.00274866,0.00132053,-0.00027713,-0.00
 412250,0.00568922,-0.00137380,0.01992861,0.02483162,-0.00425900,-0.096
 88904,-0.01942248,0.00296098,0.00004943,0.00002250,-0.00000822,-0.0000
 1291,-0.00002020,-0.00000245,-0.00001886,-0.00000754,0.00002044,0.0000
 1234,0.00003856,0.00000844,0.00000171,0.00000921,-0.00002064,-0.000041
 13,-0.00001417,0.00004682,0.00003741,-0.00005176,-0.00000128,0.0000640
 3,-0.00006470,0.00011364,-0.00034059,-0.00014426,-0.00001808,-0.003068
 45,-0.00141693,0.00032707,-0.00022894,0.00017790,-0.00002587,0.0004907
 8,0.00161524,-0.00032179,-0.00512715,-0.00151873,0.00024276,0.55504022
 ,0.00001620,0.00013068,-0.00003498,0.00009906,-0.00019167,0.00010586,-
 0.00086149,0.00061208,-0.00003966,0.00276363,0.00040690,-0.00035878,-0
 .00639529,0.00329599,-0.00038795,0.00235179,-0.00216554,0.00013338,0.0
 0652557,0.00026085,-0.00002217,-0.00391528,0.00074197,0.00113255,-0.01
 534673,-0.00665588,0.00131369,0.00182212,0.00253986,-0.00063961,0.0015
 0124,0.00118396,0.00082371,0.01307145,-0.01841235,0.00380003,-0.025665
 54,-0.20826772,0.02686718,0.00008155,-0.00000516,0.00000093,0.00000691
 ,-0.00000653,0.00003270,0.00000707,-0.00003796,-0.00002546,-0.00000550
 ,-0.00001134,-0.00003383,-0.00002726,0.00001369,0.00001815,0.00005567,
 -0.00004203,-0.00001577,0.00022856,-0.00007914,0.00013097,-0.00014033,
 -0.00022805,0.00010347,0.00014529,-0.00016895,0.00004960,0.00138634,0.
 00075570,-0.00074512,0.00019419,0.00013934,-0.00010686,-0.00026964,0.0
 0068176,-0.00000078,-0.00567176,-0.00308536,-0.00019345,0.00406009,0.6
 1452792,-0.00000021,-0.00001459,0.00001932,-0.00002675,0.00003876,0.00
 000025,0.00018853,-0.00010074,0.00015440,-0.00055383,-0.00007722,-0.00
 012269,0.00118209,-0.00046051,0.00039472,-0.00040545,0.00027593,-0.000
 46630,-0.00121289,-0.00008115,-0.00013270,0.00037031,0.00116502,0.0071
 3662,0.00293296,0.00082715,0.00184234,-0.00038422,-0.00067213,-0.00087
 193,-0.00056654,0.00096182,0.00498519,-0.00195597,0.00413831,-0.001454
 28,0.00415655,0.02696800,-0.07222151,-0.00001207,0.00000403,0.00000171
 ,-0.00001269,0.00000579,-0.00002557,0.00000502,-0.00001059,0.00000343,
 -0.00000071,-0.00002413,-0.00000012,0.00001535,0.00002316,-0.00003295,
 0.00000533,-0.00000901,0.00000179,-0.00007666,0.00002199,-0.00007323,0
 .00002366,0.00002401,0.00009549,-0.00002119,0.00003007,0.00001477,-0.0
 0034672,-0.00078847,-0.00322111,-0.00002986,-0.00012487,-0.00051827,0.
 00004449,0.00005044,0.00071890,0.00110601,-0.00007919,-0.00311210,0.00
 089006,-0.01941829,0.51725388,-0.00000837,-0.00000169,0.00000472,0.000
 02512,0.00000944,-0.00000196,-0.00000269,0.00004296,-0.00001413,-0.000
 01128,-0.00038326,0.00008093,-0.00063676,0.00195583,-0.00020938,-0.000
 08066,-0.00126184,0.00017232,0.00116972,-0.00019162,0.00000771,0.00103
 263,-0.00047401,0.00013481,-0.00452819,-0.00355282,0.00057649,0.000098
 57,-0.00027059,0.00003670,-0.00053771,0.00014042,-0.00002833,0.0020027
 3,0.00088655,-0.00016746,-0.00893366,0.00965111,-0.00231984,-0.0000112
 2,-0.00001136,0.00000388,0.00000765,0.00000842,0.00000686,0.00000980,-
 0.00000157,-0.00001353,-0.00000672,-0.00001922,-0.00000887,-0.00000539
 ,-0.00000332,0.00001372,0.00002671,0.00000178,-0.00002568,0.00001791,0
 .00001312,0.00002218,-0.00004530,-0.00000045,-0.00003854,-0.00000012,0
 .00000212,0.00001106,0.00202424,-0.00218270,0.00048012,0.00020996,-0.0
 0009169,0.00002764,0.00009813,0.00024689,-0.00003819,0.00075251,0.0003
 7387,-0.00005243,-0.20198559,0.10703488,-0.02443947,0.32726508,-0.0000
 0166,-0.00003910,0.00000872,-0.00003849,0.00005534,-0.00003116,0.00026
 166,-0.00020143,0.00001897,-0.00084934,-0.00001487,0.00008495,0.002217
 78,-0.00157178,0.00020574,-0.00080492,0.00112035,-0.00010260,-0.002537
 58,0.00013545,-0.00005093,0.00266265,0.00099621,-0.00006686,0.00053209
 ,-0.00281759,0.00055876,-0.00026242,-0.00042476,0.00010035,0.00277046,
 -0.00140389,0.00025989,-0.00826606,-0.00641472,0.00133588,0.04220899,-
 0.02747825,0.00808054,-0.00002036,0.00000622,-0.00000181,-0.00000519,-
 0.00000129,-0.00001273,-0.00000565,0.00001148,0.00001300,0.00000344,0.
 00000951,0.00001283,0.00001009,-0.00000233,-0.00001068,-0.00002587,0.0
 0001081,0.00001445,-0.00007583,0.00001898,-0.00004890,0.00005290,0.000
 06735,-0.00002237,-0.00001885,0.00008276,-0.00002264,0.00003520,-0.004
 56100,0.00079675,-0.00006617,-0.00014054,0.00001260,-0.00022144,-0.000
 78733,0.00010378,0.00051615,0.00052167,-0.00004163,0.09489902,-0.16347
 725,0.02064480,-0.14705952,0.17695476,-0.00000059,0.00000544,-0.000005
 43,0.00001008,-0.00001136,0.00000405,-0.00005980,0.00003776,-0.0000373
 9,0.00017370,0.00000594,0.00001256,-0.00042857,0.00028409,-0.00008337,
 0.00015327,-0.00018879,0.00015467,0.00050415,-0.00000605,0.00010292,-0
 .00048711,-0.00019928,0.00002747,-0.00021549,0.00049047,0.00020180,0.0
 0004554,0.00009253,0.00006870,-0.00053767,0.00018145,-0.00053427,0.001
 61053,0.00159612,0.00139089,-0.00867452,0.00726186,0.00671038,0.000003
 14,-0.00000198,0.00000038,0.00000369,-0.00000044,0.00000694,-0.0000003
 2,0.00000129,-0.00000232,-0.00000052,0.00000350,-0.00000123,-0.0000039
 6,-0.00000539,0.00000842,0.00000186,0.00000174,-0.00000288,0.00002281,
 -0.00000404,0.00002178,-0.00000740,-0.00000819,-0.00002072,0.00000196,
 -0.00001771,-0.00001556,0.00006245,0.00075635,-0.00045739,0.00001995,0
 .00001842,-0.00002970,0.00005284,0.00011538,-0.00024825,-0.00008376,-0
 .00004771,0.00025389,-0.02199993,0.02095812,-0.07569416,0.03521010,-0.
 02274440,0.08552320,-0.00000680,-0.00002218,0.00001132,-0.00000429,0.0
 0003952,-0.00001529,0.00015164,-0.00007906,0.00001994,-0.00047460,-0.0
 0027880,0.00007257,0.00069781,0.00054624,-0.00000558,-0.00041381,-0.00
 039158,-0.00001073,-0.00027554,-0.00025242,-0.00004144,0.00058257,-0.0
 0034491,-0.00100700,0.00126626,-0.00102552,0.00053415,-0.00003004,-0.0
 0049350,0.00021551,0.00046985,-0.00069532,-0.00074985,-0.00564901,-0.0
 0151237,0.00053845,-0.00420814,-0.00819904,0.02046342,-0.00002020,-0.0
 0000529,0.00000246,0.00000138,0.00000696,-0.00000488,0.00000543,0.0000
 0294,-0.00000385,-0.00000275,-0.00001325,-0.00000054,0.00000310,-0.000
 00049,0.00000007,0.00000834,0.00000571,-0.00001198,-0.00003332,0.00002
 296,-0.00001731,0.00000017,0.00003831,-0.00001476,-0.00003793,0.000023
 83,0.00005045,0.00056276,0.00057112,0.00060625,0.00005303,-0.00003025,
 0.00012469,-0.00000808,-0.00028613,0.00004970,0.00112063,0.00316283,-0
 .00172137,-0.13145610,-0.02685251,0.09348164,-0.06117261,0.01646146,0.
 04448023,0.18127384,-0.00000523,-0.00003480,0.00001108,-0.00002430,0.0
 0005343,-0.00002644,0.00023185,-0.00015707,0.00002162,-0.00073800,-0.0
 0014623,0.00008397,0.00162534,-0.00065580,0.00010888,-0.00059672,0.000
 42429,-0.00006092,-0.00146418,-0.00025846,-0.00009566,0.00055594,-0.00
 088885,-0.00153311,0.00292251,-0.00280302,0.00191018,-0.00102627,-0.00
 047810,0.00029801,0.00007278,0.00043108,-0.00083378,-0.00267212,0.0002
 8568,-0.00041190,-0.02384775,-0.00462294,0.03156752,-0.00002308,0.0000
 0004,0.00000041,-0.00000177,0.00000315,-0.00000954,-0.00000003,0.00000
 874,0.00000506,0.00000057,-0.00000131,0.00000746,0.00000738,-0.0000021
 7,-0.00000543,-0.00001032,0.00001068,0.00000075,-0.00006067,0.00002325
 ,-0.00003579,0.00003440,0.00005970,-0.00002068,-0.00008027,0.00003358,
 0.00000086,0.00007818,0.00010356,0.00082534,-0.00004502,-0.00004471,0.
 00005424,0.00006134,-0.00008912,0.00001881,0.00236433,-0.00126635,0.00
 178524,-0.02533915,-0.08819100,0.03804675,0.02547328,0.00969646,-0.020
 22543,0.01593756,0.07663779,0.00000616,0.00002756,-0.00001696,0.000017
 00,-0.00005085,0.00001809,-0.00020905,0.00012068,-0.00006133,0.0006667
 2,0.00026170,-0.00003439,-0.00121980,-0.00007323,-0.00015621,0.0005487
 4,0.00009287,0.00015746,0.00094413,0.00049566,0.00015992,0.00002231,0.
 00030703,0.00068325,-0.00185204,0.00363681,-0.00157355,0.00040718,0.00
 027382,-0.00015349,-0.00033551,0.00032382,0.00043532,0.00334104,-0.000
 40969,0.00085696,0.01913986,0.00762570,-0.01542222,0.00002214,0.000002
 07,-0.00000200,0.00000328,-0.00000736,0.00001260,-0.00000516,-0.000000
 83,0.00000111,0.00000139,0.00001694,-0.00000094,-0.00000719,-0.0000056
 3,0.00000993,-0.00000375,-0.00000461,0.00000910,0.00005952,-0.00002835
 ,0.00004035,-0.00000986,-0.00004989,-0.00001112,0.00012078,-0.00003008
 ,-0.00005526,-0.00047745,-0.00034826,-0.00059629,-0.00001360,0.0000682
 3,-0.00007553,-0.00005119,0.00014670,-0.00011376,-0.00250314,0.0006427
 7,-0.00069861,0.09140000,0.04205918,-0.20545602,0.03353881,-0.01288728
 ,-0.00142681,-0.15193851,-0.02781501,0.30603408,-0.00000711,-0.0000229
 2,0.00000644,-0.00000278,0.00003597,-0.00001964,0.00013497,-0.00007639
 ,-0.00001088,-0.00043494,-0.00025346,0.00010832,0.00065850,0.00048046,
 -0.00007218,-0.00038515,-0.00032768,0.00012205,-0.00024743,-0.00017276
 ,0.00009403,0.00052472,0.00004183,0.00105849,0.00123297,-0.00099333,-0
 .00004209,-0.00001207,-0.00053581,-0.00002350,0.00041191,-0.00033074,0
 .00095402,-0.00549910,-0.00167466,-0.00022812,-0.00256760,-0.01481125,
 -0.01573247,-0.00001963,-0.00000578,0.00000181,0.00000395,0.00000533,0
 .00000015,0.00000365,0.00000692,-0.00000311,-0.00000223,-0.00000636,0.
 00000128,0.00000135,-0.00000604,0.00000675,0.00000456,0.00000962,-0.00
 001085,-0.00002413,0.00001890,-0.00000508,0.00000307,0.00003761,-0.000
 04393,-0.00002960,0.00000631,-0.00004306,0.00055323,0.00030234,-0.0007
 2177,0.00005830,-0.00007099,-0.00010382,-0.00001064,-0.00027614,0.0000
 6306,0.00097597,0.00360776,0.00053910,-0.12376758,-0.05620028,-0.07435
 677,-0.05677451,-0.00237255,-0.04985661,0.01759642,0.00656943,0.008387
 19,0.16762093,-0.00000790,-0.00004532,0.00001097,-0.00002681,0.0000661
 3,-0.00003756,0.00028191,-0.00019568,-0.00000500,-0.00092392,-0.000213
 91,0.00015725,0.00197707,-0.00067092,0.00002750,-0.00075928,0.00043686
 ,0.00006391,-0.00174558,-0.00029817,0.00025118,0.00041055,-0.00023261,
 0.00194982,0.00351879,-0.00460156,-0.00052268,-0.00107416,-0.00066119,
 -0.00017236,0.00014488,0.00061698,0.00078308,-0.00380910,0.00058894,0.
 00030438,-0.02755393,-0.02011263,-0.03137755,-0.00003050,-0.00000157,0
 .00000051,0.00000086,0.00000398,-0.00000680,-0.00000056,0.00001422,0.0
 0000507,0.,0.00000137,0.00000970,0.00000741,-0.00000817,0.00000043,-0.
 00001306,0.00001728,-0.00000211,-0.00006887,0.00002959,-0.00003266,0.0
 0004168,0.00007715,-0.00005120,-0.00011467,0.00003195,-0.00004345,0.00
 027570,-0.00015087,-0.00100350,-0.00003268,-0.00009437,-0.00006205,0.0
 0007708,-0.00015228,0.00000197,0.00322501,-0.00188832,-0.00109240,-0.0
 5414276,-0.13426477,-0.07136514,0.00966497,0.01964879,0.01165034,0.003
 66319,0.01186849,-0.01439045,0.06701466,0.13019058,-0.00000625,-0.0000
 1924,0.00000086,-0.00000186,0.00002467,-0.00002056,0.00009045,-0.00006
 239,-0.00004553,-0.00033876,-0.00016905,0.00012622,0.00058246,0.000158
 01,-0.00011787,-0.00030032,-0.00011433,0.00020866,-0.00037864,-0.00027
 698,0.00020037,-0.00020205,0.00008306,0.00007299,0.00071709,-0.0024747
 0,0.00020317,0.00001045,-0.00011127,-0.00000680,0.00029962,-0.00040218
 ,0.00032646,-0.00242094,0.00037583,0.00035138,-0.00881779,-0.00669135,
 -0.00149412,-0.00001436,-0.00000388,0.00000044,0.00000534,0.00000201,0
 .00000552,0.00000001,0.00000934,-0.00000133,-0.00000148,0.00000315,0.0
 0000354,-0.00000066,-0.00001083,0.00001197,-0.00000353,0.00001202,-0.0
 0000777,-0.00001206,0.00001251,0.00000770,0.00000693,0.00003156,-0.000
 05833,-0.00008444,-0.00000065,-0.00005591,0.00045807,0.00018035,-0.000
 35051,0.00003499,-0.00006583,-0.00003406,0.00002858,-0.00014568,-0.000
 04800,0.00150069,0.00009437,0.00025272,-0.07300477,-0.07550681,-0.1692
 1988,-0.04297022,0.00379199,-0.01592861,-0.00510775,-0.02367250,-0.082
 56368,0.12993121,0.10494882,0.26818095\\-0.00000047,-0.00000040,-0.000
 00142,-0.00000012,-0.00000106,0.00000029,-0.00000037,-0.00000113,-0.00
 000050,0.00000009,0.00000300,-0.00000022,0.00000273,-0.00000499,0.0000
 0013,-0.00000056,-0.00000092,-0.00000141,0.00000131,0.00000291,0.00000
 060,-0.00000292,-0.00000055,0.00000199,-0.00000038,-0.00000074,-0.0000
 0021,-0.00000018,0.00000082,0.00000236,0.00000050,0.00000104,0.0000025
 0,-0.00000052,0.00000087,0.00000107,-0.00000014,0.00000115,-0.00000055
 ,0.00000033,-0.00000091,-0.00000055,0.00000056,-0.00000235,-0.00000176
 ,-0.00000008,-0.00000011,-0.00000195,0.00000041,-0.00000095,0.00000050
 ,-0.00000039,0.00000148,0.00000061,-0.00000045,-0.00000042,-0.00000123
 ,0.00000037,-0.00000246,-0.00000150,0.00000127,-0.00000005,0.00000168,
 -0.00000016,0.00000249,0.00000224,0.00000072,0.00000005,-0.00000156,0.
 00000056,0.00000134,0.00000346,-0.00000003,0.00000129,0.00000361,-0.00
 000021,0.00000101,0.00000102,0.00000037,0.00000076,-0.00000160,-0.0000
 0040,-0.00000051,-0.00000349,-0.00000064,-0.00000123,-0.00000078,-0.00
 000118,0.00000058,-0.00000333\\\@


 NATURE GIVES TO EVERY TIME AND SEASON SOME BEAUTY OF ITS OWN.

                                                    --DICKENS
 Job cpu time:       0 days  2 hours 59 minutes 24.5 seconds.
 File lengths (MBytes):  RWF=    564 Int=      0 D2E=      0 Chk=     24 Scr=      1
 Normal termination of Gaussian 09 at Wed Feb 27 13:39:23 2019.
WARNING: pbs_rusage is deprecated and values produced may not be accurate


=============================================================================
                                     Resource usage:
                                       CPU time:              15:24:57
   JobId:    6207875.r-man2            Elapsed time:          03:51:32
   Project:             q95            Requested time:        36:00:00
   Service Units:     15.44 
                                       Max physical memory:      684MB
                                       Max virtual memory:      1992MB
                                       Requested memory:           0MB

                                       Number of cpus:               4

                                       Max jobfs disk use:       0.9GB
                                       Requested jobfs:         16.0GB
=============================================================================

