 Entering Gaussian System, Link 0=/apps/gaussian/g09e01/g09/g09
 AtFile(1): /home/507/hio507/Basis/6-31pGd.gbs
 Initial command:
 /apps/gaussian/g09e01/g09/l1.exe "/jobfs/local/6207914.r-man2/Gau-25120.inp" -scrdir="/jobfs/local/6207914.r-man2/"
 Entering Link 1 = /apps/gaussian/g09e01/g09/l1.exe PID=     25121.
  
 Copyright (c) 1988,1990,1992,1993,1995,1998,2003,2009,2015,
            Gaussian, Inc.  All Rights Reserved.
  
 This is part of the Gaussian(R) 09 program.  It is based on
 the Gaussian(R) 03 system (copyright 2003, Gaussian, Inc.),
 the Gaussian(R) 98 system (copyright 1998, Gaussian, Inc.),
 the Gaussian(R) 94 system (copyright 1995, Gaussian, Inc.),
 the Gaussian 92(TM) system (copyright 1992, Gaussian, Inc.),
 the Gaussian 90(TM) system (copyright 1990, Gaussian, Inc.),
 the Gaussian 88(TM) system (copyright 1988, Gaussian, Inc.),
 the Gaussian 86(TM) system (copyright 1986, Carnegie Mellon
 University), and the Gaussian 82(TM) system (copyright 1983,
 Carnegie Mellon University). Gaussian is a federally registered
 trademark of Gaussian, Inc.
  
 This software contains proprietary and confidential information,
 including trade secrets, belonging to Gaussian, Inc.
  
 This software is provided under written license and may be
 used, copied, transmitted, or stored only in accord with that
 written license.
  
 The following legend is applicable only to US Government
 contracts under FAR:
  
                    RESTRICTED RIGHTS LEGEND
  
 Use, reproduction and disclosure by the US Government is
 subject to restrictions as set forth in subparagraphs (a)
 and (c) of the Commercial Computer Software - Restricted
 Rights clause in FAR 52.227-19.
  
 Gaussian, Inc.
 340 Quinnipiac St., Bldg. 40, Wallingford CT 06492
  
  
 ---------------------------------------------------------------
 Warning -- This program may not be used in any manner that
 competes with the business of Gaussian, Inc. or will provide
 assistance to any competitor of Gaussian, Inc.  The licensee
 of this program is prohibited from giving any competitor of
 Gaussian, Inc. access to this program.  By using this program,
 the user acknowledges that Gaussian, Inc. is engaged in the
 business of creating and licensing software in the field of
 computational chemistry and represents and warrants to the
 licensee that it is not a competitor of Gaussian, Inc. and that
 it will not use this program in any manner prohibited above.
 ---------------------------------------------------------------
  

 Cite this work as:
 Gaussian 09, Revision E.01,
 M. J. Frisch, G. W. Trucks, H. B. Schlegel, G. E. Scuseria, 
 M. A. Robb, J. R. Cheeseman, G. Scalmani, V. Barone, B. Mennucci, 
 G. A. Petersson, H. Nakatsuji, M. Caricato, X. Li, H. P. Hratchian, 
 A. F. Izmaylov, J. Bloino, G. Zheng, J. L. Sonnenberg, M. Hada, 
 M. Ehara, K. Toyota, R. Fukuda, J. Hasegawa, M. Ishida, T. Nakajima, 
 Y. Honda, O. Kitao, H. Nakai, T. Vreven, J. A. Montgomery, Jr., 
 J. E. Peralta, F. Ogliaro, M. Bearpark, J. J. Heyd, E. Brothers, 
 K. N. Kudin, V. N. Staroverov, T. Keith, R. Kobayashi, J. Normand, 
 K. Raghavachari, A. Rendell, J. C. Burant, S. S. Iyengar, J. Tomasi, 
 M. Cossi, N. Rega, J. M. Millam, M. Klene, J. E. Knox, J. B. Cross, 
 V. Bakken, C. Adamo, J. Jaramillo, R. Gomperts, R. E. Stratmann, 
 O. Yazyev, A. J. Austin, R. Cammi, C. Pomelli, J. W. Ochterski, 
 R. L. Martin, K. Morokuma, V. G. Zakrzewski, G. A. Voth, 
 P. Salvador, J. J. Dannenberg, S. Dapprich, A. D. Daniels, 
 O. Farkas, J. B. Foresman, J. V. Ortiz, J. Cioslowski, 
 and D. J. Fox, Gaussian, Inc., Wallingford CT, 2013.
 
 ******************************************
 Gaussian 09:  ES64L-G09RevE.01 30-Nov-2015
                27-Feb-2019 
 ******************************************
 %chk=3TFM4Chloro_EtO.M062X_6-31pGd_opt_Pentadecane.chk
 %mem=196608000
 %nproc=8
 Will use up to    8 processors via shared memory.
 ----------------------------------------------------------------------
 # M062X/Gen 6D SCF=Tight INT(grid=ultrafine) OPT=CalcFC IOP(2/17=4) SC
 RF=(SMD,Solvent=n-Pentadecane) maxdisk=2684354560
 ----------------------------------------------------------------------
 1/10=4,14=-1,18=20,19=15,26=4,38=1/1,3;
 2/9=110,12=2,17=4,18=5,40=1/2;
 3/5=7,8=2,11=2,16=1,25=1,30=1,70=32201,71=2,72=151,74=-55,75=-5,140=1/1,2,3;
 4//1;
 5/5=2,32=2,38=5,53=151/2;
 8/6=4,10=90,11=11/1;
 11/6=1,8=1,9=11,15=111,16=1/1,2,10;
 10/6=1,13=1/2;
 6/7=2,8=2,9=2,10=2,28=1/1;
 7/10=1,18=20,25=1/1,2,3,16;
 1/10=4,14=-1,18=20,19=15,26=4/3(2);
 2/9=110,17=4/2;
 99//99;
 2/9=110,17=4/2;
 3/5=7,6=1,8=2,11=2,16=1,25=1,30=1,70=32205,71=1,72=151,74=-55,75=-5,82=7/1,2,3;
 4/5=5,16=3,69=1/1;
 5/5=2,32=2,38=5,53=151/2;
 7//1,2,3,16;
 1/14=-1,18=20,19=15,26=4/3(-5);
 2/9=110,17=4/2;
 6/7=2,8=2,9=2,10=2,19=2,28=1/1;
 99/9=1/99;
 ---------------------------------------------
 3TFM4Chloro_EtO.M062X_6-31pGd_opt_Pentadecane
 ---------------------------------------------
 Symbolic Z-matrix:
 Charge = -1 Multiplicity = 1
 C                    -1.98591   2.52591  -0.12017 
 C                    -0.63722   1.82416   0.00954 
 C                     0.52119   2.80899  -0.1813 
 N                     1.8056    2.13886  -0.05879 
 C                     2.9808    2.82002  -0.19205 
 O                     2.94596   4.01847  -0.41856 
 N                     4.17348   2.1514   -0.07186 
 C                     5.50722   2.69701  -0.17863 
 C                     5.80075   4.06407  -0.41743 
 C                     6.59279   1.81321  -0.03484 
 C                     7.90916   2.25936  -0.12376 
 C                     8.18792   3.60406  -0.35889 
 C                     7.13188   4.52617  -0.50889 
 H                    -2.80411   1.78896   0.02259 
 H                    -2.08902   2.98094  -1.12835 
 H                    -2.08384   3.31992   0.65057 
 H                    -0.57345   1.02297  -0.75868 
 H                    -0.56817   1.3611    1.01797 
 H                     0.45063   3.60843   0.58908 
 H                     0.44451   3.27058  -1.19058 
 H                     1.82411   1.01808   0.15365 
 H                     5.02698   4.79435  -0.53548 
 H                     6.43145   0.76058   0.14856 
 H                     8.71918   1.54998  -0.00817 
 Cl                    9.87862   4.09081  -0.45782 
 C                     7.42732   5.9913   -0.76404 
 F                     6.27217   6.74488  -0.88391 
 F                     8.14917   6.12149  -1.93675 
 F                     8.16839   6.50446   0.28514 
 H                     4.10095   1.02659   0.13644 
 O                     1.90539  -1.00317   0.5585 
 O                     4.13254  -1.00078   0.54132 
 C                     3.09232  -1.63334   0.67525 
 C                     3.11109  -3.10959   0.96952 
 C                     4.52406  -3.68403   1.07121 
 H                     2.56621  -3.64026   0.15986 
 H                     2.58184  -3.28722   1.92996 
 H                     5.06865  -3.54091   0.1134 
 H                     4.46862  -4.77151   1.28865 
 H                     5.08528  -3.18626   1.89077 
 
 Add virtual bond connecting atoms O31        and H21        Dist= 3.90D+00.
 Add virtual bond connecting atoms O32        and H30        Dist= 3.91D+00.

 GradGradGradGradGradGradGradGradGradGradGradGradGradGradGradGradGradGrad
 Berny optimization.
 Initialization pass.
                           ----------------------------
                           !    Initial Parameters    !
                           ! (Angstroms and Degrees)  !
 --------------------------                            --------------------------
 ! Name  Definition              Value          Derivative Info.                !
 --------------------------------------------------------------------------------
 ! R1    R(1,2)                  1.5259         calculate D2E/DX2 analytically  !
 ! R2    R(1,14)                 1.1104         calculate D2E/DX2 analytically  !
 ! R3    R(1,15)                 1.1109         calculate D2E/DX2 analytically  !
 ! R4    R(1,16)                 1.1109         calculate D2E/DX2 analytically  !
 ! R5    R(2,3)                  1.5324         calculate D2E/DX2 analytically  !
 ! R6    R(2,17)                 1.1118         calculate D2E/DX2 analytically  !
 ! R7    R(2,18)                 1.1118         calculate D2E/DX2 analytically  !
 ! R8    R(3,4)                  1.4539         calculate D2E/DX2 analytically  !
 ! R9    R(3,19)                 1.1125         calculate D2E/DX2 analytically  !
 ! R10   R(3,20)                 1.1125         calculate D2E/DX2 analytically  !
 ! R11   R(4,5)                  1.3649         calculate D2E/DX2 analytically  !
 ! R12   R(4,21)                 1.1409         calculate D2E/DX2 analytically  !
 ! R13   R(5,6)                  1.2202         calculate D2E/DX2 analytically  !
 ! R14   R(5,7)                  1.3726         calculate D2E/DX2 analytically  !
 ! R15   R(7,8)                  1.445          calculate D2E/DX2 analytically  !
 ! R16   R(7,30)                 1.1462         calculate D2E/DX2 analytically  !
 ! R17   R(8,9)                  1.4185         calculate D2E/DX2 analytically  !
 ! R18   R(8,10)                 1.4072         calculate D2E/DX2 analytically  !
 ! R19   R(9,13)                 1.412          calculate D2E/DX2 analytically  !
 ! R20   R(9,22)                 1.0705         calculate D2E/DX2 analytically  !
 ! R21   R(10,11)                1.3928         calculate D2E/DX2 analytically  !
 ! R22   R(10,23)                1.0806         calculate D2E/DX2 analytically  !
 ! R23   R(11,12)                1.3933         calculate D2E/DX2 analytically  !
 ! R24   R(11,24)                1.0829         calculate D2E/DX2 analytically  !
 ! R25   R(12,13)                1.41           calculate D2E/DX2 analytically  !
 ! R26   R(12,25)                1.7622         calculate D2E/DX2 analytically  !
 ! R27   R(13,26)                1.5162         calculate D2E/DX2 analytically  !
 ! R28   R(21,31)                2.063          calculate D2E/DX2 analytically  !
 ! R29   R(26,27)                1.3844         calculate D2E/DX2 analytically  !
 ! R30   R(26,28)                1.3832         calculate D2E/DX2 analytically  !
 ! R31   R(26,29)                1.3832         calculate D2E/DX2 analytically  !
 ! R32   R(30,32)                2.0676         calculate D2E/DX2 analytically  !
 ! R33   R(31,33)                1.3489         calculate D2E/DX2 analytically  !
 ! R34   R(32,33)                1.2248         calculate D2E/DX2 analytically  !
 ! R35   R(33,34)                1.5054         calculate D2E/DX2 analytically  !
 ! R36   R(34,35)                1.5287         calculate D2E/DX2 analytically  !
 ! R37   R(34,36)                1.1109         calculate D2E/DX2 analytically  !
 ! R38   R(34,37)                1.1109         calculate D2E/DX2 analytically  !
 ! R39   R(35,38)                1.1111         calculate D2E/DX2 analytically  !
 ! R40   R(35,39)                1.1104         calculate D2E/DX2 analytically  !
 ! R41   R(35,40)                1.111          calculate D2E/DX2 analytically  !
 ! A1    A(2,1,14)             109.5813         calculate D2E/DX2 analytically  !
 ! A2    A(2,1,15)             110.3384         calculate D2E/DX2 analytically  !
 ! A3    A(2,1,16)             110.3441         calculate D2E/DX2 analytically  !
 ! A4    A(14,1,15)            108.6713         calculate D2E/DX2 analytically  !
 ! A5    A(14,1,16)            108.676          calculate D2E/DX2 analytically  !
 ! A6    A(15,1,16)            109.1899         calculate D2E/DX2 analytically  !
 ! A7    A(1,2,3)              111.2243         calculate D2E/DX2 analytically  !
 ! A8    A(1,2,17)             108.8671         calculate D2E/DX2 analytically  !
 ! A9    A(1,2,18)             108.8774         calculate D2E/DX2 analytically  !
 ! A10   A(3,2,17)             109.4942         calculate D2E/DX2 analytically  !
 ! A11   A(3,2,18)             109.4921         calculate D2E/DX2 analytically  !
 ! A12   A(17,2,18)            108.8456         calculate D2E/DX2 analytically  !
 ! A13   A(2,3,4)              111.1685         calculate D2E/DX2 analytically  !
 ! A14   A(2,3,19)             109.1263         calculate D2E/DX2 analytically  !
 ! A15   A(2,3,20)             109.1196         calculate D2E/DX2 analytically  !
 ! A16   A(4,3,19)             109.2026         calculate D2E/DX2 analytically  !
 ! A17   A(4,3,20)             109.1831         calculate D2E/DX2 analytically  !
 ! A18   A(19,3,20)            109.0092         calculate D2E/DX2 analytically  !
 ! A19   A(3,4,5)              121.4942         calculate D2E/DX2 analytically  !
 ! A20   A(3,4,21)             118.8699         calculate D2E/DX2 analytically  !
 ! A21   A(5,4,21)             119.6359         calculate D2E/DX2 analytically  !
 ! A22   A(4,5,6)              118.9292         calculate D2E/DX2 analytically  !
 ! A23   A(4,5,7)              119.7705         calculate D2E/DX2 analytically  !
 ! A24   A(6,5,7)              121.3002         calculate D2E/DX2 analytically  !
 ! A25   A(5,7,8)              127.7079         calculate D2E/DX2 analytically  !
 ! A26   A(5,7,30)             116.037          calculate D2E/DX2 analytically  !
 ! A27   A(8,7,30)             116.2551         calculate D2E/DX2 analytically  !
 ! A28   A(7,8,9)              124.5658         calculate D2E/DX2 analytically  !
 ! A29   A(7,8,10)             117.8625         calculate D2E/DX2 analytically  !
 ! A30   A(9,8,10)             117.5716         calculate D2E/DX2 analytically  !
 ! A31   A(8,9,13)             121.4253         calculate D2E/DX2 analytically  !
 ! A32   A(8,9,22)             121.7663         calculate D2E/DX2 analytically  !
 ! A33   A(13,9,22)            116.8084         calculate D2E/DX2 analytically  !
 ! A34   A(8,10,11)            121.427          calculate D2E/DX2 analytically  !
 ! A35   A(8,10,23)            120.9278         calculate D2E/DX2 analytically  !
 ! A36   A(11,10,23)           117.6452         calculate D2E/DX2 analytically  !
 ! A37   A(10,11,12)           120.6001         calculate D2E/DX2 analytically  !
 ! A38   A(10,11,24)           119.3613         calculate D2E/DX2 analytically  !
 ! A39   A(12,11,24)           120.0386         calculate D2E/DX2 analytically  !
 ! A40   A(11,12,13)           119.9533         calculate D2E/DX2 analytically  !
 ! A41   A(11,12,25)           117.9066         calculate D2E/DX2 analytically  !
 ! A42   A(13,12,25)           122.14           calculate D2E/DX2 analytically  !
 ! A43   A(9,13,12)            119.0227         calculate D2E/DX2 analytically  !
 ! A44   A(9,13,26)            120.7182         calculate D2E/DX2 analytically  !
 ! A45   A(12,13,26)           120.2591         calculate D2E/DX2 analytically  !
 ! A46   A(13,26,27)           112.2079         calculate D2E/DX2 analytically  !
 ! A47   A(13,26,28)           109.591          calculate D2E/DX2 analytically  !
 ! A48   A(13,26,29)           109.5869         calculate D2E/DX2 analytically  !
 ! A49   A(27,26,28)           108.1074         calculate D2E/DX2 analytically  !
 ! A50   A(27,26,29)           108.1054         calculate D2E/DX2 analytically  !
 ! A51   A(28,26,29)           109.1816         calculate D2E/DX2 analytically  !
 ! A52   A(21,31,33)           120.6219         calculate D2E/DX2 analytically  !
 ! A53   A(30,32,33)           120.9866         calculate D2E/DX2 analytically  !
 ! A54   A(31,33,32)           119.7738         calculate D2E/DX2 analytically  !
 ! A55   A(31,33,34)           119.0788         calculate D2E/DX2 analytically  !
 ! A56   A(32,33,34)           121.1475         calculate D2E/DX2 analytically  !
 ! A57   A(33,34,35)           113.1431         calculate D2E/DX2 analytically  !
 ! A58   A(33,34,36)           108.6546         calculate D2E/DX2 analytically  !
 ! A59   A(33,34,37)           108.6544         calculate D2E/DX2 analytically  !
 ! A60   A(35,34,36)           108.8049         calculate D2E/DX2 analytically  !
 ! A61   A(35,34,37)           108.8299         calculate D2E/DX2 analytically  !
 ! A62   A(36,34,37)           108.667          calculate D2E/DX2 analytically  !
 ! A63   A(34,35,38)           110.3225         calculate D2E/DX2 analytically  !
 ! A64   A(34,35,39)           109.5667         calculate D2E/DX2 analytically  !
 ! A65   A(34,35,40)           110.3413         calculate D2E/DX2 analytically  !
 ! A66   A(38,35,39)           108.6291         calculate D2E/DX2 analytically  !
 ! A67   A(38,35,40)           109.3052         calculate D2E/DX2 analytically  !
 ! A68   A(39,35,40)           108.6356         calculate D2E/DX2 analytically  !
 ! A69   L(4,21,31,2,-1)       181.3252         calculate D2E/DX2 analytically  !
 ! A70   L(7,30,32,1,-1)       184.4992         calculate D2E/DX2 analytically  !
 ! A71   L(4,21,31,2,-2)       180.6386         calculate D2E/DX2 analytically  !
 ! A72   L(7,30,32,1,-2)       180.8456         calculate D2E/DX2 analytically  !
 ! D1    D(14,1,2,3)          -179.9949         calculate D2E/DX2 analytically  !
 ! D2    D(14,1,2,17)           59.2721         calculate D2E/DX2 analytically  !
 ! D3    D(14,1,2,18)          -59.2578         calculate D2E/DX2 analytically  !
 ! D4    D(15,1,2,3)            60.3856         calculate D2E/DX2 analytically  !
 ! D5    D(15,1,2,17)          -60.3474         calculate D2E/DX2 analytically  !
 ! D6    D(15,1,2,18)         -178.8773         calculate D2E/DX2 analytically  !
 ! D7    D(16,1,2,3)           -60.3661         calculate D2E/DX2 analytically  !
 ! D8    D(16,1,2,17)          178.9009         calculate D2E/DX2 analytically  !
 ! D9    D(16,1,2,18)           60.371          calculate D2E/DX2 analytically  !
 ! D10   D(1,2,3,4)           -179.9433         calculate D2E/DX2 analytically  !
 ! D11   D(1,2,3,19)            59.5518         calculate D2E/DX2 analytically  !
 ! D12   D(1,2,3,20)           -59.4672         calculate D2E/DX2 analytically  !
 ! D13   D(17,2,3,4)           -59.58           calculate D2E/DX2 analytically  !
 ! D14   D(17,2,3,19)          179.9152         calculate D2E/DX2 analytically  !
 ! D15   D(17,2,3,20)           60.8961         calculate D2E/DX2 analytically  !
 ! D16   D(18,2,3,4)            59.6818         calculate D2E/DX2 analytically  !
 ! D17   D(18,2,3,19)          -60.823          calculate D2E/DX2 analytically  !
 ! D18   D(18,2,3,20)         -179.8421         calculate D2E/DX2 analytically  !
 ! D19   D(2,3,4,5)           -179.9971         calculate D2E/DX2 analytically  !
 ! D20   D(2,3,4,21)             0.0003         calculate D2E/DX2 analytically  !
 ! D21   D(19,3,4,5)           -59.5373         calculate D2E/DX2 analytically  !
 ! D22   D(19,3,4,21)          120.4601         calculate D2E/DX2 analytically  !
 ! D23   D(20,3,4,5)            59.5643         calculate D2E/DX2 analytically  !
 ! D24   D(20,3,4,21)         -120.4383         calculate D2E/DX2 analytically  !
 ! D25   D(3,4,5,6)              0.0289         calculate D2E/DX2 analytically  !
 ! D26   D(3,4,5,7)           -179.8887         calculate D2E/DX2 analytically  !
 ! D27   D(21,4,5,6)          -179.9684         calculate D2E/DX2 analytically  !
 ! D28   D(21,4,5,7)             0.114          calculate D2E/DX2 analytically  !
 ! D29   D(3,4,31,33)         -179.9328         calculate D2E/DX2 analytically  !
 ! D30   D(5,4,31,33)           -0.3665         calculate D2E/DX2 analytically  !
 ! D31   D(4,5,7,8)           -179.9139         calculate D2E/DX2 analytically  !
 ! D32   D(4,5,7,30)             0.1805         calculate D2E/DX2 analytically  !
 ! D33   D(6,5,7,8)              0.1705         calculate D2E/DX2 analytically  !
 ! D34   D(6,5,7,30)          -179.7351         calculate D2E/DX2 analytically  !
 ! D35   D(5,7,8,9)              0.8311         calculate D2E/DX2 analytically  !
 ! D36   D(5,7,8,10)          -179.2335         calculate D2E/DX2 analytically  !
 ! D37   D(30,7,8,9)          -179.2636         calculate D2E/DX2 analytically  !
 ! D38   D(30,7,8,10)            0.6719         calculate D2E/DX2 analytically  !
 ! D39   D(5,7,32,33)           -0.1307         calculate D2E/DX2 analytically  !
 ! D40   D(8,7,32,33)          179.4339         calculate D2E/DX2 analytically  !
 ! D41   D(7,8,9,13)           179.9594         calculate D2E/DX2 analytically  !
 ! D42   D(7,8,9,22)             0.0465         calculate D2E/DX2 analytically  !
 ! D43   D(10,8,9,13)            0.0238         calculate D2E/DX2 analytically  !
 ! D44   D(10,8,9,22)         -179.8892         calculate D2E/DX2 analytically  !
 ! D45   D(7,8,10,11)         -179.9803         calculate D2E/DX2 analytically  !
 ! D46   D(7,8,10,23)            0.0562         calculate D2E/DX2 analytically  !
 ! D47   D(9,8,10,11)           -0.0403         calculate D2E/DX2 analytically  !
 ! D48   D(9,8,10,23)          179.9962         calculate D2E/DX2 analytically  !
 ! D49   D(8,9,13,12)            0.0065         calculate D2E/DX2 analytically  !
 ! D50   D(8,9,13,26)         -179.9734         calculate D2E/DX2 analytically  !
 ! D51   D(22,9,13,12)         179.9236         calculate D2E/DX2 analytically  !
 ! D52   D(22,9,13,26)          -0.0563         calculate D2E/DX2 analytically  !
 ! D53   D(8,10,11,12)           0.0263         calculate D2E/DX2 analytically  !
 ! D54   D(8,10,11,24)        -179.9785         calculate D2E/DX2 analytically  !
 ! D55   D(23,10,11,12)        179.991          calculate D2E/DX2 analytically  !
 ! D56   D(23,10,11,24)         -0.0138         calculate D2E/DX2 analytically  !
 ! D57   D(10,11,12,13)          0.0056         calculate D2E/DX2 analytically  !
 ! D58   D(10,11,12,25)        179.9873         calculate D2E/DX2 analytically  !
 ! D59   D(24,11,12,13)       -179.9896         calculate D2E/DX2 analytically  !
 ! D60   D(24,11,12,25)         -0.0079         calculate D2E/DX2 analytically  !
 ! D61   D(11,12,13,9)          -0.0216         calculate D2E/DX2 analytically  !
 ! D62   D(11,12,13,26)        179.9585         calculate D2E/DX2 analytically  !
 ! D63   D(25,12,13,9)         179.9976         calculate D2E/DX2 analytically  !
 ! D64   D(25,12,13,26)         -0.0224         calculate D2E/DX2 analytically  !
 ! D65   D(9,13,26,27)          -0.0104         calculate D2E/DX2 analytically  !
 ! D66   D(9,13,26,28)        -120.1183         calculate D2E/DX2 analytically  !
 ! D67   D(9,13,26,29)         120.0923         calculate D2E/DX2 analytically  !
 ! D68   D(12,13,26,27)       -179.9901         calculate D2E/DX2 analytically  !
 ! D69   D(12,13,26,28)         59.902          calculate D2E/DX2 analytically  !
 ! D70   D(12,13,26,29)        -59.8874         calculate D2E/DX2 analytically  !
 ! D71   D(21,31,33,32)          0.0771         calculate D2E/DX2 analytically  !
 ! D72   D(21,31,33,34)       -179.9253         calculate D2E/DX2 analytically  !
 ! D73   D(30,32,33,31)         -0.0276         calculate D2E/DX2 analytically  !
 ! D74   D(30,32,33,34)        179.9748         calculate D2E/DX2 analytically  !
 ! D75   D(31,33,34,35)        179.9102         calculate D2E/DX2 analytically  !
 ! D76   D(31,33,34,36)         58.96           calculate D2E/DX2 analytically  !
 ! D77   D(31,33,34,37)        -59.1079         calculate D2E/DX2 analytically  !
 ! D78   D(32,33,34,35)         -0.0922         calculate D2E/DX2 analytically  !
 ! D79   D(32,33,34,36)       -121.0424         calculate D2E/DX2 analytically  !
 ! D80   D(32,33,34,37)        120.8897         calculate D2E/DX2 analytically  !
 ! D81   D(33,34,35,38)        -60.4535         calculate D2E/DX2 analytically  !
 ! D82   D(33,34,35,39)        179.9982         calculate D2E/DX2 analytically  !
 ! D83   D(33,34,35,40)         60.4302         calculate D2E/DX2 analytically  !
 ! D84   D(36,34,35,38)         60.4116         calculate D2E/DX2 analytically  !
 ! D85   D(36,34,35,39)        -59.1367         calculate D2E/DX2 analytically  !
 ! D86   D(36,34,35,40)       -178.7047         calculate D2E/DX2 analytically  !
 ! D87   D(37,34,35,38)        178.664          calculate D2E/DX2 analytically  !
 ! D88   D(37,34,35,39)         59.1157         calculate D2E/DX2 analytically  !
 ! D89   D(37,34,35,40)        -60.4523         calculate D2E/DX2 analytically  !
 --------------------------------------------------------------------------------
 Trust Radius=3.00D-01 FncErr=1.00D-07 GrdErr=1.00D-06
 Number of steps in this run=    212 maximum allowed number of steps=    240.
 GradGradGradGradGradGradGradGradGradGradGradGradGradGradGradGradGradGrad

                          Input orientation:                          
 ---------------------------------------------------------------------
 Center     Atomic      Atomic             Coordinates (Angstroms)
 Number     Number       Type             X           Y           Z
 ---------------------------------------------------------------------
      1          6           0       -1.985910    2.525910   -0.120170
      2          6           0       -0.637220    1.824160    0.009540
      3          6           0        0.521190    2.808990   -0.181300
      4          7           0        1.805600    2.138860   -0.058790
      5          6           0        2.980800    2.820020   -0.192050
      6          8           0        2.945960    4.018470   -0.418560
      7          7           0        4.173480    2.151400   -0.071860
      8          6           0        5.507220    2.697010   -0.178630
      9          6           0        5.800750    4.064070   -0.417430
     10          6           0        6.592790    1.813210   -0.034840
     11          6           0        7.909160    2.259360   -0.123760
     12          6           0        8.187920    3.604060   -0.358890
     13          6           0        7.131880    4.526170   -0.508890
     14          1           0       -2.804110    1.788960    0.022590
     15          1           0       -2.089020    2.980940   -1.128350
     16          1           0       -2.083840    3.319920    0.650570
     17          1           0       -0.573450    1.022970   -0.758680
     18          1           0       -0.568170    1.361100    1.017970
     19          1           0        0.450630    3.608430    0.589080
     20          1           0        0.444510    3.270580   -1.190580
     21          1           0        1.824110    1.018080    0.153650
     22          1           0        5.026980    4.794350   -0.535480
     23          1           0        6.431450    0.760580    0.148560
     24          1           0        8.719180    1.549980   -0.008170
     25         17           0        9.878620    4.090810   -0.457820
     26          6           0        7.427320    5.991300   -0.764040
     27          9           0        6.272170    6.744880   -0.883910
     28          9           0        8.149170    6.121490   -1.936750
     29          9           0        8.168390    6.504460    0.285140
     30          1           0        4.100950    1.026590    0.136440
     31          8           0        1.905390   -1.003170    0.558500
     32          8           0        4.132540   -1.000780    0.541320
     33          6           0        3.092320   -1.633340    0.675250
     34          6           0        3.111090   -3.109590    0.969520
     35          6           0        4.524060   -3.684030    1.071210
     36          1           0        2.566210   -3.640260    0.159860
     37          1           0        2.581840   -3.287220    1.929960
     38          1           0        5.068650   -3.540910    0.113400
     39          1           0        4.468620   -4.771510    1.288650
     40          1           0        5.085280   -3.186260    1.890770
 ---------------------------------------------------------------------
                    Distance matrix (angstroms):
                    1          2          3          4          5
     1  C    0.000000
     2  C    1.525858   0.000000
     3  C    2.523771   1.532392   0.000000
     4  N    3.811709   2.463955   1.453889   0.000000
     5  C    4.975930   3.757984   2.459658   1.364856   0.000000
     6  O    5.161406   4.223440   2.720045   2.227732   1.220165
     7  N    6.170954   4.822504   3.712630   2.367949   1.372583
     8  C    7.495311   6.208979   4.987288   3.745382   2.529448
     9  C    7.942693   6.829858   5.431826   4.449301   3.090400
    10  C    8.608677   7.230154   6.154458   4.798313   3.752979
    11  C    9.898660   8.558492   7.408610   6.105095   4.960618
    12  C   10.233583   9.010376   7.709891   6.555218   5.268458
    13  C    9.342710   8.241877   6.837927   5.854152   4.499200
    14  H    1.110372   2.167215   3.484200   4.623687   5.879995
    15  H    1.110905   2.177305   2.782026   4.125666   5.158064
    16  H    1.110893   2.177367   2.781949   4.126238   5.158535
    17  H    2.159066   1.111816   2.172895   2.719363   4.022829
    18  H    2.159197   1.111811   2.172864   2.720130   4.023405
    19  H    2.758915   2.168618   1.112461   2.101265   2.762882
    20  H    2.758125   2.168538   1.112471   2.101025   2.762758
    21  H    4.106675   2.593970   2.239900   1.140886   2.168969
    22  H    7.382339   6.418897   4.936521   4.201922   2.864049
    23  H    8.604682   7.149589   6.263862   4.831267   4.032901
    24  H   10.750067   9.360433   8.295910   6.938799   5.880121
    25  Cl  11.972050  10.767498   9.448864   8.315226   7.018936
    26  C   10.051487   9.110449   7.626357   6.851453   5.491423
    27  F    9.304778   8.529444   7.004189   6.468886   5.168783
    28  F   10.906329   9.972750   8.499432   7.721979   6.376185
    29  F   10.913430   9.975968   8.506100   7.724108   6.380744
    30  H    6.274048   4.806504   4.011557   2.558103   2.139867
    31  O    5.296906   3.841877   4.122606   3.203648   4.041858
    32  O    7.092992   5.568993   5.298903   3.953748   4.057444
    33  C    6.612146   5.129030   5.203718   4.052648   4.538399
    34  C    7.676307   6.270030   6.562131   5.505266   6.043715
    35  C    9.075376   7.622736   7.729881   6.524797   6.802951
    36  H    7.669541   6.335964   6.774313   5.833058   6.483128
    37  H    7.672018   6.338499   6.772553   5.830954   6.477691
    38  H    9.307399   7.832734   7.815847   6.552628   6.701779
    39  H    9.843682   8.438518   8.672193   7.527316   7.876383
    40  H    9.309914   7.835199   7.814564   6.550877   6.696445
                    6          7          8          9         10
     6  O    0.000000
     7  N    2.261185   0.000000
     8  C    2.892037   1.444975   0.000000
     9  C    2.855154   2.534903   1.418463   0.000000
    10  C    4.278993   2.443114   1.407210   2.416624   0.000000
    11  C    5.273967   3.737600   2.442102   2.790809   1.392762
    12  C    5.258654   4.278824   2.835734   2.431793   2.420040
    13  C    4.217564   3.818725   2.468688   1.412023   2.806331
    14  H    6.182931   6.987635   8.363208   8.911417   9.397107
    15  H    5.189537   6.404937   7.660643   7.995439   8.827977
    16  H    5.189403   6.406356   7.661578   7.991317   8.833112
    17  H    4.634107   4.927314   6.333515   7.070726   7.245924
    18  H    4.634042   4.929051   6.334577   7.066085   7.252045
    19  H    2.722158   4.052085   5.195110   5.463008   6.429481
    20  H    2.722610   4.050841   5.194618   5.469616   6.423473
    21  H    3.253969   2.618169   4.061344   5.041612   4.838189
    22  H    2.224029   2.815775   2.181011   1.070497   3.404350
    23  H    4.804593   2.661089   2.170487   3.410451   1.080600
    24  H    6.292212   4.585755   3.414882   3.873677   2.142787
    25  Cl   6.933149   6.038120   4.596712   4.078158   4.020330
    26  C    4.908564   5.080494   3.857698   2.545601   4.322570
    27  F    4.325914   5.115074   4.179452   2.761627   5.014488
    28  F    5.813862   5.919927   4.668827   3.472231   4.959925
    29  F    5.826587   5.919112   4.668360   3.472006   4.959106
    30  H    3.254746   1.146232   2.206166   3.524539   2.618659
    31  O    5.220565   3.936102   5.216117   6.465539   5.500524
    32  O    5.246162   3.211527   4.010202   5.418010   3.781974
    33  C    5.758541   4.006412   5.031181   6.402345   4.963489
    34  C    7.263833   5.467281   6.385632   7.785840   6.112686
    35  C    8.002395   5.956657   6.576198   7.992436   5.976842
    36  H    7.689924   6.015009   6.994648   8.375692   6.781710
    37  H    7.682528   6.009924   6.986774   8.361405   6.779568
    38  H    7.869754   5.765244   6.260133   7.658555   5.568804
    39  H    9.082775   7.061500   7.681822   9.096854   7.044307
    40  H    7.862432   5.759680   6.250865   7.642445   5.565542
                   11         12         13         14         15
    11  C    0.000000
    12  C    1.393274   0.000000
    13  C    2.427121   1.409967   0.000000
    14  H   10.724591  11.147414  10.319820   0.000000
    15  H   10.074397  10.324526   9.369977   1.804670   0.000000
    16  H   10.078910  10.325154   9.366370   1.804712   1.810936
    17  H    8.595723   9.142399   8.467994   2.484546   2.503449
    18  H    8.600904   9.143070   8.464026   2.484607   3.089265
    19  H    7.613002   7.795147   6.832780   3.771567   3.129398
    20  H    7.608000   7.795083   6.838284   3.771009   2.550792
    21  H    6.216556   6.888256   6.396724   4.693810   4.561681
    22  H    3.860395   3.382235   2.122082   8.406532   7.367320
    23  H    2.122293   3.380543   3.886195   9.293492   8.897129
    24  H    1.082919   2.150462   3.409978  11.525809  10.959910
    25  Cl   2.710088   1.762152   2.781497  12.898874  12.037684
    26  C    3.817002   2.538026   1.516243  11.088760   9.987778
    27  F    4.835024   3.716247   2.408820  10.380835   9.172595
    28  F    4.273241   2.971296   2.370382  11.940861  10.739511
    29  F    4.272619   2.971107   2.370331  11.945737  10.937441
    30  H    4.011220   4.857162   4.674403   6.947951   6.613237
    31  O    6.866938   7.844639   7.683041   5.501143   5.888455
    32  O    5.033260   6.201696   6.375434   7.494588   7.572959
    33  C    6.244476   7.380037   7.460549   6.848795   7.168740
    34  C    7.283019   8.521266   8.755414   7.738350   8.278693
    35  C    6.943395   8.281625   8.758129   9.206264   9.643273
    36  H    7.964488   9.184383   9.379933   7.637775   8.195788
    37  H    7.960066   9.173696   9.364823   7.642913   8.394047
    38  H    6.462807   7.810474   8.349967   9.507687   9.762618
    39  H    7.953952   9.311163   9.837223   9.875995  10.437673
    40  H    6.456579   7.797166   8.332378   9.512381   9.930761
                   16         17         18         19         20
    16  H    0.000000
    17  H    3.089214   0.000000
    18  H    2.503840   1.808548   0.000000
    19  H    2.551579   3.090275   2.504474   0.000000
    20  H    3.128070   2.504901   3.090199   1.811455   0.000000
    21  H    4.562617   2.565280   2.566655   2.964112   2.963782
    22  H    7.358289   6.755586   6.745822   4.859426   4.873404
    23  H    8.905751   7.068278   7.078925   6.638864   6.628487
    24  H   10.966853   9.337772   9.345775   8.541829   8.533975
    25  Cl  12.038407  10.897152  10.897922   9.498194   9.498007
    26  C    9.979958   9.417890   9.409685   7.495546   7.506257
    27  F    9.160125   8.922917   8.910246   6.774758   6.791644
    28  F   10.920509  10.171866  10.362611   8.483089   8.249015
    29  F   10.741650  10.370924  10.164579   8.248830   8.502591
    30  H    6.616292   4.759335   4.763368   4.493953   4.490660
    31  O    5.883157   3.461915   3.452446   4.835713   4.843386
    32  O    7.571246   5.285064   5.282267   5.899454   5.903013
    33  C    7.164358   4.748685   4.741657   5.870443   5.877129
    34  C    8.272099   5.800048   5.790196   7.235646   7.244532
    35  C    9.638288   7.175580   7.168471   8.366914   8.374068
    36  H    8.384979   5.696218   5.964419   7.563294   7.354251
    37  H    8.188999   5.980165   5.688688   7.340981   7.570382
    38  H    9.925606   7.309091   7.524738   8.524403   8.335432
    39  H   10.431353   7.949216   7.940493   9.319712   9.328197
    40  H    9.760367   7.533819   7.307651   8.327196   8.527734
                   21         22         23         24         25
    21  H    0.000000
    22  H    4.999349   0.000000
    23  H    4.614533   4.325708   0.000000
    24  H    6.917448   4.943312   2.425165   0.000000
    25  Cl   8.642378   4.903000   4.831264   2.828834   0.000000
    26  C    7.547916   2.691944   5.402317   4.686744   3.116810
    27  F    7.325163   2.340186   6.074801   5.808766   4.498013
    28  F    8.391719   3.670549   6.003202   4.994300   3.049900
    29  F    8.388536   3.669653   6.002314   4.993623   3.050014
    30  H    2.276921   3.937642   2.345664   4.650043   6.566891
    31  O    2.062998   6.674755   4.874842   7.298454   9.515983
    32  O    3.091105   5.961799   2.922608   5.276891   7.742093
    33  C    2.985038   6.820849   4.142227   6.500934   8.950062
    34  C    4.399957   8.270908   5.164976   7.356504   9.984113
    35  C    5.499226   8.643917   4.923817   6.794038   9.563335
    36  H    4.717084   8.813713   5.857269   8.051451  10.659377
    37  H    4.718585   8.795958   5.863239   8.051198  10.647996
    38  H    5.595806   8.360583   4.512347   6.265645   9.039096
    39  H    6.465370   9.754224   5.979676   7.727240  10.528959
    40  H    5.597257   8.341476   4.519404   6.264437   9.024840
                   26         27         28         29         30
    26  C    0.000000
    27  F    1.384422   0.000000
    28  F    1.383208   2.240584   0.000000
    29  F    1.383220   2.240565   2.254735   0.000000
    30  H    6.043505   6.201141   6.829657   6.824459   0.000000
    31  O    9.009075   9.010083   9.796522   9.780818   3.019693
    32  O    7.838924   8.161161   8.544055   8.525394   2.067645
    33  C    8.888133   9.095988   9.619338   9.599086   2.895320
    34  C   10.220630  10.513715  10.910614  10.884605   4.333801
    35  C   10.266892  10.753629  10.878303  10.849165   4.821074
    36  H   10.828247  11.075862  11.439274  11.589455   4.912786
    37  H   10.808665  11.053480  11.596139  11.392628   4.912572
    38  H    9.858816  10.403873  10.346724  10.514150   4.668943
    39  H   11.349252  11.857489  11.941822  11.909779   5.922899
    40  H    9.836705  10.379552  10.520054  10.295323   4.668478
                   31         32         33         34         35
    31  O    0.000000
    32  O    2.227218   0.000000
    33  C    1.348906   1.224797   0.000000
    34  C    2.461637   2.381973   1.505411   0.000000
    35  C    3.782501   2.762952   2.532191   1.528662   0.000000
    36  H    2.747697   3.092856   2.137790   1.110880   2.160012
    37  H    2.748704   3.092054   2.137804   1.110902   2.160354
    38  H    4.079761   2.740744   2.803637   2.179683   1.111063
    39  H    4.615588   3.858738   3.481174   2.169495   1.110390
    40  H    4.080751   2.739535   2.803737   2.179910   1.111045
                   36         37         38         39         40
    36  H    0.000000
    37  H    1.805031   0.000000
    38  H    2.504842   3.090060   0.000000
    39  H    2.484564   2.484821   1.804335   0.000000
    40  H    3.089964   2.505781   1.812484   1.804393   0.000000
 Stoichiometry    C14H17ClF3N2O3(1-)
 Framework group  C1[X(C14H17ClF3N2O3)]
 Deg. of freedom   114
 Full point group                 C1      NOp   1
 Largest Abelian subgroup         C1      NOp   1
 Largest concise Abelian subgroup C1      NOp   1
                         Standard orientation:                         
 ---------------------------------------------------------------------
 Center     Atomic      Atomic             Coordinates (Angstroms)
 Number     Number       Type             X           Y           Z
 ---------------------------------------------------------------------
      1          6           0        5.320574   -4.266340   -0.007771
      2          6           0        4.709307   -2.868272   -0.007600
      3          6           0        3.178251   -2.932222   -0.009447
      4          7           0        2.597114   -1.599529   -0.010624
      5          6           0        1.245323   -1.411137   -0.012281
      6          8           0        0.513339   -2.387355   -0.012239
      7          7           0        0.734780   -0.137042   -0.015669
      8          6           0       -0.655110    0.258129   -0.016118
      9          6           0       -1.748600   -0.645151    0.003937
     10          6           0       -0.947510    1.634474   -0.036547
     11          6           0       -2.260906    2.097913   -0.037978
     12          6           0       -3.328737    1.203168   -0.018506
     13          6           0       -3.083596   -0.185159    0.003008
     14          1           0        6.428194   -4.188214   -0.006322
     15          1           0        5.004690   -4.825745   -0.914079
     16          1           0        5.002334   -4.827104    0.896856
     17          1           0        5.058966   -2.322887   -0.911164
     18          1           0        5.056785   -2.323856    0.897382
     19          1           0        2.835229   -3.480177    0.895898
     20          1           0        2.837543   -3.480380   -0.915556
     21          1           0        3.292744   -0.695251   -0.010097
     22          1           0       -1.603344   -1.705596    0.021852
     23          1           0       -0.156200    2.370189   -0.052306
     24          1           0       -2.447598    3.164493   -0.054343
     25         17           0       -4.961084    1.866955   -0.021365
     26          6           0       -4.240455   -1.165045    0.025224
     27          9           0       -3.811184   -2.481087    0.044799
     28          9           0       -5.022703   -0.984719   -1.101203
     29          9           0       -5.010914   -0.947385    1.153193
     30          1           0        1.503636    0.713068   -0.020168
     31          8           0        4.512330    0.968500    0.012315
     32          8           0        2.765856    2.350599    0.001021
     33          6           0        3.982377    2.208943    0.012679
     34          6           0        4.904723    3.398614    0.027560
     35          6           0        4.162030    4.734727    0.024003
     36          1           0        5.560477    3.351045   -0.867861
     37          1           0        5.540311    3.344106    0.937044
     38          1           0        3.535843    4.825710   -0.889273
     39          1           0        4.895764    5.568076    0.035460
     40          1           0        3.514764    4.819202    0.923077
 ---------------------------------------------------------------------
 Rotational constants (GHZ):      0.2781916      0.1012555      0.0754930
 General basis read from cards:  (6D, 7F)
 There are   475 symmetry adapted cartesian basis functions of A   symmetry.
 There are   475 symmetry adapted basis functions of A   symmetry.
   475 basis functions,   828 primitive gaussians,   475 cartesian basis functions
    92 alpha electrons       92 beta electrons
       nuclear repulsion energy      2046.6472070787 Hartrees.
 NAtoms=   40 NActive=   40 NUniq=   40 SFac= 1.00D+00 NAtFMM=   60 NAOKFM=F Big=F
 Integral buffers will be    131072 words long.
 Raffenetti 2 integral format.
 Two-electron integral symmetry is turned on.
 Force inversion solution in PCM.
 ------------------------------------------------------------------------------
 Polarizable Continuum Model (PCM)
 =================================
 Model                : PCM (using non-symmetric T matrix).
 Atomic radii         : SMD-Coulomb.
 Polarization charges : Total charges.
 Charge compensation  : None.
 Solution method      : Matrix inversion.
 Cavity type          : VdW (van der Waals Surface) (Alpha=1.000).
 Cavity algorithm     : GePol (No added spheres)
                        Default sphere list used, NSphG=   40.
                        Lebedev-Laikov grids with approx.  5.0 points / Ang**2.
                        Smoothing algorithm: York/Karplus (Gamma=1.0000).
                        Polarization charges: spherical gaussians, with
                                              point-specific exponents (IZeta= 3).
                        Self-potential: point-specific (ISelfS= 7).
                        Self-field    : sphere-specific E.n sum rule (ISelfD= 2).
 1st derivatives      : Analytical E(r).r(x)/FMM algorithm (CHGder, D1EAlg=3).
                        Cavity 1st derivative terms included.
 2nd derivatives      : Analytical E(r).r(xy)/FMM algorithm (CHGder, D2EAlg=3).
                        Cavity 2nd derivative terms included.
 Solvent              : n-Pentadecane, Eps=   2.033300 Eps(inf)=   2.049192
 ------------------------------------------------------------------------------
 ------------------------------------------------------------------------------
 Atomic radii for non-electrostatic terms: SMD-CDS.
 ------------------------------------------------------------------------------
 Nuclear repulsion after PCM non-electrostatic terms =     2046.6376068342 Hartrees.
 One-electron integrals computed using PRISM.
 NBasis=   475 RedAO= T EigKep=  1.02D-06  NBF=   475
 NBsUse=   474 1.00D-06 EigRej=  2.69D-07 NBFU=   474
 ExpMin= 4.38D-02 ExpMax= 2.52D+04 ExpMxC= 3.78D+03 IAcc=3 IRadAn=         5 AccDes= 0.00D+00
 Harris functional with IExCor= 1009 and IRadAn=       5 diagonalized for initial guess.
 HarFok:  IExCor= 1009 AccDes= 0.00D+00 IRadAn=         5 IDoV= 1 UseB2=F ITyADJ=14
 ICtDFT=  3500011 ScaDFX=  1.000000  1.000000  1.000000  1.000000
 FoFCou: FMM=F IPFlag=           0 FMFlag=      100000 FMFlg1=           0
         NFxFlg=           0 DoJE=T BraDBF=F KetDBF=T FulRan=T
         wScrn=  0.000000 ICntrl=     500 IOpCl=  0 I1Cent=   200000004 NGrid=           0
         NMat0=    1 NMatS0=      1 NMatT0=    0 NMatD0=    1 NMtDS0=    0 NMtDT0=    0
 Petite list used in FoFCou.
 Requested convergence on RMS density matrix=1.00D-08 within 128 cycles.
 Requested convergence on MAX density matrix=1.00D-06.
 Requested convergence on             energy=1.00D-06.
 No special actions if energy rises.
 Inv3:  Mode=1 IEnd=    32432832.
 Iteration    1 A*A^-1 deviation from unit magnitude is 6.11D-15 for   1215.
 Iteration    1 A*A^-1 deviation from orthogonality  is 3.18D-15 for   2273    389.
 Iteration    1 A^-1*A deviation from unit magnitude is 7.77D-15 for    401.
 Iteration    1 A^-1*A deviation from orthogonality  is 5.97D-15 for   3019   1337.
 Error on total polarization charges =  0.02543
 SCF Done:  E(RM062X) =  -1638.32878919     A.U. after   16 cycles
            NFock= 16  Conv=0.55D-08     -V/T= 2.0074
 SMD-CDS (non-electrostatic) energy       (kcal/mol) =      -6.02
 (included in total energy above)
 DoSCS=F DFT=T ScalE2(SS,OS)=  1.000000  1.000000
 Range of M.O.s used for correlation:     1   474
 NBasis=   475 NAE=    92 NBE=    92 NFC=     0 NFV=     0
 NROrb=    474 NOA=    92 NOB=    92 NVA=   382 NVB=   382

 **** Warning!!: The largest alpha MO coefficient is  0.20719887D+03

 Symmetrizing basis deriv contribution to polar:
 IMax=3 JMax=2 DiffMx= 0.00D+00
 G2DrvN: will do    41 centers at a time, making    1 passes.
 Calling FoFCou, ICntrl=  3107 FMM=F I1Cent=   0 AccDes= 0.00D+00.
 NEqPCM:  Using equilibrium solvation (IEInf=0, Eps=   2.0333, EpsInf=   2.0492)
 G2PCM: DoFxE=T DoFxN=T DoGrad=T DoDP/DQ/DG/TGxP=FFFF NFrqRd=   0 IEInf=0 SqF1=F DoCFld=F IF1Alg=4.
 End of G2Drv F.D. properties file   721 does not exist.
 End of G2Drv F.D. properties file   722 does not exist.
 End of G2Drv F.D. properties file   788 does not exist.
          IDoAtm=1111111111111111111111111111111111111111
 NEqPCM:  Using equilibrium solvation (IEInf=0, Eps=   2.0333, EpsInf=   2.0492)
          Differentiating once with respect to nuclear coordinates.
          There are   123 degrees of freedom in the 1st order CPHF.  IDoFFX=6 NUNeed=     0.
    117 vectors produced by pass  0 Test12= 3.51D-14 1.00D-09 XBig12= 3.28D-01 1.18D-01.
 AX will form   117 AO Fock derivatives at one time.
    117 vectors produced by pass  1 Test12= 3.51D-14 1.00D-09 XBig12= 2.29D-02 4.54D-02.
    117 vectors produced by pass  2 Test12= 3.51D-14 1.00D-09 XBig12= 5.57D-04 3.90D-03.
    117 vectors produced by pass  3 Test12= 3.51D-14 1.00D-09 XBig12= 4.39D-06 2.50D-04.
    117 vectors produced by pass  4 Test12= 3.51D-14 1.00D-09 XBig12= 4.10D-08 2.47D-05.
    117 vectors produced by pass  5 Test12= 3.51D-14 1.00D-09 XBig12= 2.28D-10 1.33D-06.
     91 vectors produced by pass  6 Test12= 3.51D-14 1.00D-09 XBig12= 9.64D-13 9.73D-08.
     27 vectors produced by pass  7 Test12= 3.51D-14 1.00D-09 XBig12= 6.59D-15 5.74D-09.
     18 vectors produced by pass  8 Test12= 3.51D-14 1.00D-09 XBig12= 1.45D-15 2.97D-09.
     18 vectors produced by pass  9 Test12= 3.51D-14 1.00D-09 XBig12= 1.29D-14 1.20D-08.
     18 vectors produced by pass 10 Test12= 3.51D-14 1.00D-09 XBig12= 3.04D-14 1.64D-08.
     18 vectors produced by pass 11 Test12= 3.51D-14 1.00D-09 XBig12= 5.05D-14 2.87D-08.
     12 vectors produced by pass 12 Test12= 3.51D-14 1.00D-09 XBig12= 6.99D-15 5.86D-09.
     12 vectors produced by pass 13 Test12= 3.51D-14 1.00D-09 XBig12= 5.78D-15 7.92D-09.
     12 vectors produced by pass 14 Test12= 3.51D-14 1.00D-09 XBig12= 2.03D-14 9.83D-09.
     12 vectors produced by pass 15 Test12= 3.51D-14 1.00D-09 XBig12= 1.10D-14 9.09D-09.
     12 vectors produced by pass 16 Test12= 3.51D-14 1.00D-09 XBig12= 2.58D-14 1.04D-08.
     12 vectors produced by pass 17 Test12= 3.51D-14 1.00D-09 XBig12= 7.04D-15 5.37D-09.
     12 vectors produced by pass 18 Test12= 3.51D-14 1.00D-09 XBig12= 1.13D-14 9.11D-09.
     12 vectors produced by pass 19 Test12= 3.51D-14 1.00D-09 XBig12= 1.65D-14 8.79D-09.
     12 vectors produced by pass 20 Test12= 3.51D-14 1.00D-09 XBig12= 2.32D-14 1.02D-08.
      9 vectors produced by pass 21 Test12= 3.51D-14 1.00D-09 XBig12= 7.84D-15 5.02D-09.
      9 vectors produced by pass 22 Test12= 3.51D-14 1.00D-09 XBig12= 1.82D-14 8.17D-09.
      8 vectors produced by pass 23 Test12= 3.51D-14 1.00D-09 XBig12= 9.00D-15 6.82D-09.
      8 vectors produced by pass 24 Test12= 3.51D-14 1.00D-09 XBig12= 1.91D-14 8.09D-09.
      8 vectors produced by pass 25 Test12= 3.51D-14 1.00D-09 XBig12= 1.14D-14 7.87D-09.
      8 vectors produced by pass 26 Test12= 3.51D-14 1.00D-09 XBig12= 1.01D-14 5.75D-09.
      8 vectors produced by pass 27 Test12= 3.51D-14 1.00D-09 XBig12= 1.37D-14 9.58D-09.
      8 vectors produced by pass 28 Test12= 3.51D-14 1.00D-09 XBig12= 7.08D-15 5.10D-09.
      8 vectors produced by pass 29 Test12= 3.51D-14 1.00D-09 XBig12= 8.00D-15 5.85D-09.
      8 vectors produced by pass 30 Test12= 3.51D-14 1.00D-09 XBig12= 1.33D-14 8.99D-09.
      8 vectors produced by pass 31 Test12= 3.51D-14 1.00D-09 XBig12= 1.01D-14 6.60D-09.
      8 vectors produced by pass 32 Test12= 3.51D-14 1.00D-09 XBig12= 9.09D-15 7.53D-09.
      8 vectors produced by pass 33 Test12= 3.51D-14 1.00D-09 XBig12= 6.70D-15 4.82D-09.
      7 vectors produced by pass 34 Test12= 3.51D-14 1.00D-09 XBig12= 5.35D-15 4.90D-09.
      7 vectors produced by pass 35 Test12= 3.51D-14 1.00D-09 XBig12= 1.42D-14 7.60D-09.
      6 vectors produced by pass 36 Test12= 3.51D-14 1.00D-09 XBig12= 5.73D-15 6.03D-09.
      6 vectors produced by pass 37 Test12= 3.51D-14 1.00D-09 XBig12= 3.54D-15 3.75D-09.
      6 vectors produced by pass 38 Test12= 3.51D-14 1.00D-09 XBig12= 9.36D-15 5.63D-09.
      6 vectors produced by pass 39 Test12= 3.51D-14 1.00D-09 XBig12= 9.28D-15 5.18D-09.
      6 vectors produced by pass 40 Test12= 3.51D-14 1.00D-09 XBig12= 3.69D-15 3.65D-09.
      6 vectors produced by pass 41 Test12= 3.51D-14 1.00D-09 XBig12= 3.41D-15 3.23D-09.
      6 vectors produced by pass 42 Test12= 3.51D-14 1.00D-09 XBig12= 5.78D-15 4.99D-09.
      6 vectors produced by pass 43 Test12= 3.51D-14 1.00D-09 XBig12= 4.08D-15 3.26D-09.
      6 vectors produced by pass 44 Test12= 3.51D-14 1.00D-09 XBig12= 6.48D-15 5.42D-09.
      6 vectors produced by pass 45 Test12= 3.51D-14 1.00D-09 XBig12= 9.06D-15 5.27D-09.
      5 vectors produced by pass 46 Test12= 3.51D-14 1.00D-09 XBig12= 7.56D-15 5.90D-09.
      5 vectors produced by pass 47 Test12= 3.51D-14 1.00D-09 XBig12= 3.52D-15 3.74D-09.
      5 vectors produced by pass 48 Test12= 3.51D-14 1.00D-09 XBig12= 5.70D-15 4.03D-09.
      5 vectors produced by pass 49 Test12= 3.51D-14 1.00D-09 XBig12= 4.52D-15 3.49D-09.
      5 vectors produced by pass 50 Test12= 3.51D-14 1.00D-09 XBig12= 7.08D-15 4.95D-09.
      5 vectors produced by pass 51 Test12= 3.51D-14 1.00D-09 XBig12= 2.20D-15 2.89D-09.
      5 vectors produced by pass 52 Test12= 3.51D-14 1.00D-09 XBig12= 3.93D-15 3.52D-09.
      5 vectors produced by pass 53 Test12= 3.51D-14 1.00D-09 XBig12= 9.29D-15 5.22D-09.
      5 vectors produced by pass 54 Test12= 3.51D-14 1.00D-09 XBig12= 4.82D-15 4.05D-09.
      3 vectors produced by pass 55 Test12= 3.51D-14 1.00D-09 XBig12= 1.89D-15 2.36D-09.
      3 vectors produced by pass 56 Test12= 3.51D-14 1.00D-09 XBig12= 2.49D-15 2.50D-09.
      3 vectors produced by pass 57 Test12= 3.51D-14 1.00D-09 XBig12= 7.39D-15 4.79D-09.
      3 vectors produced by pass 58 Test12= 3.51D-14 1.00D-09 XBig12= 4.39D-15 4.51D-09.
      3 vectors produced by pass 59 Test12= 3.51D-14 1.00D-09 XBig12= 2.19D-15 2.48D-09.
      3 vectors produced by pass 60 Test12= 3.51D-14 1.00D-09 XBig12= 3.99D-15 3.70D-09.
      3 vectors produced by pass 61 Test12= 3.51D-14 1.00D-09 XBig12= 9.60D-15 5.56D-09.
      2 vectors produced by pass 62 Test12= 3.51D-14 1.00D-09 XBig12= 2.29D-15 3.38D-09.
 InvSVY:  IOpt=1 It=  1 EMax= 6.66D-16
 Solved reduced A of dimension  1248 with   123 vectors.
 End of Minotr F.D. properties file   721 does not exist.
 End of Minotr F.D. properties file   722 does not exist.
 End of Minotr F.D. properties file   788 does not exist.

 **********************************************************************

            Population analysis using the SCF density.

 **********************************************************************

 Orbital symmetries:
       Occupied  (A) (A) (A) (A) (A) (A) (A) (A) (A) (A) (A) (A)
                 (A) (A) (A) (A) (A) (A) (A) (A) (A) (A) (A) (A)
                 (A) (A) (A) (A) (A) (A) (A) (A) (A) (A) (A) (A)
                 (A) (A) (A) (A) (A) (A) (A) (A) (A) (A) (A) (A)
                 (A) (A) (A) (A) (A) (A) (A) (A) (A) (A) (A) (A)
                 (A) (A) (A) (A) (A) (A) (A) (A) (A) (A) (A) (A)
                 (A) (A) (A) (A) (A) (A) (A) (A) (A) (A) (A) (A)
                 (A) (A) (A) (A) (A) (A) (A) (A)
       Virtual   (A) (A) (A) (A) (A) (A) (A) (A) (A) (A) (A) (A)
                 (A) (A) (A) (A) (A) (A) (A) (A) (A) (A) (A) (A)
                 (A) (A) (A) (A) (A) (A) (A) (A) (A) (A) (A) (A)
                 (A) (A) (A) (A) (A) (A) (A) (A) (A) (A) (A) (A)
                 (A) (A) (A) (A) (A) (A) (A) (A) (A) (A) (A) (A)
                 (A) (A) (A) (A) (A) (A) (A) (A) (A) (A) (A) (A)
                 (A) (A) (A) (A) (A) (A) (A) (A) (A) (A) (A) (A)
                 (A) (A) (A) (A) (A) (A) (A) (A) (A) (A) (A) (A)
                 (A) (A) (A) (A) (A) (A) (A) (A) (A) (A) (A) (A)
                 (A) (A) (A) (A) (A) (A) (A) (A) (A) (A) (A) (A)
                 (A) (A) (A) (A) (A) (A) (A) (A) (A) (A) (A) (A)
                 (A) (A) (A) (A) (A) (A) (A) (A) (A) (A) (A) (A)
                 (A) (A) (A) (A) (A) (A) (A) (A) (A) (A) (A) (A)
                 (A) (A) (A) (A) (A) (A) (A) (A) (A) (A) (A) (A)
                 (A) (A) (A) (A) (A) (A) (A) (A) (A) (A) (A) (A)
                 (A) (A) (A) (A) (A) (A) (A) (A) (A) (A) (A) (A)
                 (A) (A) (A) (A) (A) (A) (A) (A) (A) (A) (A) (A)
                 (A) (A) (A) (A) (A) (A) (A) (A) (A) (A) (A) (A)
                 (A) (A) (A) (A) (A) (A) (A) (A) (A) (A) (A) (A)
                 (A) (A) (A) (A) (A) (A) (A) (A) (A) (A) (A) (A)
                 (A) (A) (A) (A) (A) (A) (A) (A) (A) (A) (A) (A)
                 (A) (A) (A) (A) (A) (A) (A) (A) (A) (A) (A) (A)
                 (A) (A) (A) (A) (A) (A) (A) (A) (A) (A) (A) (A)
                 (A) (A) (A) (A) (A) (A) (A) (A) (A) (A) (A) (A)
                 (A) (A) (A) (A) (A) (A) (A) (A) (A) (A) (A) (A)
                 (A) (A) (A) (A) (A) (A) (A) (A) (A) (A) (A) (A)
                 (A) (A) (A) (A) (A) (A) (A) (A) (A) (A) (A) (A)
                 (A) (A) (A) (A) (A) (A) (A) (A) (A) (A) (A) (A)
                 (A) (A) (A) (A) (A) (A) (A) (A) (A) (A) (A) (A)
                 (A) (A) (A) (A) (A) (A) (A) (A) (A) (A) (A) (A)
                 (A) (A) (A) (A) (A) (A) (A) (A) (A) (A) (A) (A)
                 (A) (A) (A) (A) (A) (A) (A) (A) (A) (A)
 The electronic state is 1-A.
 Alpha  occ. eigenvalues -- -102.63993 -25.27005 -25.26719 -25.26719 -19.54057
 Alpha  occ. eigenvalues --  -19.52587 -19.49827 -14.74438 -14.71425 -10.78890
 Alpha  occ. eigenvalues --  -10.61558 -10.58844 -10.57792 -10.56485 -10.55787
 Alpha  occ. eigenvalues --  -10.53405 -10.52935 -10.52655 -10.52601 -10.49810
 Alpha  occ. eigenvalues --  -10.49726 -10.48572 -10.48422  -9.78616  -7.51022
 Alpha  occ. eigenvalues --   -7.50357  -7.50345  -1.40824  -1.33020  -1.32995
 Alpha  occ. eigenvalues --   -1.11345  -1.07726  -0.98116  -0.95955  -0.94609
 Alpha  occ. eigenvalues --   -0.94237  -0.89437  -0.85259  -0.82687  -0.80278
 Alpha  occ. eigenvalues --   -0.79275  -0.76591  -0.71884  -0.68608  -0.66846
 Alpha  occ. eigenvalues --   -0.66078  -0.64431  -0.64019  -0.62640  -0.60946
 Alpha  occ. eigenvalues --   -0.58055  -0.55405  -0.53371  -0.53229  -0.52962
 Alpha  occ. eigenvalues --   -0.52016  -0.51226  -0.50041  -0.49962  -0.49748
 Alpha  occ. eigenvalues --   -0.48305  -0.47871  -0.47578  -0.46766  -0.46124
 Alpha  occ. eigenvalues --   -0.46090  -0.45203  -0.44427  -0.43302  -0.43198
 Alpha  occ. eigenvalues --   -0.41855  -0.40807  -0.40397  -0.40148  -0.39194
 Alpha  occ. eigenvalues --   -0.38347  -0.37604  -0.37190  -0.37010  -0.35156
 Alpha  occ. eigenvalues --   -0.34581  -0.34548  -0.34368  -0.33875  -0.31245
 Alpha  occ. eigenvalues --   -0.28548  -0.27817  -0.25020  -0.24639  -0.22890
 Alpha  occ. eigenvalues --   -0.21947  -0.21923
 Alpha virt. eigenvalues --    0.03486   0.05044   0.05323   0.06594   0.06978
 Alpha virt. eigenvalues --    0.07234   0.07758   0.08289   0.08715   0.08792
 Alpha virt. eigenvalues --    0.09383   0.09827   0.10019   0.10303   0.10627
 Alpha virt. eigenvalues --    0.10659   0.11640   0.11790   0.12145   0.12405
 Alpha virt. eigenvalues --    0.12873   0.13342   0.13592   0.13672   0.14034
 Alpha virt. eigenvalues --    0.14846   0.15032   0.15221   0.15559   0.15653
 Alpha virt. eigenvalues --    0.16499   0.16724   0.16821   0.16991   0.17113
 Alpha virt. eigenvalues --    0.17815   0.17840   0.18687   0.18785   0.19119
 Alpha virt. eigenvalues --    0.19371   0.19782   0.20844   0.20903   0.21340
 Alpha virt. eigenvalues --    0.22024   0.22568   0.22901   0.22989   0.23754
 Alpha virt. eigenvalues --    0.23864   0.24416   0.24722   0.25284   0.25556
 Alpha virt. eigenvalues --    0.25951   0.26511   0.26716   0.27138   0.27514
 Alpha virt. eigenvalues --    0.27575   0.28270   0.28601   0.28649   0.28813
 Alpha virt. eigenvalues --    0.29154   0.29345   0.29679   0.29915   0.30115
 Alpha virt. eigenvalues --    0.30520   0.31478   0.31812   0.32292   0.32383
 Alpha virt. eigenvalues --    0.33062   0.33382   0.33666   0.34240   0.34366
 Alpha virt. eigenvalues --    0.34551   0.34824   0.35083   0.35196   0.35597
 Alpha virt. eigenvalues --    0.36118   0.36617   0.37225   0.37469   0.38070
 Alpha virt. eigenvalues --    0.38120   0.38620   0.38771   0.38912   0.39132
 Alpha virt. eigenvalues --    0.39506   0.39573   0.40193   0.41033   0.41449
 Alpha virt. eigenvalues --    0.41519   0.42164   0.42437   0.42757   0.43137
 Alpha virt. eigenvalues --    0.43444   0.43743   0.44512   0.44740   0.44965
 Alpha virt. eigenvalues --    0.45922   0.46222   0.47911   0.48205   0.48427
 Alpha virt. eigenvalues --    0.49337   0.49802   0.50795   0.51333   0.52100
 Alpha virt. eigenvalues --    0.52819   0.53475   0.54061   0.55342   0.55681
 Alpha virt. eigenvalues --    0.57536   0.57984   0.59781   0.60716   0.62135
 Alpha virt. eigenvalues --    0.63317   0.63810   0.65668   0.66772   0.67759
 Alpha virt. eigenvalues --    0.70651   0.73453   0.73990   0.74439   0.74911
 Alpha virt. eigenvalues --    0.76137   0.76159   0.76984   0.78624   0.78849
 Alpha virt. eigenvalues --    0.80234   0.80312   0.80522   0.81512   0.81636
 Alpha virt. eigenvalues --    0.81943   0.81996   0.83223   0.83879   0.84715
 Alpha virt. eigenvalues --    0.85458   0.86720   0.87015   0.87433   0.88119
 Alpha virt. eigenvalues --    0.88812   0.88967   0.90776   0.91711   0.92722
 Alpha virt. eigenvalues --    0.93712   0.94087   0.95355   0.95509   0.97456
 Alpha virt. eigenvalues --    0.99406   1.01386   1.01673   1.02260   1.02928
 Alpha virt. eigenvalues --    1.03484   1.04111   1.04942   1.05475   1.05929
 Alpha virt. eigenvalues --    1.07658   1.07912   1.08343   1.09184   1.10731
 Alpha virt. eigenvalues --    1.11649   1.12088   1.12118   1.13808   1.14252
 Alpha virt. eigenvalues --    1.15958   1.16825   1.17765   1.19615   1.19965
 Alpha virt. eigenvalues --    1.20374   1.21116   1.21761   1.22878   1.23288
 Alpha virt. eigenvalues --    1.25080   1.25699   1.26188   1.27180   1.28519
 Alpha virt. eigenvalues --    1.30476   1.31683   1.32749   1.33485   1.33968
 Alpha virt. eigenvalues --    1.36403   1.37711   1.38674   1.38908   1.41479
 Alpha virt. eigenvalues --    1.42186   1.43816   1.43924   1.45676   1.46525
 Alpha virt. eigenvalues --    1.47373   1.48352   1.50223   1.51485   1.51602
 Alpha virt. eigenvalues --    1.52879   1.53201   1.53725   1.54144   1.55384
 Alpha virt. eigenvalues --    1.55723   1.56866   1.58184   1.61437   1.61661
 Alpha virt. eigenvalues --    1.61802   1.62644   1.63604   1.64569   1.66962
 Alpha virt. eigenvalues --    1.68947   1.69667   1.71239   1.71594   1.72641
 Alpha virt. eigenvalues --    1.72797   1.73625   1.76990   1.77735   1.78850
 Alpha virt. eigenvalues --    1.78904   1.79613   1.80357   1.81582   1.84146
 Alpha virt. eigenvalues --    1.84479   1.85441   1.87572   1.90395   1.90833
 Alpha virt. eigenvalues --    1.90963   1.91189   1.91624   1.92421   1.93076
 Alpha virt. eigenvalues --    1.93520   1.94529   1.94967   1.95418   1.95634
 Alpha virt. eigenvalues --    1.96332   1.97868   1.98862   1.99580   2.00094
 Alpha virt. eigenvalues --    2.00980   2.02300   2.03580   2.03954   2.04305
 Alpha virt. eigenvalues --    2.04687   2.06575   2.07302   2.08808   2.09287
 Alpha virt. eigenvalues --    2.10425   2.10693   2.11454   2.12046   2.12182
 Alpha virt. eigenvalues --    2.13044   2.13090   2.13732   2.15171   2.16943
 Alpha virt. eigenvalues --    2.17183   2.18006   2.18993   2.20737   2.21379
 Alpha virt. eigenvalues --    2.23102   2.24500   2.25144   2.25210   2.26484
 Alpha virt. eigenvalues --    2.29450   2.31515   2.31600   2.33627   2.34169
 Alpha virt. eigenvalues --    2.35019   2.37452   2.37620   2.38022   2.40981
 Alpha virt. eigenvalues --    2.42467   2.42760   2.42959   2.43791   2.45267
 Alpha virt. eigenvalues --    2.45662   2.47632   2.50930   2.54090   2.55389
 Alpha virt. eigenvalues --    2.62453   2.62653   2.63544   2.65492   2.68214
 Alpha virt. eigenvalues --    2.68382   2.69365   2.71545   2.72918   2.76739
 Alpha virt. eigenvalues --    2.79439   2.80163   2.80904   2.81329   2.82494
 Alpha virt. eigenvalues --    2.85733   2.86014   2.86879   2.91563   2.95418
 Alpha virt. eigenvalues --    2.96517   3.02291   3.08440   3.11996   3.14536
 Alpha virt. eigenvalues --    3.17538   3.18854   3.24263   3.27116   3.30057
 Alpha virt. eigenvalues --    3.31569   3.34280   3.38059   3.45319   4.26438
 Alpha virt. eigenvalues --    4.29171   4.30186   4.33923   4.37107   4.42273
 Alpha virt. eigenvalues --    4.43768   4.46203   4.49267   4.49947   4.51712
 Alpha virt. eigenvalues --    4.53035   4.55583   4.60054   4.62923   4.67328
 Alpha virt. eigenvalues --    4.71274   4.79003   4.81548   4.85246   5.55651
 Alpha virt. eigenvalues --    6.15221   6.93988
          Condensed to atoms (all electrons):
               1          2          3          4          5          6
     1  C    5.834916  -0.199864   0.023885  -0.016054  -0.054568  -0.000901
     2  C   -0.199864   6.356816  -0.478300  -0.069042   0.179563   0.023515
     3  C    0.023885  -0.478300   7.090927   0.359959  -0.759094  -0.090956
     4  N   -0.016054  -0.069042   0.359959   7.749704   0.477864  -0.185904
     5  C   -0.054568   0.179563  -0.759094   0.477864   6.897576   0.688344
     6  O   -0.000901   0.023515  -0.090956  -0.185904   0.688344   8.334309
     7  N   -0.004477   0.014443  -0.209782  -0.380722   0.162282  -0.070271
     8  C   -0.008334   0.022177  -0.314973  -0.212458  -0.478968  -0.581853
     9  C   -0.001194  -0.015649  -0.062137   0.046628   0.147299   0.561150
    10  C   -0.002007   0.010686  -0.111529  -0.128827  -1.544035  -0.162675
    11  C    0.000105   0.000678   0.023498  -0.016197   0.671387  -0.005036
    12  C   -0.000003  -0.000042  -0.014386  -0.008584  -0.192343  -0.006739
    13  C   -0.000481  -0.002588  -0.053494   0.023388  -0.565848   0.111893
    14  H    0.449189  -0.125362   0.028725   0.000294  -0.002036   0.000005
    15  H    0.421306  -0.069636  -0.007727   0.000009  -0.000178  -0.000040
    16  H    0.420960  -0.069192  -0.007600   0.000019  -0.000400  -0.000041
    17  H   -0.033336   0.421889  -0.072256   0.005136  -0.006331  -0.000177
    18  H   -0.033327   0.422625  -0.074218   0.005111  -0.004970  -0.000169
    19  H   -0.006841  -0.051854   0.447443  -0.056761  -0.026654   0.001047
    20  H   -0.006241  -0.052492   0.450585  -0.056834  -0.028960   0.001089
    21  H    0.000928   0.002451  -0.059676   0.168857   0.028586   0.004195
    22  H    0.000009   0.000010   0.001855   0.000257   0.007377  -0.000847
    23  H   -0.000000   0.000014   0.000033   0.000832   0.003284   0.000045
    24  H    0.000000   0.000000   0.000021   0.000005   0.002740   0.000000
    25  Cl  -0.000001   0.000005  -0.000109   0.000036  -0.006086   0.000050
    26  C   -0.000164   0.000167  -0.013542   0.003575  -0.211409   0.008486
    27  F    0.000000  -0.000001   0.000282  -0.000003   0.008243  -0.000650
    28  F    0.000000  -0.000001   0.000015   0.000006   0.002130   0.000008
    29  F    0.000000  -0.000001   0.000007   0.000006   0.001694   0.000008
    30  H    0.000228   0.000066   0.008406   0.033624  -0.019942   0.003807
    31  O    0.006460   0.013165  -0.015073  -0.032311   0.000950  -0.000248
    32  O   -0.000086  -0.000959   0.009172   0.008126   0.030758  -0.000016
    33  C   -0.002703  -0.003795  -0.000837  -0.006695  -0.020479  -0.001082
    34  C    0.002972  -0.000842   0.021162  -0.011764  -0.011291  -0.000686
    35  C   -0.000332  -0.000379  -0.001610   0.001883   0.001476   0.000048
    36  H    0.000005   0.000009   0.000025  -0.000041  -0.000055  -0.000000
    37  H    0.000005   0.000010   0.000022  -0.000039  -0.000082  -0.000000
    38  H    0.000000   0.000007  -0.000012   0.000001  -0.000118  -0.000000
    39  H    0.000000   0.000002  -0.000003  -0.000002   0.000010   0.000000
    40  H    0.000000   0.000006  -0.000011   0.000000  -0.000090  -0.000000
               7          8          9         10         11         12
     1  C   -0.004477  -0.008334  -0.001194  -0.002007   0.000105  -0.000003
     2  C    0.014443   0.022177  -0.015649   0.010686   0.000678  -0.000042
     3  C   -0.209782  -0.314973  -0.062137  -0.111529   0.023498  -0.014386
     4  N   -0.380722  -0.212458   0.046628  -0.128827  -0.016197  -0.008584
     5  C    0.162282  -0.478968   0.147299  -1.544035   0.671387  -0.192343
     6  O   -0.070271  -0.581853   0.561150  -0.162675  -0.005036  -0.006739
     7  N    7.888956   0.052195   0.046765  -0.114859   0.062233  -0.005280
     8  C    0.052195  19.748022  -3.868682  -1.082750   1.605898  -1.629473
     9  C    0.046765  -3.868682  15.403552  -6.039103  -0.480610  -3.247495
    10  C   -0.114859  -1.082750  -6.039103  19.810285  -5.755692   0.941667
    11  C    0.062233   1.605898  -0.480610  -5.755692  15.451958  -2.012838
    12  C   -0.005280  -1.629473  -3.247495   0.941667  -2.012838  17.012902
    13  C    0.057469  -5.316825   3.325076  -0.147364  -3.465319  -4.039990
    14  H    0.000008  -0.000040   0.000001  -0.000001   0.000000  -0.000000
    15  H    0.000009  -0.000010  -0.000013  -0.000001   0.000000   0.000000
    16  H    0.000007  -0.000011  -0.000020   0.000000   0.000000   0.000000
    17  H   -0.000210  -0.000614  -0.000218   0.000140   0.000006   0.000001
    18  H   -0.000141  -0.000651  -0.000102   0.000103   0.000004   0.000001
    19  H   -0.000171  -0.000466  -0.001522   0.000326   0.000021   0.000019
    20  H   -0.000167  -0.000683  -0.001912   0.000218   0.000042   0.000013
    21  H    0.031899   0.005716  -0.003918   0.005921   0.000754   0.000379
    22  H   -0.014472   0.013561   0.353708   0.047626  -0.042039  -0.059784
    23  H   -0.003872   0.021210   0.041638   0.203341   0.064486  -0.043099
    24  H    0.000362   0.013185  -0.006940  -0.121582   0.271191   0.041241
    25  Cl  -0.000890   0.022997  -0.002720   0.034845  -0.026751  -0.330217
    26  C    0.015531  -2.331506  -0.394293   0.695978  -0.191326  -0.348327
    27  F   -0.000920   0.171478   0.071197   0.002757   0.018768  -0.014383
    28  F    0.000290   0.045209   0.065057  -0.016866   0.001229  -0.264868
    29  F    0.000272   0.042872   0.061165  -0.014943  -0.000440  -0.263298
    30  H    0.156883   0.023407   0.065147  -0.096425  -0.005269  -0.004837
    31  O    0.017483  -0.014023  -0.010876   0.015141  -0.002358   0.001403
    32  O   -0.005504  -0.165555   0.000537   0.079322   0.059442  -0.001799
    33  C   -0.006453   0.047596  -0.019014   0.006480  -0.033293   0.005101
    34  C   -0.013810  -0.011724  -0.010040  -0.003373   0.005600   0.001296
    35  C    0.002360  -0.012752  -0.000705   0.006550   0.008619  -0.000959
    36  H    0.000076  -0.000551  -0.000056   0.000469   0.000043   0.000001
    37  H    0.000076  -0.000507  -0.000059   0.000442   0.000030   0.000001
    38  H    0.000003  -0.000822  -0.000081   0.000678   0.000017  -0.000005
    39  H    0.000004   0.000099   0.000006  -0.000107  -0.000032   0.000002
    40  H    0.000005  -0.000985  -0.000083   0.000706   0.000188   0.000002
              13         14         15         16         17         18
     1  C   -0.000481   0.449189   0.421306   0.420960  -0.033336  -0.033327
     2  C   -0.002588  -0.125362  -0.069636  -0.069192   0.421889   0.422625
     3  C   -0.053494   0.028725  -0.007727  -0.007600  -0.072256  -0.074218
     4  N    0.023388   0.000294   0.000009   0.000019   0.005136   0.005111
     5  C   -0.565848  -0.002036  -0.000178  -0.000400  -0.006331  -0.004970
     6  O    0.111893   0.000005  -0.000040  -0.000041  -0.000177  -0.000169
     7  N    0.057469   0.000008   0.000009   0.000007  -0.000210  -0.000141
     8  C   -5.316825  -0.000040  -0.000010  -0.000011  -0.000614  -0.000651
     9  C    3.325076   0.000001  -0.000013  -0.000020  -0.000218  -0.000102
    10  C   -0.147364  -0.000001  -0.000001   0.000000   0.000140   0.000103
    11  C   -3.465319   0.000000   0.000000   0.000000   0.000006   0.000004
    12  C   -4.039990  -0.000000   0.000000   0.000000   0.000001   0.000001
    13  C   18.341278  -0.000000   0.000001   0.000000  -0.000011  -0.000007
    14  H   -0.000000   0.499079  -0.025361  -0.025338  -0.003243  -0.003240
    15  H    0.000001  -0.025361   0.504316  -0.029943  -0.004643   0.003891
    16  H    0.000000  -0.025338  -0.029943   0.504241   0.003897  -0.004632
    17  H   -0.000011  -0.003243  -0.004643   0.003897   0.487109  -0.028265
    18  H   -0.000007  -0.003240   0.003891  -0.004632  -0.028265   0.486467
    19  H   -0.000109  -0.000066  -0.000349   0.002974   0.003965  -0.005387
    20  H   -0.000200  -0.000065   0.002986  -0.000355  -0.005392   0.003965
    21  H   -0.001586  -0.000001  -0.000000  -0.000000   0.000604   0.000609
    22  H   -0.016628   0.000000  -0.000000  -0.000000  -0.000000  -0.000000
    23  H    0.006292   0.000000   0.000000   0.000000   0.000000   0.000000
    24  H    0.114209  -0.000000   0.000000   0.000000  -0.000000   0.000000
    25  Cl   0.030446  -0.000000  -0.000000  -0.000000  -0.000000  -0.000000
    26  C   -1.278445  -0.000000  -0.000000  -0.000000  -0.000001  -0.000001
    27  F   -0.265620   0.000000   0.000000  -0.000000  -0.000000  -0.000000
    28  F    0.276674  -0.000000  -0.000000   0.000000  -0.000000   0.000000
    29  F    0.277966  -0.000000   0.000000   0.000000   0.000000  -0.000000
    30  H    0.013061  -0.000000  -0.000000  -0.000000   0.000002   0.000002
    31  O   -0.002117  -0.000019  -0.000005  -0.000005  -0.001111  -0.001111
    32  O    0.003075  -0.000000   0.000000   0.000000  -0.000005  -0.000006
    33  C   -0.003535  -0.000046  -0.000004  -0.000002  -0.000102  -0.000150
    34  C   -0.005173   0.000024  -0.000002  -0.000001   0.000110   0.000056
    35  C    0.000471  -0.000000  -0.000000  -0.000000  -0.000013  -0.000012
    36  H   -0.000005  -0.000000  -0.000000   0.000000  -0.000000  -0.000000
    37  H   -0.000005  -0.000000  -0.000000  -0.000000  -0.000000  -0.000000
    38  H    0.000012   0.000000   0.000000  -0.000000  -0.000000  -0.000000
    39  H    0.000000   0.000000  -0.000000  -0.000000  -0.000000  -0.000000
    40  H    0.000010   0.000000  -0.000000   0.000000  -0.000000  -0.000000
              19         20         21         22         23         24
     1  C   -0.006841  -0.006241   0.000928   0.000009  -0.000000   0.000000
     2  C   -0.051854  -0.052492   0.002451   0.000010   0.000014   0.000000
     3  C    0.447443   0.450585  -0.059676   0.001855   0.000033   0.000021
     4  N   -0.056761  -0.056834   0.168857   0.000257   0.000832   0.000005
     5  C   -0.026654  -0.028960   0.028586   0.007377   0.003284   0.002740
     6  O    0.001047   0.001089   0.004195  -0.000847   0.000045   0.000000
     7  N   -0.000171  -0.000167   0.031899  -0.014472  -0.003872   0.000362
     8  C   -0.000466  -0.000683   0.005716   0.013561   0.021210   0.013185
     9  C   -0.001522  -0.001912  -0.003918   0.353708   0.041638  -0.006940
    10  C    0.000326   0.000218   0.005921   0.047626   0.203341  -0.121582
    11  C    0.000021   0.000042   0.000754  -0.042039   0.064486   0.271191
    12  C    0.000019   0.000013   0.000379  -0.059784  -0.043099   0.041241
    13  C   -0.000109  -0.000200  -0.001586  -0.016628   0.006292   0.114209
    14  H   -0.000066  -0.000065  -0.000001   0.000000   0.000000  -0.000000
    15  H   -0.000349   0.002986  -0.000000  -0.000000   0.000000   0.000000
    16  H    0.002974  -0.000355  -0.000000  -0.000000   0.000000   0.000000
    17  H    0.003965  -0.005392   0.000604  -0.000000   0.000000  -0.000000
    18  H   -0.005387   0.003965   0.000609  -0.000000   0.000000   0.000000
    19  H    0.523322  -0.042412   0.001629  -0.000001  -0.000000  -0.000000
    20  H   -0.042412   0.523616   0.001625  -0.000001   0.000000  -0.000000
    21  H    0.001629   0.001625   0.255876  -0.000000   0.000004   0.000000
    22  H   -0.000001  -0.000001  -0.000000   0.405993  -0.000100   0.000010
    23  H   -0.000000   0.000000   0.000004  -0.000100   0.436016  -0.003939
    24  H   -0.000000  -0.000000   0.000000   0.000010  -0.003939   0.448664
    25  Cl  -0.000000  -0.000000   0.000000   0.000603   0.000662  -0.000962
    26  C   -0.000017  -0.000026  -0.000098  -0.004469   0.005734  -0.001263
    27  F   -0.000000  -0.000000   0.000000   0.009157  -0.000001   0.000012
    28  F   -0.000000   0.000000  -0.000000  -0.000071   0.000001  -0.000001
    29  F    0.000000  -0.000000  -0.000000  -0.000073   0.000001  -0.000001
    30  H    0.000005   0.000005   0.004367  -0.000086   0.004763  -0.000007
    31  O   -0.000048  -0.000049   0.053924   0.000001   0.000001   0.000000
    32  O   -0.000003  -0.000003  -0.000490   0.000005  -0.002152  -0.000002
    33  C    0.000272   0.000269  -0.005313  -0.000015  -0.001186  -0.000021
    34  C    0.000027   0.000028   0.006786  -0.000001   0.001235  -0.000003
    35  C    0.000000   0.000001  -0.001146  -0.000000  -0.000256  -0.000007
    36  H   -0.000000  -0.000000  -0.000001   0.000000  -0.000000  -0.000000
    37  H   -0.000000  -0.000000  -0.000001   0.000000   0.000000  -0.000000
    38  H   -0.000000   0.000000   0.000000   0.000000   0.000000   0.000000
    39  H   -0.000000  -0.000000   0.000000  -0.000000   0.000000   0.000000
    40  H    0.000000  -0.000000   0.000000   0.000000   0.000000   0.000000
              25         26         27         28         29         30
     1  C   -0.000001  -0.000164   0.000000   0.000000   0.000000   0.000228
     2  C    0.000005   0.000167  -0.000001  -0.000001  -0.000001   0.000066
     3  C   -0.000109  -0.013542   0.000282   0.000015   0.000007   0.008406
     4  N    0.000036   0.003575  -0.000003   0.000006   0.000006   0.033624
     5  C   -0.006086  -0.211409   0.008243   0.002130   0.001694  -0.019942
     6  O    0.000050   0.008486  -0.000650   0.000008   0.000008   0.003807
     7  N   -0.000890   0.015531  -0.000920   0.000290   0.000272   0.156883
     8  C    0.022997  -2.331506   0.171478   0.045209   0.042872   0.023407
     9  C   -0.002720  -0.394293   0.071197   0.065057   0.061165   0.065147
    10  C    0.034845   0.695978   0.002757  -0.016866  -0.014943  -0.096425
    11  C   -0.026751  -0.191326   0.018768   0.001229  -0.000440  -0.005269
    12  C   -0.330217  -0.348327  -0.014383  -0.264868  -0.263298  -0.004837
    13  C    0.030446  -1.278445  -0.265620   0.276674   0.277966   0.013061
    14  H   -0.000000  -0.000000   0.000000  -0.000000  -0.000000  -0.000000
    15  H   -0.000000  -0.000000   0.000000  -0.000000   0.000000  -0.000000
    16  H   -0.000000  -0.000000  -0.000000   0.000000   0.000000  -0.000000
    17  H   -0.000000  -0.000001  -0.000000  -0.000000   0.000000   0.000002
    18  H   -0.000000  -0.000001  -0.000000   0.000000  -0.000000   0.000002
    19  H   -0.000000  -0.000017  -0.000000  -0.000000   0.000000   0.000005
    20  H   -0.000000  -0.000026  -0.000000   0.000000  -0.000000   0.000005
    21  H    0.000000  -0.000098   0.000000  -0.000000  -0.000000   0.004367
    22  H    0.000603  -0.004469   0.009157  -0.000071  -0.000073  -0.000086
    23  H    0.000662   0.005734  -0.000001   0.000001   0.000001   0.004763
    24  H   -0.000962  -0.001263   0.000012  -0.000001  -0.000001  -0.000007
    25  Cl  17.085224  -0.020281   0.000104  -0.000226  -0.000088   0.000016
    26  C   -0.020281   8.560207   0.126393   0.019903   0.023283   0.001160
    27  F    0.000104   0.126393   9.278043  -0.036507  -0.036408  -0.000001
    28  F   -0.000226   0.019903  -0.036507   9.231008  -0.051447   0.000000
    29  F   -0.000088   0.023283  -0.036408  -0.051447   9.231004   0.000000
    30  H    0.000016   0.001160  -0.000001   0.000000   0.000000   0.261366
    31  O   -0.000000  -0.000122  -0.000000  -0.000000  -0.000000   0.001576
    32  O   -0.000019   0.000343   0.000000   0.000000   0.000000   0.048692
    33  C   -0.000028  -0.000960   0.000005   0.000001   0.000001  -0.004612
    34  C   -0.000004  -0.000292   0.000000   0.000000   0.000000   0.006789
    35  C    0.000003   0.000056  -0.000000   0.000000   0.000000  -0.000829
    36  H    0.000000  -0.000000  -0.000000  -0.000000  -0.000000  -0.000007
[...]
 201,0.00000729,0.00000887,-0.00003731,0.00005199,0.00002639,-0.0000037
 2,0.00001015,0.00000178,-0.00000354,-0.00000457,-0.00000858,0.00001602
 ,-0.00000865,0.00000689,-0.00000157,0.00000530,0.00001852,-0.00000057,
 -0.00000114,-0.00000989,-0.00001397,0.00000415,0.00001356,0.00000122,0
 .00000073,0.00000045,0.00000099,-0.00000111,-0.00000098,0.00000226,0.0
 0000202,-0.00000678,-0.00000474,0.00001248,-0.00000930,-0.00000913,-0.
 00001010,0.00000947,-0.00000010,-0.00000131,0.00000966,-0.00000290,0.0
 0000373,-0.00001048,0.00007910,-0.00004740,-0.00000162,0.00000102,-0.0
 0000137,0.00001107,0.00000823,-0.00000608,0.00000411,0.00000271,-0.000
 00182,-0.00001700,-0.00000580,0.00000161,0.00001090,0.00004978,-0.0000
 1562,0.00000397,-0.00001531,0.00000411,-0.00000830,-0.00001371,0.00001
 234,-0.00000672,-0.00001530,-0.00000166,0.00000607,0.00003805,-0.00009
 703,0.00119978,-0.00027002,0.00010915,0.00087238,0.00051124,-0.0013002
 0,0.00218885,0.00516090,0.00499961,-0.10391532,-0.08355874,-0.18140356
 ,0.00077904,0.00070388,0.00044675,0.11483222,0.08973006,0.19643481,0.0
 0000354,0.00000530,0.00000088,-0.00000499,-0.00000887,-0.00000156,0.00
 002039,-0.00000288,0.00000936,0.00006902,0.00009220,-0.00000439,-0.000
 20287,-0.00002752,0.00002109,0.00004860,0.00001286,-0.00001366,0.00008
 530,-0.00016944,0.00002197,-0.00003081,-0.00003386,0.00000643,0.000011
 42,0.00000711,0.00000084,0.00001282,0.00001791,-0.00001431,-0.00000529
 ,-0.00000423,-0.00000608,0.00001139,-0.00000166,-0.00000003,-0.0000126
 2,-0.00001402,0.00000070,-0.00000429,-0.00000032,-0.00000075,-0.000002
 16,0.00000072,-0.00000109,-0.00000096,-0.00000013,-0.00000019,0.000004
 62,0.00000203,0.00000182,0.00001104,0.00000489,-0.00000167,-0.00000080
 ,0.00000014,0.00000084,-0.00000271,0.00000249,-0.00000443,-0.00000823,
 -0.00018450,-0.00000593,-0.00000451,-0.00000169,0.00000341,0.00000426,
 0.00002986,0.00001752,0.00000702,0.00000670,0.00000628,-0.00000323,-0.
 00000360,-0.00000003,-0.00000166,0.00002977,0.00001115,0.00000547,-0.0
 0000999,-0.00000107,0.00000051,-0.00000630,-0.00000245,-0.00000424,-0.
 00001063,-0.00000743,-0.00004384,0.00021899,-0.00005621,-0.00013283,0.
 00158125,-0.00091621,0.00059596,-0.00172227,-0.00031138,-0.00295606,-0
 .00098104,0.00154208,-0.10708994,-0.01926384,0.11064398,-0.01465401,-0
 .00460766,0.02663599,0.00868626,0.00362503,-0.01586993,0.11881389,0.00
 000176,0.00000527,-0.00000113,0.00000864,-0.00001424,0.00001372,-0.000
 04340,0.00003280,0.00000300,0.00007976,0.00005967,0.00001968,-0.000299
 04,0.00010520,0.00001316,0.00009024,-0.00014226,0.00000143,0.00003202,
 -0.00061534,0.00022522,0.00024336,0.00002620,0.,-0.00004093,-0.0000365
 0,-0.00000547,-0.00007556,0.00007325,-0.00001200,0.00002538,-0.0000216
 0,0.00000344,0.00000624,-0.00001044,0.00000127,-0.00000625,-0.00001994
 ,0.00000229,0.00000461,0.00000038,0.00000220,-0.00000024,0.00000048,-0
 .00000201,0.00000226,-0.00000513,-0.00000075,-0.00000255,0.00000019,-0
 .00000857,-0.00000824,0.00000622,0.00000318,0.00000908,-0.00001247,-0.
 00000407,0.00000947,-0.00000445,-0.00000022,-0.00005046,-0.00000230,-0
 .00010693,0.00000332,0.00000340,0.00000146,0.00009270,0.00001540,-0.00
 000154,-0.00000888,-0.00000073,0.00000206,-0.00003434,-0.00000925,0.00
 000213,0.00001812,0.00005470,-0.00000171,-0.00000035,-0.00001464,0.000
 00135,-0.00000968,-0.00001452,0.00001078,-0.00001165,-0.00001965,-0.00
 000952,-0.00009888,0.00095751,-0.00042760,0.00084289,0.00015043,-0.003
 61184,-0.00166313,-0.00699446,-0.00258046,-0.01571344,-0.00245176,0.03
 244312,-0.01944225,-0.05188534,0.04081425,0.00742868,0.00160734,-0.013
 13000,0.00753406,0.00238958,-0.01345205,0.01937423,0.05695275,0.000000
 46,-0.00000053,0.00000568,-0.00001118,0.00001028,-0.00003037,0.0000699
 6,-0.00002729,-0.00000004,-0.00007753,0.00003326,0.00000038,0.00019760
 ,-0.00008311,-0.00000754,-0.00005860,0.00009543,-0.00000704,-0.0000317
 2,0.00029366,-0.00004618,-0.00010593,0.00000342,0.00000423,0.00001154,
 0.00001351,-0.00000177,0.00003149,-0.00004513,0.00000339,-0.00001473,0
 .00001145,0.00000460,-0.00002082,0.00000404,-0.00000179,0.00001320,0.0
 0002268,-0.00000200,-0.00001404,-0.00000142,-0.00000531,0.00000140,-0.
 00000523,0.00000466,-0.00000201,0.00000494,0.00000012,0.00000771,0.000
 00343,0.00000242,0.00000912,0.00000379,0.00001316,-0.00001287,0.000010
 39,0.00000517,-0.00001312,0.00000026,-0.00000034,0.00002379,-0.0000612
 6,0.00003249,0.00000130,-0.00000232,-0.00000219,-0.00004377,-0.0000185
 7,-0.00000455,-0.00000157,-0.00000348,-0.00000197,0.00002800,0.0000091
 0,-0.00000193,-0.00001558,-0.00007148,0.00000242,-0.00000457,0.0000211
 6,-0.00000198,0.00000913,0.00001825,-0.00000980,0.00001247,0.00002455,
 0.00001020,0.00002617,-0.00044228,0.00008151,-0.00178529,0.00071646,0.
 00184846,-0.00059137,0.00165624,0.00006829,0.00432259,-0.00254120,-0.0
 0488807,0.10967060,0.03793344,-0.24611947,-0.00210719,-0.00070840,0.00
 311734,0.01122495,0.00447640,-0.02130249,-0.12076235,-0.04080631,0.264
 89165,0.00000194,0.00000015,-0.00000479,0.00000096,-0.00000136,0.00002
 210,0.00000092,0.00000184,0.00000235,0.00001419,0.00006531,-0.00004332
 ,-0.00005857,-0.00000618,0.00002155,0.00001456,0.00001380,-0.00001073,
 -0.00000955,-0.00002939,-0.00001750,0.00003624,0.00001305,0.00000572,-
 0.00000970,-0.00000041,-0.00000362,-0.00001581,-0.00000666,-0.00000475
 ,0.00001215,-0.00000383,-0.00000361,-0.00000687,-0.00000118,0.00000300
 ,0.00000464,0.00000553,-0.00000376,0.00000162,-0.00000038,0.00000286,-
 0.00000266,0.00000500,-0.00000321,0.00000056,-0.00000201,-0.00000022,-
 0.00000211,-0.00000359,-0.00000055,0.00000265,-0.00000228,-0.00001147,
 0.00000013,-0.00000159,-0.00000121,-0.00000088,0.00000713,-0.00000278,
 0.00000234,-0.00010272,0.00003940,0.00000048,0.00000146,0.00000250,0.0
 0002325,-0.00000078,0.00000921,-0.00000830,-0.00000720,0.00000108,0.00
 000008,0.00000162,-0.00000050,-0.00000026,-0.00000845,0.00001353,-0.00
 000221,0.00000375,-0.00000289,0.00000209,0.00000297,-0.00000653,-0.000
 00089,0.00000132,-0.00000329,0.00000619,0.00004453,0.00001185,0.000551
 39,0.00039322,-0.00044351,0.00146010,-0.00013812,-0.00052117,-0.001039
 14,-0.00183919,0.00077447,-0.01527853,-0.00423596,0.02817638,-0.107358
 60,-0.01901039,0.11134592,0.00101512,-0.00085239,-0.00014921,-0.005418
 27,0.00310048,-0.00086501,0.11856741,0.00000070,-0.00000210,-0.0000004
 4,-0.00000337,0.00000559,0.00000125,0.00003683,-0.00001655,0.00000037,
 -0.00004643,0.00002275,-0.00000041,0.00012038,-0.00007228,0.00000487,-
 0.00003526,0.00007322,-0.00001081,-0.00001568,0.00018601,-0.00003323,-
 0.00004457,0.00001685,-0.00000581,-0.00000450,0.00000651,0.00000121,0.
 00000527,-0.00004859,0.00002180,-0.00001378,0.00001515,0.00000347,-0.0
 0002821,0.00000279,-0.00000374,0.00001924,0.00002515,-0.00000245,-0.00
 000506,-0.00000093,-0.00000005,-0.00000058,0.00000128,-0.00000027,-0.0
 0000092,0.00000141,0.00000018,0.00000332,-0.00000021,0.00000185,0.0000
 0453,-0.00000107,-0.00000200,-0.00000808,0.00000599,0.00000253,-0.0000
 0558,0.00000463,-0.00000191,0.00002163,-0.00006673,0.00001336,0.000002
 00,0.00000027,-0.00000106,-0.00002891,-0.00005270,-0.00002460,-0.00000
 707,-0.00000619,-0.00000150,0.00003082,0.00001018,-0.00000252,-0.00002
 093,-0.00006636,0.00001124,-0.00000253,0.00001852,-0.00000345,0.000011
 76,0.00001755,-0.00001412,0.00001237,0.00002219,0.00000734,-0.00000639
 ,-0.00030698,0.00005812,-0.00065750,0.00007790,0.00017451,-0.00095002,
 -0.00039578,0.00047970,0.00123780,0.00042345,-0.00100048,0.00620972,0.
 00189155,-0.01255200,-0.01990105,-0.05305952,0.03537587,-0.00069148,0.
 00039219,0.00028595,0.00275745,-0.00085464,0.00011299,0.01966794,0.053
 66693,-0.00000290,-0.00000259,0.00000105,-0.00000120,0.00000933,-0.000
 00833,0.00001062,-0.00000605,-0.00000141,-0.00007291,-0.00008012,0.000
 02964,0.00016373,-0.00001055,-0.00000977,-0.00004201,-0.00000274,0.000
 00709,-0.00011382,0.00002702,0.00001138,0.00011401,0.00005810,-0.00002
 226,-0.00003667,-0.00001605,0.00000635,-0.00004331,-0.00001588,0.00002
 546,0.00001569,0.00000071,0.00000753,-0.00002968,0.00000068,-0.0000001
 7,0.00002523,0.00002515,-0.00000439,-0.00000293,0.00000026,-0.00000116
 ,0.00000174,-0.00000248,0.00000312,0.00000046,0.00000070,-0.00000100,0
 .00000063,0.00000136,-0.00000186,-0.00000104,-0.00000116,0.00000652,-0
 .00000473,0.00000253,0.00000019,-0.00000134,-0.00000241,0.00000279,0.0
 0001014,0.00008752,-0.00003185,0.00000809,0.00000353,-0.00000334,0.000
 02268,-0.00008023,-0.00002057,-0.00002041,-0.00001521,-0.00000657,0.00
 000772,0.00000688,-0.00000064,-0.00000102,-0.00006141,-0.00000349,-0.0
 0001056,0.00002079,-0.00000130,0.00000267,0.00001449,-0.00000319,0.000
 00722,0.00001997,0.00000870,-0.00000378,-0.00004109,-0.00001369,-0.000
 46290,-0.00060898,0.00006783,-0.00139256,0.00048390,0.00045290,0.00167
 410,0.00165636,-0.00026535,-0.00139826,-0.00094794,0.00239087,0.112338
 39,0.03347008,-0.25626353,0.00040820,-0.00031833,0.00075846,-0.0005079
 9,0.00044983,0.00151945,-0.12272525,-0.03896802,0.27529229,0.00000848,
 0.00000427,-0.00000482,-0.00001011,-0.00000708,0.00001421,0.00007186,-
 0.00001589,-0.00000852,0.00009261,0.00037831,-0.00008623,-0.00027295,-
 0.00008811,0.00001717,0.00006348,0.00012171,-0.00002179,0.00014815,0.0
 0004879,-0.00001268,-0.00016111,-0.00006352,0.00001552,0.00003899,0.00
 003082,-0.00000665,0.00005154,0.00000253,-0.00000212,-0.00000809,-0.00
 000047,0.00000006,0.00001775,0.00000210,-0.00000039,-0.00001753,-0.000
 01136,0.00000217,-0.00000701,-0.00000216,0.00000002,-0.00000573,0.0000
 0561,-0.00000307,-0.00000367,0.00000421,0.00000230,0.00000660,-0.00000
 301,0.00001227,0.00001794,-0.00000513,-0.00001962,-0.00001047,0.000012
 20,0.00000550,-0.00001386,0.00001635,-0.00000732,-0.00000286,-0.000554
 43,0.00013681,-0.00000978,-0.00000582,0.00000133,-0.00003352,0.0000355
 2,-0.00000666,0.00001299,0.00000549,-0.00000138,0.00000572,-0.00000100
 ,0.00000015,-0.00000586,0.00001037,-0.00000183,0.00000539,-0.00000440,
 0.00000078,0.00000071,-0.00000223,-0.00000017,0.00000068,-0.00000205,0
 .00000088,-0.00001899,-0.00009995,0.00002162,-0.00128941,0.00371355,-0
 .00056106,0.00209418,-0.00004538,-0.00006729,-0.00666459,-0.00331890,0
 .00091775,0.00280366,0.03350346,-0.00610855,-0.04913684,-0.01571190,0.
 00258802,0.00120004,-0.00079730,-0.00029554,0.00120909,-0.00068698,0.0
 0045850,-0.00148347,-0.01517455,0.00074516,0.05263616,-0.00001154,-0.0
 0000148,0.00000482,0.00001164,0.00000385,-0.00001463,-0.00012454,0.000
 04612,0.00000560,-0.00000506,-0.00036475,0.00008143,0.00005588,0.00024
 840,-0.00004478,0.00000198,-0.00026088,0.00004858,-0.00013655,-0.00035
 822,0.00007437,0.00024906,0.00003433,-0.00000937,-0.00003262,-0.000044
 63,0.00000836,-0.00006863,0.00007776,-0.00001239,0.00003130,-0.0000187
 7,0.00000445,0.00004525,-0.00000492,0.00000029,-0.00001724,-0.00003662
 ,0.00000759,0.00001298,0.00000542,-0.00000013,0.00000773,-0.00000953,0
 .00000656,0.00000558,-0.00000802,-0.00000533,-0.00000988,0.00000291,-0
 .00001876,-0.00002446,0.00000690,0.00002704,0.00002108,-0.00002154,-0.
 00001209,0.00002014,-0.00002468,0.00001278,-0.00006427,0.00061152,-0.0
 0014236,0.00000672,0.00000628,-0.00000149,0.00007563,0.00005837,-0.000
 01747,0.00000270,0.00000643,-0.00000210,-0.00006914,-0.00001925,0.0000
 0495,0.00005235,0.00012899,-0.00002692,-0.00000121,-0.00003454,0.00000
 704,-0.00002642,-0.00003530,0.00003143,-0.00002671,-0.00004456,-0.0000
 1457,0.00004505,0.00063558,-0.00012934,0.00188080,-0.00234657,0.000294
 18,0.00083937,-0.00118144,0.00027633,0.00060428,0.00268307,-0.00033599
 ,-0.00300339,-0.01161690,0.00202264,-0.01516979,-0.30401754,0.04529051
 ,0.00019774,0.00052135,0.00040014,0.00009730,0.00024398,-0.00053977,-0
 .00054000,-0.00356282,0.00059289,0.01565617,0.33147410,0.00000167,0.00
 000029,-0.00000102,-0.00000177,0.,0.00000524,0.00001887,-0.00000660,0.
 00000003,-0.00000321,0.00004688,-0.00000758,0.00000187,-0.00004026,0.0
 0000329,-0.00000311,0.00004036,-0.00000654,0.00001930,0.00006583,0.000
 00041,-0.00003860,-0.00000540,-0.00000610,0.00000486,0.00000701,0.0000
 0113,0.00001062,-0.00001077,0.00001827,-0.00000561,0.00000450,0.000004
 88,-0.00000792,0.00000061,-0.00000156,0.00000329,0.00000644,-0.0000011
 1,-0.00000233,-0.00000079,0.00000092,-0.00000101,0.00000197,-0.0000013
 6,-0.00000076,0.00000019,0.00000035,0.00000208,0.00000004,0.00000091,0
 .00000325,-0.00000066,-0.00000375,-0.00000368,0.00000257,0.00000160,-0
 .00000279,0.00000367,-0.00000212,0.00001189,-0.00008159,0.00001734,-0.
 00000087,-0.00000102,-0.00000029,-0.00001338,-0.00001642,-0.00003247,-
 0.00000058,-0.00000189,-0.00000393,0.00001152,0.00000327,-0.00000071,-
 0.00000866,-0.00002197,0.00000305,0.00000011,0.00000584,-0.00000101,0.
 00000426,0.00000597,-0.00000479,0.00000461,0.00000760,0.00000285,-0.00
 000774,-0.00011174,0.00000915,-0.00028441,0.00023922,0.00000451,-0.000
 25956,0.00036453,0.00059392,0.00028343,-0.00016301,0.00062983,0.000386
 69,0.00026932,-0.00112692,0.00247614,0.04536811,-0.05857694,0.00008719
 ,0.00028223,-0.00011313,-0.00025138,-0.00033798,0.00015811,0.00044890,
 0.02891748,-0.00355169,-0.00286670,-0.05070876,0.05650211,0.00000375,0
 .00000110,0.00000085,0.00000035,-0.00000594,-0.00000769,0.00000183,-0.
 00000434,-0.00001067,0.00002559,0.00009061,0.00000909,-0.00008025,-0.0
 0002697,-0.00001247,0.00001865,0.00002792,0.00000356,0.00001087,-0.000
 00918,0.00002418,0.00001185,0.00000326,-0.00000526,-0.00000421,0.00000
 530,0.00000107,-0.00000877,-0.00000586,0.00000781,0.00000974,-0.000001
 42,0.00000668,-0.00000615,-0.00000194,-0.00000165,0.00000257,0.0000053
 9,0.00000088,0.00000338,-0.00000099,-0.00000108,-0.00000141,0.00000126
 ,-0.00000157,-0.00000342,0.00000541,0.00000358,0.00000106,-0.00000201,
 0.00001509,0.00000159,-0.00000726,-0.00000971,-0.00000076,0.00000876,0
 .00000395,-0.00000049,0.00000296,-0.00000033,0.00000269,-0.00011793,0.
 00001135,-0.00000079,-0.00000046,-0.00000291,0.00001837,-0.00000070,-0
 .00001640,-0.00000640,-0.00000683,-0.00000037,0.00000266,0.00000205,-0
 .00000017,-0.00000343,-0.00001376,-0.00001062,-0.00000081,0.00000423,0
 .00000162,-0.00000018,0.00000268,0.00000269,0.00000338,0.00000603,0.00
 000596,0.00000383,0.00001839,-0.00002381,0.00055209,0.00055929,0.00020
 914,0.00152828,0.00024937,0.00067833,-0.00110225,-0.00211902,0.0000779
 6,-0.01737556,-0.01318402,-0.02345111,-0.12762797,-0.06305799,-0.10701
 444,-0.00538148,0.00330339,0.00035425,0.00098372,-0.00071109,0.0004192
 7,0.00897679,0.00751071,0.01131880,-0.00133019,-0.00058926,-0.00001649
 ,0.14077153,0.00000153,-0.00000147,-0.00000150,-0.00000257,0.00000195,
 0.00000246,0.00003274,-0.00001488,-0.00000062,-0.00002127,0.00005235,-
 0.00001228,0.00006196,-0.00006352,0.00001391,-0.00001976,0.00007188,-0
 .00001347,0.00002291,0.00017409,-0.00003012,-0.00007923,-0.00000059,0.
 00000120,0.00000756,0.00001105,-0.00000366,0.00001846,-0.00004514,0.00
 000281,-0.00001894,0.00001394,-0.00000514,-0.00001781,0.00000339,0.000
 00221,0.00001051,0.00001561,-0.00000515,-0.00000361,-0.00000092,-0.000
 00038,-0.00000129,0.00000141,-0.00000078,-0.00000084,0.00000192,0.0000
 0117,0.00000179,0.,0.00000270,0.00000500,-0.00000106,-0.00000369,-0.00
 000603,0.00000536,0.00000293,-0.00000552,0.00000500,-0.00000257,0.0000
 1763,-0.00009955,0.00001976,-0.00000074,-0.00000073,0.00000032,-0.0000
 3531,-0.00001782,0.00002499,-0.00000026,-0.00000107,-0.00000008,0.0000
 2773,0.00000776,-0.00000167,-0.00002032,-0.00004549,0.00000638,0.00000
 107,0.00001146,-0.00000166,0.00000963,0.00001219,-0.00000993,0.0000108
 5,0.00001627,0.00000674,-0.00000702,-0.00029244,0.00004919,-0.00048814
 ,0.00023609,-0.00018525,-0.00028192,-0.00083128,-0.00065865,0.00074657
 ,0.00017852,0.00078524,0.00768670,0.00637310,0.01095679,-0.06432000,-0
 .09700957,-0.08503926,0.00290573,-0.00084105,0.00046880,-0.00081178,0.
 00044490,-0.00012137,0.00346499,0.00162539,0.00424914,-0.01694982,-0.0
 1278238,-0.02413506,0.06805884,0.10278532,0.00000281,0.00000340,0.0000
 0073,0.00000188,-0.00001235,-0.00000384,-0.00002223,0.00000925,-0.0000
 0672,0.00008531,0.00006960,0.00000481,-0.00019406,0.00002818,-0.000015
 55,0.00005103,-0.00001971,0.00001025,0.00011758,-0.00007873,0.00002822
 ,-0.00010029,-0.00006585,0.00001029,0.00003852,0.00001444,-0.00000190,
 0.00004220,0.00003994,0.00000893,-0.00001192,-0.00000196,0.00000917,0.
 00003891,-0.00000199,-0.00000133,-0.00003134,-0.00003284,0.00000836,0.
 00000482,0.00000011,-0.00000023,-0.00000053,-0.00000018,-0.00000152,-0
 .00000157,0.00000146,0.00000233,-0.00000021,0.00000111,0.00000563,-0.0
 0000161,-0.00000055,-0.00000287,0.00000568,-0.00000023,0.00000140,0.00
 000403,-0.00000212,-0.00000007,-0.00001684,-0.00005340,0.00000139,-0.0
 0000866,-0.00000469,-0.00000150,-0.00001564,0.00008171,-0.00005416,0.0
 0002288,0.00001416,-0.00001156,-0.00001776,-0.00000985,0.00000306,0.00
 000763,0.00007692,-0.00002941,0.00001141,-0.00002579,0.00000743,-0.000
 01055,-0.00002069,0.00001986,-0.00000688,-0.00002210,-0.00000028,0.000
 00334,0.00012898,-0.00004900,0.00059283,0.00049504,-0.00018286,0.00181
 004,-0.00063344,0.00068258,-0.00191348,-0.00156018,0.00025657,0.000587
 37,0.00073470,0.00015383,-0.10754226,-0.08335951,-0.19179675,0.0001305
 0,0.00009600,0.00143847,-0.00018381,0.00048656,0.00066110,-0.01605196,
 -0.01284522,-0.02037605,0.00514217,0.00283427,0.00548514,0.11743066,0.
 09363555,0.20373603\\-0.00000063,-0.00000397,-0.00000061,0.00000309,-0
 .00000801,-0.00000099,0.00000088,-0.00000005,-0.00000057,-0.00000271,0
 .00000907,-0.00000211,-0.00000649,-0.00000178,-0.00000247,-0.00000227,
 -0.00000159,-0.00000342,0.00000958,0.00000847,-0.00000107,-0.00000440,
 -0.00000070,-0.00000518,-0.00000269,-0.00000090,-0.00000163,-0.0000020
 4,0.00000383,0.00000132,0.00000087,0.00000394,-0.00000109,-0.00000220,
 0.00000330,-0.00000149,-0.00000292,0.00000379,-0.00000325,0.00000013,-
 0.00000684,-0.00000097,-0.00000106,-0.00000754,-0.00000292,-0.00000125
 ,-0.00000504,-0.00000239,-0.00000050,-0.00000383,-0.00000123,-0.000000
 27,-0.00000222,0.00000252,-0.00000124,-0.00000323,-0.00000178,-0.00000
 166,-0.00000616,-0.00000394,-0.00000172,-0.00000766,0.00000054,-0.0000
 0205,0.00000107,-0.00000400,0.00000152,0.00000276,0.00000169,0.0000000
 7,0.00000454,0.00000113,-0.00000188,0.00000515,-0.00000212,-0.00000407
 ,0.00000368,-0.00000489,-0.00000440,0.00000106,-0.00000587,-0.00000335
 ,0.00000144,-0.00000531,-0.00000491,0.00000432,-0.00000629,0.00000096,
 -0.00000746,0.00000490,0.00000998,-0.00000199,0.00000429,0.00000257,0.
 00000696,0.00000201,-0.00000459,-0.00000349,-0.00000083,-0.00000085,0.
 00000035,0.00000493,0.00000673,0.00000230,0.00000690,0.00000567,0.0000
 0013,0.00000561,0.00000611,-0.00000076,0.00000885,0.00000365,0.0000009
 3,0.00000742,0.00000563,0.00000198,0.00000809,0.00000271,0.00000416,0.
 00000623\\\@


 I SUPPOSE A BABY LLAMA HAS A MMAMA AND A PPOPA.
     -- RICHARD AMOUR
 Job cpu time:       0 days  6 hours 48 minutes  9.3 seconds.
 File lengths (MBytes):  RWF=   1150 Int=      0 D2E=      0 Chk=     32 Scr=      1
 Normal termination of Gaussian 09 at Wed Feb 27 14:03:13 2019.
WARNING: pbs_rusage is deprecated and values produced may not be accurate


=============================================================================
                                     Resource usage:
                                       CPU time:              33:57:46
   JobId:    6207914.r-man2            Elapsed time:          04:15:58
   Project:             q95            Requested time:        46:00:00
   Service Units:     34.13 
                                       Max physical memory:     1573MB
                                       Max virtual memory:      3899MB
                                       Requested memory:           0MB

                                       Number of cpus:               8

                                       Max jobfs disk use:       2.0GB
                                       Requested jobfs:         20.0GB
=============================================================================

