 Entering Gaussian System, Link 0=/apps/gaussian/g09e01/g09/g09
 AtFile(1): /home/507/hio507/Basis/6-31pGd.gbs
 Initial command:
 /apps/gaussian/g09e01/g09/l1.exe "/jobfs/local/6221627.r-man2/Gau-6469.inp" -scrdir="/jobfs/local/6221627.r-man2/"
 Entering Link 1 = /apps/gaussian/g09e01/g09/l1.exe PID=      6470.
  
 Copyright (c) 1988,1990,1992,1993,1995,1998,2003,2009,2015,
            Gaussian, Inc.  All Rights Reserved.
  
 This is part of the Gaussian(R) 09 program.  It is based on
 the Gaussian(R) 03 system (copyright 2003, Gaussian, Inc.),
 the Gaussian(R) 98 system (copyright 1998, Gaussian, Inc.),
 the Gaussian(R) 94 system (copyright 1995, Gaussian, Inc.),
 the Gaussian 92(TM) system (copyright 1992, Gaussian, Inc.),
 the Gaussian 90(TM) system (copyright 1990, Gaussian, Inc.),
 the Gaussian 88(TM) system (copyright 1988, Gaussian, Inc.),
 the Gaussian 86(TM) system (copyright 1986, Carnegie Mellon
 University), and the Gaussian 82(TM) system (copyright 1983,
 Carnegie Mellon University). Gaussian is a federally registered
 trademark of Gaussian, Inc.
  
 This software contains proprietary and confidential information,
 including trade secrets, belonging to Gaussian, Inc.
  
 This software is provided under written license and may be
 used, copied, transmitted, or stored only in accord with that
 written license.
  
 The following legend is applicable only to US Government
 contracts under FAR:
  
                    RESTRICTED RIGHTS LEGEND
  
 Use, reproduction and disclosure by the US Government is
 subject to restrictions as set forth in subparagraphs (a)
 and (c) of the Commercial Computer Software - Restricted
 Rights clause in FAR 52.227-19.
  
 Gaussian, Inc.
 340 Quinnipiac St., Bldg. 40, Wallingford CT 06492
  
  
 ---------------------------------------------------------------
 Warning -- This program may not be used in any manner that
 competes with the business of Gaussian, Inc. or will provide
 assistance to any competitor of Gaussian, Inc.  The licensee
 of this program is prohibited from giving any competitor of
 Gaussian, Inc. access to this program.  By using this program,
 the user acknowledges that Gaussian, Inc. is engaged in the
 business of creating and licensing software in the field of
 computational chemistry and represents and warrants to the
 licensee that it is not a competitor of Gaussian, Inc. and that
 it will not use this program in any manner prohibited above.
 ---------------------------------------------------------------
  

 Cite this work as:
 Gaussian 09, Revision E.01,
 M. J. Frisch, G. W. Trucks, H. B. Schlegel, G. E. Scuseria, 
 M. A. Robb, J. R. Cheeseman, G. Scalmani, V. Barone, B. Mennucci, 
 G. A. Petersson, H. Nakatsuji, M. Caricato, X. Li, H. P. Hratchian, 
 A. F. Izmaylov, J. Bloino, G. Zheng, J. L. Sonnenberg, M. Hada, 
 M. Ehara, K. Toyota, R. Fukuda, J. Hasegawa, M. Ishida, T. Nakajima, 
 Y. Honda, O. Kitao, H. Nakai, T. Vreven, J. A. Montgomery, Jr., 
 J. E. Peralta, F. Ogliaro, M. Bearpark, J. J. Heyd, E. Brothers, 
 K. N. Kudin, V. N. Staroverov, T. Keith, R. Kobayashi, J. Normand, 
 K. Raghavachari, A. Rendell, J. C. Burant, S. S. Iyengar, J. Tomasi, 
 M. Cossi, N. Rega, J. M. Millam, M. Klene, J. E. Knox, J. B. Cross, 
 V. Bakken, C. Adamo, J. Jaramillo, R. Gomperts, R. E. Stratmann, 
 O. Yazyev, A. J. Austin, R. Cammi, C. Pomelli, J. W. Ochterski, 
 R. L. Martin, K. Morokuma, V. G. Zakrzewski, G. A. Voth, 
 P. Salvador, J. J. Dannenberg, S. Dapprich, A. D. Daniels, 
 O. Farkas, J. B. Foresman, J. V. Ortiz, J. Cioslowski, 
 and D. J. Fox, Gaussian, Inc., Wallingford CT, 2013.
 
 ******************************************
 Gaussian 09:  ES64L-G09RevE.01 30-Nov-2015
                27-Feb-2019 
 ******************************************
 %chk=3TFM4Chloro_EtO.M062X_6-31pGd_opt.chk
 %mem=196608000
 %nproc=8
 Will use up to    8 processors via shared memory.
 ----------------------------------------------------------------------
 # M062X/Gen 6D SCF=Tight INT(grid=ultrafine) OPT=CalcFC IOP(2/17=4) ma
 xdisk=2684354560
 ----------------------------------------------------------------------
 1/10=4,14=-1,18=20,19=15,26=4,38=1/1,3;
 2/9=110,12=2,17=4,18=5,40=1/2;
 3/5=7,8=2,11=2,16=1,25=1,30=1,71=2,74=-55,75=-5,140=1/1,2,3;
 4//1;
 5/5=2,32=2,38=5/2;
 8/6=4,10=90,11=11/1;
 11/6=1,8=1,9=11,15=111,16=1/1,2,10;
 10/6=1,13=1/2;
 6/7=2,8=2,9=2,10=2,28=1/1;
 7/10=1,18=20,25=1/1,2,3,16;
 1/10=4,14=-1,18=20,19=15,26=4/3(2);
 2/9=110,17=4/2;
 99//99;
 2/9=110,17=4/2;
 3/5=7,6=1,8=2,11=2,16=1,25=1,30=1,71=1,74=-55,75=-5,82=7/1,2,3;
 4/5=5,16=3,69=1/1;
 5/5=2,32=2,38=5/2;
 7//1,2,3,16;
 1/14=-1,18=20,19=15,26=4/3(-5);
 2/9=110,17=4/2;
 6/7=2,8=2,9=2,10=2,19=2,28=1/1;
 99/9=1/99;
 ---------------------------------
 3TFM4Chloro_EtO.M062X_6-31pGd_opt
 ---------------------------------
 Symbolic Z-matrix:
 Charge = -1 Multiplicity = 1
 C                    -1.94063   2.2411   -0.1175 
 C                    -0.53887   1.64067  -0.06257 
 C                     0.53564   2.72155  -0.07103 
 N                     1.84973   2.11731  -0.00723 
 C                     2.9599    2.87479  -0.15975 
 O                     2.9248    4.08818  -0.38969 
 N                     4.13498   2.14872  -0.0372 
 C                     5.42835   2.62213  -0.14659 
 C                     5.77399   3.95776  -0.41609 
 C                     6.4655    1.68445   0.0251 
 C                     7.79413   2.06634  -0.06741 
 C                     8.12906   3.3905   -0.33403 
 C                     7.11417   4.3322   -0.50775 
 H                    -2.70768   1.45972  -0.11383 
 H                    -2.07865   2.84124  -1.02474 
 H                    -2.12511   2.89376   0.74398 
 H                    -0.37845   0.97153  -0.91667 
 H                    -0.42458   1.0246    0.83724 
 H                     0.3851    3.40652   0.77703 
 H                     0.45729   3.32906  -0.98173 
 H                     1.9247    1.11334   0.23478 
 H                     4.99176   4.69107  -0.55166 
 H                     6.20369   0.64968   0.23263 
 H                     8.58267   1.33265   0.06758 
 Cl                    9.82272   3.82012  -0.44067 
 C                     7.44334   5.77173  -0.79812 
 F                     6.34504   6.5315   -0.93764 
 F                     8.15307   5.91725  -1.93642 
 F                     8.17613   6.33951   0.18231 
 H                     4.05816   1.12948   0.16072 
 O                     1.97306  -0.63549   0.64164 
 O                     4.20937  -0.58054   0.48541 
 C                     3.11006  -1.17345   0.66288 
 C                     3.14119  -2.68578   0.92564 
 C                     4.53357  -3.30061   0.97005 
 H                     2.53135  -3.15752   0.14493 
 H                     2.60564  -2.85948   1.8671 
 H                     5.05979  -3.1453    0.02346 
 H                     4.48096  -4.37911   1.16196 
 H                     5.13959  -2.84114   1.75689 
 
 Add virtual bond connecting atoms O31        and H21        Dist= 3.39D+00.
 Add virtual bond connecting atoms O32        and H30        Dist= 3.30D+00.

 GradGradGradGradGradGradGradGradGradGradGradGradGradGradGradGradGradGrad
 Berny optimization.
 Initialization pass.
                           ----------------------------
                           !    Initial Parameters    !
                           ! (Angstroms and Degrees)  !
 --------------------------                            --------------------------
 ! Name  Definition              Value          Derivative Info.                !
 --------------------------------------------------------------------------------
 ! R1    R(1,2)                  1.5259         calculate D2E/DX2 analytically  !
 ! R2    R(1,14)                 1.095          calculate D2E/DX2 analytically  !
 ! R3    R(1,15)                 1.0965         calculate D2E/DX2 analytically  !
 ! R4    R(1,16)                 1.0964         calculate D2E/DX2 analytically  !
 ! R5    R(2,3)                  1.5241         calculate D2E/DX2 analytically  !
 ! R6    R(2,17)                 1.0968         calculate D2E/DX2 analytically  !
 ! R7    R(2,18)                 1.0965         calculate D2E/DX2 analytically  !
 ! R8    R(3,4)                  1.4478         calculate D2E/DX2 analytically  !
 ! R9    R(3,19)                 1.1005         calculate D2E/DX2 analytically  !
 ! R10   R(3,20)                 1.0975         calculate D2E/DX2 analytically  !
 ! R11   R(4,5)                  1.3526         calculate D2E/DX2 analytically  !
 ! R12   R(4,21)                 1.0354         calculate D2E/DX2 analytically  !
 ! R13   R(5,6)                  1.2355         calculate D2E/DX2 analytically  !
 ! R14   R(5,7)                  1.3867         calculate D2E/DX2 analytically  !
 ! R15   R(7,8)                  1.3816         calculate D2E/DX2 analytically  !
 ! R16   R(7,30)                 1.0411         calculate D2E/DX2 analytically  !
 ! R17   R(8,9)                  1.4057         calculate D2E/DX2 analytically  !
 ! R18   R(8,10)                 1.4087         calculate D2E/DX2 analytically  !
 ! R19   R(9,13)                 1.3945         calculate D2E/DX2 analytically  !
 ! R20   R(9,22)                 1.0807         calculate D2E/DX2 analytically  !
 ! R21   R(10,11)                1.3855         calculate D2E/DX2 analytically  !
 ! R22   R(10,23)                1.0874         calculate D2E/DX2 analytically  !
 ! R23   R(11,12)                1.3916         calculate D2E/DX2 analytically  !
 ! R24   R(11,24)                1.0855         calculate D2E/DX2 analytically  !
 ! R25   R(12,13)                1.3954         calculate D2E/DX2 analytically  !
 ! R26   R(12,25)                1.7506         calculate D2E/DX2 analytically  !
 ! R27   R(13,26)                1.505          calculate D2E/DX2 analytically  !
 ! R28   R(21,31)                1.7962         calculate D2E/DX2 analytically  !
 ! R29   R(26,27)                1.3427         calculate D2E/DX2 analytically  !
 ! R30   R(26,28)                1.3493         calculate D2E/DX2 analytically  !
 ! R31   R(26,29)                1.3493         calculate D2E/DX2 analytically  !
 ! R32   R(30,32)                1.7471         calculate D2E/DX2 analytically  !
 ! R33   R(31,33)                1.258          calculate D2E/DX2 analytically  !
 ! R34   R(32,33)                1.2616         calculate D2E/DX2 analytically  !
 ! R35   R(33,34)                1.5353         calculate D2E/DX2 analytically  !
 ! R36   R(34,35)                1.5227         calculate D2E/DX2 analytically  !
 ! R37   R(34,36)                1.0972         calculate D2E/DX2 analytically  !
 ! R38   R(34,37)                1.097          calculate D2E/DX2 analytically  !
 ! R39   R(35,38)                1.0941         calculate D2E/DX2 analytically  !
 ! R40   R(35,39)                1.0967         calculate D2E/DX2 analytically  !
 ! R41   R(35,40)                1.0943         calculate D2E/DX2 analytically  !
 ! A1    A(2,1,14)             111.2604         calculate D2E/DX2 analytically  !
 ! A2    A(2,1,15)             111.1477         calculate D2E/DX2 analytically  !
 ! A3    A(2,1,16)             111.1312         calculate D2E/DX2 analytically  !
 ! A4    A(14,1,15)            107.7685         calculate D2E/DX2 analytically  !
 ! A5    A(14,1,16)            107.7158         calculate D2E/DX2 analytically  !
 ! A6    A(15,1,16)            107.6453         calculate D2E/DX2 analytically  !
 ! A7    A(1,2,3)              111.6158         calculate D2E/DX2 analytically  !
 ! A8    A(1,2,17)             110.2662         calculate D2E/DX2 analytically  !
 ! A9    A(1,2,18)             110.2657         calculate D2E/DX2 analytically  !
 ! A10   A(3,2,17)             108.9792         calculate D2E/DX2 analytically  !
 ! A11   A(3,2,18)             109.2406         calculate D2E/DX2 analytically  !
 ! A12   A(17,2,18)            106.3213         calculate D2E/DX2 analytically  !
 ! A13   A(2,3,4)              110.101          calculate D2E/DX2 analytically  !
 ! A14   A(2,3,19)             109.9193         calculate D2E/DX2 analytically  !
 ! A15   A(2,3,20)             110.2929         calculate D2E/DX2 analytically  !
 ! A16   A(4,3,19)             110.4869         calculate D2E/DX2 analytically  !
 ! A17   A(4,3,20)             109.4136         calculate D2E/DX2 analytically  !
 ! A18   A(19,3,20)            106.5678         calculate D2E/DX2 analytically  !
 ! A19   A(3,4,5)              120.4172         calculate D2E/DX2 analytically  !
 ! A20   A(3,4,21)             118.7312         calculate D2E/DX2 analytically  !
 ! A21   A(5,4,21)             120.6581         calculate D2E/DX2 analytically  !
 ! A22   A(4,5,6)              123.2073         calculate D2E/DX2 analytically  !
 ! A23   A(4,5,7)              113.0993         calculate D2E/DX2 analytically  !
 ! A24   A(6,5,7)              123.6928         calculate D2E/DX2 analytically  !
 ! A25   A(5,7,8)              127.362          calculate D2E/DX2 analytically  !
 ! A26   A(5,7,30)             117.8306         calculate D2E/DX2 analytically  !
 ! A27   A(8,7,30)             114.8074         calculate D2E/DX2 analytically  !
 ! A28   A(7,8,9)              124.8146         calculate D2E/DX2 analytically  !
 ! A29   A(7,8,10)             116.8395         calculate D2E/DX2 analytically  !
 ! A30   A(9,8,10)             118.3458         calculate D2E/DX2 analytically  !
 ! A31   A(8,9,13)             120.2671         calculate D2E/DX2 analytically  !
 ! A32   A(8,9,22)             119.3919         calculate D2E/DX2 analytically  !
 ! A33   A(13,9,22)            120.3411         calculate D2E/DX2 analytically  !
 ! A34   A(8,10,11)            120.9581         calculate D2E/DX2 analytically  !
 ! A35   A(8,10,23)            118.6484         calculate D2E/DX2 analytically  !
 ! A36   A(11,10,23)           120.3935         calculate D2E/DX2 analytically  !
 ! A37   A(10,11,12)           120.3879         calculate D2E/DX2 analytically  !
 ! A38   A(10,11,24)           120.1321         calculate D2E/DX2 analytically  !
 ! A39   A(12,11,24)           119.48           calculate D2E/DX2 analytically  !
 ! A40   A(11,12,13)           119.404          calculate D2E/DX2 analytically  !
 ! A41   A(11,12,25)           118.5577         calculate D2E/DX2 analytically  !
 ! A42   A(13,12,25)           122.0383         calculate D2E/DX2 analytically  !
 ! A43   A(9,13,12)            120.637          calculate D2E/DX2 analytically  !
 ! A44   A(9,13,26)            118.6671         calculate D2E/DX2 analytically  !
 ! A45   A(12,13,26)           120.6959         calculate D2E/DX2 analytically  !
 ! A46   A(13,26,27)           112.4808         calculate D2E/DX2 analytically  !
 ! A47   A(13,26,28)           112.3941         calculate D2E/DX2 analytically  !
 ! A48   A(13,26,29)           112.4016         calculate D2E/DX2 analytically  !
 ! A49   A(27,26,28)           106.353          calculate D2E/DX2 analytically  !
 ! A50   A(27,26,29)           106.3572         calculate D2E/DX2 analytically  !
 ! A51   A(28,26,29)           106.3762         calculate D2E/DX2 analytically  !
 ! A52   A(21,31,33)           116.3918         calculate D2E/DX2 analytically  !
 ! A53   A(30,32,33)           114.2506         calculate D2E/DX2 analytically  !
 ! A54   A(31,33,32)           125.7472         calculate D2E/DX2 analytically  !
 ! A55   A(31,33,34)           116.2599         calculate D2E/DX2 analytically  !
 ! A56   A(32,33,34)           117.9927         calculate D2E/DX2 analytically  !
 ! A57   A(33,34,35)           114.9141         calculate D2E/DX2 analytically  !
 ! A58   A(33,34,36)           106.8848         calculate D2E/DX2 analytically  !
 ! A59   A(33,34,37)           107.0354         calculate D2E/DX2 analytically  !
 ! A60   A(35,34,36)           110.8163         calculate D2E/DX2 analytically  !
 ! A61   A(35,34,37)           110.9441         calculate D2E/DX2 analytically  !
 ! A62   A(36,34,37)           105.7376         calculate D2E/DX2 analytically  !
 ! A63   A(34,35,38)           110.9308         calculate D2E/DX2 analytically  !
 ! A64   A(34,35,39)           110.9964         calculate D2E/DX2 analytically  !
 ! A65   A(34,35,40)           110.9671         calculate D2E/DX2 analytically  !
 ! A66   A(38,35,39)           108.3038         calculate D2E/DX2 analytically  !
 ! A67   A(38,35,40)           107.2256         calculate D2E/DX2 analytically  !
 ! A68   A(39,35,40)           108.2793         calculate D2E/DX2 analytically  !
 ! A69   L(4,21,31,1,-1)       177.3809         calculate D2E/DX2 analytically  !
 ! A70   L(7,30,32,1,-1)       189.1934         calculate D2E/DX2 analytically  !
 ! A71   L(4,21,31,1,-2)       179.576          calculate D2E/DX2 analytically  !
 ! A72   L(7,30,32,1,-2)       179.6574         calculate D2E/DX2 analytically  !
 ! D1    D(14,1,2,3)           179.8489         calculate D2E/DX2 analytically  !
 ! D2    D(14,1,2,17)           58.5687         calculate D2E/DX2 analytically  !
 ! D3    D(14,1,2,18)          -58.5394         calculate D2E/DX2 analytically  !
 ! D4    D(15,1,2,3)            59.7421         calculate D2E/DX2 analytically  !
 ! D5    D(15,1,2,17)          -61.5381         calculate D2E/DX2 analytically  !
 ! D6    D(15,1,2,18)         -178.6462         calculate D2E/DX2 analytically  !
 ! D7    D(16,1,2,3)           -60.1221         calculate D2E/DX2 analytically  !
 ! D8    D(16,1,2,17)          178.5977         calculate D2E/DX2 analytically  !
 ! D9    D(16,1,2,18)           61.4895         calculate D2E/DX2 analytically  !
 ! D10   D(1,2,3,4)            179.5392         calculate D2E/DX2 analytically  !
 ! D11   D(1,2,3,19)            57.5993         calculate D2E/DX2 analytically  !
 ! D12   D(1,2,3,20)           -59.6176         calculate D2E/DX2 analytically  !
 ! D13   D(17,2,3,4)           -58.4363         calculate D2E/DX2 analytically  !
 ! D14   D(17,2,3,19)          179.6239         calculate D2E/DX2 analytically  !
 ! D15   D(17,2,3,20)           62.4069         calculate D2E/DX2 analytically  !
 ! D16   D(18,2,3,4)            57.3362         calculate D2E/DX2 analytically  !
 ! D17   D(18,2,3,19)          -64.6036         calculate D2E/DX2 analytically  !
 ! D18   D(18,2,3,20)          178.1795         calculate D2E/DX2 analytically  !
 ! D19   D(2,3,4,5)            172.2441         calculate D2E/DX2 analytically  !
 ! D20   D(2,3,4,21)           -12.7779         calculate D2E/DX2 analytically  !
 ! D21   D(19,3,4,5)           -66.1533         calculate D2E/DX2 analytically  !
 ! D22   D(19,3,4,21)          108.8247         calculate D2E/DX2 analytically  !
 ! D23   D(20,3,4,5)            50.8747         calculate D2E/DX2 analytically  !
 ! D24   D(20,3,4,21)         -134.1473         calculate D2E/DX2 analytically  !
 ! D25   D(3,4,5,6)             -1.8236         calculate D2E/DX2 analytically  !
 ! D26   D(3,4,5,7)            178.4369         calculate D2E/DX2 analytically  !
 ! D27   D(21,4,5,6)          -176.7041         calculate D2E/DX2 analytically  !
 ! D28   D(21,4,5,7)             3.5564         calculate D2E/DX2 analytically  !
 ! D29   D(3,4,31,33)          178.1292         calculate D2E/DX2 analytically  !
 ! D30   D(5,4,31,33)           -6.5456         calculate D2E/DX2 analytically  !
 ! D31   D(4,5,7,8)            179.6033         calculate D2E/DX2 analytically  !
 ! D32   D(4,5,7,30)            -0.4691         calculate D2E/DX2 analytically  !
 ! D33   D(6,5,7,8)             -0.1347         calculate D2E/DX2 analytically  !
 ! D34   D(6,5,7,30)           179.793          calculate D2E/DX2 analytically  !
 ! D35   D(5,7,8,9)             -0.3992         calculate D2E/DX2 analytically  !
 ! D36   D(5,7,8,10)           179.7072         calculate D2E/DX2 analytically  !
 ! D37   D(30,7,8,9)           179.6713         calculate D2E/DX2 analytically  !
 ! D38   D(30,7,8,10)           -0.2223         calculate D2E/DX2 analytically  !
 ! D39   D(5,7,32,33)           -2.4188         calculate D2E/DX2 analytically  !
 ! D40   D(8,7,32,33)          177.5852         calculate D2E/DX2 analytically  !
 ! D41   D(7,8,9,13)          -179.935          calculate D2E/DX2 analytically  !
 ! D42   D(7,8,9,22)             0.0535         calculate D2E/DX2 analytically  !
 ! D43   D(10,8,9,13)           -0.0429         calculate D2E/DX2 analytically  !
 ! D44   D(10,8,9,22)          179.9456         calculate D2E/DX2 analytically  !
 ! D45   D(7,8,10,11)          179.967          calculate D2E/DX2 analytically  !
 ! D46   D(7,8,10,23)           -0.03           calculate D2E/DX2 analytically  !
 ! D47   D(9,8,10,11)            0.0663         calculate D2E/DX2 analytically  !
 ! D48   D(9,8,10,23)         -179.9307         calculate D2E/DX2 analytically  !
 ! D49   D(8,9,13,12)           -0.0004         calculate D2E/DX2 analytically  !
 ! D50   D(8,9,13,26)          179.9806         calculate D2E/DX2 analytically  !
 ! D51   D(22,9,13,12)        -179.9887         calculate D2E/DX2 analytically  !
 ! D52   D(22,9,13,26)          -0.0077         calculate D2E/DX2 analytically  !
 ! D53   D(8,10,11,12)          -0.0461         calculate D2E/DX2 analytically  !
 ! D54   D(8,10,11,24)         179.9786         calculate D2E/DX2 analytically  !
 ! D55   D(23,10,11,12)        179.9508         calculate D2E/DX2 analytically  !
 ! D56   D(23,10,11,24)         -0.0244         calculate D2E/DX2 analytically  !
 ! D57   D(10,11,12,13)          0.0014         calculate D2E/DX2 analytically  !
 ! D58   D(10,11,12,25)       -179.9981         calculate D2E/DX2 analytically  !
 ! D59   D(24,11,12,13)        179.9768         calculate D2E/DX2 analytically  !
 ! D60   D(24,11,12,25)         -0.0227         calculate D2E/DX2 analytically  !
 ! D61   D(11,12,13,9)           0.0217         calculate D2E/DX2 analytically  !
 ! D62   D(11,12,13,26)       -179.9589         calculate D2E/DX2 analytically  !
 ! D63   D(25,12,13,9)        -179.9788         calculate D2E/DX2 analytically  !
 ! D64   D(25,12,13,26)          0.0406         calculate D2E/DX2 analytically  !
 ! D65   D(9,13,26,27)          -0.1192         calculate D2E/DX2 analytically  !
 ! D66   D(9,13,26,28)        -120.1244         calculate D2E/DX2 analytically  !
 ! D67   D(9,13,26,29)         119.8968         calculate D2E/DX2 analytically  !
 ! D68   D(12,13,26,27)        179.8617         calculate D2E/DX2 analytically  !
 ! D69   D(12,13,26,28)         59.8565         calculate D2E/DX2 analytically  !
 ! D70   D(12,13,26,29)        -60.1223         calculate D2E/DX2 analytically  !
 ! D71   D(21,31,33,32)          3.4635         calculate D2E/DX2 analytically  !
 ! D72   D(21,31,33,34)       -176.3641         calculate D2E/DX2 analytically  !
 ! D73   D(30,32,33,31)         -1.0746         calculate D2E/DX2 analytically  !
 ! D74   D(30,32,33,34)        178.7504         calculate D2E/DX2 analytically  !
 ! D75   D(31,33,34,35)       -178.9354         calculate D2E/DX2 analytically  !
 ! D76   D(31,33,34,36)         57.6649         calculate D2E/DX2 analytically  !
 ! D77   D(31,33,34,37)        -55.2562         calculate D2E/DX2 analytically  !
 ! D78   D(32,33,34,35)          1.2231         calculate D2E/DX2 analytically  !
 ! D79   D(32,33,34,36)       -122.1766         calculate D2E/DX2 analytically  !
 ! D80   D(32,33,34,37)        124.9022         calculate D2E/DX2 analytically  !
 ! D81   D(33,34,35,38)        -59.6015         calculate D2E/DX2 analytically  !
 ! D82   D(33,34,35,39)        179.9377         calculate D2E/DX2 analytically  !
 ! D83   D(33,34,35,40)         59.4836         calculate D2E/DX2 analytically  !
 ! D84   D(36,34,35,38)         61.6776         calculate D2E/DX2 analytically  !
 ! D85   D(36,34,35,39)        -58.7832         calculate D2E/DX2 analytically  !
 ! D86   D(36,34,35,40)       -179.2373         calculate D2E/DX2 analytically  !
 ! D87   D(37,34,35,38)        178.8209         calculate D2E/DX2 analytically  !
 ! D88   D(37,34,35,39)         58.3601         calculate D2E/DX2 analytically  !
 ! D89   D(37,34,35,40)        -62.0941         calculate D2E/DX2 analytically  !
 --------------------------------------------------------------------------------
 Trust Radius=3.00D-01 FncErr=1.00D-07 GrdErr=1.00D-06
 Number of steps in this run=    212 maximum allowed number of steps=    240.
 GradGradGradGradGradGradGradGradGradGradGradGradGradGradGradGradGradGrad

                          Input orientation:                          
 ---------------------------------------------------------------------
 Center     Atomic      Atomic             Coordinates (Angstroms)
 Number     Number       Type             X           Y           Z
 ---------------------------------------------------------------------
      1          6           0       -1.940633    2.241098   -0.117496
      2          6           0       -0.538869    1.640666   -0.062568
      3          6           0        0.535644    2.721552   -0.071027
      4          7           0        1.849725    2.117311   -0.007233
      5          6           0        2.959901    2.874785   -0.159747
      6          8           0        2.924803    4.088184   -0.389692
      7          7           0        4.134976    2.148722   -0.037202
      8          6           0        5.428350    2.622133   -0.146585
      9          6           0        5.773991    3.957760   -0.416090
     10          6           0        6.465503    1.684446    0.025095
     11          6           0        7.794130    2.066342   -0.067406
     12          6           0        8.129062    3.390496   -0.334035
     13          6           0        7.114167    4.332204   -0.507755
     14          1           0       -2.707679    1.459723   -0.113830
     15          1           0       -2.078651    2.841237   -1.024743
     16          1           0       -2.125107    2.893764    0.743984
     17          1           0       -0.378453    0.971527   -0.916674
     18          1           0       -0.424583    1.024601    0.837237
     19          1           0        0.385098    3.406523    0.777030
     20          1           0        0.457287    3.329056   -0.981725
     21          1           0        1.924703    1.113339    0.234785
     22          1           0        4.991759    4.691073   -0.551660
     23          1           0        6.203690    0.649680    0.232634
     24          1           0        8.582669    1.332646    0.067579
     25         17           0        9.822723    3.820119   -0.440669
     26          6           0        7.443336    5.771728   -0.798118
     27          9           0        6.345037    6.531497   -0.937641
     28          9           0        8.153069    5.917251   -1.936422
     29          9           0        8.176134    6.339510    0.182313
     30          1           0        4.058157    1.129482    0.160722
     31          8           0        1.973057   -0.635486    0.641642
     32          8           0        4.209367   -0.580540    0.485413
     33          6           0        3.110058   -1.173452    0.662877
     34          6           0        3.141190   -2.685780    0.925644
     35          6           0        4.533567   -3.300609    0.970052
     36          1           0        2.531351   -3.157517    0.144934
     37          1           0        2.605641   -2.859476    1.867096
     38          1           0        5.059787   -3.145300    0.023460
     39          1           0        4.480962   -4.379113    1.161958
     40          1           0        5.139592   -2.841140    1.756894
 ---------------------------------------------------------------------
                    Distance matrix (angstroms):
                    1          2          3          4          5
     1  C    0.000000
     2  C    1.525935   0.000000
     3  C    2.522884   1.524127   0.000000
     4  N    3.793982   2.436316   1.447753   0.000000
     5  C    4.941516   3.711318   2.430715   1.352597   0.000000
     6  O    5.211362   4.253749   2.770797   2.277369   1.235493
     7  N    6.076842   4.701445   3.644787   2.285662   1.386718
     8  C    7.378886   6.047978   4.894300   3.616742   2.481381
     9  C    7.908952   6.733952   5.393289   4.353651   3.026161
    10  C    8.425753   7.005057   6.020636   4.636143   3.706794
    11  C    9.736461   8.343866   7.288000   5.944928   4.902232
    12  C   10.137394   8.846956   7.627363   6.415440   5.197746
    13  C    9.301314   8.124748   6.786892   5.733290   4.416232
    14  H    1.094951   2.176949   3.480400   4.605835   5.841744
    15  H    1.096500   2.176713   2.785396   4.122079   5.112371
    16  H    1.096427   2.176450   2.788099   4.119042   5.164726
    17  H    2.165849   1.096803   2.147854   2.665461   3.916623
    18  H    2.165592   1.096471   2.150958   2.660756   3.983954
    19  H    2.750894   2.162611   1.100477   2.102919   2.791040
    20  H    2.771383   2.165141   1.097529   2.087306   2.673029
    21  H    4.041876   2.536864   2.146941   1.035449   2.080861
    22  H    7.365388   6.334986   4.895609   4.097930   2.753352
    23  H    8.305733   6.821385   6.042484   4.600922   3.953129
    24  H   10.564063   9.127665   8.167183   6.778925   5.834843
    25  Cl  11.873260  10.595072   9.359131   8.164319   6.933318
    26  C   10.049253   9.017888   7.586070   6.728205   5.375964
    27  F    9.366563   8.489649   7.001125   6.368557   5.043392
    28  F   10.895201   9.866625   8.468610   7.608774   6.275521
    29  F   10.919517   9.904058   8.457594   7.608307   6.271396
    30  H    6.107257   4.630747   3.872531   2.425116   2.086852
    31  O    4.916096   3.462161   3.720721   2.830926   3.733376
    32  O    6.793206   5.270653   4.970883   3.617874   3.730506
    33  C    6.146350   4.664783   4.726233   3.587005   4.133701
    34  C    7.154523   5.765200   6.084527   5.060417   5.668406
    35  C    8.591190   7.156264   7.302990   6.124700   6.472122
    36  H    7.015166   5.700164   6.212322   5.320863   6.055176
    37  H    7.114989   5.819178   6.260119   5.371492   6.092237
    38  H    8.833970   7.365991   7.409234   6.164455   6.378441
    39  H    9.311341   7.933215   8.216156   7.105908   7.528583
    40  H    8.914711   7.459353   7.448569   6.206577   6.410645
                    6          7          8          9         10
     6  O    0.000000
     7  N    2.313067   0.000000
     8  C    2.911384   1.381630   0.000000
     9  C    2.852294   2.470334   1.405703   0.000000
    10  C    4.299600   2.377139   1.408693   2.416772   0.000000
    11  C    5.282240   3.660207   2.431479   2.789266   1.385515
    12  C    5.251112   4.193190   2.814136   2.423815   2.409773
    13  C    4.198125   3.723519   2.428325   1.394518   2.777646
    14  H    6.221717   6.877682   8.218713   8.847049   9.176986
    15  H    5.195452   6.329610   7.561364   7.954940   8.685786
    16  H    5.311634   6.352478   7.610626   8.054416   8.705047
    17  H    4.571954   4.746608   6.085762   6.857167   6.945136
    18  H    4.702051   4.776805   6.146287   6.971124   6.969092
    19  H    2.876805   4.038145   5.186784   5.546852   6.364140
    20  H    2.648663   3.976268   5.090056   5.383545   6.310078
    21  H    3.199981   2.455870   3.833725   4.830258   4.581375
    22  H    2.159170   2.731720   2.152954   1.080747   3.397701
    23  H    4.791837   2.568953   2.153028   3.398364   1.087364
    24  H    6.309796   4.523155   3.414435   3.874768   2.146616
    25  Cl   6.903314   5.941955   4.564227   4.051145   4.006115
    26  C    4.839243   4.964918   3.795340   2.494621   4.282488
    27  F    4.238871   4.990379   4.092580   2.687421   4.943204
    28  F    5.750879   5.826999   4.635235   3.436717   4.961054
    29  F    5.742136   5.825964   4.634369   3.435274   4.961914
    30  H    3.215800   1.041117   2.049360   3.357969   2.474206
    31  O    4.927731   3.589782   4.813776   6.055065   5.093553
    32  O    4.920661   2.779844   3.484603   4.884355   3.229893
    33  C    5.369081   3.546463   4.520638   5.881330   4.453466
    34  C    6.903878   5.028627   5.878326   7.271074   5.564254
    35  C    7.683182   5.555955   6.093143   7.492927   5.429189
    36  H    7.276044   5.546256   6.471626   7.839428   6.239914
    37  H    7.311973   5.572007   6.486188   7.856596   6.240091
    38  H    7.553287   5.374535   5.781699   7.152395   5.030158
    39  H    8.747821   6.646075   7.185212   8.582867   6.480556
    40  H    7.584765   5.396921   5.792579   7.165847   5.023754
                   11         12         13         14         15
    11  C    0.000000
    12  C    1.391637   0.000000
    13  C    2.406323   1.395351   0.000000
    14  H   10.519417  11.009602  10.240849   0.000000
    15  H    9.949309  10.245787   9.327280   1.770316   0.000000
    16  H    9.986704  10.322638   9.433989   1.769663   1.770117
    17  H    8.289209   8.863898   8.221965   2.511611   2.529460
    18  H    8.333717   8.951769   8.341582   2.511253   3.082706
    19  H    7.576471   7.823279   6.912881   3.761506   3.104189
    20  H    7.500646   7.699312   6.748704   3.776858   2.582788
    21  H    5.953966   6.633481   6.151666   4.658377   4.538599
    22  H    3.870013   3.403165   2.152981   8.361499   7.323687
    23  H    2.150920   3.397094   3.864988   8.954814   8.659162
    24  H    1.085506   2.145180   3.388931  11.292520  10.822788
    25  Cl   2.707443   1.750553   2.757355  12.754970  11.955837
    26  C    3.793004   2.521083   1.504956  11.050102   9.965308
    27  F    4.774389   3.662372   2.369230  10.409286   9.196963
    28  F    4.295528   2.992108   2.373348  11.880540  10.722924
    29  F    4.297471   2.994247   2.373446  11.931362  10.902087
    30  H    3.858399   4.682866   4.476995   6.779453   6.480420
    31  O    6.456587   7.420032   7.240861   5.183622   5.592922
    32  O    4.490225   5.639559   5.793039   7.236525   7.316303
    33  C    5.741960   6.856665   6.907642   6.432958   6.774104
    34  C    6.724482   7.961582   8.190927   7.243961   7.848481
    35  C    6.364884   7.707082   8.191657   8.733339   9.242451
    36  H    7.418264   8.627877   8.804779   6.988083   7.655410
    37  H    7.411235   8.626431   8.814022   7.128178   7.924863
    38  H    5.886094   7.229445   7.772756   9.030981   9.375214
    39  H    7.350667   8.712832   9.252500   9.348593   9.997181
    40  H    5.870095   7.220956   7.777175   9.142029   9.598434
                   16         17         18         19         20
    16  H    0.000000
    17  H    3.082788   0.000000
    18  H    2.528686   1.755320   0.000000
    19  H    2.562254   3.062816   2.516498   0.000000
    20  H    3.136289   2.502126   3.065425   1.761939   0.000000
    21  H    4.453107   2.578855   2.426925   2.814801   2.922774
    22  H    7.453778   6.542739   6.686465   4.963548   4.754102
    23  H    8.640964   6.689476   6.666341   6.461622   6.455608
    24  H   10.842098   9.022242   9.045321   8.485543   8.432587
    25  Cl  12.042100  10.602124  10.698375   9.524842   9.393896
    26  C   10.110186   9.178037   9.333475   7.608811   7.403056
    27  F    9.370395   8.724621   8.905271   6.944525   6.702475
    28  F   11.043865   9.913976  10.257061   8.602787   8.175283
    29  F   10.876774  10.158935  10.131610   8.346038   8.366506
    30  H    6.456443   4.568286   4.534714   4.365331   4.371450
    31  O    5.409347   3.246604   2.922811   4.344857   4.544279
    32  O    7.229330   5.042107   4.916680   5.532336   5.613870
    33  C    6.629916   4.389262   4.165996   5.330535   5.478548
    34  C    7.674517   5.399807   5.146793   6.688369   6.857087
    35  C    9.097214   6.777818   6.580906   7.888768   8.023587
    36  H    7.658947   5.161683   5.167875   6.934880   6.902661
    37  H    7.532671   5.597390   5.032784   6.736601   7.143468
    38  H    9.413403   6.885242   6.937479   8.083747   8.006915
    39  H    9.834103   7.520902   7.305472   8.805702   8.955512
    40  H    9.310799   7.220333   6.837379   7.911930   8.215554
                   21         22         23         24         25
    21  H    0.000000
    22  H    4.777605   0.000000
    23  H    4.304035   4.291474   0.000000
    24  H    6.663675   4.955514   2.480570   0.000000
    25  Cl   8.376253   4.910100   4.858233   2.825522   0.000000
    26  C    7.295395   2.690499   5.369781   4.664006   3.098068
    27  F    7.090160   2.316787   5.998774   5.748522   4.437662
    28  F    8.159917   3.662643   6.020979   5.021870   3.069688
    29  F    8.148375   3.660096   6.022229   5.024651   3.073547
    30  H    2.134801   3.750204   2.199702   4.530028   6.389947
    31  O    1.796180   6.237689   4.440404   6.920264   9.090713
    32  O    2.855124   5.429324   2.356833   4.791726   7.192579
    33  C    2.611081   6.277623   3.616556   6.048502   8.438805
    34  C    4.048510   7.747580   4.580880   6.818630   9.425307
    35  C    5.179742   8.148161   4.351767   6.219062   8.981652
    36  H    4.314662   8.254649   5.290417   7.535649  10.109127
    37  H    4.348721   8.279779   5.285035   7.519110  10.100943
    38  H    5.292392   7.857743   3.969148   5.697775   8.450919
    39  H    6.128714   9.244764   5.396312   7.116590   9.916160
    40  H    5.318856   7.879436   3.954933   5.668249   8.434060
                   26         27         28         29         30
    26  C    0.000000
    27  F    1.342750   0.000000
    28  F    1.349308   2.154957   0.000000
    29  F    1.349301   2.155011   2.160526   0.000000
    30  H    5.824883   5.968081   6.639958   6.640978   0.000000
    31  O    8.546885   8.542482   9.368955   9.345572   2.773813
    32  O    7.242742   7.560902   7.977428   7.982118   1.747130
    33  C    8.315487   8.508406   9.081100   9.074175   2.540582
    34  C    9.644131   9.934519  10.359657  10.361422   3.997769
    35  C    9.690226  10.177967  10.320723  10.335411   4.528436
    36  H   10.234665  10.468675  10.875991  11.048009   4.550796
    37  H   10.247163  10.489996  11.057651  10.885322   4.575293
    38  H    9.266589   9.808974   9.774424   9.984912   4.392705
    39  H   10.754400  11.266077  11.362193  11.379933   5.614788
    40  H    9.274525   9.826492   9.971511   9.797154   4.413967
                   31         32         33         34         35
    31  O    0.000000
    32  O    2.242433   0.000000
    33  C    1.258026   1.261554   0.000000
    34  C    2.376740   2.401425   1.535302   0.000000
    35  C    3.710383   2.781862   2.577893   1.522728   0.000000
    36  H    2.630409   3.093942   2.130653   1.097245   2.170292
    37  H    2.616874   3.110391   2.132430   1.096957   2.171678
    38  H    4.026067   2.741278   2.845783   2.169357   1.094105
    39  H    4.535973   3.867897   3.522034   2.172144   1.096707
    40  H    4.016919   2.755412   2.845534   2.169960   1.094303
                   36         37         38         39         40
    36  H    0.000000
    37  H    1.749340   0.000000
    38  H    2.531382   3.082778   0.000000
    39  H    2.515475   2.514626   1.775813   0.000000
    40  H    3.082440   2.536413   1.761726   1.775698   0.000000
 Stoichiometry    C14H17ClF3N2O3(1-)
 Framework group  C1[X(C14H17ClF3N2O3)]
 Deg. of freedom   114
 Full point group                 C1      NOp   1
 Largest Abelian subgroup         C1      NOp   1
 Largest concise Abelian subgroup C1      NOp   1
                         Standard orientation:                         
 ---------------------------------------------------------------------
 Center     Atomic      Atomic             Coordinates (Angstroms)
 Number     Number       Type             X           Y           Z
 ---------------------------------------------------------------------
      1          6           0       -5.679219   -3.695732    0.076844
      2          6           0       -4.873866   -2.400853    0.133156
      3          6           0       -3.385813   -2.655608   -0.076028
      4          7           0       -2.655483   -1.406519   -0.027197
      5          6           0       -1.302898   -1.403450   -0.031950
      6          8           0       -0.623950   -2.435597   -0.044001
      7          7           0       -0.761690   -0.126802   -0.016124
      8          6           0        0.576589    0.216497   -0.008493
      9          6           0        1.640738   -0.701972   -0.007724
     10          6           0        0.880295    1.592027    0.001345
     11          6           0        2.194138    2.031786    0.010163
     12          6           0        3.242738    1.116858    0.010416
     13          6           0        2.959766   -0.249471    0.001673
     14          1           0       -6.746685   -3.506383    0.230414
     15          1           0       -5.349798   -4.400402    0.849654
     16          1           0       -5.564555   -4.190590   -0.894815
     17          1           0       -5.018349   -1.905374    1.100939
     18          1           0       -5.230804   -1.698148   -0.629110
     19          1           0       -3.223653   -3.159114   -1.041034
     20          1           0       -3.002967   -3.332552    0.698405
     21          1           0       -3.185637   -0.518034   -0.068228
     22          1           0        1.427034   -1.761360   -0.014288
     23          1           0        0.060892    2.306827    0.001951
     24          1           0        2.412863    3.095003    0.017342
     25         17           0        4.884143    1.725212    0.021801
     26          6           0        4.071151   -1.264219    0.002628
     27          9           0        3.613750   -2.526646   -0.003561
     28          9           0        4.867091   -1.153843    1.086569
     29          9           0        4.875986   -1.146374   -1.073925
     30          1           0       -1.419663    0.680019   -0.010116
     31          8           0       -4.174801    0.980169   -0.124830
     32          8           0       -2.293189    2.193018    0.005705
     33          6           0       -3.547431    2.067767   -0.046307
     34          6           0       -4.401202    3.343209   -0.007855
     35          6           0       -3.610394    4.642629    0.061643
     36          1           0       -5.074660    3.250062    0.853380
     37          1           0       -5.047270    3.324299   -0.894170
     38          1           0       -2.981690    4.670169    0.956651
     39          1           0       -4.281080    5.510038    0.085034
     40          1           0       -2.947661    4.744422   -0.803181
 ---------------------------------------------------------------------
 Rotational constants (GHZ):      0.3075639      0.1077925      0.0811777
 General basis read from cards:  (6D, 7F)
 There are   475 symmetry adapted cartesian basis functions of A   symmetry.
 There are   475 symmetry adapted basis functions of A   symmetry.
   475 basis functions,   828 primitive gaussians,   475 cartesian basis functions
    92 alpha electrons       92 beta electrons
       nuclear repulsion energy      2101.2763199876 Hartrees.
 NAtoms=   40 NActive=   40 NUniq=   40 SFac= 1.00D+00 NAtFMM=   60 NAOKFM=F Big=F
 Integral buffers will be    131072 words long.
 Raffenetti 2 integral format.
 Two-electron integral symmetry is turned on.
 One-electron integrals computed using PRISM.
 NBasis=   475 RedAO= T EigKep=  1.18D-06  NBF=   475
 NBsUse=   473 1.00D-06 EigRej=  8.32D-07 NBFU=   473
 ExpMin= 4.38D-02 ExpMax= 2.52D+04 ExpMxC= 3.78D+03 IAcc=3 IRadAn=         5 AccDes= 0.00D+00
 Harris functional with IExCor= 1009 and IRadAn=       5 diagonalized for initial guess.
 HarFok:  IExCor= 1009 AccDes= 0.00D+00 IRadAn=         5 IDoV= 1 UseB2=F ITyADJ=14
 ICtDFT=  3500011 ScaDFX=  1.000000  1.000000  1.000000  1.000000
 FoFCou: FMM=F IPFlag=           0 FMFlag=      100000 FMFlg1=           0
         NFxFlg=           0 DoJE=T BraDBF=F KetDBF=T FulRan=T
         wScrn=  0.000000 ICntrl=     500 IOpCl=  0 I1Cent=   200000004 NGrid=           0
         NMat0=    1 NMatS0=      1 NMatT0=    0 NMatD0=    1 NMtDS0=    0 NMtDT0=    0
 Petite list used in FoFCou.
 Requested convergence on RMS density matrix=1.00D-08 within 128 cycles.
 Requested convergence on MAX density matrix=1.00D-06.
 Requested convergence on             energy=1.00D-06.
 No special actions if energy rises.
 SCF Done:  E(RM062X) =  -1638.33998259     A.U. after   16 cycles
            NFock= 16  Conv=0.32D-08     -V/T= 2.0066
 DoSCS=F DFT=T ScalE2(SS,OS)=  1.000000  1.000000
 Range of M.O.s used for correlation:     1   473
 NBasis=   475 NAE=    92 NBE=    92 NFC=     0 NFV=     0
 NROrb=    473 NOA=    92 NOB=    92 NVA=   381 NVB=   381

 **** Warning!!: The largest alpha MO coefficient is  0.12439223D+03

 Symmetrizing basis deriv contribution to polar:
 IMax=3 JMax=2 DiffMx= 0.00D+00
 G2DrvN: will do    41 centers at a time, making    1 passes.
 Calling FoFCou, ICntrl=  3107 FMM=F I1Cent=   0 AccDes= 0.00D+00.
 End of G2Drv F.D. properties file   721 does not exist.
 End of G2Drv F.D. properties file   722 does not exist.
 End of G2Drv F.D. properties file   788 does not exist.
          IDoAtm=1111111111111111111111111111111111111111
          Differentiating once with respect to nuclear coordinates.
          There are   123 degrees of freedom in the 1st order CPHF.  IDoFFX=6 NUNeed=     0.
    117 vectors produced by pass  0 Test12= 3.51D-14 1.00D-09 XBig12= 3.00D-01 1.12D-01.
 AX will form   117 AO Fock derivatives at one time.
    117 vectors produced by pass  1 Test12= 3.51D-14 1.00D-09 XBig12= 1.96D-02 4.02D-02.
    117 vectors produced by pass  2 Test12= 3.51D-14 1.00D-09 XBig12= 5.10D-04 3.46D-03.
    117 vectors produced by pass  3 Test12= 3.51D-14 1.00D-09 XBig12= 4.19D-06 2.73D-04.
    117 vectors produced by pass  4 Test12= 3.51D-14 1.00D-09 XBig12= 3.83D-08 2.22D-05.
    117 vectors produced by pass  5 Test12= 3.51D-14 1.00D-09 XBig12= 2.57D-10 1.44D-06.
     92 vectors produced by pass  6 Test12= 3.51D-14 1.00D-09 XBig12= 1.13D-12 7.06D-08.
     25 vectors produced by pass  7 Test12= 3.51D-14 1.00D-09 XBig12= 4.60D-15 4.66D-09.
     18 vectors produced by pass  8 Test12= 3.51D-14 1.00D-09 XBig12= 1.64D-15 4.55D-09.
     14 vectors produced by pass  9 Test12= 3.51D-14 1.00D-09 XBig12= 4.60D-15 6.78D-09.
     12 vectors produced by pass 10 Test12= 3.51D-14 1.00D-09 XBig12= 5.99D-15 5.30D-09.
     12 vectors produced by pass 11 Test12= 3.51D-14 1.00D-09 XBig12= 2.75D-14 1.22D-08.
     12 vectors produced by pass 12 Test12= 3.51D-14 1.00D-09 XBig12= 2.49D-14 1.10D-08.
     12 vectors produced by pass 13 Test12= 3.51D-14 1.00D-09 XBig12= 2.44D-14 1.19D-08.
     12 vectors produced by pass 14 Test12= 3.51D-14 1.00D-09 XBig12= 3.68D-14 1.22D-08.
      9 vectors produced by pass 15 Test12= 3.51D-14 1.00D-09 XBig12= 6.54D-15 4.51D-09.
      9 vectors produced by pass 16 Test12= 3.51D-14 1.00D-09 XBig12= 2.11D-14 9.23D-09.
      9 vectors produced by pass 17 Test12= 3.51D-14 1.00D-09 XBig12= 2.35D-14 9.02D-09.
      9 vectors produced by pass 18 Test12= 3.51D-14 1.00D-09 XBig12= 1.43D-14 7.65D-09.
      7 vectors produced by pass 19 Test12= 3.51D-14 1.00D-09 XBig12= 1.15D-14 7.26D-09.
      7 vectors produced by pass 20 Test12= 3.51D-14 1.00D-09 XBig12= 1.25D-14 7.32D-09.
      4 vectors produced by pass 21 Test12= 3.51D-14 1.00D-09 XBig12= 7.45D-15 5.20D-09.
      4 vectors produced by pass 22 Test12= 3.51D-14 1.00D-09 XBig12= 2.43D-14 8.88D-09.
      4 vectors produced by pass 23 Test12= 3.51D-14 1.00D-09 XBig12= 5.27D-15 4.08D-09.
      4 vectors produced by pass 24 Test12= 3.51D-14 1.00D-09 XBig12= 9.03D-15 5.71D-09.
      4 vectors produced by pass 25 Test12= 3.51D-14 1.00D-09 XBig12= 3.73D-15 3.82D-09.
      4 vectors produced by pass 26 Test12= 3.51D-14 1.00D-09 XBig12= 1.69D-14 7.20D-09.
      4 vectors produced by pass 27 Test12= 3.51D-14 1.00D-09 XBig12= 4.74D-15 3.79D-09.
      4 vectors produced by pass 28 Test12= 3.51D-14 1.00D-09 XBig12= 1.30D-14 6.78D-09.
      4 vectors produced by pass 29 Test12= 3.51D-14 1.00D-09 XBig12= 9.09D-15 5.59D-09.
      4 vectors produced by pass 30 Test12= 3.51D-14 1.00D-09 XBig12= 1.29D-14 7.92D-09.
      4 vectors produced by pass 31 Test12= 3.51D-14 1.00D-09 XBig12= 2.64D-15 3.06D-09.
      4 vectors produced by pass 32 Test12= 3.51D-14 1.00D-09 XBig12= 1.50D-14 7.51D-09.
      2 vectors produced by pass 33 Test12= 3.51D-14 1.00D-09 XBig12= 2.00D-15 3.00D-09.
 InvSVY:  IOpt=1 It=  1 EMax= 6.11D-16
 Solved reduced A of dimension  1011 with   123 vectors.
 End of Minotr F.D. properties file   721 does not exist.
 End of Minotr F.D. properties file   722 does not exist.
 End of Minotr F.D. properties file   788 does not exist.

 **********************************************************************

            Population analysis using the SCF density.

 **********************************************************************

 Orbital symmetries:
       Occupied  (A) (A) (A) (A) (A) (A) (A) (A) (A) (A) (A) (A)
                 (A) (A) (A) (A) (A) (A) (A) (A) (A) (A) (A) (A)
                 (A) (A) (A) (A) (A) (A) (A) (A) (A) (A) (A) (A)
                 (A) (A) (A) (A) (A) (A) (A) (A) (A) (A) (A) (A)
                 (A) (A) (A) (A) (A) (A) (A) (A) (A) (A) (A) (A)
                 (A) (A) (A) (A) (A) (A) (A) (A) (A) (A) (A) (A)
                 (A) (A) (A) (A) (A) (A) (A) (A) (A) (A) (A) (A)
                 (A) (A) (A) (A) (A) (A) (A) (A)
       Virtual   (A) (A) (A) (A) (A) (A) (A) (A) (A) (A) (A) (A)
                 (A) (A) (A) (A) (A) (A) (A) (A) (A) (A) (A) (A)
                 (A) (A) (A) (A) (A) (A) (A) (A) (A) (A) (A) (A)
                 (A) (A) (A) (A) (A) (A) (A) (A) (A) (A) (A) (A)
                 (A) (A) (A) (A) (A) (A) (A) (A) (A) (A) (A) (A)
                 (A) (A) (A) (A) (A) (A) (A) (A) (A) (A) (A) (A)
                 (A) (A) (A) (A) (A) (A) (A) (A) (A) (A) (A) (A)
                 (A) (A) (A) (A) (A) (A) (A) (A) (A) (A) (A) (A)
                 (A) (A) (A) (A) (A) (A) (A) (A) (A) (A) (A) (A)
                 (A) (A) (A) (A) (A) (A) (A) (A) (A) (A) (A) (A)
                 (A) (A) (A) (A) (A) (A) (A) (A) (A) (A) (A) (A)
                 (A) (A) (A) (A) (A) (A) (A) (A) (A) (A) (A) (A)
                 (A) (A) (A) (A) (A) (A) (A) (A) (A) (A) (A) (A)
                 (A) (A) (A) (A) (A) (A) (A) (A) (A) (A) (A) (A)
                 (A) (A) (A) (A) (A) (A) (A) (A) (A) (A) (A) (A)
                 (A) (A) (A) (A) (A) (A) (A) (A) (A) (A) (A) (A)
                 (A) (A) (A) (A) (A) (A) (A) (A) (A) (A) (A) (A)
                 (A) (A) (A) (A) (A) (A) (A) (A) (A) (A) (A) (A)
                 (A) (A) (A) (A) (A) (A) (A) (A) (A) (A) (A) (A)
                 (A) (A) (A) (A) (A) (A) (A) (A) (A) (A) (A) (A)
                 (A) (A) (A) (A) (A) (A) (A) (A) (A) (A) (A) (A)
                 (A) (A) (A) (A) (A) (A) (A) (A) (A) (A) (A) (A)
                 (A) (A) (A) (A) (A) (A) (A) (A) (A) (A) (A) (A)
                 (A) (A) (A) (A) (A) (A) (A) (A) (A) (A) (A) (A)
                 (A) (A) (A) (A) (A) (A) (A) (A) (A) (A) (A) (A)
                 (A) (A) (A) (A) (A) (A) (A) (A) (A) (A) (A) (A)
                 (A) (A) (A) (A) (A) (A) (A) (A) (A) (A) (A) (A)
                 (A) (A) (A) (A) (A) (A) (A) (A) (A) (A) (A) (A)
                 (A) (A) (A) (A) (A) (A) (A) (A) (A) (A) (A) (A)
                 (A) (A) (A) (A) (A) (A) (A) (A) (A) (A) (A) (A)
                 (A) (A) (A) (A) (A) (A) (A) (A) (A) (A) (A) (A)
                 (A) (A) (A) (A) (A) (A) (A) (A) (A)
 The electronic state is 1-A.
 Alpha  occ. eigenvalues -- -102.58575 -25.20937 -25.20612 -25.20612 -19.48956
 Alpha  occ. eigenvalues --  -19.47221 -19.46659 -14.66695 -14.64934 -10.72019
 Alpha  occ. eigenvalues --  -10.55969 -10.52556 -10.51885 -10.50677 -10.49304
 Alpha  occ. eigenvalues --  -10.47534 -10.47241 -10.46231 -10.46064 -10.45528
 Alpha  occ. eigenvalues --  -10.44813 -10.43202 -10.43133  -9.73222  -7.45624
 Alpha  occ. eigenvalues --   -7.44965  -7.44959  -1.37411  -1.28127  -1.27818
 Alpha  occ. eigenvalues --   -1.05100  -1.03262  -0.93938  -0.93406  -0.91227
 Alpha  occ. eigenvalues --   -0.89946  -0.83981  -0.79569  -0.78405  -0.75262
 Alpha  occ. eigenvalues --   -0.73567  -0.71054  -0.67584  -0.63571  -0.61733
 Alpha  occ. eigenvalues --   -0.61583  -0.59693  -0.59436  -0.58246  -0.56652
 Alpha  occ. eigenvalues --   -0.54015  -0.51138  -0.48352  -0.47968  -0.47841
 Alpha  occ. eigenvalues --   -0.47158  -0.45823  -0.45231  -0.44416  -0.43775
 Alpha  occ. eigenvalues --   -0.43084  -0.42441  -0.41744  -0.41731  -0.40901
 Alpha  occ. eigenvalues --   -0.40855  -0.40538  -0.39434  -0.38267  -0.37980
 Alpha  occ. eigenvalues --   -0.37893  -0.36250  -0.35843  -0.35036  -0.34261
 Alpha  occ. eigenvalues --   -0.33877  -0.32934  -0.32675  -0.31928  -0.31183
 Alpha  occ. eigenvalues --   -0.30447  -0.29886  -0.28998  -0.28911  -0.25928
 Alpha  occ. eigenvalues --   -0.22831  -0.22593  -0.20108  -0.19549  -0.19482
 Alpha  occ. eigenvalues --   -0.18927  -0.15457
 Alpha virt. eigenvalues --    0.09721   0.09735   0.10140   0.10877   0.11037
 Alpha virt. eigenvalues --    0.11683   0.12057   0.12418   0.13114   0.13234
 Alpha virt. eigenvalues --    0.13654   0.14297   0.14409   0.14879   0.14940
 Alpha virt. eigenvalues --    0.15623   0.15992   0.16085   0.16943   0.16947
 Alpha virt. eigenvalues --    0.17346   0.17751   0.18127   0.18229   0.18657
 Alpha virt. eigenvalues --    0.19688   0.20015   0.20119   0.20556   0.20646
 Alpha virt. eigenvalues --    0.21163   0.21620   0.21905   0.22029   0.22514
 Alpha virt. eigenvalues --    0.23000   0.23131   0.23704   0.24108   0.24583
 Alpha virt. eigenvalues --    0.25139   0.25825   0.26188   0.26803   0.27027
 Alpha virt. eigenvalues --    0.27692   0.28304   0.28703   0.28968   0.29239
 Alpha virt. eigenvalues --    0.29829   0.30261   0.31015   0.31513   0.31712
 Alpha virt. eigenvalues --    0.32157   0.32295   0.32622   0.32978   0.33045
 Alpha virt. eigenvalues --    0.33715   0.33832   0.34177   0.34503   0.34662
 Alpha virt. eigenvalues --    0.35050   0.35257   0.35522   0.35840   0.36524
 Alpha virt. eigenvalues --    0.36577   0.36845   0.37823   0.38284   0.38469
 Alpha virt. eigenvalues --    0.39046   0.39129   0.39276   0.39430   0.40263
 Alpha virt. eigenvalues --    0.40701   0.40951   0.41001   0.41370   0.41536
 Alpha virt. eigenvalues --    0.42302   0.42535   0.42775   0.43417   0.43794
 Alpha virt. eigenvalues --    0.44165   0.44389   0.44818   0.45054   0.45296
 Alpha virt. eigenvalues --    0.45544   0.45917   0.46501   0.47061   0.47384
 Alpha virt. eigenvalues --    0.47968   0.48216   0.48519   0.48688   0.49299
 Alpha virt. eigenvalues --    0.49522   0.50180   0.50524   0.50551   0.50946
 Alpha virt. eigenvalues --    0.51553   0.53815   0.54136   0.54395   0.54981
 Alpha virt. eigenvalues --    0.56030   0.56338   0.56994   0.57275   0.58231
 Alpha virt. eigenvalues --    0.59273   0.59885   0.61564   0.62271   0.63641
 Alpha virt. eigenvalues --    0.64478   0.64795   0.66763   0.67179   0.68598
 Alpha virt. eigenvalues --    0.69632   0.72125   0.72477   0.73669   0.75828
 Alpha virt. eigenvalues --    0.78594   0.79734   0.80255   0.80409   0.80915
 Alpha virt. eigenvalues --    0.81451   0.82742   0.83801   0.84212   0.84692
 Alpha virt. eigenvalues --    0.86108   0.86256   0.86693   0.86882   0.87156
 Alpha virt. eigenvalues --    0.87986   0.88212   0.89472   0.90525   0.91270
 Alpha virt. eigenvalues --    0.92285   0.92463   0.93676   0.94315   0.94917
 Alpha virt. eigenvalues --    0.95595   0.96669   0.96998   0.97795   0.98922
 Alpha virt. eigenvalues --    0.99168   1.01224   1.01632   1.03233   1.04777
 Alpha virt. eigenvalues --    1.06828   1.07532   1.08015   1.08616   1.09018
 Alpha virt. eigenvalues --    1.10189   1.10659   1.11430   1.12515   1.13672
 Alpha virt. eigenvalues --    1.13898   1.14784   1.15923   1.16986   1.18031
 Alpha virt. eigenvalues --    1.18276   1.19050   1.19660   1.20062   1.21029
 Alpha virt. eigenvalues --    1.22352   1.24486   1.25911   1.26303   1.27341
 Alpha virt. eigenvalues --    1.28267   1.28742   1.29393   1.29695   1.32212
 Alpha virt. eigenvalues --    1.32463   1.33416   1.34149   1.36133   1.36516
 Alpha virt. eigenvalues --    1.38510   1.39721   1.42586   1.43450   1.43696
 Alpha virt. eigenvalues --    1.45145   1.46890   1.48118   1.48498   1.49696
 Alpha virt. eigenvalues --    1.50695   1.50869   1.51997   1.53702   1.54315
 Alpha virt. eigenvalues --    1.54774   1.55533   1.56376   1.56732   1.57885
 Alpha virt. eigenvalues --    1.59077   1.59772   1.59895   1.61446   1.62427
 Alpha virt. eigenvalues --    1.62646   1.65051   1.66001   1.66660   1.67293
 Alpha virt. eigenvalues --    1.68671   1.69453   1.70672   1.71869   1.73406
 Alpha virt. eigenvalues --    1.74586   1.76369   1.77373   1.78979   1.79171
 Alpha virt. eigenvalues --    1.80154   1.83185   1.83508   1.83758   1.84205
 Alpha virt. eigenvalues --    1.84989   1.86692   1.87758   1.88500   1.91056
 Alpha virt. eigenvalues --    1.91743   1.94641   1.95336   1.95682   1.97086
 Alpha virt. eigenvalues --    1.97821   1.98010   1.99059   1.99554   1.99818
 Alpha virt. eigenvalues --    1.99899   2.01975   2.02669   2.03622   2.03743
 Alpha virt. eigenvalues --    2.05035   2.06123   2.06628   2.07078   2.07271
 Alpha virt. eigenvalues --    2.08341   2.08744   2.09668   2.12123   2.13282
 Alpha virt. eigenvalues --    2.14064   2.15309   2.16702   2.17356   2.18286
 Alpha virt. eigenvalues --    2.18928   2.19529   2.19639   2.21570   2.22407
 Alpha virt. eigenvalues --    2.22446   2.22705   2.22843   2.24242   2.24728
 Alpha virt. eigenvalues --    2.25828   2.26688   2.27340   2.28946   2.31372
 Alpha virt. eigenvalues --    2.32765   2.33278   2.34192   2.35344   2.38318
 Alpha virt. eigenvalues --    2.39221   2.40588   2.41561   2.42094   2.42357
 Alpha virt. eigenvalues --    2.43758   2.46709   2.49317   2.49521   2.49992
 Alpha virt. eigenvalues --    2.50817   2.51182   2.53085   2.55157   2.57693
 Alpha virt. eigenvalues --    2.60285   2.61281   2.62103   2.65852   2.66349
 Alpha virt. eigenvalues --    2.67342   2.72160   2.73332   2.75271   2.76607
 Alpha virt. eigenvalues --    2.77306   2.78634   2.80846   2.84768   2.88214
 Alpha virt. eigenvalues --    2.88572   2.89119   2.89398   2.89515   2.92715
 Alpha virt. eigenvalues --    2.93503   2.95174   2.99921   3.05923   3.06473
 Alpha virt. eigenvalues --    3.10722   3.15044   3.22015   3.24055   3.26411
 Alpha virt. eigenvalues --    3.28183   3.28851   3.35075   3.37411   3.41062
 Alpha virt. eigenvalues --    3.42491   3.48468   3.55136   4.34863   4.36713
 Alpha virt. eigenvalues --    4.37654   4.41524   4.43959   4.50474   4.53169
 Alpha virt. eigenvalues --    4.55618   4.56195   4.56536   4.59729   4.60833
 Alpha virt. eigenvalues --    4.63705   4.68762   4.72684   4.75195   4.80933
 Alpha virt. eigenvalues --    4.88698   4.89788   5.00588   5.68662   6.29946
 Alpha virt. eigenvalues --    7.12206
          Condensed to atoms (all electrons):
               1          2          3          4          5          6
     1  C    5.911782  -0.292676   0.057485  -0.031328  -0.066229  -0.001977
     2  C   -0.292676   6.520371  -0.589515  -0.052723   0.243121   0.023656
     3  C    0.057485  -0.589515   6.978895   0.284968  -0.807147  -0.137937
     4  N   -0.031328  -0.052723   0.284968   7.808986   0.432148  -0.184791
     5  C   -0.066229   0.243121  -0.807147   0.432148   6.251953   0.596462
     6  O   -0.001977   0.023656  -0.137937  -0.184791   0.596462   8.350605
     7  N   -0.000782   0.023288  -0.113134  -0.358969   0.169401  -0.059914
     8  C    0.001695  -0.007441  -0.010977  -0.075533   0.362692  -0.305459
     9  C   -0.007698   0.002668  -0.328280  -0.065771  -1.501876   0.336981
    10  C   -0.002090   0.005420   0.027198  -0.024273   0.302891  -0.065078
    11  C   -0.000513   0.000660   0.008940  -0.043178   0.442908  -0.011280
    12  C    0.000232  -0.000004  -0.001377   0.008436  -0.087718  -0.022986
    13  C   -0.000900  -0.002977  -0.072331   0.032690  -0.704050   0.083112
    14  H    0.458141  -0.134094   0.030365   0.000458  -0.001381   0.000001
    15  H    0.439461  -0.067781  -0.022840   0.000760  -0.002146  -0.000049
    16  H    0.403240  -0.062399   0.003654  -0.000571   0.002688   0.000000
    17  H   -0.054076   0.425511  -0.057342   0.002003  -0.001416  -0.000123
    18  H   -0.023674   0.442263  -0.099980   0.007743  -0.003540  -0.000114
    19  H   -0.019641  -0.070388   0.423272  -0.062030   0.019495   0.001248
    20  H   -0.000630  -0.038497   0.497337  -0.045309  -0.086198  -0.001089
    21  H    0.003527  -0.000733  -0.020910   0.149128  -0.005698   0.003155
    22  H    0.000023  -0.000037   0.004293   0.001299   0.037750  -0.003397
    23  H   -0.000003   0.000038  -0.000723   0.000704  -0.012316   0.000113
    24  H    0.000000   0.000000   0.000033   0.000016   0.003653  -0.000002
    25  Cl  -0.000001   0.000003  -0.000110   0.000140  -0.005386   0.000070
    26  C   -0.000318   0.000052  -0.017990   0.000073  -0.202240   0.010985
    27  F    0.000001  -0.000004   0.000531   0.000027   0.016107  -0.000815
    28  F    0.000000  -0.000001   0.000055   0.000012   0.004021  -0.000002
    29  F    0.000000  -0.000001   0.000027   0.000008   0.003165  -0.000013
    30  H   -0.000009  -0.001176  -0.002078   0.011817  -0.045941   0.003432
    31  O    0.006276   0.001798   0.007251  -0.035801  -0.005519  -0.000169
    32  O   -0.001122  -0.003860   0.000237   0.004908   0.007641   0.000163
    33  C   -0.005062  -0.008188   0.017136   0.001025  -0.012324  -0.002002
    34  C    0.007515  -0.005393   0.047784  -0.033127  -0.031377  -0.001484
    35  C   -0.000853  -0.000525  -0.004516   0.003834   0.002119   0.000083
    36  H    0.000059   0.000268  -0.000061  -0.000209  -0.000029  -0.000000
    37  H    0.000018  -0.000090   0.000330  -0.000153  -0.000337  -0.000000
    38  H    0.000001   0.000010   0.000006   0.000004  -0.000054  -0.000000
    39  H    0.000000   0.000004  -0.000007  -0.000006   0.000024   0.000000
    40  H    0.000001   0.000016  -0.000010   0.000008   0.000007  -0.000000
               7          8          9         10         11         12
     1  C   -0.000782   0.001695  -0.007698  -0.002090  -0.000513   0.000232
     2  C    0.023288  -0.007441   0.002668   0.005420   0.000660  -0.000004
     3  C   -0.113134  -0.010977  -0.328280   0.027198   0.008940  -0.001377
     4  N   -0.358969  -0.075533  -0.065771  -0.024273  -0.043178   0.008436
     5  C    0.169401   0.362692  -1.501876   0.302891   0.442908  -0.087718
     6  O   -0.059914  -0.305459   0.336981  -0.065078  -0.011280  -0.022986
     7  N    7.974937  -0.000996  -0.044698  -0.061628   0.032926  -0.005479
     8  C   -0.000996  20.780084  -4.052204  -0.495507  -0.160896   0.118675
     9  C   -0.044698  -4.052204  14.475382  -2.107342  -2.377374  -3.806253
    10  C   -0.061628  -0.495507  -2.107342  12.774057  -3.828239   0.796177
    11  C    0.032926  -0.160896  -2.377374  -3.828239  16.571657  -1.859401
    12  C   -0.005479   0.118675  -3.806253   0.796177  -1.859401  18.368830
    13  C    0.032638  -6.699595   5.098581  -2.045646  -3.130429  -6.007006
    14  H    0.000015  -0.000017  -0.000009   0.000000   0.000000  -0.000000
    15  H    0.000024  -0.000044  -0.000061   0.000012   0.000001  -0.000000
    16  H    0.000017   0.000096  -0.000004  -0.000001  -0.000000   0.000000
    17  H   -0.000728   0.000363   0.000098  -0.000077  -0.000016   0.000003
    18  H    0.000516  -0.002029  -0.000552   0.000493   0.000039  -0.000001
    19  H   -0.001082   0.003488   0.004976  -0.001351  -0.000166   0.000068
    20  H   -0.001046  -0.002722  -0.011530   0.002432   0.000282  -0.000092
    21  H    0.006196   0.004969  -0.009313   0.002361  -0.000316   0.000308
    22  H   -0.015402  -0.087650   0.438718  -0.020251  -0.024769  -0.042341
    23  H   -0.010054  -0.046284  -0.001025   0.361325  -0.013627  -0.031140
    24  H    0.000155   0.054141   0.005944  -0.136634   0.276353   0.012162
    25  Cl  -0.000290  -0.028033  -0.012659   0.057828  -0.028329  -0.274509
    26  C    0.034883  -3.097109   0.216495   0.202789   0.141335  -1.025236
    27  F   -0.000486   0.214627   0.127686  -0.011572   0.025145  -0.080203
    28  F    0.000370   0.055348   0.069910  -0.020410  -0.002937  -0.274163
    29  F    0.000403   0.050328   0.067744  -0.019568  -0.003280  -0.276351
    30  H    0.097934  -0.014426   0.070945  -0.045302   0.002780  -0.006707
    31  O    0.019581  -0.017138  -0.014354  -0.000760  -0.004842   0.002200
    32  O    0.012524  -0.353029  -0.008592   0.264130   0.093661  -0.003546
    33  C   -0.019608   0.218729  -0.010878  -0.127757  -0.098550   0.008097
    34  C   -0.018961  -0.079314  -0.057589   0.066954   0.025737   0.008652
    35  C    0.002388  -0.013804   0.004159   0.002850   0.012787  -0.002722
    36  H    0.000177  -0.000948  -0.000107   0.000721   0.000021   0.000006
    37  H    0.000158  -0.001550  -0.000213   0.001352   0.000116   0.000005
    38  H   -0.000117   0.000391  -0.000025  -0.000084  -0.000642  -0.000116
    39  H    0.000030   0.000162   0.000010  -0.000197  -0.000084   0.000006
    40  H   -0.000137   0.000904   0.000107  -0.000747  -0.000713  -0.000093
              13         14         15         16         17         18
     1  C   -0.000900   0.458141   0.439461   0.403240  -0.054076  -0.023674
     2  C   -0.002977  -0.134094  -0.067781  -0.062399   0.425511   0.442263
     3  C   -0.072331   0.030365  -0.022840   0.003654  -0.057342  -0.099980
     4  N    0.032690   0.000458   0.000760  -0.000571   0.002003   0.007743
     5  C   -0.704050  -0.001381  -0.002146   0.002688  -0.001416  -0.003540
     6  O    0.083112   0.000001  -0.000049   0.000000  -0.000123  -0.000114
     7  N    0.032638   0.000015   0.000024   0.000017  -0.000728   0.000516
     8  C   -6.699595  -0.000017  -0.000044   0.000096   0.000363  -0.002029
     9  C    5.098581  -0.000009  -0.000061  -0.000004   0.000098  -0.000552
    10  C   -2.045646   0.000000   0.000012  -0.000001  -0.000077   0.000493
    11  C   -3.130429   0.000000   0.000001  -0.000000  -0.000016   0.000039
    12  C   -6.007006  -0.000000  -0.000000   0.000000   0.000003  -0.000001
    13  C   20.940600  -0.000000  -0.000003   0.000002   0.000019  -0.000046
    14  H   -0.000000   0.510473  -0.027949  -0.027582  -0.003075  -0.002974
    15  H   -0.000003  -0.027949   0.512762  -0.033140  -0.004693   0.003796
    16  H    0.000002  -0.027582  -0.033140   0.511091   0.003925  -0.004337
    17  H    0.000019  -0.003075  -0.004693   0.003925   0.493904  -0.031417
    18  H   -0.000046  -0.002974   0.003796  -0.004337  -0.031417   0.474503
    19  H    0.000697  -0.000084  -0.000402   0.002926   0.004413  -0.005522
    20  H   -0.001121  -0.000071   0.002809  -0.000299  -0.005763   0.004110
    21  H   -0.001782   0.000000   0.000003  -0.000004   0.000019   0.001782
    22  H    0.006525   0.000000  -0.000000   0.000000   0.000000  -0.000000
    23  H    0.033858   0.000000  -0.000000   0.000000   0.000000  -0.000000
    24  H    0.096725  -0.000000   0.000000   0.000000  -0.000000   0.000000
    25  Cl  -0.005542  -0.000000  -0.000000   0.000000   0.000000  -0.000000
    26  C   -0.449113  -0.000000  -0.000000   0.000000   0.000000  -0.000001
    27  F   -0.306550  -0.000000  -0.000000  -0.000000  -0.000000  -0.000000
    28  F    0.277152   0.000000  -0.000000   0.000000  -0.000000   0.000000
    29  F    0.280822  -0.000000  -0.000000   0.000000   0.000000  -0.000000
    30  H    0.029862  -0.000000  -0.000000  -0.000000   0.000000   0.000003
    31  O   -0.004503  -0.000023  -0.000035   0.000015  -0.000411  -0.004541
    32  O    0.017454  -0.000000  -0.000000   0.000000   0.000037  -0.000060
    33  C   -0.018336  -0.000113  -0.000044   0.000030   0.000206  -0.000850
    34  C   -0.019549   0.000073  -0.000005  -0.000015   0.000123   0.000044
    35  C    0.002764  -0.000001   0.000000  -0.000000  -0.000032  -0.000033
    36  H   -0.000020  -0.000000  -0.000000   0.000000   0.000000  -0.000000
    37  H   -0.000027  -0.000000  -0.000000   0.000000   0.000000  -0.000000
    38  H   -0.000021   0.000000  -0.000000  -0.000000  -0.000000   0.000000
    39  H   -0.000001   0.000000  -0.000000  -0.000000   0.000000  -0.000000
    40  H    0.000015   0.000000  -0.000000  -0.000000   0.000000   0.000000
              19         20         21         22         23         24
     1  C   -0.019641  -0.000630   0.003527   0.000023  -0.000003   0.000000
     2  C   -0.070388  -0.038497  -0.000733  -0.000037   0.000038   0.000000
     3  C    0.423272   0.497337  -0.020910   0.004293  -0.000723   0.000033
     4  N   -0.062030  -0.045309   0.149128   0.001299   0.000704   0.000016
     5  C    0.019495  -0.086198  -0.005698   0.037750  -0.012316   0.003653
     6  O    0.001248  -0.001089   0.003155  -0.003397   0.000113  -0.000002
     7  N   -0.001082  -0.001046   0.006196  -0.015402  -0.010054   0.000155
     8  C    0.003488  -0.002722   0.004969  -0.087650  -0.046284   0.054141
     9  C    0.004976  -0.011530  -0.009313   0.438718  -0.001025   0.005944
    10  C   -0.001351   0.002432   0.002361  -0.020251   0.361325  -0.136634
    11  C   -0.000166   0.000282  -0.000316  -0.024769  -0.013627   0.276353
    12  C    0.000068  -0.000092   0.000308  -0.042341  -0.031140   0.012162
    13  C    0.000697  -0.001121  -0.001782   0.006525   0.033858   0.096725
    14  H   -0.000084  -0.000071   0.000000   0.000000   0.000000  -0.000000
    15  H   -0.000402   0.002809   0.000003  -0.000000  -0.000000   0.000000
    16  H    0.002926  -0.000299  -0.000004   0.000000   0.000000   0.000000
    17  H    0.004413  -0.005763   0.000019   0.000000   0.000000  -0.000000
    18  H   -0.005522   0.004110   0.001782  -0.000000  -0.000000   0.000000
    19  H    0.541573  -0.047499   0.001269  -0.000000   0.000000   0.000000
    20  H   -0.047499   0.516746   0.001823  -0.000002   0.000000   0.000000
    21  H    0.001269   0.001823   0.243278  -0.000000   0.000004   0.000000
    22  H   -0.000000  -0.000002  -0.000000   0.405287  -0.000111   0.000012
    23  H    0.000000   0.000000   0.000004  -0.000111   0.424974  -0.003508
    24  H    0.000000   0.000000   0.000000   0.000012  -0.003508   0.479830
    25  Cl   0.000000  -0.000000  -0.000000   0.000330   0.000561  -0.002005
    26  C    0.000048  -0.000060  -0.000158  -0.013735   0.007511  -0.001614
    27  F   -0.000000  -0.000000   0.000000   0.008835  -0.000000   0.000016
    28  F   -0.000000   0.000000  -0.000000  -0.000038   0.000001   0.000001
    29  F    0.000000  -0.000000  -0.000000  -0.000030   0.000001   0.000000
    30  H    0.000005   0.000008   0.008938  -0.000174   0.006523  -0.000008
    31  O    0.000334  -0.000394   0.077620   0.000002   0.000007   0.000000
    32  O    0.000003  -0.000014  -0.000786   0.000002  -0.001674   0.000109
    33  C    0.000096   0.001014  -0.005000   0.000016   0.000443  -0.000039
    34  C   -0.000015   0.000056   0.017787   0.000009   0.000974   0.000008
    35  C    0.000000   0.000005  -0.002896  -0.000002  -0.000217  -0.000055
    36  H    0.000000  -0.000000  -0.000007   0.000000   0.000000  -0.000000
    37  H   -0.000000  -0.000000  -0.000002   0.000000   0.000000  -0.000000
    38  H   -0.000000   0.000000   0.000000   0.000000   0.000014   0.000000
    39  H   -0.000000  -0.000000   0.000000  -0.000000   0.000000   0.000000
    40  H    0.000000   0.000000  -0.000000   0.000000   0.000014   0.000000
              25         26         27         28         29         30
     1  C   -0.000001  -0.000318   0.000001   0.000000   0.000000  -0.000009
     2  C    0.000003   0.000052  -0.000004  -0.000001  -0.000001  -0.001176
     3  C   -0.000110  -0.017990   0.000531   0.000055   0.000027  -0.002078
     4  N    0.000140   0.000073   0.000027   0.000012   0.000008   0.011817
     5  C   -0.005386  -0.202240   0.016107   0.004021   0.003165  -0.045941
     6  O    0.000070   0.010985  -0.000815  -0.000002  -0.000013   0.003432
     7  N   -0.000290   0.034883  -0.000486   0.000370   0.000403   0.097934
     8  C   -0.028033  -3.097109   0.214627   0.055348   0.050328  -0.014426
     9  C   -0.012659   0.216495   0.127686   0.069910   0.067744   0.070945
    10  C    0.057828   0.202789  -0.011572  -0.020410  -0.019568  -0.045302
    11  C   -0.028329   0.141335   0.025145  -0.002937  -0.003280   0.002780
    12  C   -0.274509  -1.025236  -0.080203  -0.274163  -0.276351  -0.006707
    13  C   -0.005542  -0.449113  -0.306550   0.277152   0.280822   0.029862
    14  H   -0.000000  -0.000000  -0.000000   0.000000  -0.000000  -0.000000
    15  H   -0.000000  -0.000000  -0.000000  -0.000000  -0.000000  -0.000000
    16  H    0.000000   0.000000  -0.000000   0.000000   0.000000  -0.000000
    17  H    0.000000   0.000000  -0.000000  -0.000000   0.000000   0.000000
    18  H   -0.000000  -0.000001  -0.000000   0.000000  -0.000000   0.000003
    19  H    0.000000   0.000048  -0.000000  -0.000000   0.000000   0.000005
    20  H   -0.000000  -0.000060  -0.000000   0.000000  -0.000000   0.000008
    21  H   -0.000000  -0.000158   0.000000  -0.000000  -0.000000   0.008938
    22  H    0.000330  -0.013735   0.008835  -0.000038  -0.000030  -0.000174
    23  H    0.000561   0.007511  -0.000000   0.000001   0.000001   0.006523
    24  H   -0.002005  -0.001614   0.000016   0.000001   0.000000  -0.000008
    25  Cl  17.111442  -0.009051   0.000394  -0.001574  -0.000964   0.000003
    26  C   -0.009051   8.589461   0.120634   0.013617   0.019532   0.002857
    27  F    0.000394   0.120634   9.315493  -0.044355  -0.044473  -0.000000
    28  F   -0.001574   0.013617  -0.044355   9.259761  -0.062695   0.000000
    29  F   -0.000964   0.019532  -0.044473  -0.062695   9.259368   0.000000
    30  H    0.000003   0.002857  -0.000000   0.000000   0.000000   0.266295
    31  O   -0.000001  -0.000270  -0.000000  -0.000000  -0.000000  -0.000874
    32  O   -0.000039   0.000971   0.000000  -0.000000  -0.000000   0.093152
    33  C   -0.000087  -0.004349   0.000018   0.000003   0.000003  -0.008676
    34  C   -0.000023  -0.001170   0.000001   0.000000   0.000000   0.018577
    35  C    0.000004   0.000199  -0.000000   0.000000  -0.000000  -0.002670
    36  H    0.000000  -0.000000  -0.000000  -0.000000  -0.000000  -0.000029
    37  H    0.000000  -0.000000  -0.000000  -0.000000  -0.000000  -0.000026
    38  H   -0.000000  -0.000001  -0.000000  -0.000000  -0.000000  -0.000012
    39  H   -0.000000  -0.000000  -0.000000  -0.000000  -0.000000   0.000000
    40  H   -0.000000  -0.000000  -0.000000  -0.000000  -0.000000  -0.000012
              31         32         33         34         35         36
     1  C    0.006276  -0.001122  -0.005062   0.007515  -0.000853   0.000059
     2  C    0.001798  -0.003860  -0.008188  -0.005393  -0.000525   0.000268
     3  C    0.007251   0.000237   0.017136   0.047784  -0.004516  -0.000061
     4  N   -0.035801   0.004908   0.001025  -0.033127   0.003834  -0.000209
     5  C   -0.005519   0.007641  -0.012324  -0.031377   0.002119  -0.000029
     6  O   -0.000169   0.000163  -0.002002  -0.001484   0.000083  -0.000000
     7  N    0.019581   0.012524  -0.019608  -0.018961   0.002388   0.000177
     8  C   -0.017138  -0.353029   0.218729  -0.079314  -0.013804  -0.000948
     9  C   -0.014354  -0.008592  -0.010878  -0.057589   0.004159  -0.000107
    10  C   -0.000760   0.264130  -0.127757   0.066954   0.002850   0.000721
    11  C   -0.004842   0.093661  -0.098550   0.025737   0.012787   0.000021
    12  C    0.002200  -0.003546   0.008097   0.008652  -0.002722   0.000006
    13  C   -0.004503   0.017454  -0.018336  -0.019549   0.002764  -0.000020
    14  H   -0.000023  -0.000000  -0.000113   0.000073  -0.000001  -0.000000
    15  H   -0.000035  -0.000000  -0.000044  -0.000005   0.000000  -0.000000
    16  H    0.000015   0.000000   0.000030  -0.000015  -0.000000   0.000000
    17  H   -0.000411   0.000037   0.000206   0.000123  -0.000032   0.000000
    18  H   -0.004541  -0.000060  -0.000850   0.000044  -0.000033  -0.000000
    19  H    0.000334   0.000003   0.000096  -0.000015   0.000000   0.000000
    20  H   -0.000394  -0.000014   0.001014   0.000056   0.000005  -0.000000
    21  H    0.077620  -0.000786  -0.005000   0.017787  -0.002896  -0.000007
    22  H    0.000002   0.000002   0.000016   0.000009  -0.000002   0.000000
    23  H    0.000007  -0.001674   0.000443   0.000974  -0.000217   0.000000
    24  H    0.000000   0.000109  -0.000039   0.000008  -0.000055  -0.000000
    25  Cl  -0.000001  -0.000039  -0.000087  -0.000023   0.000004   0.000000
    26  C   -0.000270   0.000971  -0.004349  -0.001170   0.000199  -0.000000
    27  F   -0.000000   0.000000   0.000018   0.000001  -0.000000  -0.000000
    28  F   -0.000000  -0.000000   0.000003   0.000000   0.000000  -0.000000
    29  F   -0.000000  -0.000000   0.000003   0.000000  -0.000000  -0.000000
    30  H   -0.000874   0.093152  -0.008676   0.018577  -0.002670  -0.000029
    31  O    8.501498  -0.186425   0.534325  -0.274238   0.034521  -0.002349
    32  O   -0.186425   8.578369   0.208799  -0.093315   0.052528   0.001283
    33  C    0.534325   0.208799   5.821595  -1.125422   0.073429  -0.080905
    34  C   -0.274238  -0.093315  -1.125422   7.797879  -0.435433   0.450143
    35  C    0.034521   0.052528   0.073429  -0.435433   5.857361  -0.049767
    36  H   -0.002349   0.001283  -0.080905   0.450143  -0.049767   0.504110
    37  H   -0.002896   0.002480  -0.102912   0.475833  -0.053653  -0.029935
    38  H    0.000117  -0.004686  -0.010671  -0.050895   0.419058  -0.003958
    39  H   -0.000199   0.002012   0.034795  -0.084094   0.388036  -0.002145
    40  H    0.000108  -0.004746  -0.001039  -0.062790   0.421351   0.003710
              37         38         39         40
     1  C    0.000018   0.000001   0.000000   0.000001
     2  C   -0.000090   0.000010   0.000004   0.000016
     3  C    0.000330   0.000006  -0.000007  -0.000010
     4  N   -0.000153   0.000004  -0.000006   0.000008
     5  C   -0.000337  -0.000054   0.000024   0.000007
     6  O   -0.000000  -0.000000   0.000000  -0.000000
     7  N    0.000158  -0.000117   0.000030  -0.000137
     8  C   -0.001550   0.000391   0.000162   0.000904
     9  C   -0.000213  -0.000025   0.000010   0.000107
    10  C    0.001352  -0.000084  -0.000197  -0.000747
    11  C    0.000116  -0.000642  -0.000084  -0.000713
    12  C    0.000005  -0.000116   0.000006  -0.000093
    13  C   -0.000027  -0.000021  -0.000001   0.000015
    14  H   -0.000000   0.000000   0.000000   0.000000
    15  H   -0.000000  -0.000000  -0.000000  -0.000000
    16  H    0.000000  -0.000000  -0.000000  -0.000000
    17  H    0.000000  -0.000000   0.000000   0.000000
    18  H   -0.000000   0.000000  -0.000000   0.000000
    19  H   -0.000000  -0.000000  -0.000000   0.000000
    20  H   -0.000000   0.000000  -0.000000   0.000000
    21  H   -0.000002   0.000000   0.000000  -0.000000
    22  H    0.000000   0.000000  -0.000000   0.000000
    23  H    0.000000   0.000014   0.000000   0.000014
    24  H   -0.000000   0.000000   0.000000   0.000000
    25  Cl   0.000000  -0.000000  -0.000000  -0.000000
    26  C   -0.000000  -0.000001  -0.000000  -0.000000
    27  F   -0.000000  -0.000000  -0.000000  -0.000000
    28  F   -0.000000  -0.000000  -0.000000  -0.000000
    29  F   -0.000000  -0.000000  -0.000000  -0.000000
    30  H   -0.000026  -0.000012   0.000000  -0.000012
    31  O   -0.002896   0.000117  -0.000199   0.000108
[...]
 005849,0.00001798,-0.00000349,0.00000912,0.00000445,-0.00000177,-0.000
 00609,-0.00000656,0.00001451,-0.00000404,0.00000744,-0.00000135,0.0000
 0456,0.00001999,-0.00000043,-0.00000099,-0.00001044,-0.00001328,0.0000
 0277,0.00001564,0.00000222,0.00000410,0.00000032,0.00000264,-0.0000016
 1,-0.00000068,-0.00000092,0.00000123,-0.00000533,-0.00000290,0.0000061
 8,-0.00001416,-0.00001180,-0.00001381,0.00000907,-0.00000072,-0.000003
 16,0.00001068,-0.00000335,0.00000420,-0.00000961,0.00009009,-0.0000691
 3,-0.00000183,0.00000089,-0.00000144,0.00000756,0.00000621,-0.00000721
 ,0.00000356,0.00000244,-0.00000174,-0.00001760,-0.00000610,0.00000164,
 0.00001258,0.00005125,-0.00001413,0.00000346,-0.00001624,0.00000372,-0
 .00000896,-0.00001466,0.00001279,-0.00000750,-0.00001568,-0.00000223,0
 .00000539,-0.00001637,-0.00010989,0.00125136,-0.00078575,0.00005237,0.
 00085719,0.00092224,-0.00171088,0.00397951,0.00640377,0.00604871,-0.10
 256622,-0.08174493,-0.15455880,0.00163323,0.00138581,0.00130198,0.1132
 4038,0.08816605,0.16745059,0.00000460,0.00000489,0.00000275,-0.0000052
 7,-0.00000481,-0.00000816,0.00001981,-0.00000380,0.00000681,0.00008021
 ,0.00009498,-0.00000160,-0.00021494,-0.00003369,0.00002038,0.00005207,
 0.00001950,-0.00001388,0.00010091,-0.00015243,0.00001139,-0.00005331,-
 0.00004302,0.00000638,0.00001620,0.00001155,0.00000156,0.00001889,0.00
 001641,-0.00001470,-0.00000760,-0.00000315,-0.00000643,0.00001242,-0.0
 0000228,-0.00000022,-0.00001470,-0.00001400,0.00000068,-0.00000446,-0.
 00000129,-0.00000229,-0.00000256,0.00000094,-0.00000068,-0.00000140,0.
 00000200,0.00000089,0.00000481,-0.00000243,0.00000685,0.00001604,0.000
 00285,-0.00000426,0.00000112,-0.00000007,0.00000122,-0.00000412,0.0000
 0298,-0.00000414,-0.00001856,-0.00018407,0.00000169,-0.00000622,-0.000
 00245,0.00000297,0.00000018,0.00003453,0.00001902,0.00000824,0.0000063
 6,0.00000602,-0.00000090,-0.00000373,-0.00000046,-0.00000328,0.0000278
 6,0.00001067,0.00000615,-0.00001007,-0.00000115,0.00000094,-0.00000593
 ,-0.00000272,-0.00000360,-0.00000965,-0.00000700,-0.00004166,0.0001956
 3,-0.00004095,-0.00019058,0.00150931,-0.00076171,0.00049781,-0.0016255
 3,-0.00034072,-0.00243426,-0.00109397,0.00164801,-0.09040207,-0.009614
 37,0.09912288,-0.01267620,-0.00291702,0.02816732,0.00824561,0.00266577
 ,-0.01860677,0.10044427,0.00000297,0.00000757,0.00000153,0.00000829,-0
 .00001949,0.00000961,-0.00004528,0.00003517,0.00000674,0.00009701,0.00
 009155,0.00001815,-0.00033311,0.00009213,0.00002355,0.00009980,-0.0001
 2960,-0.00000636,0.00004234,-0.00061982,0.00020789,0.00023825,0.000023
 25,0.00000276,-0.00003969,-0.00003502,-0.00000795,-0.00007742,0.000071
 28,-0.00001265,0.00002677,-0.00002004,0.00000264,0.00000837,-0.0000094
 8,0.00000046,-0.00000569,-0.00002005,0.00000260,0.00000443,0.00000023,
 0.00000112,-0.00000093,0.00000034,-0.00000238,0.00000213,-0.00000499,-
 0.00000180,-0.00000312,0.00000106,-0.00000704,-0.00000829,0.00000706,0
 .00000413,0.00001319,-0.00001386,-0.00000870,0.00000553,-0.00000387,-0
 .00000257,-0.00005927,-0.00005438,-0.00009383,0.00000245,0.00000301,0.
 00000144,0.00008510,0.00000798,-0.00000039,-0.00000969,0.00000031,0.00
 000189,-0.00003581,-0.00000927,0.00000203,0.00002094,0.00005841,-0.000
 00164,-0.00000076,-0.00001641,0.00000125,-0.00001097,-0.00001628,0.000
 01182,-0.00001315,-0.00002077,-0.00001054,-0.00010321,0.00094063,-0.00
 039779,0.00062256,-0.00018331,-0.00403211,-0.00181004,-0.00689495,-0.0
 0217071,-0.01319706,-0.00028496,0.03349091,-0.00959132,-0.04731012,0.0
 2768729,0.00637985,0.00082096,-0.01373770,0.00698748,0.00156516,-0.015
 55141,0.00904459,0.05225554,0.00000163,-0.00000499,0.00000474,-0.00001
 057,0.00002084,-0.00003376,0.00008872,-0.00003805,-0.00000472,-0.00010
 488,0.00002974,-0.00000304,0.00025791,-0.00010768,-0.00001438,-0.00007
 795,0.00012178,-0.00000269,-0.00004209,0.00036814,-0.00005925,-0.00013
 221,0.00000613,0.00000524,0.00001250,0.00001726,-0.00000105,0.00003899
 ,-0.00005944,0.00000439,-0.00001956,0.00001332,0.00000517,-0.00003067,
 0.00000536,-0.00000061,0.00001823,0.00002956,-0.00000243,-0.00001477,-
 0.00000238,-0.00000756,0.00000035,-0.00000429,0.00000436,-0.00000339,0
 .00001028,0.00000424,0.00000684,-0.00000339,0.00001466,0.00001239,0.00
 000069,0.00000021,-0.00001804,0.00001711,0.00001325,-0.00001274,0.0000
 0389,-0.00000042,0.00003597,-0.00006019,0.00003750,0.00000201,-0.00000
 243,-0.00000238,-0.00005180,-0.00002577,-0.00000532,-0.00000139,-0.000
 00518,-0.00000253,0.00003932,0.00001281,-0.00000233,-0.00002548,-0.000
 09781,0.00000203,-0.00000475,0.00002985,-0.00000221,0.00001385,0.00002
 610,-0.00001431,0.00001859,0.00003359,0.00001516,0.00002990,-0.0005503
 7,0.00010744,-0.00173700,0.00060922,0.00228828,-0.00055623,0.00225171,
 0.00027277,0.00511987,-0.00282362,-0.00748766,0.09800077,0.02445636,-0
 .26525696,-0.00134216,-0.00027215,0.00209681,0.00865108,0.00272482,-0.
 02039570,-0.10855688,-0.02610082,0.28601476,0.00000193,0.00000236,-0.0
 0000583,0.00000045,-0.00000861,0.00002634,-0.00000022,0.00000258,-0.00
 000143,0.00001729,0.00006495,-0.00004286,-0.00006388,-0.00001090,0.000
 01948,0.00001579,0.00001575,-0.00000888,-0.00000814,-0.00003322,-0.000
 01401,0.00004088,0.00001497,0.00000187,-0.00001174,-0.00000018,-0.0000
 0187,-0.00001943,-0.00000903,-0.00000185,0.00001323,-0.00000301,-0.000
 00193,-0.00001094,-0.00000152,0.00000314,0.00000613,0.00000707,-0.0000
 0378,0.00000049,-0.00000115,0.00000297,-0.00000255,0.00000540,-0.00000
 272,0.00000119,-0.00000316,-0.00000086,-0.00000163,-0.00000018,-0.0000
 0653,0.00000495,-0.00000162,-0.00000592,0.00000096,-0.00000365,-0.0000
 0155,-0.00000095,0.00000611,-0.00000198,0.00000069,-0.00009886,0.00004
 275,0.00000070,0.00000127,0.00000164,0.00002494,-0.00001192,0.00000534
 ,-0.00001012,-0.00000715,-0.00000069,0.00000306,0.00000293,-0.00000050
 ,-0.00000379,-0.00001569,0.00001026,-0.00000180,0.00000565,-0.00000223
 ,0.00000310,0.00000486,-0.00000658,0.00000121,0.00000418,-0.00000098,0
 .00000548,0.00005602,0.00000802,0.00059781,0.00025417,-0.00051895,0.00
 122233,0.00017446,-0.00088525,-0.00110058,-0.00164970,0.00101263,-0.01
 340744,-0.00242125,0.02982183,-0.09039723,-0.01102965,0.09945975,0.000
 94916,-0.00096280,-0.00014078,-0.00557876,0.00307025,-0.00059606,0.100
 80900,0.00000150,-0.00000308,-0.00000163,-0.00000408,0.00000681,0.0000
 0209,0.00005653,-0.00002463,-0.00000362,-0.00007405,0.00002008,0.00000
 308,0.00017717,-0.00010511,0.00000066,-0.00005245,0.00010071,-0.000010
 24,-0.00002814,0.00023625,-0.00002877,-0.00005200,0.00002845,-0.000011
 21,-0.00001229,0.00000671,0.00000247,0.00000560,-0.00007206,0.00003713
 ,-0.00002346,0.00002177,0.00000472,-0.00004576,0.00000523,-0.00000359,
 0.00003090,0.00003603,-0.00000436,-0.00000860,-0.00000277,-0.00000098,
 -0.00000103,0.00000268,-0.00000047,-0.00000113,0.00000302,0.00000197,0
 .00000414,-0.00000082,0.00000247,0.00000840,-0.00000182,-0.00000265,-0
 .00001312,0.00000896,0.00000803,-0.00000644,0.00000679,-0.00000182,0.0
 0003220,-0.00007196,0.00000824,0.00000361,0.00000074,-0.00000151,-0.00
 004091,-0.00008816,-0.00004323,-0.00000767,-0.00000857,-0.00000301,0.0
 0004896,0.00001582,-0.00000349,-0.00003627,-0.00010672,0.00001354,-0.0
 0000284,0.00003078,-0.00000427,0.00001928,0.00002930,-0.00002170,0.000
 02141,0.00003581,0.00001359,-0.00001075,-0.00038134,0.00005340,-0.0008
 8976,-0.00000593,0.00024229,-0.00099702,-0.00018066,0.00082074,0.00180
 653,0.00072965,-0.00135021,0.00519985,0.00113517,-0.01303473,-0.011845
 33,-0.04990363,0.02546132,-0.00064765,0.00041231,0.00037030,0.00282768
 ,-0.00093869,0.00003776,0.01041819,0.05002393,-0.00000336,-0.00000411,
 0.00000175,-0.00000043,0.00001351,-0.00001234,0.00000905,-0.00000636,-
 0.00000011,-0.00008952,-0.00011398,0.00003753,0.00019603,0.00000889,-0
 .00001627,-0.00005059,-0.00002372,0.00001259,-0.00014683,-0.00000181,0
 .00002678,0.00015522,0.00007265,-0.00002198,-0.00004504,-0.00002499,0.
 00000611,-0.00005538,-0.00000967,0.00003093,0.00002001,0.00000012,0.00
 000900,-0.00002857,0.00000151,0.00000068,0.00002754,0.00002303,-0.0000
 0351,-0.00000244,0.00000085,-0.00000167,0.00000261,-0.00000459,0.00000
 325,0.00000016,0.00000164,-0.00000036,0.00000012,0.00000160,-0.0000003
 3,-0.00000504,-0.00000097,0.00000677,-0.00000612,0.00000437,0.00000145
 ,0.00000118,-0.00000460,0.00000317,0.00000830,0.00013288,-0.00004801,0
 .00001096,0.00000459,-0.00000370,0.00002846,-0.00008576,-0.00003050,-0
 .00002094,-0.00001447,-0.00000921,0.00000097,0.00000663,0.00000065,0.0
 0000375,-0.00005397,-0.00001061,-0.00001145,0.00001973,0.00000039,0.00
 000010,0.00001235,0.00000127,0.00000605,0.00001759,0.00000960,-0.00000
 136,0.00000669,-0.00002891,-0.00049660,-0.00069287,0.00019012,-0.00181
 839,0.00025434,0.00076816,0.00173107,0.00193470,-0.00053548,-0.0003827
 7,-0.00078921,0.00087016,0.10027155,0.02340822,-0.27519973,0.00046563,
 -0.00022746,0.00072051,-0.00019622,0.00040916,0.00161671,-0.10963494,-
 0.02757462,0.29655192,0.00000996,0.00000727,-0.00000853,-0.00000947,-0
 .00001848,0.00002375,0.00006162,-0.00001112,-0.00001996,0.00013212,0.0
 0038798,-0.00009105,-0.00034500,-0.00008319,0.00001450,0.00008294,0.00
 011635,-0.00001575,0.00019179,0.00001676,-0.00000935,-0.00019007,-0.00
 008412,0.00001567,0.00004858,0.00003921,-0.00000691,0.00006186,0.00001
 357,0.00000008,-0.00000643,-0.00000341,0.00000103,0.00002400,-0.000000
 70,-0.00000025,-0.00002652,-0.00001675,0.00000263,-0.00000727,-0.00000
 357,-0.00000057,-0.00000726,0.00000775,-0.00000274,-0.00000266,0.00000
 342,0.00000394,0.00000498,-0.00000361,0.00000577,0.00002564,-0.0000020
 5,-0.00001753,-0.00000585,0.00000651,0.00000820,-0.00001479,0.00001768
 ,-0.00000586,-0.00002075,-0.00054991,0.00015180,-0.00001362,-0.0000069
 3,0.00000142,-0.00003132,0.00005229,-0.00001602,0.00001491,0.00000583,
 -0.00000213,0.00000423,-0.00000264,0.00000043,-0.00000766,0.00002040,-
 0.00000311,0.00000797,-0.00000808,0.00000112,0.00000014,-0.00000477,0.
 00000101,0.00000016,-0.00000478,0.00000061,-0.00002258,-0.00004850,0.0
 0001331,-0.00116640,0.00364922,-0.00073712,0.00225305,-0.00015169,-0.0
 0015323,-0.00693571,-0.00331395,0.00174691,0.00251009,0.03300733,-0.00
 839202,-0.04830602,-0.01068024,0.00234785,0.00110729,-0.00082011,-0.00
 041335,0.00118044,-0.00070004,0.00049281,-0.00140799,-0.01287703,0.001
 21812,0.05161478,-0.00001516,-0.00000388,0.00001225,0.00001057,0.00001
 847,-0.00003369,-0.00014482,0.00005197,0.00002691,-0.00002325,-0.00041
 309,0.00009595,0.00009573,0.00030898,-0.00004467,-0.00000462,-0.000313
 87,0.00004649,-0.00019847,-0.00040216,0.00008257,0.00032290,0.00005065
 ,-0.00001775,-0.00003879,-0.00006074,0.00001053,-0.00008875,0.00010349
 ,-0.00000606,0.00004659,-0.00002329,0.00000378,0.00006780,-0.00000362,
 -0.00000151,-0.00002232,-0.00004693,0.00000809,0.00001877,0.00001056,0
 .00000156,0.00001123,-0.00001712,0.00000745,0.00000462,-0.00000896,-0.
 00001039,-0.00000973,0.00000557,-0.00001337,-0.00004143,0.00000825,0.0
 0002841,0.00002328,-0.00001932,-0.00002379,0.00002296,-0.00003196,0.00
 001217,-0.00006487,0.00067641,-0.00017445,0.00001085,0.00000774,-0.000
 00192,0.00008862,0.00007237,-0.00003062,0.00000031,0.00000923,-0.00000
 253,-0.00010082,-0.00002680,0.00000648,0.00008412,0.00018217,-0.000031
 42,-0.00000589,-0.00004973,0.00000822,-0.00003990,-0.00005211,0.000044
 77,-0.00004180,-0.00006333,-0.00002418,0.00005915,0.00069924,-0.000143
 92,0.00195554,-0.00232722,0.00032127,0.00098031,-0.00108547,0.00030235
 ,0.00048424,0.00244442,-0.00049895,-0.00285788,-0.01154518,0.00288196,
 -0.01059303,-0.29494517,0.06005336,0.00031073,0.00052923,0.00040108,0.
 00010191,0.00011724,-0.00061167,-0.00048006,-0.00211952,0.00046527,0.0
 1026609,0.32253593,0.00000279,0.00000096,-0.00000149,-0.00000173,-0.00
 000275,0.00000618,0.00002757,-0.00000971,-0.00000278,-0.00000765,0.000
 05402,-0.00000718,0.00001189,-0.00006398,0.00000398,-0.00000745,0.0000
 6115,-0.00000799,0.00003262,0.00010122,-0.00000349,-0.00006466,-0.0000
 0839,-0.00000293,0.00000703,0.00001146,-0.00000080,0.00001788,-0.00001
 892,0.00002312,-0.00000994,0.00000661,0.00000564,-0.00001571,0.0000005
 7,-0.00000153,0.00000573,0.00001108,-0.00000189,-0.00000431,-0.0000022
 3,0.00000028,-0.00000168,0.00000335,-0.00000173,-0.00000079,0.00000074
 ,0.00000132,0.00000267,-0.00000024,0.00000091,0.00000703,-0.00000093,-
 0.00000324,-0.00000520,0.00000319,0.00000428,-0.00000369,0.00000525,-0
 .00000247,0.00001830,-0.00009632,0.00002010,-0.00000158,-0.00000147,-0
 .00000015,-0.00002053,-0.00002446,-0.00004336,-0.00000057,-0.00000298,
 -0.00000420,0.00002181,0.00000600,-0.00000127,-0.00001789,-0.00004141,
 0.00000580,0.00000080,0.00001149,-0.00000171,0.00000859,0.00001178,-0.
 00000943,0.00000928,0.00001431,0.00000567,-0.00001401,-0.00017214,0.00
 001482,-0.00032867,0.00011115,0.00004036,-0.00043338,0.00047153,0.0006
 9206,0.00082948,-0.00003022,0.00044982,0.00024829,-0.00156910,-0.00073
 083,0.00232737,0.06003786,-0.06545514,-0.00007930,0.00032557,-0.000168
 38,-0.00031189,-0.00030158,0.00016289,0.00000929,0.02998525,-0.0053278
 5,-0.00301938,-0.06735795,0.06418432,0.00000474,0.00000296,-0.00000282
 ,0.00000106,-0.00001220,0.00000278,-0.00001154,0.00000014,-0.00001637,
 0.00006116,0.00011199,0.00000577,-0.00015236,-0.00002195,-0.00001102,0
 .00003771,0.00002536,0.00000494,0.00004942,-0.00003134,0.00002952,-0.0
 0000987,-0.00001110,-0.00000362,0.00000428,0.00001110,-0.00000017,-0.0
 0000373,0.00000191,0.00001125,0.00001168,-0.00000267,0.00000774,0.0000
 0126,-0.00000327,-0.00000137,-0.00000543,-0.00000110,0.00000235,0.0000
 0569,-0.00000089,0.00000055,-0.00000304,0.00000434,-0.00000238,-0.0000
 0328,0.00000355,0.00000479,0.00000059,-0.00000420,0.00001389,0.0000033
 5,-0.00000794,-0.00001542,0.00000201,0.00000588,0.00000519,0.00000018,
 0.00000463,0.00000010,-0.00000510,-0.00013089,0.00001563,-0.00000357,-
 0.00000094,-0.00000244,0.00001980,0.00001223,-0.00003378,-0.00000404,-
 0.00000423,-0.00000228,-0.00000023,0.00000016,0.00000055,-0.00000340,0
 .00000423,-0.00001485,0.00000227,-0.00000183,0.00000270,-0.00000191,-0
 .00000209,0.00000593,0.00000211,0.00000080,0.00000579,0.00000075,0.000
 04886,-0.00003613,0.00081689,0.00058805,0.00012160,0.00186534,0.000522
 67,0.00046856,-0.00167763,-0.00231591,0.00031010,-0.01938323,-0.014527
 50,-0.02144078,-0.14273537,-0.07668924,-0.10571278,-0.00537952,0.00338
 651,0.00076472,0.00095373,-0.00071741,0.00049689,0.00830647,0.00701583
 ,0.00883910,-0.00080918,-0.00019472,0.00076164,0.15804194,0.00000220,-
 0.00000160,-0.00000349,-0.00000315,0.00000006,0.00000753,0.00004582,-0
 .00001982,-0.00000542,-0.00003040,0.00006224,-0.00001773,0.00007974,-0
 .00009410,0.00001479,-0.00002547,0.00009693,-0.00001421,0.00003437,0.0
 0020459,-0.00003867,-0.00010448,-0.00000168,0.00000310,0.00000510,0.00
 001451,-0.00000307,0.00002519,-0.00007018,-0.00000682,-0.00003432,0.00
 002134,-0.00000584,-0.00003083,0.00000580,0.00000312,0.00001828,0.0000
 2321,-0.00000555,-0.00000597,-0.00000235,-0.00000080,-0.00000196,0.000
 00343,-0.00000137,-0.00000067,0.00000256,0.00000267,0.00000234,-0.0000
 0040,0.00000167,0.00000932,-0.00000107,-0.00000399,-0.00000860,0.00000
 594,0.00000703,-0.00000639,0.00000723,-0.00000303,0.00002411,-0.000114
 83,0.00002876,-0.00000102,-0.00000071,0.00000047,-0.00004776,-0.000028
 19,0.00004998,0.00000223,-0.00000151,-0.00000099,0.00004614,0.00001201
 ,-0.00000216,-0.00003623,-0.00007546,0.00000896,0.00000286,0.00001936,
 -0.00000244,0.00001676,0.00002116,-0.00001673,0.00001899,0.00002671,0.
 00001190,-0.00000755,-0.00033453,0.00006557,-0.00062128,0.00020901,-0.
 00013371,-0.00023717,-0.00040555,-0.00020016,0.00111015,0.00031627,0.0
 0072280,0.00844193,0.00715726,0.00988781,-0.07826327,-0.10858963,-0.08
 537014,0.00307260,-0.00092882,0.00043058,-0.00084199,0.00050649,-0.000
 05610,0.00264214,0.00111847,0.00283288,-0.01822198,-0.01427245,-0.0215
 2975,0.08293022,0.11510830,0.00000284,0.00000493,0.00000111,0.00000199
 ,-0.00001482,-0.00000396,-0.00003557,0.00001532,-0.00000547,0.00012213
 ,0.00008817,0.00000242,-0.00026310,0.00003800,-0.00000968,0.00007084,-
 0.00002423,0.00000822,0.00016896,-0.00008474,0.00002204,-0.00015098,-0
 .00009482,0.00001591,0.00005670,0.00002400,-0.00000558,0.00006168,0.00
 005719,0.00001281,-0.00001143,-0.00000570,0.00000943,0.00005537,-0.000
 00366,-0.00000178,-0.00004514,-0.00004223,0.00000913,0.00000712,0.0000
 0111,0.00000047,-0.00000113,0.00000044,-0.00000165,-0.00000137,-0.0000
 0017,0.00000163,-0.00000040,-0.00000029,0.00000592,-0.00000117,0.00000
 040,-0.00000418,0.00001001,-0.00000363,-0.00000153,0.00000285,-0.00000
 196,-0.00000051,-0.00002306,-0.00006890,0.00000729,-0.00001330,-0.0000
 0626,-0.00000045,-0.00002237,0.00011411,-0.00007513,0.00002767,0.00001
 710,-0.00001232,-0.00002567,-0.00001473,0.00000392,0.00001450,0.000106
 43,-0.00002840,0.00001360,-0.00003582,0.00000726,-0.00001465,-0.000029
 17,0.00002381,-0.00001217,-0.00003159,-0.00000445,-0.00000062,0.000130
 76,-0.00004660,0.00066243,0.00051474,-0.00028927,0.00188708,0.00012201
 ,0.00040695,-0.00208736,-0.00169105,0.00049460,0.00145915,0.00139979,0
 .00097143,-0.10601260,-0.08361858,-0.16420669,0.00051020,-0.00001062,0
 .00134378,-0.00015469,0.00056095,0.00062871,-0.01853633,-0.01496295,-0
 .01961894,0.00686390,0.00420793,0.00615830,0.11541412,0.09334254,0.174
 18143\\-0.00000025,-0.00000308,-0.00000091,-0.00000048,0.00000022,-0.0
 0000204,-0.00000209,-0.00000023,-0.00000202,-0.00000233,-0.00000044,0.
 00000184,0.00000268,0.00000089,-0.00000058,0.00000034,-0.00000097,-0.0
 0000053,-0.00000033,0.00000088,-0.00000008,0.00000016,0.00000024,-0.00
 000002,-0.00000085,0.00000015,0.00000016,-0.00000014,0.00000114,0.0000
 0062,0.00000002,0.00000089,0.00000075,-0.00000041,0.00000122,0.0000005
 1,-0.00000063,0.00000098,0.00000023,-0.00000001,-0.00000174,-0.0000010
 2,0.00000004,-0.00000103,-0.00000138,-0.00000043,-0.00000089,-0.000001
 75,0.00000059,-0.00000173,-0.00000068,0.00000067,-0.00000188,-0.000000
 03,0.00000011,-0.00000195,-0.00000043,-0.00000008,-0.00000126,-0.00000
 095,-0.00000028,-0.00000122,-0.00000143,-0.00000080,0.00000040,-0.0000
 0025,0.00000022,0.00000066,0.00000069,0.00000006,0.00000129,0.00000108
 ,-0.00000059,0.00000159,0.00000104,-0.00000126,0.00000109,0.00000006,-
 0.00000102,0.00000036,-0.00000037,-0.00000073,0.00000074,0.00000007,-0
 .00000135,0.00000135,0.00000029,0.00000037,0.00000004,0.00000029,-0.00
 000094,-0.00000029,0.00000035,0.00000226,-0.00000014,0.00000071,-0.000
 00037,0.00000043,-0.00000011,-0.00000026,0.00000121,0.00000045,0.00000
 131,0.00000003,0.00000091,0.00000129,-0.00000073,-0.00000018,0.0000018
 4,-0.00000017,0.00000114,0.00000074,0.00000036,0.00000062,0.00000162,0
 .00000073,0.00000124,0.00000130,0.00000085,0.00000173\\\@


 IF YOU GIVE A BOY AND A PIG EVERYTHING THEY WANT,
 YOU'LL GET A BAD BOY AND A GOOD PIG.
 Job cpu time:       0 days  6 hours 54 minutes 40.0 seconds.
 File lengths (MBytes):  RWF=    984 Int=      0 D2E=      0 Chk=     18 Scr=      1
 Normal termination of Gaussian 09 at Wed Feb 27 17:15:42 2019.
WARNING: pbs_rusage is deprecated and values produced may not be accurate


=============================================================================
                                     Resource usage:
                                       CPU time:              21:28:06
   JobId:    6221627.r-man2            Elapsed time:          02:41:32
   Project:             q95            Requested time:        46:00:00
   Service Units:     21.54 
                                       Max physical memory:     1936MB
                                       Max virtual memory:      2973MB
                                       Requested memory:           0MB

                                       Number of cpus:               8

                                       Max jobfs disk use:       1.0GB
                                       Requested jobfs:         20.0GB
=============================================================================

