 Entering Gaussian System, Link 0=/apps/gaussian/g09e01/g09/g09
 AtFile(1): /home/507/hio507/Basis/6-31pGd.gbs
 Initial command:
 /apps/gaussian/g09e01/g09/l1.exe "/jobfs/local/6207868.r-man2/Gau-34035.inp" -scrdir="/jobfs/local/6207868.r-man2/"
 Entering Link 1 = /apps/gaussian/g09e01/g09/l1.exe PID=     34036.
  
 Copyright (c) 1988,1990,1992,1993,1995,1998,2003,2009,2015,
            Gaussian, Inc.  All Rights Reserved.
  
 This is part of the Gaussian(R) 09 program.  It is based on
 the Gaussian(R) 03 system (copyright 2003, Gaussian, Inc.),
 the Gaussian(R) 98 system (copyright 1998, Gaussian, Inc.),
 the Gaussian(R) 94 system (copyright 1995, Gaussian, Inc.),
 the Gaussian 92(TM) system (copyright 1992, Gaussian, Inc.),
 the Gaussian 90(TM) system (copyright 1990, Gaussian, Inc.),
 the Gaussian 88(TM) system (copyright 1988, Gaussian, Inc.),
 the Gaussian 86(TM) system (copyright 1986, Carnegie Mellon
 University), and the Gaussian 82(TM) system (copyright 1983,
 Carnegie Mellon University). Gaussian is a federally registered
 trademark of Gaussian, Inc.
  
 This software contains proprietary and confidential information,
 including trade secrets, belonging to Gaussian, Inc.
  
 This software is provided under written license and may be
 used, copied, transmitted, or stored only in accord with that
 written license.
  
 The following legend is applicable only to US Government
 contracts under FAR:
  
                    RESTRICTED RIGHTS LEGEND
  
 Use, reproduction and disclosure by the US Government is
 subject to restrictions as set forth in subparagraphs (a)
 and (c) of the Commercial Computer Software - Restricted
 Rights clause in FAR 52.227-19.
  
 Gaussian, Inc.
 340 Quinnipiac St., Bldg. 40, Wallingford CT 06492
  
  
 ---------------------------------------------------------------
 Warning -- This program may not be used in any manner that
 competes with the business of Gaussian, Inc. or will provide
 assistance to any competitor of Gaussian, Inc.  The licensee
 of this program is prohibited from giving any competitor of
 Gaussian, Inc. access to this program.  By using this program,
 the user acknowledges that Gaussian, Inc. is engaged in the
 business of creating and licensing software in the field of
 computational chemistry and represents and warrants to the
 licensee that it is not a competitor of Gaussian, Inc. and that
 it will not use this program in any manner prohibited above.
 ---------------------------------------------------------------
  

 Cite this work as:
 Gaussian 09, Revision E.01,
 M. J. Frisch, G. W. Trucks, H. B. Schlegel, G. E. Scuseria, 
 M. A. Robb, J. R. Cheeseman, G. Scalmani, V. Barone, B. Mennucci, 
 G. A. Petersson, H. Nakatsuji, M. Caricato, X. Li, H. P. Hratchian, 
 A. F. Izmaylov, J. Bloino, G. Zheng, J. L. Sonnenberg, M. Hada, 
 M. Ehara, K. Toyota, R. Fukuda, J. Hasegawa, M. Ishida, T. Nakajima, 
 Y. Honda, O. Kitao, H. Nakai, T. Vreven, J. A. Montgomery, Jr., 
 J. E. Peralta, F. Ogliaro, M. Bearpark, J. J. Heyd, E. Brothers, 
 K. N. Kudin, V. N. Staroverov, T. Keith, R. Kobayashi, J. Normand, 
 K. Raghavachari, A. Rendell, J. C. Burant, S. S. Iyengar, J. Tomasi, 
 M. Cossi, N. Rega, J. M. Millam, M. Klene, J. E. Knox, J. B. Cross, 
 V. Bakken, C. Adamo, J. Jaramillo, R. Gomperts, R. E. Stratmann, 
 O. Yazyev, A. J. Austin, R. Cammi, C. Pomelli, J. W. Ochterski, 
 R. L. Martin, K. Morokuma, V. G. Zakrzewski, G. A. Voth, 
 P. Salvador, J. J. Dannenberg, S. Dapprich, A. D. Daniels, 
 O. Farkas, J. B. Foresman, J. V. Ortiz, J. Cioslowski, 
 and D. J. Fox, Gaussian, Inc., Wallingford CT, 2013.
 
 ******************************************
 Gaussian 09:  ES64L-G09RevE.01 30-Nov-2015
                27-Feb-2019 
 ******************************************
 %chk=3TFM4Chloro_EtO.M062X_6-31pGd_opt_water.chk
 %mem=196608000
 %nproc=8
 Will use up to    8 processors via shared memory.
 ----------------------------------------------------------------------
 # M062X/Gen 6D SCF=Tight INT(grid=ultrafine) OPT=CalcFC IOP(2/17=4) SC
 RF=(SMD,Solvent=h2o) maxdisk=2684354560
 ----------------------------------------------------------------------
 1/10=4,14=-1,18=20,19=15,26=4,38=1/1,3;
 2/9=110,12=2,17=4,18=5,40=1/2;
 3/5=7,8=2,11=2,16=1,25=1,30=1,70=32201,71=2,72=1,74=-55,75=-5,140=1/1,2,3;
 4//1;
 5/5=2,32=2,38=5,53=1/2;
 8/6=4,10=90,11=11/1;
 11/6=1,8=1,9=11,15=111,16=1/1,2,10;
 10/6=1,13=1/2;
 6/7=2,8=2,9=2,10=2,28=1/1;
 7/10=1,18=20,25=1/1,2,3,16;
 1/10=4,14=-1,18=20,19=15,26=4/3(2);
 2/9=110,17=4/2;
 99//99;
 2/9=110,17=4/2;
 3/5=7,6=1,8=2,11=2,16=1,25=1,30=1,70=32205,71=1,72=1,74=-55,75=-5,82=7/1,2,3;
 4/5=5,16=3,69=1/1;
 5/5=2,32=2,38=5,53=1/2;
 7//1,2,3,16;
 1/14=-1,18=20,19=15,26=4/3(-5);
 2/9=110,17=4/2;
 6/7=2,8=2,9=2,10=2,19=2,28=1/1;
 99/9=1/99;
 ---------------------------------------
 3TFM4Chloro_EtO.M062X_6-31pGd_opt_water
 ---------------------------------------
 Symbolic Z-matrix:
 Charge = -1 Multiplicity = 1
 C                    -1.98591   2.52591  -0.12017 
 C                    -0.63722   1.82416   0.00954 
 C                     0.52119   2.80899  -0.1813 
 N                     1.8056    2.13886  -0.05879 
 C                     2.9808    2.82002  -0.19205 
 O                     2.94596   4.01847  -0.41856 
 N                     4.17348   2.1514   -0.07186 
 C                     5.50722   2.69701  -0.17863 
 C                     5.80075   4.06407  -0.41743 
 C                     6.59279   1.81321  -0.03484 
 C                     7.90916   2.25936  -0.12376 
 C                     8.18792   3.60406  -0.35889 
 C                     7.13188   4.52617  -0.50889 
 H                    -2.80411   1.78896   0.02259 
 H                    -2.08902   2.98094  -1.12835 
 H                    -2.08384   3.31992   0.65057 
 H                    -0.57345   1.02297  -0.75868 
 H                    -0.56817   1.3611    1.01797 
 H                     0.45063   3.60843   0.58908 
 H                     0.44451   3.27058  -1.19058 
 H                     1.82411   1.01808   0.15365 
 H                     5.02698   4.79435  -0.53548 
 H                     6.43145   0.76058   0.14856 
 H                     8.71918   1.54998  -0.00817 
 Cl                    9.87862   4.09081  -0.45782 
 C                     7.42732   5.9913   -0.76404 
 F                     6.27217   6.74488  -0.88391 
 F                     8.14917   6.12149  -1.93675 
 F                     8.16839   6.50446   0.28514 
 H                     4.10095   1.02659   0.13644 
 O                     1.90539  -1.00317   0.5585 
 O                     4.13254  -1.00078   0.54132 
 C                     3.09232  -1.63334   0.67525 
 C                     3.11109  -3.10959   0.96952 
 C                     4.52406  -3.68403   1.07121 
 H                     2.56621  -3.64026   0.15986 
 H                     2.58184  -3.28722   1.92996 
 H                     5.06865  -3.54091   0.1134 
 H                     4.46862  -4.77151   1.28865 
 H                     5.08528  -3.18626   1.89077 
 
 Add virtual bond connecting atoms O31        and H21        Dist= 3.90D+00.
 Add virtual bond connecting atoms O32        and H30        Dist= 3.91D+00.

 GradGradGradGradGradGradGradGradGradGradGradGradGradGradGradGradGradGrad
 Berny optimization.
 Initialization pass.
                           ----------------------------
                           !    Initial Parameters    !
                           ! (Angstroms and Degrees)  !
 --------------------------                            --------------------------
 ! Name  Definition              Value          Derivative Info.                !
 --------------------------------------------------------------------------------
 ! R1    R(1,2)                  1.5259         calculate D2E/DX2 analytically  !
 ! R2    R(1,14)                 1.1104         calculate D2E/DX2 analytically  !
 ! R3    R(1,15)                 1.1109         calculate D2E/DX2 analytically  !
 ! R4    R(1,16)                 1.1109         calculate D2E/DX2 analytically  !
 ! R5    R(2,3)                  1.5324         calculate D2E/DX2 analytically  !
 ! R6    R(2,17)                 1.1118         calculate D2E/DX2 analytically  !
 ! R7    R(2,18)                 1.1118         calculate D2E/DX2 analytically  !
 ! R8    R(3,4)                  1.4539         calculate D2E/DX2 analytically  !
 ! R9    R(3,19)                 1.1125         calculate D2E/DX2 analytically  !
 ! R10   R(3,20)                 1.1125         calculate D2E/DX2 analytically  !
 ! R11   R(4,5)                  1.3649         calculate D2E/DX2 analytically  !
 ! R12   R(4,21)                 1.1409         calculate D2E/DX2 analytically  !
 ! R13   R(5,6)                  1.2202         calculate D2E/DX2 analytically  !
 ! R14   R(5,7)                  1.3726         calculate D2E/DX2 analytically  !
 ! R15   R(7,8)                  1.445          calculate D2E/DX2 analytically  !
 ! R16   R(7,30)                 1.1462         calculate D2E/DX2 analytically  !
 ! R17   R(8,9)                  1.4185         calculate D2E/DX2 analytically  !
 ! R18   R(8,10)                 1.4072         calculate D2E/DX2 analytically  !
 ! R19   R(9,13)                 1.412          calculate D2E/DX2 analytically  !
 ! R20   R(9,22)                 1.0705         calculate D2E/DX2 analytically  !
 ! R21   R(10,11)                1.3928         calculate D2E/DX2 analytically  !
 ! R22   R(10,23)                1.0806         calculate D2E/DX2 analytically  !
 ! R23   R(11,12)                1.3933         calculate D2E/DX2 analytically  !
 ! R24   R(11,24)                1.0829         calculate D2E/DX2 analytically  !
 ! R25   R(12,13)                1.41           calculate D2E/DX2 analytically  !
 ! R26   R(12,25)                1.7622         calculate D2E/DX2 analytically  !
 ! R27   R(13,26)                1.5162         calculate D2E/DX2 analytically  !
 ! R28   R(21,31)                2.063          calculate D2E/DX2 analytically  !
 ! R29   R(26,27)                1.3844         calculate D2E/DX2 analytically  !
 ! R30   R(26,28)                1.3832         calculate D2E/DX2 analytically  !
 ! R31   R(26,29)                1.3832         calculate D2E/DX2 analytically  !
 ! R32   R(30,32)                2.0676         calculate D2E/DX2 analytically  !
 ! R33   R(31,33)                1.3489         calculate D2E/DX2 analytically  !
 ! R34   R(32,33)                1.2248         calculate D2E/DX2 analytically  !
 ! R35   R(33,34)                1.5054         calculate D2E/DX2 analytically  !
 ! R36   R(34,35)                1.5287         calculate D2E/DX2 analytically  !
 ! R37   R(34,36)                1.1109         calculate D2E/DX2 analytically  !
 ! R38   R(34,37)                1.1109         calculate D2E/DX2 analytically  !
 ! R39   R(35,38)                1.1111         calculate D2E/DX2 analytically  !
 ! R40   R(35,39)                1.1104         calculate D2E/DX2 analytically  !
 ! R41   R(35,40)                1.111          calculate D2E/DX2 analytically  !
 ! A1    A(2,1,14)             109.5813         calculate D2E/DX2 analytically  !
 ! A2    A(2,1,15)             110.3384         calculate D2E/DX2 analytically  !
 ! A3    A(2,1,16)             110.3441         calculate D2E/DX2 analytically  !
 ! A4    A(14,1,15)            108.6713         calculate D2E/DX2 analytically  !
 ! A5    A(14,1,16)            108.676          calculate D2E/DX2 analytically  !
 ! A6    A(15,1,16)            109.1899         calculate D2E/DX2 analytically  !
 ! A7    A(1,2,3)              111.2243         calculate D2E/DX2 analytically  !
 ! A8    A(1,2,17)             108.8671         calculate D2E/DX2 analytically  !
 ! A9    A(1,2,18)             108.8774         calculate D2E/DX2 analytically  !
 ! A10   A(3,2,17)             109.4942         calculate D2E/DX2 analytically  !
 ! A11   A(3,2,18)             109.4921         calculate D2E/DX2 analytically  !
 ! A12   A(17,2,18)            108.8456         calculate D2E/DX2 analytically  !
 ! A13   A(2,3,4)              111.1685         calculate D2E/DX2 analytically  !
 ! A14   A(2,3,19)             109.1263         calculate D2E/DX2 analytically  !
 ! A15   A(2,3,20)             109.1196         calculate D2E/DX2 analytically  !
 ! A16   A(4,3,19)             109.2026         calculate D2E/DX2 analytically  !
 ! A17   A(4,3,20)             109.1831         calculate D2E/DX2 analytically  !
 ! A18   A(19,3,20)            109.0092         calculate D2E/DX2 analytically  !
 ! A19   A(3,4,5)              121.4942         calculate D2E/DX2 analytically  !
 ! A20   A(3,4,21)             118.8699         calculate D2E/DX2 analytically  !
 ! A21   A(5,4,21)             119.6359         calculate D2E/DX2 analytically  !
 ! A22   A(4,5,6)              118.9292         calculate D2E/DX2 analytically  !
 ! A23   A(4,5,7)              119.7705         calculate D2E/DX2 analytically  !
 ! A24   A(6,5,7)              121.3002         calculate D2E/DX2 analytically  !
 ! A25   A(5,7,8)              127.7079         calculate D2E/DX2 analytically  !
 ! A26   A(5,7,30)             116.037          calculate D2E/DX2 analytically  !
 ! A27   A(8,7,30)             116.2551         calculate D2E/DX2 analytically  !
 ! A28   A(7,8,9)              124.5658         calculate D2E/DX2 analytically  !
 ! A29   A(7,8,10)             117.8625         calculate D2E/DX2 analytically  !
 ! A30   A(9,8,10)             117.5716         calculate D2E/DX2 analytically  !
 ! A31   A(8,9,13)             121.4253         calculate D2E/DX2 analytically  !
 ! A32   A(8,9,22)             121.7663         calculate D2E/DX2 analytically  !
 ! A33   A(13,9,22)            116.8084         calculate D2E/DX2 analytically  !
 ! A34   A(8,10,11)            121.427          calculate D2E/DX2 analytically  !
 ! A35   A(8,10,23)            120.9278         calculate D2E/DX2 analytically  !
 ! A36   A(11,10,23)           117.6452         calculate D2E/DX2 analytically  !
 ! A37   A(10,11,12)           120.6001         calculate D2E/DX2 analytically  !
 ! A38   A(10,11,24)           119.3613         calculate D2E/DX2 analytically  !
 ! A39   A(12,11,24)           120.0386         calculate D2E/DX2 analytically  !
 ! A40   A(11,12,13)           119.9533         calculate D2E/DX2 analytically  !
 ! A41   A(11,12,25)           117.9066         calculate D2E/DX2 analytically  !
 ! A42   A(13,12,25)           122.14           calculate D2E/DX2 analytically  !
 ! A43   A(9,13,12)            119.0227         calculate D2E/DX2 analytically  !
 ! A44   A(9,13,26)            120.7182         calculate D2E/DX2 analytically  !
 ! A45   A(12,13,26)           120.2591         calculate D2E/DX2 analytically  !
 ! A46   A(13,26,27)           112.2079         calculate D2E/DX2 analytically  !
 ! A47   A(13,26,28)           109.591          calculate D2E/DX2 analytically  !
 ! A48   A(13,26,29)           109.5869         calculate D2E/DX2 analytically  !
 ! A49   A(27,26,28)           108.1074         calculate D2E/DX2 analytically  !
 ! A50   A(27,26,29)           108.1054         calculate D2E/DX2 analytically  !
 ! A51   A(28,26,29)           109.1816         calculate D2E/DX2 analytically  !
 ! A52   A(21,31,33)           120.6219         calculate D2E/DX2 analytically  !
 ! A53   A(30,32,33)           120.9866         calculate D2E/DX2 analytically  !
 ! A54   A(31,33,32)           119.7738         calculate D2E/DX2 analytically  !
 ! A55   A(31,33,34)           119.0788         calculate D2E/DX2 analytically  !
 ! A56   A(32,33,34)           121.1475         calculate D2E/DX2 analytically  !
 ! A57   A(33,34,35)           113.1431         calculate D2E/DX2 analytically  !
 ! A58   A(33,34,36)           108.6546         calculate D2E/DX2 analytically  !
 ! A59   A(33,34,37)           108.6544         calculate D2E/DX2 analytically  !
 ! A60   A(35,34,36)           108.8049         calculate D2E/DX2 analytically  !
 ! A61   A(35,34,37)           108.8299         calculate D2E/DX2 analytically  !
 ! A62   A(36,34,37)           108.667          calculate D2E/DX2 analytically  !
 ! A63   A(34,35,38)           110.3225         calculate D2E/DX2 analytically  !
 ! A64   A(34,35,39)           109.5667         calculate D2E/DX2 analytically  !
 ! A65   A(34,35,40)           110.3413         calculate D2E/DX2 analytically  !
 ! A66   A(38,35,39)           108.6291         calculate D2E/DX2 analytically  !
 ! A67   A(38,35,40)           109.3052         calculate D2E/DX2 analytically  !
 ! A68   A(39,35,40)           108.6356         calculate D2E/DX2 analytically  !
 ! A69   L(4,21,31,2,-1)       181.3252         calculate D2E/DX2 analytically  !
 ! A70   L(7,30,32,1,-1)       184.4992         calculate D2E/DX2 analytically  !
 ! A71   L(4,21,31,2,-2)       180.6386         calculate D2E/DX2 analytically  !
 ! A72   L(7,30,32,1,-2)       180.8456         calculate D2E/DX2 analytically  !
 ! D1    D(14,1,2,3)          -179.9949         calculate D2E/DX2 analytically  !
 ! D2    D(14,1,2,17)           59.2721         calculate D2E/DX2 analytically  !
 ! D3    D(14,1,2,18)          -59.2578         calculate D2E/DX2 analytically  !
 ! D4    D(15,1,2,3)            60.3856         calculate D2E/DX2 analytically  !
 ! D5    D(15,1,2,17)          -60.3474         calculate D2E/DX2 analytically  !
 ! D6    D(15,1,2,18)         -178.8773         calculate D2E/DX2 analytically  !
 ! D7    D(16,1,2,3)           -60.3661         calculate D2E/DX2 analytically  !
 ! D8    D(16,1,2,17)          178.9009         calculate D2E/DX2 analytically  !
 ! D9    D(16,1,2,18)           60.371          calculate D2E/DX2 analytically  !
 ! D10   D(1,2,3,4)           -179.9433         calculate D2E/DX2 analytically  !
 ! D11   D(1,2,3,19)            59.5518         calculate D2E/DX2 analytically  !
 ! D12   D(1,2,3,20)           -59.4672         calculate D2E/DX2 analytically  !
 ! D13   D(17,2,3,4)           -59.58           calculate D2E/DX2 analytically  !
 ! D14   D(17,2,3,19)          179.9152         calculate D2E/DX2 analytically  !
 ! D15   D(17,2,3,20)           60.8961         calculate D2E/DX2 analytically  !
 ! D16   D(18,2,3,4)            59.6818         calculate D2E/DX2 analytically  !
 ! D17   D(18,2,3,19)          -60.823          calculate D2E/DX2 analytically  !
 ! D18   D(18,2,3,20)         -179.8421         calculate D2E/DX2 analytically  !
 ! D19   D(2,3,4,5)           -179.9971         calculate D2E/DX2 analytically  !
 ! D20   D(2,3,4,21)             0.0003         calculate D2E/DX2 analytically  !
 ! D21   D(19,3,4,5)           -59.5373         calculate D2E/DX2 analytically  !
 ! D22   D(19,3,4,21)          120.4601         calculate D2E/DX2 analytically  !
 ! D23   D(20,3,4,5)            59.5643         calculate D2E/DX2 analytically  !
 ! D24   D(20,3,4,21)         -120.4383         calculate D2E/DX2 analytically  !
 ! D25   D(3,4,5,6)              0.0289         calculate D2E/DX2 analytically  !
 ! D26   D(3,4,5,7)           -179.8887         calculate D2E/DX2 analytically  !
 ! D27   D(21,4,5,6)          -179.9684         calculate D2E/DX2 analytically  !
 ! D28   D(21,4,5,7)             0.114          calculate D2E/DX2 analytically  !
 ! D29   D(3,4,31,33)         -179.9328         calculate D2E/DX2 analytically  !
 ! D30   D(5,4,31,33)           -0.3665         calculate D2E/DX2 analytically  !
 ! D31   D(4,5,7,8)           -179.9139         calculate D2E/DX2 analytically  !
 ! D32   D(4,5,7,30)             0.1805         calculate D2E/DX2 analytically  !
 ! D33   D(6,5,7,8)              0.1705         calculate D2E/DX2 analytically  !
 ! D34   D(6,5,7,30)          -179.7351         calculate D2E/DX2 analytically  !
 ! D35   D(5,7,8,9)              0.8311         calculate D2E/DX2 analytically  !
 ! D36   D(5,7,8,10)          -179.2335         calculate D2E/DX2 analytically  !
 ! D37   D(30,7,8,9)          -179.2636         calculate D2E/DX2 analytically  !
 ! D38   D(30,7,8,10)            0.6719         calculate D2E/DX2 analytically  !
 ! D39   D(5,7,32,33)           -0.1307         calculate D2E/DX2 analytically  !
 ! D40   D(8,7,32,33)          179.4339         calculate D2E/DX2 analytically  !
 ! D41   D(7,8,9,13)           179.9594         calculate D2E/DX2 analytically  !
 ! D42   D(7,8,9,22)             0.0465         calculate D2E/DX2 analytically  !
 ! D43   D(10,8,9,13)            0.0238         calculate D2E/DX2 analytically  !
 ! D44   D(10,8,9,22)         -179.8892         calculate D2E/DX2 analytically  !
 ! D45   D(7,8,10,11)         -179.9803         calculate D2E/DX2 analytically  !
 ! D46   D(7,8,10,23)            0.0562         calculate D2E/DX2 analytically  !
 ! D47   D(9,8,10,11)           -0.0403         calculate D2E/DX2 analytically  !
 ! D48   D(9,8,10,23)          179.9962         calculate D2E/DX2 analytically  !
 ! D49   D(8,9,13,12)            0.0065         calculate D2E/DX2 analytically  !
 ! D50   D(8,9,13,26)         -179.9734         calculate D2E/DX2 analytically  !
 ! D51   D(22,9,13,12)         179.9236         calculate D2E/DX2 analytically  !
 ! D52   D(22,9,13,26)          -0.0563         calculate D2E/DX2 analytically  !
 ! D53   D(8,10,11,12)           0.0263         calculate D2E/DX2 analytically  !
 ! D54   D(8,10,11,24)        -179.9785         calculate D2E/DX2 analytically  !
 ! D55   D(23,10,11,12)        179.991          calculate D2E/DX2 analytically  !
 ! D56   D(23,10,11,24)         -0.0138         calculate D2E/DX2 analytically  !
 ! D57   D(10,11,12,13)          0.0056         calculate D2E/DX2 analytically  !
 ! D58   D(10,11,12,25)        179.9873         calculate D2E/DX2 analytically  !
 ! D59   D(24,11,12,13)       -179.9896         calculate D2E/DX2 analytically  !
 ! D60   D(24,11,12,25)         -0.0079         calculate D2E/DX2 analytically  !
 ! D61   D(11,12,13,9)          -0.0216         calculate D2E/DX2 analytically  !
 ! D62   D(11,12,13,26)        179.9585         calculate D2E/DX2 analytically  !
 ! D63   D(25,12,13,9)         179.9976         calculate D2E/DX2 analytically  !
 ! D64   D(25,12,13,26)         -0.0224         calculate D2E/DX2 analytically  !
 ! D65   D(9,13,26,27)          -0.0104         calculate D2E/DX2 analytically  !
 ! D66   D(9,13,26,28)        -120.1183         calculate D2E/DX2 analytically  !
 ! D67   D(9,13,26,29)         120.0923         calculate D2E/DX2 analytically  !
 ! D68   D(12,13,26,27)       -179.9901         calculate D2E/DX2 analytically  !
 ! D69   D(12,13,26,28)         59.902          calculate D2E/DX2 analytically  !
 ! D70   D(12,13,26,29)        -59.8874         calculate D2E/DX2 analytically  !
 ! D71   D(21,31,33,32)          0.0771         calculate D2E/DX2 analytically  !
 ! D72   D(21,31,33,34)       -179.9253         calculate D2E/DX2 analytically  !
 ! D73   D(30,32,33,31)         -0.0276         calculate D2E/DX2 analytically  !
 ! D74   D(30,32,33,34)        179.9748         calculate D2E/DX2 analytically  !
 ! D75   D(31,33,34,35)        179.9102         calculate D2E/DX2 analytically  !
 ! D76   D(31,33,34,36)         58.96           calculate D2E/DX2 analytically  !
 ! D77   D(31,33,34,37)        -59.1079         calculate D2E/DX2 analytically  !
 ! D78   D(32,33,34,35)         -0.0922         calculate D2E/DX2 analytically  !
 ! D79   D(32,33,34,36)       -121.0424         calculate D2E/DX2 analytically  !
 ! D80   D(32,33,34,37)        120.8897         calculate D2E/DX2 analytically  !
 ! D81   D(33,34,35,38)        -60.4535         calculate D2E/DX2 analytically  !
 ! D82   D(33,34,35,39)        179.9982         calculate D2E/DX2 analytically  !
 ! D83   D(33,34,35,40)         60.4302         calculate D2E/DX2 analytically  !
 ! D84   D(36,34,35,38)         60.4116         calculate D2E/DX2 analytically  !
 ! D85   D(36,34,35,39)        -59.1367         calculate D2E/DX2 analytically  !
 ! D86   D(36,34,35,40)       -178.7047         calculate D2E/DX2 analytically  !
 ! D87   D(37,34,35,38)        178.664          calculate D2E/DX2 analytically  !
 ! D88   D(37,34,35,39)         59.1157         calculate D2E/DX2 analytically  !
 ! D89   D(37,34,35,40)        -60.4523         calculate D2E/DX2 analytically  !
 --------------------------------------------------------------------------------
 Trust Radius=3.00D-01 FncErr=1.00D-07 GrdErr=1.00D-06
 Number of steps in this run=    212 maximum allowed number of steps=    240.
 GradGradGradGradGradGradGradGradGradGradGradGradGradGradGradGradGradGrad

                          Input orientation:                          
 ---------------------------------------------------------------------
 Center     Atomic      Atomic             Coordinates (Angstroms)
 Number     Number       Type             X           Y           Z
 ---------------------------------------------------------------------
      1          6           0       -1.985910    2.525910   -0.120170
      2          6           0       -0.637220    1.824160    0.009540
      3          6           0        0.521190    2.808990   -0.181300
      4          7           0        1.805600    2.138860   -0.058790
      5          6           0        2.980800    2.820020   -0.192050
      6          8           0        2.945960    4.018470   -0.418560
      7          7           0        4.173480    2.151400   -0.071860
      8          6           0        5.507220    2.697010   -0.178630
      9          6           0        5.800750    4.064070   -0.417430
     10          6           0        6.592790    1.813210   -0.034840
     11          6           0        7.909160    2.259360   -0.123760
     12          6           0        8.187920    3.604060   -0.358890
     13          6           0        7.131880    4.526170   -0.508890
     14          1           0       -2.804110    1.788960    0.022590
     15          1           0       -2.089020    2.980940   -1.128350
     16          1           0       -2.083840    3.319920    0.650570
     17          1           0       -0.573450    1.022970   -0.758680
     18          1           0       -0.568170    1.361100    1.017970
     19          1           0        0.450630    3.608430    0.589080
     20          1           0        0.444510    3.270580   -1.190580
     21          1           0        1.824110    1.018080    0.153650
     22          1           0        5.026980    4.794350   -0.535480
     23          1           0        6.431450    0.760580    0.148560
     24          1           0        8.719180    1.549980   -0.008170
     25         17           0        9.878620    4.090810   -0.457820
     26          6           0        7.427320    5.991300   -0.764040
     27          9           0        6.272170    6.744880   -0.883910
     28          9           0        8.149170    6.121490   -1.936750
     29          9           0        8.168390    6.504460    0.285140
     30          1           0        4.100950    1.026590    0.136440
     31          8           0        1.905390   -1.003170    0.558500
     32          8           0        4.132540   -1.000780    0.541320
     33          6           0        3.092320   -1.633340    0.675250
     34          6           0        3.111090   -3.109590    0.969520
     35          6           0        4.524060   -3.684030    1.071210
     36          1           0        2.566210   -3.640260    0.159860
     37          1           0        2.581840   -3.287220    1.929960
     38          1           0        5.068650   -3.540910    0.113400
     39          1           0        4.468620   -4.771510    1.288650
     40          1           0        5.085280   -3.186260    1.890770
 ---------------------------------------------------------------------
                    Distance matrix (angstroms):
                    1          2          3          4          5
     1  C    0.000000
     2  C    1.525858   0.000000
     3  C    2.523771   1.532392   0.000000
     4  N    3.811709   2.463955   1.453889   0.000000
     5  C    4.975930   3.757984   2.459658   1.364856   0.000000
     6  O    5.161406   4.223440   2.720045   2.227732   1.220165
     7  N    6.170954   4.822504   3.712630   2.367949   1.372583
     8  C    7.495311   6.208979   4.987288   3.745382   2.529448
     9  C    7.942693   6.829858   5.431826   4.449301   3.090400
    10  C    8.608677   7.230154   6.154458   4.798313   3.752979
    11  C    9.898660   8.558492   7.408610   6.105095   4.960618
    12  C   10.233583   9.010376   7.709891   6.555218   5.268458
    13  C    9.342710   8.241877   6.837927   5.854152   4.499200
    14  H    1.110372   2.167215   3.484200   4.623687   5.879995
    15  H    1.110905   2.177305   2.782026   4.125666   5.158064
    16  H    1.110893   2.177367   2.781949   4.126238   5.158535
    17  H    2.159066   1.111816   2.172895   2.719363   4.022829
    18  H    2.159197   1.111811   2.172864   2.720130   4.023405
    19  H    2.758915   2.168618   1.112461   2.101265   2.762882
    20  H    2.758125   2.168538   1.112471   2.101025   2.762758
    21  H    4.106675   2.593970   2.239900   1.140886   2.168969
    22  H    7.382339   6.418897   4.936521   4.201922   2.864049
    23  H    8.604682   7.149589   6.263862   4.831267   4.032901
    24  H   10.750067   9.360433   8.295910   6.938799   5.880121
    25  Cl  11.972050  10.767498   9.448864   8.315226   7.018936
    26  C   10.051487   9.110449   7.626357   6.851453   5.491423
    27  F    9.304778   8.529444   7.004189   6.468886   5.168783
    28  F   10.906329   9.972750   8.499432   7.721979   6.376185
    29  F   10.913430   9.975968   8.506100   7.724108   6.380744
    30  H    6.274048   4.806504   4.011557   2.558103   2.139867
    31  O    5.296906   3.841877   4.122606   3.203648   4.041858
    32  O    7.092992   5.568993   5.298903   3.953748   4.057444
    33  C    6.612146   5.129030   5.203718   4.052648   4.538399
    34  C    7.676307   6.270030   6.562131   5.505266   6.043715
    35  C    9.075376   7.622736   7.729881   6.524797   6.802951
    36  H    7.669541   6.335964   6.774313   5.833058   6.483128
    37  H    7.672018   6.338499   6.772553   5.830954   6.477691
    38  H    9.307399   7.832734   7.815847   6.552628   6.701779
    39  H    9.843682   8.438518   8.672193   7.527316   7.876383
    40  H    9.309914   7.835199   7.814564   6.550877   6.696445
                    6          7          8          9         10
     6  O    0.000000
     7  N    2.261185   0.000000
     8  C    2.892037   1.444975   0.000000
     9  C    2.855154   2.534903   1.418463   0.000000
    10  C    4.278993   2.443114   1.407210   2.416624   0.000000
    11  C    5.273967   3.737600   2.442102   2.790809   1.392762
    12  C    5.258654   4.278824   2.835734   2.431793   2.420040
    13  C    4.217564   3.818725   2.468688   1.412023   2.806331
    14  H    6.182931   6.987635   8.363208   8.911417   9.397107
    15  H    5.189537   6.404937   7.660643   7.995439   8.827977
    16  H    5.189403   6.406356   7.661578   7.991317   8.833112
    17  H    4.634107   4.927314   6.333515   7.070726   7.245924
    18  H    4.634042   4.929051   6.334577   7.066085   7.252045
    19  H    2.722158   4.052085   5.195110   5.463008   6.429481
    20  H    2.722610   4.050841   5.194618   5.469616   6.423473
    21  H    3.253969   2.618169   4.061344   5.041612   4.838189
    22  H    2.224029   2.815775   2.181011   1.070497   3.404350
    23  H    4.804593   2.661089   2.170487   3.410451   1.080600
    24  H    6.292212   4.585755   3.414882   3.873677   2.142787
    25  Cl   6.933149   6.038120   4.596712   4.078158   4.020330
    26  C    4.908564   5.080494   3.857698   2.545601   4.322570
    27  F    4.325914   5.115074   4.179452   2.761627   5.014488
    28  F    5.813862   5.919927   4.668827   3.472231   4.959925
    29  F    5.826587   5.919112   4.668360   3.472006   4.959106
    30  H    3.254746   1.146232   2.206166   3.524539   2.618659
    31  O    5.220565   3.936102   5.216117   6.465539   5.500524
    32  O    5.246162   3.211527   4.010202   5.418010   3.781974
    33  C    5.758541   4.006412   5.031181   6.402345   4.963489
    34  C    7.263833   5.467281   6.385632   7.785840   6.112686
    35  C    8.002395   5.956657   6.576198   7.992436   5.976842
    36  H    7.689924   6.015009   6.994648   8.375692   6.781710
    37  H    7.682528   6.009924   6.986774   8.361405   6.779568
    38  H    7.869754   5.765244   6.260133   7.658555   5.568804
    39  H    9.082775   7.061500   7.681822   9.096854   7.044307
    40  H    7.862432   5.759680   6.250865   7.642445   5.565542
                   11         12         13         14         15
    11  C    0.000000
    12  C    1.393274   0.000000
    13  C    2.427121   1.409967   0.000000
    14  H   10.724591  11.147414  10.319820   0.000000
    15  H   10.074397  10.324526   9.369977   1.804670   0.000000
    16  H   10.078910  10.325154   9.366370   1.804712   1.810936
    17  H    8.595723   9.142399   8.467994   2.484546   2.503449
    18  H    8.600904   9.143070   8.464026   2.484607   3.089265
    19  H    7.613002   7.795147   6.832780   3.771567   3.129398
    20  H    7.608000   7.795083   6.838284   3.771009   2.550792
    21  H    6.216556   6.888256   6.396724   4.693810   4.561681
    22  H    3.860395   3.382235   2.122082   8.406532   7.367320
    23  H    2.122293   3.380543   3.886195   9.293492   8.897129
    24  H    1.082919   2.150462   3.409978  11.525809  10.959910
    25  Cl   2.710088   1.762152   2.781497  12.898874  12.037684
    26  C    3.817002   2.538026   1.516243  11.088760   9.987778
    27  F    4.835024   3.716247   2.408820  10.380835   9.172595
    28  F    4.273241   2.971296   2.370382  11.940861  10.739511
    29  F    4.272619   2.971107   2.370331  11.945737  10.937441
    30  H    4.011220   4.857162   4.674403   6.947951   6.613237
    31  O    6.866938   7.844639   7.683041   5.501143   5.888455
    32  O    5.033260   6.201696   6.375434   7.494588   7.572959
    33  C    6.244476   7.380037   7.460549   6.848795   7.168740
    34  C    7.283019   8.521266   8.755414   7.738350   8.278693
    35  C    6.943395   8.281625   8.758129   9.206264   9.643273
    36  H    7.964488   9.184383   9.379933   7.637775   8.195788
    37  H    7.960066   9.173696   9.364823   7.642913   8.394047
    38  H    6.462807   7.810474   8.349967   9.507687   9.762618
    39  H    7.953952   9.311163   9.837223   9.875995  10.437673
    40  H    6.456579   7.797166   8.332378   9.512381   9.930761
                   16         17         18         19         20
    16  H    0.000000
    17  H    3.089214   0.000000
    18  H    2.503840   1.808548   0.000000
    19  H    2.551579   3.090275   2.504474   0.000000
    20  H    3.128070   2.504901   3.090199   1.811455   0.000000
    21  H    4.562617   2.565280   2.566655   2.964112   2.963782
    22  H    7.358289   6.755586   6.745822   4.859426   4.873404
    23  H    8.905751   7.068278   7.078925   6.638864   6.628487
    24  H   10.966853   9.337772   9.345775   8.541829   8.533975
    25  Cl  12.038407  10.897152  10.897922   9.498194   9.498007
    26  C    9.979958   9.417890   9.409685   7.495546   7.506257
    27  F    9.160125   8.922917   8.910246   6.774758   6.791644
    28  F   10.920509  10.171866  10.362611   8.483089   8.249015
    29  F   10.741650  10.370924  10.164579   8.248830   8.502591
    30  H    6.616292   4.759335   4.763368   4.493953   4.490660
    31  O    5.883157   3.461915   3.452446   4.835713   4.843386
    32  O    7.571246   5.285064   5.282267   5.899454   5.903013
    33  C    7.164358   4.748685   4.741657   5.870443   5.877129
    34  C    8.272099   5.800048   5.790196   7.235646   7.244532
    35  C    9.638288   7.175580   7.168471   8.366914   8.374068
    36  H    8.384979   5.696218   5.964419   7.563294   7.354251
    37  H    8.188999   5.980165   5.688688   7.340981   7.570382
    38  H    9.925606   7.309091   7.524738   8.524403   8.335432
    39  H   10.431353   7.949216   7.940493   9.319712   9.328197
    40  H    9.760367   7.533819   7.307651   8.327196   8.527734
                   21         22         23         24         25
    21  H    0.000000
    22  H    4.999349   0.000000
    23  H    4.614533   4.325708   0.000000
    24  H    6.917448   4.943312   2.425165   0.000000
    25  Cl   8.642378   4.903000   4.831264   2.828834   0.000000
    26  C    7.547916   2.691944   5.402317   4.686744   3.116810
    27  F    7.325163   2.340186   6.074801   5.808766   4.498013
    28  F    8.391719   3.670549   6.003202   4.994300   3.049900
    29  F    8.388536   3.669653   6.002314   4.993623   3.050014
    30  H    2.276921   3.937642   2.345664   4.650043   6.566891
    31  O    2.062998   6.674755   4.874842   7.298454   9.515983
    32  O    3.091105   5.961799   2.922608   5.276891   7.742093
    33  C    2.985038   6.820849   4.142227   6.500934   8.950062
    34  C    4.399957   8.270908   5.164976   7.356504   9.984113
    35  C    5.499226   8.643917   4.923817   6.794038   9.563335
    36  H    4.717084   8.813713   5.857269   8.051451  10.659377
    37  H    4.718585   8.795958   5.863239   8.051198  10.647996
    38  H    5.595806   8.360583   4.512347   6.265645   9.039096
    39  H    6.465370   9.754224   5.979676   7.727240  10.528959
    40  H    5.597257   8.341476   4.519404   6.264437   9.024840
                   26         27         28         29         30
    26  C    0.000000
    27  F    1.384422   0.000000
    28  F    1.383208   2.240584   0.000000
    29  F    1.383220   2.240565   2.254735   0.000000
    30  H    6.043505   6.201141   6.829657   6.824459   0.000000
    31  O    9.009075   9.010083   9.796522   9.780818   3.019693
    32  O    7.838924   8.161161   8.544055   8.525394   2.067645
    33  C    8.888133   9.095988   9.619338   9.599086   2.895320
    34  C   10.220630  10.513715  10.910614  10.884605   4.333801
    35  C   10.266892  10.753629  10.878303  10.849165   4.821074
    36  H   10.828247  11.075862  11.439274  11.589455   4.912786
    37  H   10.808665  11.053480  11.596139  11.392628   4.912572
    38  H    9.858816  10.403873  10.346724  10.514150   4.668943
    39  H   11.349252  11.857489  11.941822  11.909779   5.922899
    40  H    9.836705  10.379552  10.520054  10.295323   4.668478
                   31         32         33         34         35
    31  O    0.000000
    32  O    2.227218   0.000000
    33  C    1.348906   1.224797   0.000000
    34  C    2.461637   2.381973   1.505411   0.000000
    35  C    3.782501   2.762952   2.532191   1.528662   0.000000
    36  H    2.747697   3.092856   2.137790   1.110880   2.160012
    37  H    2.748704   3.092054   2.137804   1.110902   2.160354
    38  H    4.079761   2.740744   2.803637   2.179683   1.111063
    39  H    4.615588   3.858738   3.481174   2.169495   1.110390
    40  H    4.080751   2.739535   2.803737   2.179910   1.111045
                   36         37         38         39         40
    36  H    0.000000
    37  H    1.805031   0.000000
    38  H    2.504842   3.090060   0.000000
    39  H    2.484564   2.484821   1.804335   0.000000
    40  H    3.089964   2.505781   1.812484   1.804393   0.000000
 Stoichiometry    C14H17ClF3N2O3(1-)
 Framework group  C1[X(C14H17ClF3N2O3)]
 Deg. of freedom   114
 Full point group                 C1      NOp   1
 Largest Abelian subgroup         C1      NOp   1
 Largest concise Abelian subgroup C1      NOp   1
                         Standard orientation:                         
 ---------------------------------------------------------------------
 Center     Atomic      Atomic             Coordinates (Angstroms)
 Number     Number       Type             X           Y           Z
 ---------------------------------------------------------------------
      1          6           0        5.320574   -4.266340   -0.007771
      2          6           0        4.709307   -2.868272   -0.007600
      3          6           0        3.178251   -2.932222   -0.009447
      4          7           0        2.597114   -1.599529   -0.010624
      5          6           0        1.245323   -1.411137   -0.012281
      6          8           0        0.513339   -2.387355   -0.012239
      7          7           0        0.734780   -0.137042   -0.015669
      8          6           0       -0.655110    0.258129   -0.016118
      9          6           0       -1.748600   -0.645151    0.003937
     10          6           0       -0.947510    1.634474   -0.036547
     11          6           0       -2.260906    2.097913   -0.037978
     12          6           0       -3.328737    1.203168   -0.018506
     13          6           0       -3.083596   -0.185159    0.003008
     14          1           0        6.428194   -4.188214   -0.006322
     15          1           0        5.004690   -4.825745   -0.914079
     16          1           0        5.002334   -4.827104    0.896856
     17          1           0        5.058966   -2.322887   -0.911164
     18          1           0        5.056785   -2.323856    0.897382
     19          1           0        2.835229   -3.480177    0.895898
     20          1           0        2.837543   -3.480380   -0.915556
     21          1           0        3.292744   -0.695251   -0.010097
     22          1           0       -1.603344   -1.705596    0.021852
     23          1           0       -0.156200    2.370189   -0.052306
     24          1           0       -2.447598    3.164493   -0.054343
     25         17           0       -4.961084    1.866955   -0.021365
     26          6           0       -4.240455   -1.165045    0.025224
     27          9           0       -3.811184   -2.481087    0.044799
     28          9           0       -5.022703   -0.984719   -1.101203
     29          9           0       -5.010914   -0.947385    1.153193
     30          1           0        1.503636    0.713068   -0.020168
     31          8           0        4.512330    0.968500    0.012315
     32          8           0        2.765856    2.350599    0.001021
     33          6           0        3.982377    2.208943    0.012679
     34          6           0        4.904723    3.398614    0.027560
     35          6           0        4.162030    4.734727    0.024003
     36          1           0        5.560477    3.351045   -0.867861
     37          1           0        5.540311    3.344106    0.937044
     38          1           0        3.535843    4.825710   -0.889273
     39          1           0        4.895764    5.568076    0.035460
     40          1           0        3.514764    4.819202    0.923077
 ---------------------------------------------------------------------
 Rotational constants (GHZ):      0.2781916      0.1012555      0.0754930
 General basis read from cards:  (6D, 7F)
 There are   475 symmetry adapted cartesian basis functions of A   symmetry.
 There are   475 symmetry adapted basis functions of A   symmetry.
   475 basis functions,   828 primitive gaussians,   475 cartesian basis functions
    92 alpha electrons       92 beta electrons
       nuclear repulsion energy      2046.6472070787 Hartrees.
 NAtoms=   40 NActive=   40 NUniq=   40 SFac= 1.00D+00 NAtFMM=   60 NAOKFM=F Big=F
 Integral buffers will be    131072 words long.
 Raffenetti 2 integral format.
 Two-electron integral symmetry is turned on.
 Force inversion solution in PCM.
 ------------------------------------------------------------------------------
 Polarizable Continuum Model (PCM)
 =================================
 Model                : PCM (using non-symmetric T matrix).
 Atomic radii         : SMD-Coulomb.
 Polarization charges : Total charges.
 Charge compensation  : None.
 Solution method      : Matrix inversion.
 Cavity type          : VdW (van der Waals Surface) (Alpha=1.000).
 Cavity algorithm     : GePol (No added spheres)
                        Default sphere list used, NSphG=   40.
                        Lebedev-Laikov grids with approx.  5.0 points / Ang**2.
                        Smoothing algorithm: York/Karplus (Gamma=1.0000).
                        Polarization charges: spherical gaussians, with
                                              point-specific exponents (IZeta= 3).
                        Self-potential: point-specific (ISelfS= 7).
                        Self-field    : sphere-specific E.n sum rule (ISelfD= 2).
 1st derivatives      : Analytical E(r).r(x)/FMM algorithm (CHGder, D1EAlg=3).
                        Cavity 1st derivative terms included.
 2nd derivatives      : Analytical E(r).r(xy)/FMM algorithm (CHGder, D2EAlg=3).
                        Cavity 2nd derivative terms included.
 Solvent              : Water, Eps=  78.355300 Eps(inf)=   1.777849
 ------------------------------------------------------------------------------
 ------------------------------------------------------------------------------
 Atomic radii for non-electrostatic terms: SMD-CDS.
 ------------------------------------------------------------------------------
 Nuclear repulsion after PCM non-electrostatic terms =     2046.6622239988 Hartrees.
 One-electron integrals computed using PRISM.
 NBasis=   475 RedAO= T EigKep=  1.02D-06  NBF=   475
 NBsUse=   474 1.00D-06 EigRej=  2.69D-07 NBFU=   474
 ExpMin= 4.38D-02 ExpMax= 2.52D+04 ExpMxC= 3.78D+03 IAcc=3 IRadAn=         5 AccDes= 0.00D+00
 Harris functional with IExCor= 1009 and IRadAn=       5 diagonalized for initial guess.
 HarFok:  IExCor= 1009 AccDes= 0.00D+00 IRadAn=         5 IDoV= 1 UseB2=F ITyADJ=14
 ICtDFT=  3500011 ScaDFX=  1.000000  1.000000  1.000000  1.000000
 FoFCou: FMM=F IPFlag=           0 FMFlag=      100000 FMFlg1=           0
         NFxFlg=           0 DoJE=T BraDBF=F KetDBF=T FulRan=T
         wScrn=  0.000000 ICntrl=     500 IOpCl=  0 I1Cent=   200000004 NGrid=           0
         NMat0=    1 NMatS0=      1 NMatT0=    0 NMatD0=    1 NMtDS0=    0 NMtDT0=    0
 Petite list used in FoFCou.
 Requested convergence on RMS density matrix=1.00D-08 within 128 cycles.
 Requested convergence on MAX density matrix=1.00D-06.
 Requested convergence on             energy=1.00D-06.
 No special actions if energy rises.
 Inv3:  Mode=1 IEnd=    31047267.
 Iteration    1 A*A^-1 deviation from unit magnitude is 6.66D-15 for    369.
 Iteration    1 A*A^-1 deviation from orthogonality  is 5.67D-15 for   2615    766.
 Iteration    1 A^-1*A deviation from unit magnitude is 8.22D-15 for    361.
 Iteration    1 A^-1*A deviation from orthogonality  is 1.04D-12 for   2305   2261.
 Error on total polarization charges =  0.06362
 SCF Done:  E(RM062X) =  -1638.36791143     A.U. after   15 cycles
            NFock= 15  Conv=0.91D-08     -V/T= 2.0074
 SMD-CDS (non-electrostatic) energy       (kcal/mol) =       9.42
 (included in total energy above)
 DoSCS=F DFT=T ScalE2(SS,OS)=  1.000000  1.000000
 Range of M.O.s used for correlation:     1   474
 NBasis=   475 NAE=    92 NBE=    92 NFC=     0 NFV=     0
 NROrb=    474 NOA=    92 NOB=    92 NVA=   382 NVB=   382

 **** Warning!!: The largest alpha MO coefficient is  0.23633761D+03

 Symmetrizing basis deriv contribution to polar:
 IMax=3 JMax=2 DiffMx= 0.00D+00
 G2DrvN: will do    41 centers at a time, making    1 passes.
 Calling FoFCou, ICntrl=  3107 FMM=F I1Cent=   0 AccDes= 0.00D+00.
 NEqPCM:  Using equilibrium solvation (IEInf=0, Eps=  78.3553, EpsInf=   1.7778)
 G2PCM: DoFxE=T DoFxN=T DoGrad=T DoDP/DQ/DG/TGxP=FFFF NFrqRd=   0 IEInf=0 SqF1=F DoCFld=F IF1Alg=4.
 End of G2Drv F.D. properties file   721 does not exist.
 End of G2Drv F.D. properties file   722 does not exist.
 End of G2Drv F.D. properties file   788 does not exist.
          IDoAtm=1111111111111111111111111111111111111111
 NEqPCM:  Using equilibrium solvation (IEInf=0, Eps=  78.3553, EpsInf=   1.7778)
          Differentiating once with respect to nuclear coordinates.
          There are   123 degrees of freedom in the 1st order CPHF.  IDoFFX=6 NUNeed=     0.
    117 vectors produced by pass  0 Test12= 3.51D-14 1.00D-09 XBig12= 3.06D-01 1.19D-01.
 AX will form   117 AO Fock derivatives at one time.
    117 vectors produced by pass  1 Test12= 3.51D-14 1.00D-09 XBig12= 2.05D-02 4.80D-02.
    117 vectors produced by pass  2 Test12= 3.51D-14 1.00D-09 XBig12= 5.44D-04 4.03D-03.
    117 vectors produced by pass  3 Test12= 3.51D-14 1.00D-09 XBig12= 4.63D-06 2.84D-04.
    117 vectors produced by pass  4 Test12= 3.51D-14 1.00D-09 XBig12= 3.05D-08 2.17D-05.
    117 vectors produced by pass  5 Test12= 3.51D-14 1.00D-09 XBig12= 1.52D-10 1.17D-06.
     90 vectors produced by pass  6 Test12= 3.51D-14 1.00D-09 XBig12= 6.46D-13 6.30D-08.
     29 vectors produced by pass  7 Test12= 3.51D-14 1.00D-09 XBig12= 3.48D-15 4.87D-09.
     18 vectors produced by pass  8 Test12= 3.51D-14 1.00D-09 XBig12= 3.65D-15 6.11D-09.
     18 vectors produced by pass  9 Test12= 3.51D-14 1.00D-09 XBig12= 8.07D-15 6.64D-09.
     17 vectors produced by pass 10 Test12= 3.51D-14 1.00D-09 XBig12= 9.36D-15 9.27D-09.
     17 vectors produced by pass 11 Test12= 3.51D-14 1.00D-09 XBig12= 9.73D-15 7.56D-09.
     17 vectors produced by pass 12 Test12= 3.51D-14 1.00D-09 XBig12= 1.86D-14 1.20D-08.
     17 vectors produced by pass 13 Test12= 3.51D-14 1.00D-09 XBig12= 1.18D-14 9.10D-09.
     16 vectors produced by pass 14 Test12= 3.51D-14 1.00D-09 XBig12= 1.14D-14 8.33D-09.
     15 vectors produced by pass 15 Test12= 3.51D-14 1.00D-09 XBig12= 9.53D-15 7.30D-09.
     13 vectors produced by pass 16 Test12= 3.51D-14 1.00D-09 XBig12= 1.10D-14 7.52D-09.
     11 vectors produced by pass 17 Test12= 3.51D-14 1.00D-09 XBig12= 6.10D-15 5.55D-09.
     10 vectors produced by pass 18 Test12= 3.51D-14 1.00D-09 XBig12= 4.12D-15 4.61D-09.
     10 vectors produced by pass 19 Test12= 3.51D-14 1.00D-09 XBig12= 8.27D-15 6.43D-09.
     10 vectors produced by pass 20 Test12= 3.51D-14 1.00D-09 XBig12= 1.32D-14 8.77D-09.
      8 vectors produced by pass 21 Test12= 3.51D-14 1.00D-09 XBig12= 3.01D-15 3.33D-09.
      8 vectors produced by pass 22 Test12= 3.51D-14 1.00D-09 XBig12= 2.16D-14 8.52D-09.
      8 vectors produced by pass 23 Test12= 3.51D-14 1.00D-09 XBig12= 1.26D-14 6.87D-09.
      8 vectors produced by pass 24 Test12= 3.51D-14 1.00D-09 XBig12= 1.02D-14 6.28D-09.
      8 vectors produced by pass 25 Test12= 3.51D-14 1.00D-09 XBig12= 1.24D-14 6.52D-09.
      8 vectors produced by pass 26 Test12= 3.51D-14 1.00D-09 XBig12= 8.43D-15 7.78D-09.
      8 vectors produced by pass 27 Test12= 3.51D-14 1.00D-09 XBig12= 4.95D-15 4.80D-09.
      8 vectors produced by pass 28 Test12= 3.51D-14 1.00D-09 XBig12= 8.23D-15 6.12D-09.
      8 vectors produced by pass 29 Test12= 3.51D-14 1.00D-09 XBig12= 7.67D-15 5.39D-09.
      8 vectors produced by pass 30 Test12= 3.51D-14 1.00D-09 XBig12= 1.01D-14 6.55D-09.
      8 vectors produced by pass 31 Test12= 3.51D-14 1.00D-09 XBig12= 6.35D-15 5.77D-09.
      8 vectors produced by pass 32 Test12= 3.51D-14 1.00D-09 XBig12= 4.33D-15 4.78D-09.
      8 vectors produced by pass 33 Test12= 3.51D-14 1.00D-09 XBig12= 9.95D-15 6.85D-09.
      7 vectors produced by pass 34 Test12= 3.51D-14 1.00D-09 XBig12= 3.46D-15 3.21D-09.
      7 vectors produced by pass 35 Test12= 3.51D-14 1.00D-09 XBig12= 3.80D-15 3.90D-09.
      7 vectors produced by pass 36 Test12= 3.51D-14 1.00D-09 XBig12= 5.72D-15 4.40D-09.
      7 vectors produced by pass 37 Test12= 3.51D-14 1.00D-09 XBig12= 2.68D-15 2.89D-09.
      7 vectors produced by pass 38 Test12= 3.51D-14 1.00D-09 XBig12= 9.09D-15 5.70D-09.
      7 vectors produced by pass 39 Test12= 3.51D-14 1.00D-09 XBig12= 1.16D-14 7.41D-09.
      7 vectors produced by pass 40 Test12= 3.51D-14 1.00D-09 XBig12= 8.01D-15 5.74D-09.
      7 vectors produced by pass 41 Test12= 3.51D-14 1.00D-09 XBig12= 6.77D-15 4.61D-09.
      7 vectors produced by pass 42 Test12= 3.51D-14 1.00D-09 XBig12= 6.35D-15 4.44D-09.
      7 vectors produced by pass 43 Test12= 3.51D-14 1.00D-09 XBig12= 8.49D-15 5.52D-09.
      5 vectors produced by pass 44 Test12= 3.51D-14 1.00D-09 XBig12= 1.11D-15 1.82D-09.
      5 vectors produced by pass 45 Test12= 3.51D-14 1.00D-09 XBig12= 4.66D-15 4.27D-09.
      5 vectors produced by pass 46 Test12= 3.51D-14 1.00D-09 XBig12= 5.70D-15 4.56D-09.
      5 vectors produced by pass 47 Test12= 3.51D-14 1.00D-09 XBig12= 5.73D-15 5.97D-09.
      5 vectors produced by pass 48 Test12= 3.51D-14 1.00D-09 XBig12= 2.95D-15 3.24D-09.
      5 vectors produced by pass 49 Test12= 3.51D-14 1.00D-09 XBig12= 5.53D-15 4.35D-09.
      5 vectors produced by pass 50 Test12= 3.51D-14 1.00D-09 XBig12= 5.14D-15 4.86D-09.
      5 vectors produced by pass 51 Test12= 3.51D-14 1.00D-09 XBig12= 3.12D-15 3.08D-09.
      5 vectors produced by pass 52 Test12= 3.51D-14 1.00D-09 XBig12= 1.35D-14 7.21D-09.
      5 vectors produced by pass 53 Test12= 3.51D-14 1.00D-09 XBig12= 6.03D-15 4.69D-09.
      5 vectors produced by pass 54 Test12= 3.51D-14 1.00D-09 XBig12= 6.29D-15 4.68D-09.
      5 vectors produced by pass 55 Test12= 3.51D-14 1.00D-09 XBig12= 9.00D-15 4.91D-09.
      5 vectors produced by pass 56 Test12= 3.51D-14 1.00D-09 XBig12= 3.97D-15 3.46D-09.
      5 vectors produced by pass 57 Test12= 3.51D-14 1.00D-09 XBig12= 1.34D-14 8.42D-09.
      5 vectors produced by pass 58 Test12= 3.51D-14 1.00D-09 XBig12= 3.53D-15 3.44D-09.
      3 vectors produced by pass 59 Test12= 3.51D-14 1.00D-09 XBig12= 2.38D-15 2.80D-09.
      2 vectors produced by pass 60 Test12= 3.51D-14 1.00D-09 XBig12= 4.19D-15 3.27D-09.
 InvSVY:  IOpt=1 It=  1 EMax= 5.00D-16
 Solved reduced A of dimension  1264 with   123 vectors.
 End of Minotr F.D. properties file   721 does not exist.
 End of Minotr F.D. properties file   722 does not exist.
 End of Minotr F.D. properties file   788 does not exist.

 **********************************************************************

            Population analysis using the SCF density.

 **********************************************************************

 Orbital symmetries:
       Occupied  (A) (A) (A) (A) (A) (A) (A) (A) (A) (A) (A) (A)
                 (A) (A) (A) (A) (A) (A) (A) (A) (A) (A) (A) (A)
                 (A) (A) (A) (A) (A) (A) (A) (A) (A) (A) (A) (A)
                 (A) (A) (A) (A) (A) (A) (A) (A) (A) (A) (A) (A)
                 (A) (A) (A) (A) (A) (A) (A) (A) (A) (A) (A) (A)
                 (A) (A) (A) (A) (A) (A) (A) (A) (A) (A) (A) (A)
                 (A) (A) (A) (A) (A) (A) (A) (A) (A) (A) (A) (A)
                 (A) (A) (A) (A) (A) (A) (A) (A)
       Virtual   (A) (A) (A) (A) (A) (A) (A) (A) (A) (A) (A) (A)
                 (A) (A) (A) (A) (A) (A) (A) (A) (A) (A) (A) (A)
                 (A) (A) (A) (A) (A) (A) (A) (A) (A) (A) (A) (A)
                 (A) (A) (A) (A) (A) (A) (A) (A) (A) (A) (A) (A)
                 (A) (A) (A) (A) (A) (A) (A) (A) (A) (A) (A) (A)
                 (A) (A) (A) (A) (A) (A) (A) (A) (A) (A) (A) (A)
                 (A) (A) (A) (A) (A) (A) (A) (A) (A) (A) (A) (A)
                 (A) (A) (A) (A) (A) (A) (A) (A) (A) (A) (A) (A)
                 (A) (A) (A) (A) (A) (A) (A) (A) (A) (A) (A) (A)
                 (A) (A) (A) (A) (A) (A) (A) (A) (A) (A) (A) (A)
                 (A) (A) (A) (A) (A) (A) (A) (A) (A) (A) (A) (A)
                 (A) (A) (A) (A) (A) (A) (A) (A) (A) (A) (A) (A)
                 (A) (A) (A) (A) (A) (A) (A) (A) (A) (A) (A) (A)
                 (A) (A) (A) (A) (A) (A) (A) (A) (A) (A) (A) (A)
                 (A) (A) (A) (A) (A) (A) (A) (A) (A) (A) (A) (A)
                 (A) (A) (A) (A) (A) (A) (A) (A) (A) (A) (A) (A)
                 (A) (A) (A) (A) (A) (A) (A) (A) (A) (A) (A) (A)
                 (A) (A) (A) (A) (A) (A) (A) (A) (A) (A) (A) (A)
                 (A) (A) (A) (A) (A) (A) (A) (A) (A) (A) (A) (A)
                 (A) (A) (A) (A) (A) (A) (A) (A) (A) (A) (A) (A)
                 (A) (A) (A) (A) (A) (A) (A) (A) (A) (A) (A) (A)
                 (A) (A) (A) (A) (A) (A) (A) (A) (A) (A) (A) (A)
                 (A) (A) (A) (A) (A) (A) (A) (A) (A) (A) (A) (A)
                 (A) (A) (A) (A) (A) (A) (A) (A) (A) (A) (A) (A)
                 (A) (A) (A) (A) (A) (A) (A) (A) (A) (A) (A) (A)
                 (A) (A) (A) (A) (A) (A) (A) (A) (A) (A) (A) (A)
                 (A) (A) (A) (A) (A) (A) (A) (A) (A) (A) (A) (A)
                 (A) (A) (A) (A) (A) (A) (A) (A) (A) (A) (A) (A)
                 (A) (A) (A) (A) (A) (A) (A) (A) (A) (A) (A) (A)
                 (A) (A) (A) (A) (A) (A) (A) (A) (A) (A) (A) (A)
                 (A) (A) (A) (A) (A) (A) (A) (A) (A) (A) (A) (A)
                 (A) (A) (A) (A) (A) (A) (A) (A) (A) (A)
 The electronic state is 1-A.
 Alpha  occ. eigenvalues -- -102.68269 -25.31479 -25.31183 -25.31183 -19.61394
 Alpha  occ. eigenvalues --  -19.61284 -19.59310 -14.80459 -14.77895 -10.83406
 Alpha  occ. eigenvalues --  -10.68333 -10.65215 -10.63398 -10.62751 -10.60444
 Alpha  occ. eigenvalues --  -10.57870 -10.57653 -10.57609 -10.57282 -10.54327
 Alpha  occ. eigenvalues --  -10.54243 -10.53270 -10.53243  -9.82886  -7.55294
 Alpha  occ. eigenvalues --   -7.54627  -7.54609  -1.45280  -1.37490  -1.37454
 Alpha  occ. eigenvalues --   -1.18424  -1.16728  -1.04021  -1.03884  -1.01304
 Alpha  occ. eigenvalues --   -1.00012  -0.94117  -0.89851  -0.87182  -0.86003
 Alpha  occ. eigenvalues --   -0.84010  -0.81213  -0.76639  -0.73272  -0.71922
 Alpha  occ. eigenvalues --   -0.71448  -0.68898  -0.68661  -0.67182  -0.66022
 Alpha  occ. eigenvalues --   -0.63632  -0.61333  -0.59192  -0.58185  -0.57692
 Alpha  occ. eigenvalues --   -0.57460  -0.56603  -0.55147  -0.55128  -0.54220
 Alpha  occ. eigenvalues --   -0.53236  -0.53131  -0.52932  -0.52567  -0.52346
 Alpha  occ. eigenvalues --   -0.51739  -0.51035  -0.49981  -0.49698  -0.48597
 Alpha  occ. eigenvalues --   -0.47865  -0.45834  -0.45495  -0.45396  -0.45089
 Alpha  occ. eigenvalues --   -0.43870  -0.43530  -0.42135  -0.41363  -0.40934
 Alpha  occ. eigenvalues --   -0.39784  -0.39136  -0.38873  -0.38652  -0.36703
 Alpha  occ. eigenvalues --   -0.35091  -0.33131  -0.33127  -0.32939  -0.31647
 Alpha  occ. eigenvalues --   -0.31463  -0.27343
 Alpha virt. eigenvalues --   -0.01206   0.00343   0.01528   0.02336   0.02963
 Alpha virt. eigenvalues --    0.03392   0.03963   0.04231   0.04259   0.04741
 Alpha virt. eigenvalues --    0.05502   0.05663   0.05972   0.06389   0.06479
 Alpha virt. eigenvalues --    0.06546   0.07646   0.07717   0.07968   0.08047
 Alpha virt. eigenvalues --    0.08264   0.08853   0.09135   0.09332   0.09400
 Alpha virt. eigenvalues --    0.09992   0.10343   0.10798   0.11278   0.11439
 Alpha virt. eigenvalues --    0.11540   0.12258   0.12313   0.12710   0.12787
 Alpha virt. eigenvalues --    0.13432   0.13791   0.13978   0.14466   0.14608
 Alpha virt. eigenvalues --    0.14690   0.15443   0.15964   0.16260   0.16883
 Alpha virt. eigenvalues --    0.17458   0.17678   0.18128   0.18237   0.19336
 Alpha virt. eigenvalues --    0.19428   0.19677   0.20230   0.20495   0.20724
 Alpha virt. eigenvalues --    0.21324   0.22068   0.22133   0.22300   0.22722
 Alpha virt. eigenvalues --    0.23028   0.23858   0.24078   0.24228   0.24290
 Alpha virt. eigenvalues --    0.24500   0.24527   0.24931   0.25275   0.25478
 Alpha virt. eigenvalues --    0.25878   0.26790   0.27190   0.27266   0.27426
 Alpha virt. eigenvalues --    0.28141   0.28388   0.28522   0.28891   0.29241
 Alpha virt. eigenvalues --    0.29539   0.30072   0.30277   0.30353   0.30661
 Alpha virt. eigenvalues --    0.31077   0.31940   0.31980   0.32389   0.32800
 Alpha virt. eigenvalues --    0.32893   0.32945   0.33413   0.33757   0.34033
 Alpha virt. eigenvalues --    0.34182   0.34872   0.35320   0.35939   0.36044
 Alpha virt. eigenvalues --    0.36114   0.36757   0.37287   0.37631   0.38386
 Alpha virt. eigenvalues --    0.38451   0.38776   0.39430   0.39483   0.40467
 Alpha virt. eigenvalues --    0.40729   0.41140   0.42230   0.42694   0.43187
 Alpha virt. eigenvalues --    0.43983   0.44236   0.44996   0.46241   0.46641
 Alpha virt. eigenvalues --    0.47244   0.47772   0.48879   0.49418   0.50588
 Alpha virt. eigenvalues --    0.51185   0.52389   0.53759   0.54547   0.55988
 Alpha virt. eigenvalues --    0.57213   0.58637   0.59027   0.61266   0.62037
 Alpha virt. eigenvalues --    0.66537   0.68791   0.69453   0.70182   0.70778
 Alpha virt. eigenvalues --    0.71196   0.71253   0.72655   0.73887   0.74031
 Alpha virt. eigenvalues --    0.74823   0.75159   0.75620   0.75830   0.77189
 Alpha virt. eigenvalues --    0.77356   0.77468   0.78731   0.79265   0.79604
 Alpha virt. eigenvalues --    0.79725   0.81791   0.82436   0.82731   0.82925
 Alpha virt. eigenvalues --    0.83688   0.83825   0.85714   0.86380   0.87186
 Alpha virt. eigenvalues --    0.88057   0.89062   0.90537   0.90760   0.91953
 Alpha virt. eigenvalues --    0.94115   0.95161   0.96756   0.97384   0.97504
 Alpha virt. eigenvalues --    0.98625   0.98790   0.99984   1.01111   1.01382
 Alpha virt. eigenvalues --    1.02855   1.03176   1.03857   1.04711   1.05956
 Alpha virt. eigenvalues --    1.06062   1.06644   1.07045   1.08836   1.08890
 Alpha virt. eigenvalues --    1.10994   1.12147   1.12160   1.14103   1.14788
 Alpha virt. eigenvalues --    1.15682   1.16164   1.17000   1.18205   1.18922
 Alpha virt. eigenvalues --    1.19280   1.19988   1.21666   1.22179   1.23223
 Alpha virt. eigenvalues --    1.25018   1.26672   1.27853   1.28121   1.28338
 Alpha virt. eigenvalues --    1.29484   1.31314   1.31882   1.33489   1.34779
 Alpha virt. eigenvalues --    1.35565   1.36492   1.37174   1.38744   1.40298
 Alpha virt. eigenvalues --    1.40518   1.43069   1.43627   1.45453   1.45606
 Alpha virt. eigenvalues --    1.46265   1.46391   1.47291   1.49185   1.49641
 Alpha virt. eigenvalues --    1.50400   1.51853   1.51904   1.52509   1.54514
 Alpha virt. eigenvalues --    1.56587   1.56712   1.58325   1.58434   1.60273
 Alpha virt. eigenvalues --    1.63559   1.64474   1.65468   1.66670   1.67060
 Alpha virt. eigenvalues --    1.68050   1.68329   1.71453   1.72860   1.73233
 Alpha virt. eigenvalues --    1.74220   1.74408   1.75160   1.76447   1.77048
 Alpha virt. eigenvalues --    1.79653   1.80251   1.82453   1.82991   1.85553
 Alpha virt. eigenvalues --    1.85743   1.85849   1.86399   1.87356   1.87915
 Alpha virt. eigenvalues --    1.88009   1.88849   1.89019   1.89474   1.90960
 Alpha virt. eigenvalues --    1.91123   1.91185   1.91704   1.93059   1.93466
 Alpha virt. eigenvalues --    1.94849   1.95274   1.96887   1.97718   1.98301
 Alpha virt. eigenvalues --    1.98980   2.02113   2.02662   2.03237   2.03967
 Alpha virt. eigenvalues --    2.04816   2.05293   2.05777   2.06705   2.06791
 Alpha virt. eigenvalues --    2.07436   2.08510   2.08628   2.09021   2.10373
 Alpha virt. eigenvalues --    2.11751   2.12389   2.12405   2.13671   2.15559
 Alpha virt. eigenvalues --    2.17504   2.18999   2.20473   2.20614   2.21357
 Alpha virt. eigenvalues --    2.24219   2.26350   2.26824   2.28963   2.29536
 Alpha virt. eigenvalues --    2.30250   2.30388   2.31168   2.32562   2.35694
 Alpha virt. eigenvalues --    2.37105   2.37654   2.38062   2.38930   2.39443
 Alpha virt. eigenvalues --    2.41025   2.42578   2.46365   2.49517   2.50282
 Alpha virt. eigenvalues --    2.55105   2.55397   2.56648   2.60594   2.62135
 Alpha virt. eigenvalues --    2.63658   2.64260   2.66834   2.68193   2.70522
 Alpha virt. eigenvalues --    2.71864   2.73631   2.76107   2.76239   2.77869
 Alpha virt. eigenvalues --    2.80272   2.80930   2.81966   2.86444   2.87773
 Alpha virt. eigenvalues --    2.91219   2.97513   3.02388   3.03245   3.09482
 Alpha virt. eigenvalues --    3.12488   3.13092   3.15486   3.18350   3.25246
 Alpha virt. eigenvalues --    3.26701   3.27781   3.32429   3.40049   4.20683
 Alpha virt. eigenvalues --    4.22643   4.25615   4.29446   4.32565   4.34708
 Alpha virt. eigenvalues --    4.38916   4.40998   4.43959   4.45009   4.46125
 Alpha virt. eigenvalues --    4.48031   4.50522   4.53728   4.56216   4.61631
 Alpha virt. eigenvalues --    4.65173   4.71409   4.75595   4.79392   5.51241
 Alpha virt. eigenvalues --    6.10795   6.89629
          Condensed to atoms (all electrons):
               1          2          3          4          5          6
     1  C    5.795246  -0.139420   0.010982  -0.011180  -0.042929  -0.001454
     2  C   -0.139420   6.221875  -0.397775  -0.057186   0.154145   0.019652
     3  C    0.010982  -0.397775   7.019582   0.315889  -0.724870  -0.077901
     4  N   -0.011180  -0.057186   0.315889   7.644600   0.501700  -0.189043
     5  C   -0.042929   0.154145  -0.724870   0.501700   6.653363   0.643141
     6  O   -0.001454   0.019652  -0.077901  -0.189043   0.643141   8.480310
     7  N   -0.003843   0.008649  -0.186111  -0.329501   0.226138  -0.084005
     8  C   -0.008175   0.015024  -0.273757  -0.153764  -0.330393  -0.498855
     9  C   -0.000291  -0.006739  -0.091367  -0.003935   0.038157   0.491394
    10  C   -0.002314   0.005688  -0.090624  -0.100261  -1.438544  -0.156641
    11  C    0.000119   0.000208   0.026169  -0.012576   0.631541  -0.005075
    12  C    0.000011  -0.000193  -0.013152  -0.004824  -0.146461  -0.003965
    13  C   -0.000278  -0.001593  -0.058278   0.013444  -0.582510   0.100582
    14  H    0.435155  -0.108613   0.026359   0.000384  -0.002126   0.000005
    15  H    0.422466  -0.069417  -0.010386   0.000422   0.000956  -0.000036
    16  H    0.422546  -0.069205  -0.010333   0.000423   0.000615  -0.000037
    17  H   -0.023900   0.421345  -0.085253   0.007057  -0.003516  -0.000121
    18  H   -0.025030   0.422846  -0.087928   0.007025  -0.001271  -0.000109
    19  H   -0.003034  -0.043358   0.438349  -0.051665  -0.033219   0.002589
    20  H   -0.003083  -0.042997   0.440779  -0.051975  -0.034880   0.002761
    21  H   -0.001532   0.002998  -0.060602   0.187255   0.030742   0.005466
    22  H    0.000005   0.000071   0.001693  -0.000308  -0.003347  -0.001109
    23  H   -0.000000   0.000018   0.000075   0.000822   0.006084   0.000023
    24  H    0.000000   0.000000   0.000020   0.000006   0.002684   0.000001
    25  Cl  -0.000001   0.000005  -0.000110   0.000035  -0.006460   0.000039
    26  C   -0.000144   0.000288  -0.013698   0.002119  -0.221940   0.004673
    27  F    0.000000  -0.000001   0.000288  -0.000001   0.008517  -0.000608
    28  F    0.000000  -0.000001   0.000015   0.000006   0.002084   0.000005
    29  F    0.000000  -0.000001   0.000008   0.000006   0.001678   0.000007
    30  H    0.000171   0.000316   0.006361   0.029207  -0.028981   0.004074
    31  O    0.003558   0.006934  -0.009735  -0.026911   0.000784  -0.000403
    32  O    0.000106  -0.000862   0.010700   0.006610   0.020464  -0.000105
    33  C   -0.001749  -0.004388   0.001417  -0.009389  -0.017417  -0.000869
    34  C    0.001606  -0.001341   0.016702  -0.006639  -0.002329  -0.000474
    35  C   -0.000177  -0.000395  -0.000819   0.001179  -0.000736   0.000047
    36  H    0.000004   0.000025   0.000001  -0.000014  -0.000014  -0.000000
    37  H    0.000005   0.000031  -0.000007  -0.000014  -0.000052  -0.000000
    38  H    0.000000   0.000005  -0.000011   0.000002  -0.000119   0.000000
    39  H    0.000000   0.000001  -0.000002  -0.000001   0.000009   0.000000
    40  H    0.000000   0.000004  -0.000011  -0.000000  -0.000080   0.000000
               7          8          9         10         11         12
     1  C   -0.003843  -0.008175  -0.000291  -0.002314   0.000119   0.000011
     2  C    0.008649   0.015024  -0.006739   0.005688   0.000208  -0.000193
     3  C   -0.186111  -0.273757  -0.091367  -0.090624   0.026169  -0.013152
     4  N   -0.329501  -0.153764  -0.003935  -0.100261  -0.012576  -0.004824
     5  C    0.226138  -0.330393   0.038157  -1.438544   0.631541  -0.146461
     6  O   -0.084005  -0.498855   0.491394  -0.156641  -0.005075  -0.003965
     7  N    7.781237  -0.010426   0.073165  -0.111518   0.048418  -0.000290
     8  C   -0.010426  18.330422  -2.991991  -1.361426   1.671743  -1.858957
     9  C    0.073165  -2.991991  14.349019  -5.426800  -0.566193  -3.026211
    10  C   -0.111518  -1.361426  -5.426800  18.815180  -5.229968   0.796629
    11  C    0.048418   1.671743  -0.566193  -5.229968  14.394794  -1.647456
    12  C   -0.000290  -1.858957  -3.026211   0.796629  -1.647456  16.654788
    13  C    0.066551  -4.795656   3.023602  -0.106337  -3.113555  -3.997166
    14  H    0.000008  -0.000040  -0.000000  -0.000001   0.000000  -0.000000
    15  H    0.000017  -0.000006  -0.000007  -0.000002   0.000000   0.000000
    16  H    0.000015  -0.000009  -0.000017  -0.000001   0.000000   0.000000
    17  H    0.000026  -0.000707  -0.000142   0.000091   0.000006   0.000001
    18  H    0.000131  -0.000750   0.000051   0.000042   0.000002   0.000001
    19  H   -0.000297  -0.001359  -0.000907   0.000254   0.000004   0.000014
    20  H   -0.000057  -0.003436   0.000372  -0.000034   0.000017   0.000008
    21  H    0.030198   0.001158   0.004843  -0.000189   0.000680   0.000216
    22  H   -0.015135   0.071639   0.315084   0.064958  -0.043267  -0.064780
    23  H   -0.003019  -0.004280   0.040532   0.208364   0.075073  -0.033698
    24  H    0.000419   0.021266  -0.001603  -0.141179   0.315958   0.009573
    25  Cl  -0.000837   0.012382   0.006050   0.033631  -0.038465  -0.331644
    26  C    0.013378  -2.033910  -0.517252   0.747202  -0.272202  -0.258116
    27  F   -0.000889   0.173815   0.075465   0.000580   0.019858  -0.020529
    28  F    0.000274   0.046756   0.064515  -0.016457  -0.000274  -0.261202
    29  F    0.000258   0.044678   0.061171  -0.014840  -0.001382  -0.259503
    30  H    0.174892   0.045168   0.067856  -0.105847  -0.012018  -0.004266
    31  O    0.012684  -0.006187  -0.003434   0.004561  -0.001109   0.000790
    32  O    0.003975  -0.153990  -0.006142   0.087564   0.044992  -0.000296
    33  C   -0.011816   0.046228  -0.011401  -0.004122  -0.026239   0.001821
    34  C   -0.011321  -0.015883  -0.008921  -0.003871   0.011518  -0.000897
    35  C    0.002802  -0.012928  -0.001392   0.009585   0.003592   0.000326
    36  H    0.000070  -0.000443  -0.000042   0.000386   0.000043   0.000000
    37  H    0.000066  -0.000327  -0.000038   0.000300   0.000018   0.000000
    38  H    0.000024  -0.000450  -0.000039   0.000428  -0.000151  -0.000013
    39  H   -0.000002   0.000105   0.000006  -0.000105  -0.000022   0.000001
    40  H    0.000034  -0.000985  -0.000067   0.000652   0.000246   0.000006
              13         14         15         16         17         18
     1  C   -0.000278   0.435155   0.422466   0.422546  -0.023900  -0.025030
     2  C   -0.001593  -0.108613  -0.069417  -0.069205   0.421345   0.422846
     3  C   -0.058278   0.026359  -0.010386  -0.010333  -0.085253  -0.087928
     4  N    0.013444   0.000384   0.000422   0.000423   0.007057   0.007025
     5  C   -0.582510  -0.002126   0.000956   0.000615  -0.003516  -0.001271
     6  O    0.100582   0.000005  -0.000036  -0.000037  -0.000121  -0.000109
     7  N    0.066551   0.000008   0.000017   0.000015   0.000026   0.000131
     8  C   -4.795656  -0.000040  -0.000006  -0.000009  -0.000707  -0.000750
     9  C    3.023602  -0.000000  -0.000007  -0.000017  -0.000142   0.000051
    10  C   -0.106337  -0.000001  -0.000002  -0.000001   0.000091   0.000042
    11  C   -3.113555   0.000000   0.000000   0.000000   0.000006   0.000002
    12  C   -3.997166  -0.000000   0.000000   0.000000   0.000001   0.000001
    13  C   17.570210  -0.000000   0.000001   0.000000  -0.000012  -0.000005
    14  H   -0.000000   0.482225  -0.023963  -0.023954  -0.003131  -0.003131
    15  H    0.000001  -0.023963   0.487969  -0.028564  -0.004642   0.003780
    16  H    0.000000  -0.023954  -0.028564   0.487989   0.003782  -0.004636
    17  H   -0.000012  -0.003131  -0.004642   0.003782   0.489650  -0.031452
    18  H   -0.000005  -0.003131   0.003780  -0.004636  -0.031452   0.489606
    19  H   -0.000114  -0.000054  -0.000305   0.002758   0.003812  -0.005316
    20  H   -0.000099  -0.000054   0.002769  -0.000308  -0.005306   0.003814
    21  H   -0.000834  -0.000002   0.000000   0.000000   0.000634   0.000628
    22  H   -0.039364  -0.000000   0.000000   0.000000  -0.000000  -0.000000
    23  H    0.004954  -0.000000   0.000000   0.000000   0.000000   0.000000
    24  H    0.108733  -0.000000   0.000000   0.000000  -0.000000   0.000000
    25  Cl   0.034530  -0.000000  -0.000000  -0.000000  -0.000000  -0.000000
    26  C   -1.198681  -0.000000  -0.000000  -0.000000  -0.000001  -0.000000
    27  F   -0.261358   0.000000   0.000000  -0.000000  -0.000000  -0.000000
    28  F    0.279583  -0.000000  -0.000000   0.000000   0.000000  -0.000000
    29  F    0.280163  -0.000000   0.000000  -0.000000  -0.000000   0.000000
    30  H    0.011917  -0.000000  -0.000000  -0.000000   0.000001   0.000001
    31  O   -0.001179  -0.000023  -0.000001  -0.000001  -0.000477  -0.000406
    32  O    0.001506  -0.000000   0.000000   0.000000   0.000010   0.000009
    33  C   -0.001340  -0.000032  -0.000011  -0.000009  -0.000531  -0.000579
    34  C   -0.004247   0.000021  -0.000002  -0.000002   0.000025  -0.000086
    35  C    0.000259  -0.000000  -0.000000  -0.000000  -0.000018  -0.000016
    36  H   -0.000004  -0.000000  -0.000000   0.000000  -0.000000  -0.000000
    37  H   -0.000003  -0.000000   0.000000  -0.000000  -0.000000  -0.000000
    38  H    0.000014   0.000000   0.000000  -0.000000  -0.000000   0.000000
    39  H    0.000001   0.000000  -0.000000  -0.000000  -0.000000  -0.000000
    40  H    0.000011   0.000000  -0.000000   0.000000   0.000000  -0.000000
              19         20         21         22         23         24
     1  C   -0.003034  -0.003083  -0.001532   0.000005  -0.000000   0.000000
     2  C   -0.043358  -0.042997   0.002998   0.000071   0.000018   0.000000
     3  C    0.438349   0.440779  -0.060602   0.001693   0.000075   0.000020
     4  N   -0.051665  -0.051975   0.187255  -0.000308   0.000822   0.000006
     5  C   -0.033219  -0.034880   0.030742  -0.003347   0.006084   0.002684
     6  O    0.002589   0.002761   0.005466  -0.001109   0.000023   0.000001
     7  N   -0.000297  -0.000057   0.030198  -0.015135  -0.003019   0.000419
     8  C   -0.001359  -0.003436   0.001158   0.071639  -0.004280   0.021266
     9  C   -0.000907   0.000372   0.004843   0.315084   0.040532  -0.001603
    10  C    0.000254  -0.000034  -0.000189   0.064958   0.208364  -0.141179
    11  C    0.000004   0.000017   0.000680  -0.043267   0.075073   0.315958
    12  C    0.000014   0.000008   0.000216  -0.064780  -0.033698   0.009573
    13  C   -0.000114  -0.000099  -0.000834  -0.039364   0.004954   0.108733
    14  H   -0.000054  -0.000054  -0.000002  -0.000000  -0.000000  -0.000000
    15  H   -0.000305   0.002769   0.000000   0.000000   0.000000   0.000000
    16  H    0.002758  -0.000308   0.000000   0.000000   0.000000   0.000000
    17  H    0.003812  -0.005306   0.000634  -0.000000   0.000000  -0.000000
    18  H   -0.005316   0.003814   0.000628  -0.000000   0.000000   0.000000
    19  H    0.500328  -0.040797   0.001675  -0.000000   0.000000  -0.000000
    20  H   -0.040797   0.500380   0.001661  -0.000000   0.000000  -0.000000
    21  H    0.001675   0.001661   0.261445   0.000000   0.000004  -0.000000
    22  H   -0.000000  -0.000000   0.000000   0.412045  -0.000099   0.000009
    23  H    0.000000   0.000000   0.000004  -0.000099   0.423254  -0.003671
    24  H   -0.000000  -0.000000  -0.000000   0.000009  -0.003671   0.409002
    25  Cl   0.000000  -0.000000   0.000000   0.000677   0.000634   0.001152
    26  C   -0.000020  -0.000019  -0.000052  -0.002631   0.005163  -0.002465
    27  F   -0.000000  -0.000000   0.000000   0.008889  -0.000001   0.000011
    28  F   -0.000000   0.000000  -0.000000  -0.000057   0.000001  -0.000004
    29  F    0.000000  -0.000000  -0.000000  -0.000062   0.000001  -0.000004
    30  H    0.000004   0.000004   0.003508  -0.000092   0.004371  -0.000007
    31  O   -0.000023  -0.000014   0.042688   0.000000   0.000013   0.000000
    32  O   -0.000003  -0.000002   0.001254   0.000003  -0.001222  -0.000009
    33  C    0.000200   0.000155  -0.006195   0.000001  -0.001359  -0.000027
    34  C    0.000035   0.000025   0.002057  -0.000000   0.000879  -0.000003
    35  C    0.000000   0.000000  -0.000350  -0.000000  -0.000410  -0.000005
    36  H    0.000000  -0.000000  -0.000001   0.000000   0.000000  -0.000000
    37  H   -0.000000   0.000000  -0.000001   0.000000   0.000000  -0.000000
    38  H   -0.000000   0.000000   0.000000   0.000000   0.000001   0.000000
    39  H   -0.000000  -0.000000   0.000000  -0.000000   0.000000   0.000000
    40  H    0.000000  -0.000000   0.000000   0.000000   0.000001   0.000000
              25         26         27         28         29         30
     1  C   -0.000001  -0.000144   0.000000   0.000000   0.000000   0.000171
     2  C    0.000005   0.000288  -0.000001  -0.000001  -0.000001   0.000316
     3  C   -0.000110  -0.013698   0.000288   0.000015   0.000008   0.006361
     4  N    0.000035   0.002119  -0.000001   0.000006   0.000006   0.029207
     5  C   -0.006460  -0.221940   0.008517   0.002084   0.001678  -0.028981
     6  O    0.000039   0.004673  -0.000608   0.000005   0.000007   0.004074
     7  N   -0.000837   0.013378  -0.000889   0.000274   0.000258   0.174892
     8  C    0.012382  -2.033910   0.173815   0.046756   0.044678   0.045168
     9  C    0.006050  -0.517252   0.075465   0.064515   0.061171   0.067856
    10  C    0.033631   0.747202   0.000580  -0.016457  -0.014840  -0.105847
    11  C   -0.038465  -0.272202   0.019858  -0.000274  -0.001382  -0.012018
    12  C   -0.331644  -0.258116  -0.020529  -0.261202  -0.259503  -0.004266
    13  C    0.034530  -1.198681  -0.261358   0.279583   0.280163   0.011917
    14  H   -0.000000  -0.000000   0.000000  -0.000000  -0.000000  -0.000000
    15  H   -0.000000  -0.000000   0.000000  -0.000000   0.000000  -0.000000
    16  H   -0.000000  -0.000000  -0.000000   0.000000  -0.000000  -0.000000
    17  H   -0.000000  -0.000001  -0.000000   0.000000  -0.000000   0.000001
    18  H   -0.000000  -0.000000  -0.000000  -0.000000   0.000000   0.000001
    19  H    0.000000  -0.000020  -0.000000  -0.000000   0.000000   0.000004
    20  H   -0.000000  -0.000019  -0.000000   0.000000  -0.000000   0.000004
    21  H    0.000000  -0.000052   0.000000  -0.000000  -0.000000   0.003508
    22  H    0.000677  -0.002631   0.008889  -0.000057  -0.000062  -0.000092
    23  H    0.000634   0.005163  -0.000001   0.000001   0.000001   0.004371
    24  H    0.001152  -0.002465   0.000011  -0.000004  -0.000004  -0.000007
    25  Cl  17.047673   0.012778   0.000500  -0.000521  -0.000422   0.000014
    26  C    0.012778   8.241688   0.120648   0.014951   0.017787   0.000920
    27  F    0.000500   0.120648   9.280603  -0.036150  -0.036047  -0.000001
    28  F   -0.000521   0.014951  -0.036150   9.230828  -0.050399   0.000000
    29  F   -0.000422   0.017787  -0.036047  -0.050399   9.230872  -0.000000
    30  H    0.000014   0.000920  -0.000001   0.000000  -0.000000   0.257221
    31  O   -0.000000  -0.000070  -0.000000  -0.000000  -0.000000   0.002322
    32  O   -0.000018   0.000207   0.000000   0.000000   0.000000   0.040195
    33  C   -0.000030  -0.000517   0.000005   0.000001   0.000001  -0.004177
    34  C   -0.000001  -0.000192   0.000000   0.000000   0.000000   0.002860
    35  C    0.000000   0.000016  -0.000000  -0.000000  -0.000000  -0.000034
    36  H    0.000000  -0.000000  -0.000000  -0.000000  -0.000000  -0.000006
    37  H    0.000000  -0.000000  -0.000000  -0.000000  -0.000000  -0.000006
    38  H   -0.000000   0.000000   0.000000   0.000000  -0.000000  -0.000001
[...]
 ,0.00000221,-0.00000257,-0.00000057,-0.00000931,-0.00000035,-0.0000004
 5,-0.00000545,-0.00003306,0.00002341,0.00002619,0.00000740,0.00000135,
 -0.00000555,-0.00000930,-0.00000146,-0.00000618,0.00004925,0.00001446,
 -0.00000213,0.00000025,0.00000260,0.00000085,-0.00000087,-0.00000198,-
 0.00000091,0.00000043,-0.00000240,0.00000029,-0.00000058,0.00000148,0.
 00000050,0.00000018,-0.00000081,-0.00000025,-0.00000029,-0.00000021,0.
 00000193,0.00000061,-0.00000012,0.00000019,-0.00000001,0.00000033,0.00
 000023,0.00000005,0.00000008,0.00000075,-0.00000385,0.00000088,-0.0000
 0014,-0.00000055,-0.00000104,0.00000169,-0.00000096,0.00000003,0.00000
 227,-0.00000082,0.00000088,-0.00000196,0.00003968,-0.00003293,-0.00000
 015,0.00000008,-0.00000005,0.00000112,-0.00000128,0.00000194,0.0000002
 0,0.00000028,0.00000009,-0.00000068,-0.00000041,0.00000015,0.00000015,
 0.00000214,0.00000012,0.00000024,-0.00000052,0.00000014,-0.00000037,-0
 .00000061,0.00000033,-0.00000036,-0.00000061,-0.00000004,-0.00000741,-
 0.00006786,-0.00004014,0.00072967,-0.00091917,0.00014388,0.00017965,0.
 00078129,-0.00140951,0.00399912,0.00432190,0.00330696,-0.11620739,-0.0
 5899838,-0.14121924,0.00602320,0.00317533,0.00458522,0.12639943,0.0633
 0452,0.15133120,0.00000022,0.00000018,0.00000006,-0.00000167,-0.000002
 84,-0.00000052,0.00002029,0.00000285,0.00000140,0.00003226,0.00008655,
 -0.00001353,-0.00010282,-0.00001713,0.00000499,0.00002526,0.00001594,-
 0.00000798,0.00001652,-0.00009822,0.00003172,0.00001753,-0.00000480,0.
 00000715,-0.00000481,-0.00000119,-0.00000035,-0.00000147,0.00000426,-0
 .00000750,-0.00000015,-0.00000032,0.00000115,0.00000054,0.00000022,0.0
 0000035,0.00000021,-0.00000249,-0.00000058,-0.00000099,0.00000052,-0.0
 0000025,-0.00000018,0.,-0.00000005,-0.00000026,0.00000018,0.00000003,-
 0.00000058,0.00000096,0.00000051,0.00000010,0.00000064,-0.00000057,-0.
 00000381,0.00000315,-0.00000041,-0.00000351,0.00000249,-0.00000185,-0.
 00000333,-0.00018300,0.00002705,-0.00000010,-0.00000015,0.00000047,0.0
 0000104,0.00000048,0.00000260,-0.00000012,0.00000014,0.00000068,-0.000
 00086,-0.00000035,-0.00000001,-0.00000016,0.00000202,0.00000141,0.0000
 0025,-0.00000058,-0.00000026,-0.00000005,-0.00000044,-0.00000012,-0.00
 000046,-0.00000078,-0.00000087,-0.00001172,0.00012876,-0.00004487,-0.0
 0047638,0.00214339,-0.00066910,0.00021172,-0.00164444,-0.00049670,-0.0
 0285046,-0.00240993,0.00306885,-0.06779016,-0.01234313,0.07519730,-0.0
 0889747,-0.00486097,0.02750612,0.00692725,0.00522819,-0.02197123,0.075
 24050,0.00000105,0.00000184,-0.00000146,0.00000208,-0.00000226,0.00000
 467,-0.00001044,0.00000638,-0.00000568,0.00003877,0.00006374,0.0000109
 7,-0.00018747,0.00005533,-0.00003155,0.00005882,-0.00008428,0.00002500
 ,0.00001149,-0.00040318,0.00016201,0.00013491,-0.00000126,-0.00000621,
 -0.00003135,-0.00001838,0.00000659,-0.00002676,0.00002853,-0.00000015,
 0.00000470,-0.00000418,-0.00000083,0.00000012,-0.00000128,-0.00000043,
 0.00000152,-0.00001084,-0.00000302,0.00000120,-0.00000009,0.00000025,-
 0.00000009,0.00000005,0.,0.00000052,-0.00000034,0.00000010,-0.00000082
 ,-0.00000131,-0.00000152,-0.00000251,0.00000063,-0.00000046,0.00000179
 ,-0.00000162,-0.00000019,0.00000405,-0.00000123,0.00000150,-0.00005808
 ,0.00002588,-0.00003623,0.00000034,0.00000152,0.00000036,0.00001810,-0
 .00000677,0.00000749,-0.00000281,-0.00000027,0.00000099,-0.00001073,-0
 .00000294,0.00000142,0.00000169,0.00001609,-0.00000053,0.00000096,-0.0
 0000467,0.00000011,-0.00000223,-0.00000463,0.00000364,-0.00000260,-0.0
 0000539,-0.00000267,-0.00001608,0.00069328,-0.00026432,-0.00035455,-0.
 00019304,-0.00352381,-0.00304012,-0.00677388,-0.00262243,-0.00759290,-
 0.00344797,0.03497518,-0.01218699,-0.05519979,0.04914739,0.00500758,0.
 00232209,-0.01627243,0.00396696,0.00243402,-0.01192173,0.01214732,0.06
 065300,0.00000095,-0.00000008,-0.00000029,-0.00000152,0.00000296,-0.00
 000195,0.00000490,-0.00000349,0.00000031,-0.00001841,-0.00000855,-0.00
 001563,0.00007427,-0.00001609,0.00000697,-0.00002125,0.00002635,-0.000
 00852,0.00000489,0.00013187,-0.00002670,-0.00004682,0.00000520,-0.0000
 0386,0.00001187,0.00000707,0.00000140,0.00000807,-0.00001135,-0.000002
 38,-0.00000131,0.00000091,0.00000144,-0.00000094,0.00000058,0.00000287
 ,0.00000002,0.00000436,-0.00000303,-0.00000164,-0.00000070,0.00000001,
 0.00000012,-0.00000032,0.00000016,-0.00000033,0.00000047,0.00000032,0.
 00000115,-0.00000127,0.00000015,-0.00000033,-0.00000009,0.00000197,-0.
 00000070,0.00000025,0.00000077,-0.00000220,0.00000009,0.00000023,0.000
 01305,0.00002754,0.00002264,0.00000021,-0.00000051,-0.00000056,-0.0000
 0603,0.00000240,-0.00000292,0.00000071,-0.00000038,-0.00000040,0.00000
 431,0.00000136,-0.00000089,-0.00000087,-0.00000809,0.00000004,-0.00000
 054,0.00000235,0.00000011,0.00000082,0.00000215,-0.00000112,0.00000135
 ,0.00000277,0.00000151,-0.00001268,-0.00022000,0.00002583,-0.00036459,
 -0.00011087,0.00162275,-0.00033216,0.00143682,-0.00009233,0.00173179,-
 0.00170721,-0.00373020,0.07433296,0.04687879,-0.28344592,0.00091485,0.
 00016354,-0.00347879,0.00549168,0.00400667,-0.01848845,-0.08288324,-0.
 04973935,0.30543775,0.00000039,-0.00000089,-0.00000009,-0.00000081,0.0
 0000207,0.00000174,0.00000905,-0.00000017,0.00000081,0.00000242,0.0000
 3861,-0.00001952,-0.00001012,-0.00000812,0.00000844,0.00000167,0.00001
 684,-0.00000748,0.00000372,0.00002690,-0.00000799,-0.00000949,-0.00000
 129,0.00000228,0.00000258,0.00000157,-0.00000170,0.00000245,-0.0000031
 6,-0.00000281,0.00000004,0.00000056,0.00000015,-0.00000043,0.00000067,
 0.00000005,0.00000010,0.00000156,0.00000135,-0.00000038,0.00000008,0.0
 0000017,-0.00000052,0.00000057,-0.00000064,-0.00000001,0.00000005,-0.0
 0000002,-0.00000091,-0.00000035,0.00000020,0.00000024,-0.00000101,-0.0
 0000174,-0.00000194,0.00000126,-0.00000029,-0.00000220,0.00000196,-0.0
 0000142,0.00000547,-0.00006745,0.00002603,-0.00000003,-0.00000009,0.00
 000036,-0.00000116,0.00000261,0.00000063,0.00000004,-0.00000059,-0.000
 00006,0.00000121,0.00000041,-0.00000022,0.,-0.00000264,0.00000089,-0.0
 0000039,0.00000076,-0.00000024,0.00000040,0.00000078,-0.00000097,0.000
 00019,0.00000072,0.,-0.00000024,-0.00004519,0.00000735,-0.00004293,0.0
 0043096,-0.00031350,0.00066444,0.00032869,-0.00044285,0.00025223,-0.00
 181421,0.00028225,-0.00885873,-0.00480507,0.02875324,-0.07021555,-0.01
 258370,0.07304521,0.00118839,-0.00083311,-0.00033525,-0.00471995,0.003
 47832,0.00086539,0.07598527,-0.00000017,-0.00000034,0.00000037,0.00000
 029,0.00000046,-0.00000036,0.00000114,-0.00000098,0.00000072,-0.000003
 76,-0.00000725,0.00000120,0.00002045,-0.00000728,-0.00000191,-0.000005
 94,0.00000744,-0.00000126,0.00000026,0.00003302,-0.00000823,-0.0000088
 1,0.00000392,0.00000883,0.00000168,-0.00000006,-0.00000208,0.00000045,
 -0.00000602,-0.00000622,-0.00000088,0.00000128,0.00000145,-0.00000146,
 0.00000046,0.00000135,0.00000107,0.00000250,-0.00000050,-0.00000025,0.
 ,-0.00000001,0.00000018,-0.00000009,0.00000008,-0.00000008,0.,0.,0.000
 00066,-0.00000038,-0.00000025,0.,0.00000022,0.00000052,-0.00000023,0.0
 0000020,0.00000008,-0.00000045,0.00000006,0.00000004,0.00000062,0.0000
 0488,0.00000216,0.00000029,-0.00000003,-0.00000028,-0.00000204,0.00000
 229,-0.00000417,-0.00000023,-0.00000020,-0.00000022,0.00000172,0.00000
 059,-0.00000061,-0.00000064,-0.00000416,0.00000017,-0.00000031,0.00000
 112,-0.00000013,0.00000039,0.00000093,-0.00000048,0.00000075,0.0000014
 9,0.00000079,-0.00000630,-0.00005661,0.00001320,0.00003864,0.00006730,
 0.00023482,0.00032562,-0.00007402,-0.00027464,-0.00062903,0.00024599,-
 0.00057833,0.00436096,0.00216291,-0.01575967,-0.01312398,-0.05442954,0
 .04145672,-0.00067837,0.00043761,0.00040891,0.00290214,-0.00109800,-0.
 00057345,0.01153538,0.05500323,-0.00000083,0.00000051,-0.00000013,0.00
 000038,-0.00000139,-0.00000167,-0.00000475,-0.00000065,-0.00000068,-0.
 00000825,-0.00003168,0.00001865,0.00002370,0.00000032,-0.00000530,-0.0
 0000606,-0.00000620,0.00000342,-0.00000519,0.00000221,0.00000129,0.000
 00507,0.00000274,-0.00000930,-0.00000237,-0.00000111,0.00000525,-0.000
 00121,0.00000159,0.00000783,0.00000168,-0.00000057,0.00000169,-0.00000
 206,-0.00000023,-0.00000084,0.00000158,0.00000163,-0.00000385,0.000000
 27,0.00000018,-0.00000015,0.00000046,-0.00000042,0.00000087,0.00000012
 ,-0.00000009,-0.00000011,0.00000032,0.00000107,0.00000008,0.00000001,0
 .00000063,0.00000147,0.00000058,-0.00000061,0.00000005,0.00000125,-0.0
 0000141,0.00000139,0.00000251,0.00004872,-0.00002648,0.00000046,0.0000
 0023,-0.00000065,-0.00000028,-0.00000777,-0.00000388,-0.00000196,0.000
 00009,-0.00000090,0.00000092,0.00000011,0.00000017,-0.00000031,-0.0000
 0428,-0.00000102,-0.00000061,0.00000134,0.00000034,0.,0.00000096,0.000
 00034,0.00000073,0.00000155,0.00000121,-0.00000917,-0.00000673,-0.0000
 0384,-0.00015641,-0.00061527,0.00009065,-0.00113609,0.00039579,0.00069
 495,0.00110535,0.00149166,-0.00031108,0.00106215,0.00022542,-0.0041882
 6,0.07431476,0.03959708,-0.29297982,0.00025113,-0.00018434,0.00068896,
 0.00115917,-0.00047801,0.00133109,-0.08256563,-0.04477492,0.31489236,0
 .00000137,-0.00000129,-0.00000003,-0.00000487,0.00000246,0.00000191,0.
 00004123,-0.00000227,-0.00000029,0.00003759,0.00019348,-0.00009131,-0.
 00008677,-0.00004452,0.00001321,0.00001822,0.00006940,-0.00002364,0.00
 003472,0.00006641,-0.00001209,-0.00004511,-0.00001111,0.00000628,0.000
 01091,0.00000810,-0.00000301,0.00001090,-0.00000366,-0.00000045,-0.000
 00213,0.00000022,0.00000062,0.00000121,0.00000052,-0.00000048,-0.00000
 140,0.00000087,0.00000043,-0.00000209,0.00000030,-0.00000010,-0.000001
 02,0.00000095,-0.00000103,-0.00000084,0.00000103,0.00000012,-0.0000009
 0,-0.00000056,0.00000281,-0.00000064,-0.00000222,-0.00000415,-0.000007
 85,0.00000645,-0.00000080,-0.00000915,0.00000612,-0.00000445,0.0000010
 3,-0.00030451,0.00015019,-0.00000057,-0.00000138,0.00000010,-0.0000069
 2,0.00000345,-0.00000144,0.00000165,0.00000030,-0.00000020,0.00000329,
 0.00000084,-0.00000026,-0.00000061,-0.00000331,0.00000062,-0.00000003,
 0.00000096,-0.00000013,0.00000054,0.00000098,-0.00000101,0.00000060,0.
 00000117,0.00000052,-0.00000820,-0.00012486,0.00001981,-0.00144012,0.0
 0371514,-0.00001002,0.00134039,0.00012390,-0.00030954,-0.00524972,-0.0
 0229566,0.00190155,0.00344271,0.03149357,-0.00483907,-0.05060460,-0.02
 992473,0.00395267,0.00120909,-0.00074757,-0.00044980,0.00120866,-0.000
 81234,0.00001523,-0.00187716,-0.00874807,0.00017155,0.05400042,-0.0000
 0186,0.00000136,-0.00000047,0.00000414,-0.00000362,-0.00000039,-0.0000
 3706,0.00000505,-0.00000140,-0.00002069,-0.00013711,0.00006673,0.00002
 823,0.00005638,-0.00001867,-0.00000179,-0.00007635,0.00002791,-0.00003
 571,-0.00012379,0.00002628,0.00006055,0.00000287,-0.00000224,-0.000013
 40,-0.00000999,0.00000041,-0.00001331,0.00000762,-0.00000009,0.0000023
 9,-0.00000116,-0.00000185,0.00000118,-0.00000108,0.00000138,0.00000011
 ,-0.00000469,0.00000168,0.00000267,0.00000035,-0.00000008,0.00000098,-
 0.00000085,0.00000136,0.00000107,-0.00000131,-0.00000034,0.00000036,0.
 00000036,-0.00000216,0.00000007,0.00000222,0.00000298,0.00000746,-0.00
 000610,0.00000035,0.00000812,-0.00000528,0.00000419,-0.00001628,0.0002
 6022,-0.00012106,0.00000024,0.00000124,-0.00000045,0.00000821,0.000002
 93,0.00000047,-0.00000120,0.00000050,0.00000009,-0.00000670,-0.0000019
 4,0.00000038,0.00000176,0.00001064,-0.00000190,0.00000044,-0.00000293,
 0.00000044,-0.00000156,-0.00000301,0.00000247,-0.00000183,-0.00000351,
 -0.00000137,0.00003479,0.00024888,-0.00004549,0.00140578,-0.00248572,-
 0.00008769,0.00024822,-0.00113816,0.00007774,0.00168515,0.00302355,-0.
 00068398,-0.00320305,-0.01365705,0.00230754,-0.02813702,-0.31268997,0.
 03765355,-0.00000299,0.00061789,0.00031766,-0.00025364,0.00047828,-0.0
 0036089,-0.00056554,-0.00344178,0.00069364,0.02976470,0.33829808,-0.00
 000011,-0.00000001,0.,0.00000109,0.00000014,-0.00000027,-0.00000662,0.
 00000054,-0.00000029,-0.00000914,-0.00003574,0.00002057,0.00001874,0.0
 0000493,-0.00000164,-0.00000446,-0.00001020,0.00000328,-0.00000388,0.0
 0000056,0.00000752,0.00000463,0.00000178,-0.00000194,-0.00000107,-0.00
 000083,-0.00000114,-0.00000123,0.00000071,0.00000149,-0.00000003,0.000
 00029,0.00000047,-0.00000015,0.00000001,-0.00000036,0.00000037,0.00000
 017,0.00000065,0.00000021,-0.00000008,0.00000011,0.00000020,-0.0000001
 4,0.00000013,0.00000011,-0.00000019,0.00000001,0.00000041,0.00000025,-
 0.00000092,0.00000003,0.00000061,0.00000105,0.00000096,-0.00000105,0.0
 0000022,0.00000156,-0.00000131,0.00000068,0.00000338,0.00005586,-0.000
 03026,0.00000011,0.00000015,0.,0.00000013,-0.00000044,-0.00000261,-0.0
 0000014,-0.00000016,-0.00000019,-0.00000016,-0.00000001,-0.00000002,-0
 .00000005,-0.00000023,-0.00000029,0.,-0.00000003,0.00000005,0.,0.00000
 005,0.00000013,0.00000007,0.00000008,0.00000009,-0.00000154,0.00000417
 ,-0.00000340,0.00024833,-0.00072751,0.00008565,-0.00035552,0.00016805,
 0.00030155,0.00148885,0.00039839,0.00037025,-0.00086100,-0.00723731,-0
 .00005745,0.00374342,0.03807773,-0.05422764,-0.00003767,0.00036870,0.0
 0005605,-0.00055212,-0.00004227,0.00019789,0.00279549,0.03081217,-0.00
 265042,-0.00556532,-0.04128964,0.05264039,0.00000074,-0.00000008,0.000
 00061,-0.00000049,-0.00000066,-0.00000172,0.00000818,0.00000029,-0.000
 00134,0.00000356,0.00004674,-0.00001635,-0.00002279,-0.00000909,0.0000
 0332,0.00000384,0.00001600,-0.00000456,0.00000602,0.00002079,-0.000001
 27,-0.00001141,-0.00000369,0.00000552,0.00000336,0.00000227,-0.0000030
 4,0.00000288,-0.00000327,-0.00000207,-0.00000141,0.00000195,0.00000094
 ,0.00000109,0.00000054,0.00000057,-0.00000063,0.00000009,0.00000111,-0
 .00000028,-0.00000010,-0.00000017,-0.00000018,0.00000007,-0.00000041,-
 0.00000058,0.00000093,0.00000029,0.00000006,0.00000017,0.00000222,-0.0
 0000011,-0.00000137,-0.00000082,-0.00000167,0.00000242,0.00000024,-0.0
 0000185,0.00000136,-0.00000121,0.00000831,-0.00006252,0.00002648,-0.00
 000026,-0.00000040,-0.00000057,-0.00000234,0.00000975,-0.00000478,0.00
 000146,-0.00000073,-0.00000042,0.00000060,0.00000049,-0.00000049,-0.00
 000024,-0.00000020,-0.00000187,0.00000015,-0.00000003,0.00000039,0.,-0
 .00000007,0.00000062,0.00000038,0.00000033,0.00000070,0.00000518,-0.00
 003523,-0.00000066,0.00014099,0.00072921,0.00011632,0.00130897,0.00023
 168,-0.00000210,-0.00034711,-0.00233150,0.00026892,-0.02103293,-0.0095
 4183,-0.01807007,-0.18720420,-0.06498235,-0.11965155,-0.00434477,0.003
 44641,0.00163572,0.00116910,-0.00054341,0.00021696,0.00762265,0.004018
 28,0.00579704,-0.00201381,-0.00095299,-0.00090791,0.20469953,0.0000000
 8,-0.00000047,-0.00000005,-0.00000008,0.00000061,0.00000011,0.00000367
 ,-0.00000098,0.00000155,-0.00000093,0.00000817,-0.00000232,0.00001337,
 -0.00000565,0.00000595,-0.00000321,0.00000982,-0.00000616,-0.00000279,
 0.00003254,-0.00000331,-0.00000751,0.00000024,-0.00000537,0.00000167,0
 .00000094,-0.00000053,0.00000093,-0.00000482,0.00000613,-0.00000190,0.
 00000178,-0.00000146,-0.00000135,-0.00000022,-0.00000084,0.00000103,0.
 00000203,-0.00000064,-0.00000027,-0.00000002,0.,-0.00000008,0.00000009
 ,-0.00000006,0.,0.,0.00000003,-0.00000018,0.,-0.00000019,-0.00000038,0
 .00000018,-0.00000016,-0.00000055,0.00000032,0.00000011,-0.00000116,0.
 00000015,-0.00000045,-0.00000283,-0.00001251,0.00000575,0.00000016,0.0
 0000005,0.00000034,-0.00000091,0.00000669,0.00000147,-0.00000016,-0.00
 000023,0.00000013,0.00000215,0.00000110,0.00000008,-0.00000112,-0.0000
 0504,0.00000144,-0.00000046,0.00000149,-0.00000005,0.00000077,0.000001
 52,-0.00000131,0.00000072,0.00000150,0.00000037,-0.00000472,-0.0000542
 1,0.00000476,-0.00004963,0.00009833,-0.00028277,0.00066253,-0.00026245
 ,0.00010911,-0.00041706,0.00017476,0.00087648,0.01193672,0.00537733,0.
 01074904,-0.06660141,-0.07800682,-0.05660320,0.00295320,-0.00110291,-0
 .00044592,-0.00084598,0.00048693,0.00005817,0.00486121,0.00114884,0.00
 364824,-0.02243326,-0.00922303,-0.02054819,0.06993976,0.08132392,0.000
 00062,0.00000017,-0.00000016,-0.00000003,-0.00000104,0.00000017,-0.000
 00021,0.00000067,-0.00000092,0.00000731,0.00001448,-0.00000345,-0.0000
 2224,0.00000353,-0.00000140,0.00000556,-0.00000316,0.00000256,0.000004
 05,-0.00002070,0.00000423,-0.00000006,-0.00000586,0.00000222,0.0000010
 3,-0.00000047,-0.00000219,0.00000108,0.00000224,-0.00000219,-0.0000016
 3,0.00000110,0.00000040,0.00000252,-0.00000006,-0.00000050,-0.00000167
 ,-0.00000275,0.00000293,0.00000002,-0.00000017,0.00000002,-0.00000005,
 -0.00000002,-0.00000006,-0.00000019,0.00000033,0.00000018,0.00000002,0
 .00000047,0.00000051,-0.00000025,-0.00000010,0.00000007,0.00000009,0.0
 0000028,0.00000012,0.00000033,-0.00000022,-0.00000005,-0.00000406,-0.0
 0000997,0.00000441,-0.00000049,-0.00000028,-0.00000029,-0.00000056,0.0
 0000657,-0.00000350,0.00000231,0.00000032,-0.00000020,-0.00000170,-0.0
 0000042,-0.00000005,0.,0.00000590,-0.00000161,0.00000093,-0.00000177,0
 .00000033,-0.00000059,-0.00000163,0.00000129,-0.00000052,-0.00000163,-
 0.00000033,0.00000721,0.00003590,-0.00001452,0.00008694,0.00025040,-0.
 00016336,0.00062049,-0.00035334,0.00007289,-0.00086445,-0.00033650,0.0
 0032933,0.00607705,0.00316950,0.00473351,-0.12061436,-0.05543487,-0.15
 209199,0.00146773,-0.00083528,0.00103850,-0.00035892,0.00060760,0.0006
 4773,-0.02208963,-0.01095586,-0.01755365,0.00508097,0.00143289,0.00329
 062,0.13059536,0.06243373,0.15970843\\0.00000042,0.00000568,0.00000141
 ,-0.00000016,0.00000456,0.00000149,0.00000115,0.00000290,0.00000033,0.
 00000030,0.00000073,0.00000055,0.00000021,0.00000040,-0.00000018,0.000
 00216,0.00000113,-0.00000078,0.00000147,-0.00000247,0.,0.00000164,-0.0
 0000174,-0.00000041,0.00000232,-0.00000320,-0.00000164,-0.00000004,-0.
 00000264,-0.00000106,0.00000061,-0.00000435,-0.00000143,0.00000184,-0.
 00000504,-0.00000188,0.00000237,-0.00000370,-0.00000226,0.,0.00000678,
 0.00000183,0.00000049,0.00000547,0.00000157,0.00000163,0.00000595,0.00
 000106,-0.00000106,0.00000404,0.00000173,0.00000001,0.00000454,0.00000
 096,0.00000209,0.00000333,0.00000014,0.00000092,0.00000295,0.00000065,
 0.00000024,0.00000280,0.00000025,0.00000322,-0.00000125,-0.00000143,-0
 .00000098,-0.00000281,-0.00000052,-0.00000028,-0.00000526,-0.00000143,
 0.00000210,-0.00000680,-0.00000262,0.00000434,-0.00000404,-0.00000269,
 0.00000582,-0.00000336,-0.00000237,0.00000376,-0.00000525,-0.00000185,
 0.00000452,-0.00000462,-0.00000383,-0.00000003,0.00000140,-0.00000037,
 0.00000127,-0.00000016,0.00000032,-0.00000327,-0.00000007,0.00000094,-
 0.00000481,0.00000315,0.00000211,-0.00000394,0.00000083,0.00000160,-0.
 00000532,-0.00000065,0.00000111,-0.00000502,0.00000135,0.00000240,-0.0
 0000435,0.00000186,0.00000153,-0.00000508,-0.00000126,0.00000185,-0.00
 000607,-0.00000010,0.00000190,-0.00000446,-0.00000108,0.00000104\\\@


 Everything starts as somebody's daydream.
                           -- Larry Niven
 Job cpu time:       0 days  7 hours 20 minutes 30.0 seconds.
 File lengths (MBytes):  RWF=   1152 Int=      0 D2E=      0 Chk=     33 Scr=      1
 Normal termination of Gaussian 09 at Wed Feb 27 16:56:03 2019.
WARNING: pbs_rusage is deprecated and values produced may not be accurate


=============================================================================
                                     Resource usage:
                                       CPU time:              56:15:07
   JobId:    6207868.r-man2            Elapsed time:          07:08:44
   Project:             q95            Requested time:        46:00:00
   Service Units:     57.16 
                                       Max physical memory:     1568MB
                                       Max virtual memory:      3902MB
                                       Requested memory:           0MB

                                       Number of cpus:               8

                                       Max jobfs disk use:       2.0GB
                                       Requested jobfs:         20.0GB
=============================================================================

