 Entering Gaussian System, Link 0=/apps/gaussian/g09e01/g09/g09
 AtFile(1): /home/507/hio507/Basis/6-31pGd.gbs
 Initial command:
 /apps/gaussian/g09e01/g09/l1.exe "/jobfs/local/1828843.r-man2/Gau-34213.inp" -scrdir="/jobfs/local/1828843.r-man2/"
 Entering Link 1 = /apps/gaussian/g09e01/g09/l1.exe PID=     34214.
  
 Copyright (c) 1988,1990,1992,1993,1995,1998,2003,2009,2015,
            Gaussian, Inc.  All Rights Reserved.
  
 This is part of the Gaussian(R) 09 program.  It is based on
 the Gaussian(R) 03 system (copyright 2003, Gaussian, Inc.),
 the Gaussian(R) 98 system (copyright 1998, Gaussian, Inc.),
 the Gaussian(R) 94 system (copyright 1995, Gaussian, Inc.),
 the Gaussian 92(TM) system (copyright 1992, Gaussian, Inc.),
 the Gaussian 90(TM) system (copyright 1990, Gaussian, Inc.),
 the Gaussian 88(TM) system (copyright 1988, Gaussian, Inc.),
 the Gaussian 86(TM) system (copyright 1986, Carnegie Mellon
 University), and the Gaussian 82(TM) system (copyright 1983,
 Carnegie Mellon University). Gaussian is a federally registered
 trademark of Gaussian, Inc.
  
 This software contains proprietary and confidential information,
 including trade secrets, belonging to Gaussian, Inc.
  
 This software is provided under written license and may be
 used, copied, transmitted, or stored only in accord with that
 written license.
  
 The following legend is applicable only to US Government
 contracts under FAR:
  
                    RESTRICTED RIGHTS LEGEND
  
 Use, reproduction and disclosure by the US Government is
 subject to restrictions as set forth in subparagraphs (a)
 and (c) of the Commercial Computer Software - Restricted
 Rights clause in FAR 52.227-19.
  
 Gaussian, Inc.
 340 Quinnipiac St., Bldg. 40, Wallingford CT 06492
  
  
 ---------------------------------------------------------------
 Warning -- This program may not be used in any manner that
 competes with the business of Gaussian, Inc. or will provide
 assistance to any competitor of Gaussian, Inc.  The licensee
 of this program is prohibited from giving any competitor of
 Gaussian, Inc. access to this program.  By using this program,
 the user acknowledges that Gaussian, Inc. is engaged in the
 business of creating and licensing software in the field of
 computational chemistry and represents and warrants to the
 licensee that it is not a competitor of Gaussian, Inc. and that
 it will not use this program in any manner prohibited above.
 ---------------------------------------------------------------
  

 Cite this work as:
 Gaussian 09, Revision E.01,
 M. J. Frisch, G. W. Trucks, H. B. Schlegel, G. E. Scuseria, 
 M. A. Robb, J. R. Cheeseman, G. Scalmani, V. Barone, B. Mennucci, 
 G. A. Petersson, H. Nakatsuji, M. Caricato, X. Li, H. P. Hratchian, 
 A. F. Izmaylov, J. Bloino, G. Zheng, J. L. Sonnenberg, M. Hada, 
 M. Ehara, K. Toyota, R. Fukuda, J. Hasegawa, M. Ishida, T. Nakajima, 
 Y. Honda, O. Kitao, H. Nakai, T. Vreven, J. A. Montgomery, Jr., 
 J. E. Peralta, F. Ogliaro, M. Bearpark, J. J. Heyd, E. Brothers, 
 K. N. Kudin, V. N. Staroverov, T. Keith, R. Kobayashi, J. Normand, 
 K. Raghavachari, A. Rendell, J. C. Burant, S. S. Iyengar, J. Tomasi, 
 M. Cossi, N. Rega, J. M. Millam, M. Klene, J. E. Knox, J. B. Cross, 
 V. Bakken, C. Adamo, J. Jaramillo, R. Gomperts, R. E. Stratmann, 
 O. Yazyev, A. J. Austin, R. Cammi, C. Pomelli, J. W. Ochterski, 
 R. L. Martin, K. Morokuma, V. G. Zakrzewski, G. A. Voth, 
 P. Salvador, J. J. Dannenberg, S. Dapprich, A. D. Daniels, 
 O. Farkas, J. B. Foresman, J. V. Ortiz, J. Cioslowski, 
 and D. J. Fox, Gaussian, Inc., Wallingford CT, 2013.
 
 ******************************************
 Gaussian 09:  ES64L-G09RevE.01 30-Nov-2015
                30-Oct-2018 
 ******************************************
 %chk=3Methyl4Chloro.M062X_6-31pGd_opt.chk
 %mem=196608000
 %nproc=4
 Will use up to    4 processors via shared memory.
 ----------------------------------------------------------------------
 # M062X/Gen 6D SCF=Tight INT(grid=ultrafine) OPT IOP(2/17=4) maxdisk=1
 610612736
 ----------------------------------------------------------------------
 1/14=-1,18=20,19=15,26=4,38=1/1,3;
 2/9=110,12=2,17=4,18=5,40=1/2;
 3/5=7,8=2,11=2,16=1,25=1,30=1,71=1,74=-55,75=-5/1,2,3;
 4//1;
 5/5=2,32=2,38=5/2;
 6/7=2,8=2,9=2,10=2,28=1/1;
 7//1,2,3,16;
 1/14=-1,18=20,19=15,26=4/3(2);
 2/9=110,17=4/2;
 99//99;
 2/9=110,17=4/2;
 3/5=7,6=1,8=2,11=2,16=1,25=1,30=1,71=1,74=-55,75=-5,82=7/1,2,3;
 4/5=5,16=3,69=1/1;
 5/5=2,32=2,38=5/2;
 7//1,2,3,16;
 1/14=-1,18=20,19=15,26=4/3(-5);
 2/9=110,17=4/2;
 6/7=2,8=2,9=2,10=2,19=2,28=1/1;
 99/9=1/99;
 --------------------------------
 3Methyl4Chloro.M062X_6-31pGd_opt
 --------------------------------
 Symbolic Z-matrix:
 Charge =  0 Multiplicity = 1
 C                    -1.74362   1.89621   0.31924 
 C                    -0.40412   1.18878   0.13579 
 C                     0.75324   2.19329   0.09478 
 N                     2.02542   1.51514  -0.08465 
 C                     3.20259   2.19955  -0.1513 
 O                     3.19056   3.41631  -0.05608 
 N                     4.37271   1.51022  -0.32652 
 C                     5.70904   2.03839  -0.42199 
 C                     6.04036   3.41144  -0.32138 
 C                     6.75683   1.1235   -0.62861 
 C                     8.08002   1.54948  -0.73359 
 C                     8.39945   2.90392  -0.63427 
 C                     7.37353   3.84892  -0.42547 
 H                    -2.56078   1.14488   0.34569 
 H                    -1.92991   2.59458  -0.5244 
 H                    -1.75251   2.46539   1.27317 
 H                    -0.42852   0.61213  -0.81451 
 H                    -0.25089   0.48136   0.97977 
 H                     0.77417   2.76599   1.0483 
 H                     0.59374   2.90048  -0.74907 
 H                     2.03761   0.4861   -0.165 
 H                     4.28805   0.48444  -0.40323 
 H                     5.30036   4.1739   -0.16131 
 H                     6.54814   0.06395  -0.71107 
 H                     8.86204   0.81773  -0.8936 
 C                     7.64779   5.32579  -0.30715 
 Cl                    10.09472   3.36002  -0.77748 
 H                     8.72136   5.58012  -0.40092 
 H                     7.29765   5.68901   0.68212 
 H                     7.09863   5.8694   -1.10466 
 

 GradGradGradGradGradGradGradGradGradGradGradGradGradGradGradGradGradGrad
 Berny optimization.
 Initialization pass.
                           ----------------------------
                           !    Initial Parameters    !
                           ! (Angstroms and Degrees)  !
 --------------------------                            --------------------------
 ! Name  Definition              Value          Derivative Info.                !
 --------------------------------------------------------------------------------
 ! R1    R(1,2)                  1.5259         estimate D2E/DX2                !
 ! R2    R(1,14)                 1.1104         estimate D2E/DX2                !
 ! R3    R(1,15)                 1.1109         estimate D2E/DX2                !
 ! R4    R(1,16)                 1.1109         estimate D2E/DX2                !
 ! R5    R(2,3)                  1.533          estimate D2E/DX2                !
 ! R6    R(2,17)                 1.1118         estimate D2E/DX2                !
 ! R7    R(2,18)                 1.1119         estimate D2E/DX2                !
 ! R8    R(3,4)                  1.4528         estimate D2E/DX2                !
 ! R9    R(3,19)                 1.1125         estimate D2E/DX2                !
 ! R10   R(3,20)                 1.1125         estimate D2E/DX2                !
 ! R11   R(4,5)                  1.3633         estimate D2E/DX2                !
 ! R12   R(4,21)                 1.0322         estimate D2E/DX2                !
 ! R13   R(5,6)                  1.2205         estimate D2E/DX2                !
 ! R14   R(5,7)                  1.3693         estimate D2E/DX2                !
 ! R15   R(7,8)                  1.4401         estimate D2E/DX2                !
 ! R16   R(7,22)                 1.0321         estimate D2E/DX2                !
 ! R17   R(8,9)                  1.416          estimate D2E/DX2                !
 ! R18   R(8,10)                 1.4063         estimate D2E/DX2                !
 ! R19   R(9,13)                 1.407          estimate D2E/DX2                !
 ! R20   R(9,23)                 1.0745         estimate D2E/DX2                !
 ! R21   R(10,11)                1.394          estimate D2E/DX2                !
 ! R22   R(10,24)                1.0831         estimate D2E/DX2                !
 ! R23   R(11,12)                1.3951         estimate D2E/DX2                !
 ! R24   R(11,25)                1.0829         estimate D2E/DX2                !
 ! R25   R(12,13)                1.4104         estimate D2E/DX2                !
 ! R26   R(12,27)                1.7614         estimate D2E/DX2                !
 ! R27   R(13,26)                1.5068         estimate D2E/DX2                !
 ! R28   R(26,28)                1.1073         estimate D2E/DX2                !
 ! R29   R(26,29)                1.1105         estimate D2E/DX2                !
 ! R30   R(26,30)                1.1105         estimate D2E/DX2                !
 ! A1    A(2,1,14)             109.5842         estimate D2E/DX2                !
 ! A2    A(2,1,15)             110.3255         estimate D2E/DX2                !
 ! A3    A(2,1,16)             110.3534         estimate D2E/DX2                !
 ! A4    A(14,1,15)            108.6657         estimate D2E/DX2                !
 ! A5    A(14,1,16)            108.684          estimate D2E/DX2                !
 ! A6    A(15,1,16)            109.1886         estimate D2E/DX2                !
 ! A7    A(1,2,3)              111.2329         estimate D2E/DX2                !
 ! A8    A(1,2,17)             108.9015         estimate D2E/DX2                !
 ! A9    A(1,2,18)             108.9472         estimate D2E/DX2                !
 ! A10   A(3,2,17)             109.4838         estimate D2E/DX2                !
 ! A11   A(3,2,18)             109.4608         estimate D2E/DX2                !
 ! A12   A(17,2,18)            108.7732         estimate D2E/DX2                !
 ! A13   A(2,3,4)              111.0106         estimate D2E/DX2                !
 ! A14   A(2,3,19)             109.1832         estimate D2E/DX2                !
 ! A15   A(2,3,20)             109.1825         estimate D2E/DX2                !
 ! A16   A(4,3,19)             109.25           estimate D2E/DX2                !
 ! A17   A(4,3,20)             109.1839         estimate D2E/DX2                !
 ! A18   A(19,3,20)            109.0012         estimate D2E/DX2                !
 ! A19   A(3,4,5)              121.859          estimate D2E/DX2                !
 ! A20   A(3,4,21)             119.0325         estimate D2E/DX2                !
 ! A21   A(5,4,21)             119.1084         estimate D2E/DX2                !
 ! A22   A(4,5,6)              119.2187         estimate D2E/DX2                !
 ! A23   A(4,5,7)              119.4318         estimate D2E/DX2                !
 ! A24   A(6,5,7)              121.3493         estimate D2E/DX2                !
 ! A25   A(5,7,8)              128.0832         estimate D2E/DX2                !
 ! A26   A(5,7,22)             116.0868         estimate D2E/DX2                !
 ! A27   A(8,7,22)             115.8296         estimate D2E/DX2                !
 ! A28   A(7,8,9)              124.6134         estimate D2E/DX2                !
 ! A29   A(7,8,10)             117.5508         estimate D2E/DX2                !
 ! A30   A(9,8,10)             117.8357         estimate D2E/DX2                !
 ! A31   A(8,9,13)             121.1946         estimate D2E/DX2                !
 ! A32   A(8,9,23)             122.5133         estimate D2E/DX2                !
 ! A33   A(13,9,23)            116.292          estimate D2E/DX2                !
 ! A34   A(8,10,11)            121.298          estimate D2E/DX2                !
 ! A35   A(8,10,24)            120.2705         estimate D2E/DX2                !
 ! A36   A(11,10,24)           118.4315         estimate D2E/DX2                !
 ! A37   A(10,11,12)           120.5723         estimate D2E/DX2                !
 ! A38   A(10,11,25)           119.3478         estimate D2E/DX2                !
 ! A39   A(12,11,25)           120.0799         estimate D2E/DX2                !
 ! A40   A(11,12,13)           119.6357         estimate D2E/DX2                !
 ! A41   A(11,12,27)           117.7729         estimate D2E/DX2                !
 ! A42   A(13,12,27)           122.5914         estimate D2E/DX2                !
 ! A43   A(9,13,12)            119.4636         estimate D2E/DX2                !
 ! A44   A(9,13,26)            118.127          estimate D2E/DX2                !
 ! A45   A(12,13,26)           122.4093         estimate D2E/DX2                !
 ! A46   A(13,26,28)           113.2637         estimate D2E/DX2                !
 ! A47   A(13,26,29)           109.4603         estimate D2E/DX2                !
 ! A48   A(13,26,30)           109.476          estimate D2E/DX2                !
 ! A49   A(28,26,29)           107.8197         estimate D2E/DX2                !
 ! A50   A(28,26,30)           107.8318         estimate D2E/DX2                !
 ! A51   A(29,26,30)           108.8893         estimate D2E/DX2                !
 ! D1    D(14,1,2,3)          -179.9698         estimate D2E/DX2                !
 ! D2    D(14,1,2,17)           59.2821         estimate D2E/DX2                !
 ! D3    D(14,1,2,18)          -59.2205         estimate D2E/DX2                !
 ! D4    D(15,1,2,3)            60.424          estimate D2E/DX2                !
 ! D5    D(15,1,2,17)          -60.3241         estimate D2E/DX2                !
 ! D6    D(15,1,2,18)         -178.8267         estimate D2E/DX2                !
 ! D7    D(16,1,2,3)           -60.3236         estimate D2E/DX2                !
 ! D8    D(16,1,2,17)          178.9283         estimate D2E/DX2                !
 ! D9    D(16,1,2,18)           60.4257         estimate D2E/DX2                !
 ! D10   D(1,2,3,4)           -179.8011         estimate D2E/DX2                !
 ! D11   D(1,2,3,19)            59.6976         estimate D2E/DX2                !
 ! D12   D(1,2,3,20)           -59.3824         estimate D2E/DX2                !
 ! D13   D(17,2,3,4)           -59.3961         estimate D2E/DX2                !
 ! D14   D(17,2,3,19)         -179.8974         estimate D2E/DX2                !
 ! D15   D(17,2,3,20)           61.0226         estimate D2E/DX2                !
 ! D16   D(18,2,3,4)            59.7521         estimate D2E/DX2                !
 ! D17   D(18,2,3,19)          -60.7492         estimate D2E/DX2                !
 ! D18   D(18,2,3,20)         -179.8292         estimate D2E/DX2                !
 ! D19   D(2,3,4,5)           -179.9761         estimate D2E/DX2                !
 ! D20   D(2,3,4,21)             0.0977         estimate D2E/DX2                !
 ! D21   D(19,3,4,5)           -59.5144         estimate D2E/DX2                !
 ! D22   D(19,3,4,21)          120.5594         estimate D2E/DX2                !
 ! D23   D(20,3,4,5)            59.6061         estimate D2E/DX2                !
 ! D24   D(20,3,4,21)         -120.3201         estimate D2E/DX2                !
 ! D25   D(3,4,5,6)              0.0981         estimate D2E/DX2                !
 ! D26   D(3,4,5,7)           -179.7513         estimate D2E/DX2                !
 ! D27   D(21,4,5,6)          -179.9758         estimate D2E/DX2                !
 ! D28   D(21,4,5,7)             0.1748         estimate D2E/DX2                !
 ! D29   D(4,5,7,8)            179.9992         estimate D2E/DX2                !
 ! D30   D(4,5,7,22)             0.2334         estimate D2E/DX2                !
 ! D31   D(6,5,7,8)              0.1531         estimate D2E/DX2                !
 ! D32   D(6,5,7,22)          -179.6127         estimate D2E/DX2                !
 ! D33   D(5,7,8,9)              1.242          estimate D2E/DX2                !
 ! D34   D(5,7,8,10)          -178.8131         estimate D2E/DX2                !
 ! D35   D(22,7,8,9)          -178.9917         estimate D2E/DX2                !
 ! D36   D(22,7,8,10)            0.9532         estimate D2E/DX2                !
 ! D37   D(7,8,9,13)           179.9951         estimate D2E/DX2                !
 ! D38   D(7,8,9,23)             0.1032         estimate D2E/DX2                !
 ! D39   D(10,8,9,13)            0.0504         estimate D2E/DX2                !
 ! D40   D(10,8,9,23)         -179.8416         estimate D2E/DX2                !
 ! D41   D(7,8,10,11)          179.9604         estimate D2E/DX2                !
 ! D42   D(7,8,10,24)            0.0302         estimate D2E/DX2                !
 ! D43   D(9,8,10,11)           -0.0909         estimate D2E/DX2                !
 ! D44   D(9,8,10,24)          179.9789         estimate D2E/DX2                !
 ! D45   D(8,9,13,12)            0.0225         estimate D2E/DX2                !
 ! D46   D(8,9,13,26)         -179.9575         estimate D2E/DX2                !
 ! D47   D(23,9,13,12)         179.9209         estimate D2E/DX2                !
 ! D48   D(23,9,13,26)          -0.0591         estimate D2E/DX2                !
 ! D49   D(8,10,11,12)           0.0582         estimate D2E/DX2                !
 ! D50   D(8,10,11,25)        -179.9415         estimate D2E/DX2                !
 ! D51   D(24,10,11,12)        179.9896         estimate D2E/DX2                !
 ! D52   D(24,10,11,25)         -0.0101         estimate D2E/DX2                !
 ! D53   D(10,11,12,13)          0.0177         estimate D2E/DX2                !
 ! D54   D(10,11,12,27)        179.992          estimate D2E/DX2                !
 ! D55   D(25,11,12,13)       -179.9826         estimate D2E/DX2                !
 ! D56   D(25,11,12,27)         -0.0084         estimate D2E/DX2                !
 ! D57   D(11,12,13,9)          -0.0571         estimate D2E/DX2                !
 ! D58   D(11,12,13,26)        179.922          estimate D2E/DX2                !
 ! D59   D(27,12,13,9)         179.97           estimate D2E/DX2                !
 ! D60   D(27,12,13,26)         -0.0509         estimate D2E/DX2                !
 ! D61   D(9,13,26,28)        -179.9956         estimate D2E/DX2                !
 ! D62   D(9,13,26,29)          59.6601         estimate D2E/DX2                !
 ! D63   D(9,13,26,30)         -59.6248         estimate D2E/DX2                !
 ! D64   D(12,13,26,28)          0.025          estimate D2E/DX2                !
 ! D65   D(12,13,26,29)       -120.3193         estimate D2E/DX2                !
 ! D66   D(12,13,26,30)        120.3958         estimate D2E/DX2                !
 --------------------------------------------------------------------------------
 Trust Radius=3.00D-01 FncErr=1.00D-07 GrdErr=1.00D-06
 Number of steps in this run=    157 maximum allowed number of steps=    180.
 GradGradGradGradGradGradGradGradGradGradGradGradGradGradGradGradGradGrad

                          Input orientation:                          
 ---------------------------------------------------------------------
 Center     Atomic      Atomic             Coordinates (Angstroms)
 Number     Number       Type             X           Y           Z
 ---------------------------------------------------------------------
      1          6           0       -1.743620    1.896210    0.319240
      2          6           0       -0.404120    1.188780    0.135790
      3          6           0        0.753240    2.193290    0.094780
      4          7           0        2.025420    1.515140   -0.084650
      5          6           0        3.202590    2.199550   -0.151300
      6          8           0        3.190560    3.416310   -0.056080
      7          7           0        4.372710    1.510220   -0.326520
      8          6           0        5.709040    2.038390   -0.421990
      9          6           0        6.040360    3.411440   -0.321380
     10          6           0        6.756830    1.123500   -0.628610
     11          6           0        8.080020    1.549480   -0.733590
     12          6           0        8.399450    2.903920   -0.634270
     13          6           0        7.373530    3.848920   -0.425470
     14          1           0       -2.560780    1.144880    0.345690
     15          1           0       -1.929910    2.594580   -0.524400
     16          1           0       -1.752510    2.465390    1.273170
     17          1           0       -0.428520    0.612130   -0.814510
     18          1           0       -0.250890    0.481360    0.979770
     19          1           0        0.774170    2.765990    1.048300
     20          1           0        0.593740    2.900480   -0.749070
     21          1           0        2.037610    0.486100   -0.165000
     22          1           0        4.288050    0.484440   -0.403230
     23          1           0        5.300360    4.173900   -0.161310
     24          1           0        6.548140    0.063950   -0.711070
     25          1           0        8.862040    0.817730   -0.893600
     26          6           0        7.647790    5.325790   -0.307150
     27         17           0       10.094720    3.360020   -0.777480
     28          1           0        8.721360    5.580120   -0.400920
     29          1           0        7.297650    5.689010    0.682120
     30          1           0        7.098630    5.869400   -1.104660
 ---------------------------------------------------------------------
                    Distance matrix (angstroms):
                    1          2          3          4          5
     1  C    0.000000
     2  C    1.525900   0.000000
     3  C    2.524470   1.533038   0.000000
     4  N    3.809725   2.461254   1.452764   0.000000
     5  C    4.977792   3.756652   2.461688   1.363301   0.000000
     6  O    5.176650   4.233253   2.731129   2.229981   1.220539
     7  N    6.162425   4.809902   3.707377   2.359724   1.369328
     8  C    7.490780   6.197070   4.985078   3.735859   2.526170
     9  C    7.955920   6.832316   5.441573   4.446542   3.090395
    10  C    8.587965   7.201928   6.140915   4.778652   3.744106
    11  C    9.885979   8.536191   7.401513   6.089375   4.954894
    12  C   10.237506   9.002085   7.713691   6.546682   5.266569
    13  C    9.353614   8.239126   6.843976   5.845081   4.493588
    14  H    1.110381   2.167295   3.484946   4.621203   5.880116
    15  H    1.110924   2.177191   2.782752   4.123494   5.161183
    16  H    1.110868   2.177504   2.782342   4.125458   5.162635
    17  H    2.159569   1.111841   2.173346   2.714764   4.018048
    18  H    2.160172   1.111856   2.173060   2.717219   4.019704
    19  H    2.761759   2.169939   1.112485   2.100911   2.767150
    20  H    2.759184   2.169935   1.112493   2.100078   2.766718
    21  H    4.064554   2.558570   2.152113   1.032244   2.072022
    22  H    6.236674   4.775259   3.957659   2.506657   2.045310
    23  H    7.418656   6.445177   4.966357   4.219018   2.880763
    24  H    8.554063   7.093401   6.226102   4.790966   4.008346
    25  H   10.729125   9.330544   8.283821   6.919549   5.872803
    26  C   10.017633   9.063349   7.583464   6.795705   5.436678
    27  Cl  11.978807  10.759832   9.454382   8.306455   7.017140
    28  H   11.117807  10.141317   8.672213   7.839624   6.476680
    29  H    9.811298   8.936879   7.442737   6.767979   5.444303
    30  H    9.797914   8.929624   7.430775   6.762948   5.436527
                    6          7          8          9         10
     6  O    0.000000
     7  N    2.259158   0.000000
     8  C    2.894010   1.440089   0.000000
     9  C    2.862126   2.528976   1.416037   0.000000
    10  C    4.278206   2.434099   1.406264   2.417103   0.000000
    11  C    5.277395   3.729798   2.440835   2.792315   1.394027
    12  C    5.265870   4.272206   2.834168   2.433266   2.422422
    13  C    4.221473   3.805815   2.459382   1.406970   2.801696
    14  H    6.196670   6.975573   8.353300   8.919747   9.368435
    15  H    5.207089   6.398282   7.659856   8.014592   8.811038
    16  H    5.206255   6.402318   7.663591   8.010395   8.821922
    17  H    4.640731   4.908820   6.313314   7.065814   7.205922
    18  H    4.640096   4.913514   6.317439   7.061033   7.218543
    19  H    2.735235   4.051738   5.200394   5.479543   6.426665
    20  H    2.736748   4.048702   5.197737   5.487228   6.415282
    21  H    3.150760   2.554917   3.994377   4.960250   4.784585
    22  H    3.149740   1.032122   2.105784   3.412421   2.560092
    23  H    2.244164   2.825424   2.189835   1.074508   3.412421
    24  H    4.789642   2.640468   2.164733   3.408136   1.083050
    25  H    6.294422   4.577686   3.413771   3.875132   2.143741
    26  C    4.855517   5.028429   3.818238   2.499754   4.307713
    27  Cl   6.941975   6.030466   4.594265   4.080258   4.020658
    28  H    5.949011   5.956541   4.649556   3.449241   4.875724
    29  H    4.751662   5.199511   4.131557   2.788389   4.780626
    30  H    4.731826   5.199865   4.132026   2.788374   4.781947
                   11         12         13         14         15
    11  C    0.000000
    12  C    1.395137   0.000000
    13  C    2.425178   1.410367   0.000000
    14  H   10.703045  11.143661  10.324584   0.000000
    15  H   10.066513  10.334575   9.388139   1.804628   0.000000
    16  H   10.076935  10.338904   9.385315   1.804790   1.810917
    17  H    8.560399   9.122381   8.455776   2.485240   2.503686
    18  H    8.572079   9.127010   8.452629   2.485540   3.089876
    19  H    7.617773   7.809927   6.848086   3.774063   3.132861
    20  H    7.607222   7.806555   6.853452   3.772483   2.552031
    21  H    6.161557   6.821955   6.312562   4.673327   4.507335
    22  H    3.952529   4.776073   4.565129   6.921238   6.567374
    23  H    3.865436   3.382440   2.115048   8.439759   7.409648
    24  H    2.134002   3.390970   3.884435   9.233503   8.849648
    25  H    1.082874   2.152540   3.409240  11.494507  10.943477
    26  C    3.824813   2.556845   1.506772  11.050842   9.961879
    27  Cl   2.709058   1.761385   2.787079  12.896900  12.051625
    28  H    4.094880   2.705573   2.194152  12.145594  11.062470
    29  H    4.444327   3.271631   2.149057  10.860522   9.807092
    30  H    4.445507   3.272227   2.149234  10.850291   9.621626
                   16         17         18         19         20
    16  H    0.000000
    17  H    3.089649   0.000000
    18  H    2.505458   1.807787   0.000000
    19  H    2.554416   3.091219   2.504991   0.000000
    20  H    3.127882   2.507158   3.091024   1.811403   0.000000
    21  H    4.511201   2.553340   2.558858   2.875113   2.873174
    22  H    6.574408   4.736189   4.744963   4.433933   4.427729
    23  H    7.397278   6.777385   6.764118   4.892010   4.911144
    24  H    8.865941   6.998927   7.018545   6.613254   6.595622
    25  H   10.958027   9.293171   9.309573   8.542853   8.527809
    26  C    9.952132   9.364977   9.354882   7.458986   7.472419
    27  Cl  12.056632  10.876160  10.881464   9.516249   9.512129
    28  H   11.054686  10.419803  10.411769   8.554379   8.565039
    29  H    9.625303   9.365272   9.175438   7.157788   7.400447
    30  H    9.776709   9.185917   9.348330   7.366491   7.159227
                   21         22         23         24         25
    21  H    0.000000
    22  H    2.263015   0.000000
    23  H    4.923964   3.833460   0.000000
    24  H    4.563035   2.319393   4.330229   0.000000
    25  H    6.871221   4.612259   4.948302   2.440417   0.000000
    26  C    7.410595   5.893705   2.618883   5.390672   4.705415
    27  Cl   8.576221   6.490488   4.901832   4.842181   2.827759
    28  H    8.406974   6.754273   3.706495   5.936936   4.789873
    29  H    7.446872   6.109274   2.645014   5.843290   5.353464
    30  H    7.448275   6.114667   2.645450   5.844759   5.354767
                   26         27         28         29         30
    26  C    0.000000
    27  Cl   3.173788   0.000000
    28  H    1.107262   2.637567   0.000000
    29  H    1.110487   3.921508   1.792145   0.000000
    30  H    1.110455   3.921810   1.792257   1.806857   0.000000
 Stoichiometry    C11H15ClN2O
 Framework group  C1[X(C11H15ClN2O)]
 Deg. of freedom    84
 Full point group                 C1      NOp   1
 Largest Abelian subgroup         C1      NOp   1
 Largest concise Abelian subgroup C1      NOp   1
                         Standard orientation:                         
 ---------------------------------------------------------------------
 Center     Atomic      Atomic             Coordinates (Angstroms)
 Number     Number       Type             X           Y           Z
 ---------------------------------------------------------------------
      1          6           0        6.766269    0.490389    0.015719
      2          6           0        5.555934   -0.438529   -0.008187
      3          6           0        4.245357    0.356680    0.007164
      4          7           0        3.096468   -0.532279   -0.010984
      5          6           0        1.818705   -0.057055   -0.002481
      6          8           0        1.631672    1.148874    0.019209
      7          7           0        0.772265   -0.940151   -0.015272
      8          6           0       -0.637633   -0.646879   -0.009461
      9          6           0       -1.187832    0.657890   -0.013963
     10          6           0       -1.528323   -1.735069    0.000251
     11          6           0       -2.908754   -1.540974    0.007204
     12          6           0       -3.444226   -0.252695    0.003458
     13          6           0       -2.579940    0.861763   -0.007841
     14          1           0        7.698555   -0.112634    0.003392
     15          1           0        6.757253    1.112323    0.936192
     16          1           0        6.760692    1.155233   -0.874213
     17          1           0        5.595773   -1.104962    0.880897
     18          1           0        5.598971   -1.064000   -0.926423
     19          1           0        4.209874    1.020150   -0.885121
     20          1           0        4.208525    0.982946    0.925899
     21          1           0        3.252682   -1.552463   -0.029714
     22          1           0        1.023308   -1.941206   -0.027260
     23          1           0       -0.577357    1.542079   -0.023860
     24          1           0       -1.150282   -2.749993    0.003628
     25          1           0       -3.565698   -2.401771    0.015582
     26          6           0       -3.090265    2.279469   -0.014174
     27         17           0       -5.198327   -0.092933    0.012536
     28          1           0       -4.195485    2.346456   -0.008630
     29          1           0       -2.722758    2.800904   -0.923144
     30          1           0       -2.712755    2.812870    0.883646
 ---------------------------------------------------------------------
 Rotational constants (GHZ):      2.0343356      0.1627691      0.1513090
 General basis read from cards:  (6D, 7F)
 There are   319 symmetry adapted cartesian basis functions of A   symmetry.
 There are   319 symmetry adapted basis functions of A   symmetry.
   319 basis functions,   564 primitive gaussians,   319 cartesian basis functions
    60 alpha electrons       60 beta electrons
       nuclear repulsion energy      1020.7638409842 Hartrees.
 NAtoms=   30 NActive=   30 NUniq=   30 SFac= 1.00D+00 NAtFMM=   60 NAOKFM=F Big=F
 Integral buffers will be    131072 words long.
 Raffenetti 2 integral format.
 Two-electron integral symmetry is turned on.
 One-electron integrals computed using PRISM.
 NBasis=   319 RedAO= T EigKep=  1.89D-06  NBF=   319
 NBsUse=   318 1.00D-06 EigRej=  6.20D-07 NBFU=   318
 ExpMin= 4.38D-02 ExpMax= 2.52D+04 ExpMxC= 3.78D+03 IAcc=3 IRadAn=         5 AccDes= 0.00D+00
 Harris functional with IExCor= 1009 and IRadAn=       5 diagonalized for initial guess.
 HarFok:  IExCor= 1009 AccDes= 0.00D+00 IRadAn=         5 IDoV= 1 UseB2=F ITyADJ=14
 ICtDFT=  3500011 ScaDFX=  1.000000  1.000000  1.000000  1.000000
 FoFCou: FMM=F IPFlag=           0 FMFlag=      100000 FMFlg1=           0
         NFxFlg=           0 DoJE=T BraDBF=F KetDBF=T FulRan=T
         wScrn=  0.000000 ICntrl=     500 IOpCl=  0 I1Cent=   200000004 NGrid=           0
         NMat0=    1 NMatS0=      1 NMatT0=    0 NMatD0=    1 NMtDS0=    0 NMtDT0=    0
 Petite list used in FoFCou.
 Requested convergence on RMS density matrix=1.00D-08 within 128 cycles.
 Requested convergence on MAX density matrix=1.00D-06.
 Requested convergence on             energy=1.00D-06.
 No special actions if energy rises.
 SCF Done:  E(RM062X) =  -1072.87024599     A.U. after   15 cycles
            NFock= 15  Conv=0.35D-08     -V/T= 2.0066

 **********************************************************************

            Population analysis using the SCF density.

 **********************************************************************

 Orbital symmetries:
       Occupied  (A) (A) (A) (A) (A) (A) (A) (A) (A) (A) (A) (A)
                 (A) (A) (A) (A) (A) (A) (A) (A) (A) (A) (A) (A)
                 (A) (A) (A) (A) (A) (A) (A) (A) (A) (A) (A) (A)
                 (A) (A) (A) (A) (A) (A) (A) (A) (A) (A) (A) (A)
                 (A) (A) (A) (A) (A) (A) (A) (A) (A) (A) (A) (A)
       Virtual   (A) (A) (A) (A) (A) (A) (A) (A) (A) (A) (A) (A)
                 (A) (A) (A) (A) (A) (A) (A) (A) (A) (A) (A) (A)
                 (A) (A) (A) (A) (A) (A) (A) (A) (A) (A) (A) (A)
                 (A) (A) (A) (A) (A) (A) (A) (A) (A) (A) (A) (A)
                 (A) (A) (A) (A) (A) (A) (A) (A) (A) (A) (A) (A)
                 (A) (A) (A) (A) (A) (A) (A) (A) (A) (A) (A) (A)
                 (A) (A) (A) (A) (A) (A) (A) (A) (A) (A) (A) (A)
                 (A) (A) (A) (A) (A) (A) (A) (A) (A) (A) (A) (A)
                 (A) (A) (A) (A) (A) (A) (A) (A) (A) (A) (A) (A)
                 (A) (A) (A) (A) (A) (A) (A) (A) (A) (A) (A) (A)
                 (A) (A) (A) (A) (A) (A) (A) (A) (A) (A) (A) (A)
                 (A) (A) (A) (A) (A) (A) (A) (A) (A) (A) (A) (A)
                 (A) (A) (A) (A) (A) (A) (A) (A) (A) (A) (A) (A)
                 (A) (A) (A) (A) (A) (A) (A) (A) (A) (A) (A) (A)
                 (A) (A) (A) (A) (A) (A) (A) (A) (A) (A) (A) (A)
                 (A) (A) (A) (A) (A) (A) (A) (A) (A) (A) (A) (A)
                 (A) (A) (A) (A) (A) (A) (A) (A) (A) (A) (A) (A)
                 (A) (A) (A) (A) (A) (A) (A) (A) (A) (A) (A) (A)
                 (A) (A) (A) (A) (A) (A) (A) (A) (A) (A) (A) (A)
                 (A) (A) (A) (A) (A) (A) (A) (A) (A) (A) (A) (A)
                 (A) (A) (A) (A) (A) (A) (A) (A) (A) (A) (A) (A)
                 (A) (A) (A) (A) (A) (A)
 The electronic state is 1-A.
 Alpha  occ. eigenvalues -- -102.66702 -19.60323 -14.81319 -14.79565 -10.68470
 Alpha  occ. eigenvalues --  -10.61866 -10.61163 -10.59339 -10.57649 -10.56891
 Alpha  occ. eigenvalues --  -10.56704 -10.56673 -10.55592 -10.55469 -10.54718
 Alpha  occ. eigenvalues --   -9.81329  -7.53728  -7.53072  -7.53064  -1.17992
 Alpha  occ. eigenvalues --   -1.05341  -1.03247  -0.98881  -0.92975  -0.89324
 Alpha  occ. eigenvalues --   -0.87756  -0.83232  -0.78675  -0.77648  -0.71400
 Alpha  occ. eigenvalues --   -0.69190  -0.68661  -0.66455  -0.63795  -0.60058
 Alpha  occ. eigenvalues --   -0.56729  -0.56241  -0.54358  -0.54074  -0.52664
 Alpha  occ. eigenvalues --   -0.50799  -0.49769  -0.49537  -0.48108  -0.47334
 Alpha  occ. eigenvalues --   -0.47313  -0.45473  -0.44535  -0.43586  -0.42845
 Alpha  occ. eigenvalues --   -0.41743  -0.41707  -0.41178  -0.40619  -0.37135
 Alpha  occ. eigenvalues --   -0.35553  -0.34019  -0.32288  -0.30461  -0.26944
 Alpha virt. eigenvalues --   -0.00686   0.01036   0.01731   0.01940   0.02481
 Alpha virt. eigenvalues --    0.02890   0.03544   0.03956   0.04533   0.04740
 Alpha virt. eigenvalues --    0.05889   0.06108   0.06467   0.06853   0.07559
 Alpha virt. eigenvalues --    0.07631   0.08335   0.08466   0.08843   0.09149
 Alpha virt. eigenvalues --    0.09501   0.09809   0.10871   0.10977   0.11715
 Alpha virt. eigenvalues --    0.12373   0.12408   0.13128   0.13550   0.14046
 Alpha virt. eigenvalues --    0.14231   0.15146   0.15841   0.15937   0.16519
 Alpha virt. eigenvalues --    0.16782   0.18211   0.18589   0.18992   0.19157
 Alpha virt. eigenvalues --    0.19468   0.19578   0.20570   0.21260   0.21656
 Alpha virt. eigenvalues --    0.22261   0.22314   0.22745   0.23087   0.23558
 Alpha virt. eigenvalues --    0.23618   0.24144   0.24858   0.25234   0.25602
 Alpha virt. eigenvalues --    0.25997   0.26233   0.26264   0.27399   0.27886
 Alpha virt. eigenvalues --    0.28208   0.28265   0.28825   0.29294   0.29923
 Alpha virt. eigenvalues --    0.31009   0.31394   0.31432   0.31636   0.32114
 Alpha virt. eigenvalues --    0.33349   0.33507   0.34219   0.34493   0.35110
 Alpha virt. eigenvalues --    0.35681   0.36774   0.38194   0.38634   0.38918
 Alpha virt. eigenvalues --    0.39623   0.40244   0.41134   0.43549   0.44824
 Alpha virt. eigenvalues --    0.45937   0.47130   0.50940   0.52117   0.54143
 Alpha virt. eigenvalues --    0.57603   0.58836   0.61234   0.65545   0.67824
 Alpha virt. eigenvalues --    0.68029   0.68255   0.68560   0.71527   0.71679
 Alpha virt. eigenvalues --    0.72464   0.73417   0.73895   0.75024   0.75819
 Alpha virt. eigenvalues --    0.76666   0.76764   0.77490   0.77958   0.79292
 Alpha virt. eigenvalues --    0.79920   0.80309   0.80676   0.82818   0.83749
 Alpha virt. eigenvalues --    0.83791   0.85436   0.86233   0.87698   0.88237
 Alpha virt. eigenvalues --    0.88399   0.91744   0.93130   0.94214   0.96748
 Alpha virt. eigenvalues --    0.97379   0.98366   0.98944   0.99474   0.99555
 Alpha virt. eigenvalues --    1.01890   1.02883   1.03587   1.03902   1.04548
 Alpha virt. eigenvalues --    1.05291   1.05968   1.07234   1.09718   1.09784
 Alpha virt. eigenvalues --    1.10539   1.11782   1.12690   1.13406   1.14889
 Alpha virt. eigenvalues --    1.16586   1.17031   1.17142   1.19228   1.21685
 Alpha virt. eigenvalues --    1.22379   1.22717   1.27273   1.27747   1.28295
 Alpha virt. eigenvalues --    1.31491   1.31715   1.32011   1.35975   1.36663
 Alpha virt. eigenvalues --    1.39335   1.39599   1.42114   1.43942   1.45264
 Alpha virt. eigenvalues --    1.45425   1.45644   1.46069   1.48295   1.49683
 Alpha virt. eigenvalues --    1.50485   1.52462   1.53192   1.56396   1.57683
 Alpha virt. eigenvalues --    1.59071   1.59528   1.60163   1.64782   1.72046
 Alpha virt. eigenvalues --    1.79666   1.83135   1.85164   1.86003   1.86724
 Alpha virt. eigenvalues --    1.88149   1.88376   1.90903   1.92881   1.93753
 Alpha virt. eigenvalues --    1.94181   1.95201   1.96992   1.98230   1.99749
 Alpha virt. eigenvalues --    2.02082   2.03174   2.04146   2.04991   2.05426
 Alpha virt. eigenvalues --    2.11608   2.13443   2.15632   2.16991   2.17528
 Alpha virt. eigenvalues --    2.19307   2.19679   2.24588   2.24663   2.26554
 Alpha virt. eigenvalues --    2.28110   2.29966   2.31781   2.34807   2.37102
 Alpha virt. eigenvalues --    2.37650   2.38660   2.39695   2.40406   2.40578
 Alpha virt. eigenvalues --    2.43375   2.44895   2.51570   2.56369   2.59383
 Alpha virt. eigenvalues --    2.64832   2.65517   2.68695   2.69983   2.73114
 Alpha virt. eigenvalues --    2.74208   2.78165   2.79867   2.80882   2.82406
 Alpha virt. eigenvalues --    2.85972   2.92997   3.00213   3.06684   3.12381
 Alpha virt. eigenvalues --    3.27731   3.32798   3.40304   4.14471   4.24318
 Alpha virt. eigenvalues --    4.25802   4.30595   4.34634   4.38007   4.39709
 Alpha virt. eigenvalues --    4.40805   4.44036   4.47896   4.49995   4.52498
 Alpha virt. eigenvalues --    4.58626   4.66935   4.77620
          Condensed to atoms (all electrons):
               1          2          3          4          5          6
     1  C    5.544432   0.014827  -0.029682  -0.003191  -0.018879  -0.001954
     2  C    0.014827   6.150994  -0.395051  -0.092326   0.124698   0.020875
     3  C   -0.029682  -0.395051   6.576298   0.368678  -0.488478  -0.073064
     4  N   -0.003191  -0.092326   0.368678   7.767980   0.320084  -0.204298
     5  C   -0.018879   0.124698  -0.488478   0.320084   5.987950   0.683480
     6  O   -0.001954   0.020875  -0.073064  -0.204298   0.683480   8.301953
     7  N   -0.001230   0.019112  -0.139435  -0.446783   0.042605  -0.076713
     8  C   -0.003625   0.015863  -0.281386  -0.190818  -0.758517  -0.519199
     9  C   -0.000184  -0.009816   0.026881   0.080732   0.512116   0.491563
    10  C   -0.001034   0.003206  -0.080317  -0.115426  -1.237664  -0.129479
    11  C    0.000049  -0.000246   0.008844   0.014005   0.094931   0.004842
    12  C   -0.000023   0.001397  -0.009394  -0.016700  -0.189067  -0.023505
    13  C    0.000056  -0.000899   0.001597   0.019461   0.230025   0.103862
    14  H    0.410019  -0.085586   0.028208   0.000527  -0.002109   0.000009
    15  H    0.415337  -0.064353  -0.008537   0.000582   0.001614  -0.000061
    16  H    0.415002  -0.063853  -0.008509   0.000584   0.001413  -0.000061
    17  H   -0.031150   0.416197  -0.079724   0.006965  -0.000644  -0.000237
    18  H   -0.031198   0.416560  -0.081278   0.006969   0.000565  -0.000234
    19  H    0.004049  -0.054417   0.422597  -0.058619  -0.004862   0.000704
    20  H    0.005320  -0.055931   0.427053  -0.059147  -0.008133   0.000839
    21  H   -0.001882   0.001782  -0.090729   0.228121   0.043782   0.008822
    22  H   -0.000073  -0.000158   0.007298   0.027142  -0.005017   0.007707
    23  H    0.000005  -0.000019   0.002515  -0.000024   0.028718  -0.003543
    24  H   -0.000000   0.000022  -0.000049   0.001194   0.002206   0.000062
    25  H    0.000000   0.000000   0.000016   0.000008   0.001900   0.000001
    26  C   -0.000030  -0.000177  -0.003810   0.002430  -0.042195   0.013798
    27  Cl  -0.000001   0.000007  -0.000145   0.000079  -0.007726   0.000104
    28  H    0.000000  -0.000000  -0.000001   0.000000  -0.000034   0.000002
    29  H   -0.000000  -0.000001  -0.000022  -0.000004  -0.000653  -0.000042
    30  H   -0.000000  -0.000001  -0.000025  -0.000007  -0.000752  -0.000082
               7          8          9         10         11         12
     1  C   -0.001230  -0.003625  -0.000184  -0.001034   0.000049  -0.000023
     2  C    0.019112   0.015863  -0.009816   0.003206  -0.000246   0.001397
     3  C   -0.139435  -0.281386   0.026881  -0.080317   0.008844  -0.009394
     4  N   -0.446783  -0.190818   0.080732  -0.115426   0.014005  -0.016700
     5  C    0.042605  -0.758517   0.512116  -1.237664   0.094931  -0.189067
     6  O   -0.076713  -0.519199   0.491563  -0.129479   0.004842  -0.023505
     7  N    7.876919   0.238506  -0.518104   0.363801   0.043481   0.016952
     8  C    0.238506  11.665682  -2.033528   0.648673  -0.535714   0.168326
     9  C   -0.518104  -2.033528  10.057751  -4.693892   0.605188  -1.840561
    10  C    0.363801   0.648673  -4.693892  13.841394  -1.154492   1.127066
    11  C    0.043481  -0.535714   0.605188  -1.154492   7.239178  -0.683374
    12  C    0.016952   0.168326  -1.840561   1.127066  -0.683374   9.952226
    13  C   -0.026605  -2.166058   2.307022  -1.684735   0.058060  -1.506195
    14  H    0.000010  -0.000038   0.000004  -0.000001  -0.000000  -0.000000
    15  H    0.000020   0.000050  -0.000031   0.000002   0.000000   0.000000
    16  H    0.000016   0.000044  -0.000034   0.000002   0.000000  -0.000000
    17  H    0.000079  -0.000183  -0.000207   0.000094   0.000006  -0.000000
    18  H    0.000190  -0.000196  -0.000130   0.000090   0.000003   0.000000
    19  H    0.000367  -0.003294   0.002761  -0.000780  -0.000008   0.000027
    20  H    0.000461  -0.003995   0.002900  -0.000948  -0.000001   0.000017
    21  H    0.034941   0.019127   0.002164  -0.001681  -0.000306   0.000497
    22  H    0.220817  -0.027088   0.069364  -0.100629   0.032581  -0.006779
    23  H   -0.014129   0.015831   0.254967   0.025048  -0.021033   0.091293
    24  H   -0.011275   0.130011   0.059206   0.094039   0.047879  -0.047332
    25  H    0.000341  -0.003084  -0.008986   0.004014   0.266673  -0.010223
    26  C    0.003092  -0.547136   0.047683  -0.023026   0.267264  -0.445840
    27  Cl  -0.000741  -0.027134  -0.025895   0.093361  -0.121953  -0.034037
    28  H    0.000028   0.003028   0.029186   0.002841   0.001616  -0.052279
    29  H    0.000071  -0.009427  -0.032686   0.002308  -0.001606   0.029898
    30  H    0.000112  -0.013101  -0.037253   0.002818  -0.002981   0.029021
              13         14         15         16         17         18
     1  C    0.000056   0.410019   0.415337   0.415002  -0.031150  -0.031198
     2  C   -0.000899  -0.085586  -0.064353  -0.063853   0.416197   0.416560
     3  C    0.001597   0.028208  -0.008537  -0.008509  -0.079724  -0.081278
     4  N    0.019461   0.000527   0.000582   0.000584   0.006965   0.006969
     5  C    0.230025  -0.002109   0.001614   0.001413  -0.000644   0.000565
     6  O    0.103862   0.000009  -0.000061  -0.000061  -0.000237  -0.000234
     7  N   -0.026605   0.000010   0.000020   0.000016   0.000079   0.000190
     8  C   -2.166058  -0.000038   0.000050   0.000044  -0.000183  -0.000196
     9  C    2.307022   0.000004  -0.000031  -0.000034  -0.000207  -0.000130
    10  C   -1.684735  -0.000001   0.000002   0.000002   0.000094   0.000090
    11  C    0.058060  -0.000000   0.000000   0.000000   0.000006   0.000003
    12  C   -1.506195  -0.000000   0.000000  -0.000000  -0.000000   0.000000
    13  C    9.133516  -0.000000  -0.000000  -0.000000  -0.000008  -0.000004
    14  H   -0.000000   0.492066  -0.024184  -0.024158  -0.003075  -0.003075
    15  H   -0.000000  -0.024184   0.493331  -0.027885  -0.004871   0.003966
    16  H   -0.000000  -0.024158  -0.027885   0.493339   0.003972  -0.004850
    17  H   -0.000008  -0.003075  -0.004871   0.003972   0.512751  -0.034053
    18  H   -0.000004  -0.003075   0.003966  -0.004850  -0.034053   0.512288
    19  H    0.000254  -0.000062  -0.000327   0.002719   0.003934  -0.005467
    20  H    0.000229  -0.000060   0.002728  -0.000336  -0.005426   0.003933
    21  H   -0.000478  -0.000003   0.000001   0.000001   0.000989   0.000981
    22  H    0.008073  -0.000000  -0.000000  -0.000000   0.000002   0.000002
    23  H   -0.066023  -0.000000  -0.000000  -0.000000  -0.000000  -0.000000
    24  H    0.011223   0.000000   0.000000   0.000000   0.000000   0.000000
    25  H    0.062946  -0.000000   0.000000   0.000000  -0.000000   0.000000
    26  C   -0.177559  -0.000000  -0.000000  -0.000000  -0.000000  -0.000000
    27  Cl  -0.161351  -0.000000  -0.000000  -0.000000  -0.000000  -0.000000
    28  H   -0.105456   0.000000  -0.000000  -0.000000  -0.000000  -0.000000
    29  H   -0.058537   0.000000   0.000000  -0.000000  -0.000000   0.000000
    30  H   -0.051471   0.000000  -0.000000   0.000000   0.000000  -0.000000
              19         20         21         22         23         24
     1  C    0.004049   0.005320  -0.001882  -0.000073   0.000005  -0.000000
     2  C   -0.054417  -0.055931   0.001782  -0.000158  -0.000019   0.000022
     3  C    0.422597   0.427053  -0.090729   0.007298   0.002515  -0.000049
     4  N   -0.058619  -0.059147   0.228121   0.027142  -0.000024   0.001194
     5  C   -0.004862  -0.008133   0.043782  -0.005017   0.028718   0.002206
     6  O    0.000704   0.000839   0.008822   0.007707  -0.003543   0.000062
     7  N    0.000367   0.000461   0.034941   0.220817  -0.014129  -0.011275
     8  C   -0.003294  -0.003995   0.019127  -0.027088   0.015831   0.130011
     9  C    0.002761   0.002900   0.002164   0.069364   0.254967   0.059206
    10  C   -0.000780  -0.000948  -0.001681  -0.100629   0.025048   0.094039
    11  C   -0.000008  -0.000001  -0.000306   0.032581  -0.021033   0.047879
    12  C    0.000027   0.000017   0.000497  -0.006779   0.091293  -0.047332
    13  C    0.000254   0.000229  -0.000478   0.008073  -0.066023   0.011223
    14  H   -0.000062  -0.000060  -0.000003  -0.000000  -0.000000   0.000000
    15  H   -0.000327   0.002728   0.000001  -0.000000  -0.000000   0.000000
    16  H    0.002719  -0.000336   0.000001  -0.000000  -0.000000   0.000000
    17  H    0.003934  -0.005426   0.000989   0.000002  -0.000000   0.000000
    18  H   -0.005467   0.003933   0.000981   0.000002  -0.000000   0.000000
    19  H    0.496763  -0.035584   0.002796   0.000005  -0.000001   0.000000
    20  H   -0.035584   0.496945   0.002800   0.000005  -0.000001   0.000000
    21  H    0.002796   0.002800   0.347655   0.002553  -0.000000   0.000005
    22  H    0.000005   0.000005   0.002553   0.353392  -0.000148   0.006735
    23  H   -0.000001  -0.000001  -0.000000  -0.000148   0.434639  -0.000120
    24  H    0.000000   0.000000   0.000005   0.006735  -0.000120   0.513795
    25  H   -0.000000  -0.000000  -0.000000  -0.000011   0.000013  -0.004657
    26  C   -0.000009  -0.000012  -0.000067   0.000831  -0.021929   0.002028
    27  Cl  -0.000000  -0.000000   0.000000   0.000049   0.000248   0.001272
    28  H    0.000000   0.000000   0.000000  -0.000000   0.000125  -0.000000
    29  H   -0.000000   0.000000  -0.000000   0.000000   0.000651   0.000000
    30  H    0.000000  -0.000000  -0.000000   0.000000   0.000686   0.000000
              25         26         27         28         29         30
     1  C    0.000000  -0.000030  -0.000001   0.000000  -0.000000  -0.000000
     2  C    0.000000  -0.000177   0.000007  -0.000000  -0.000001  -0.000001
     3  C    0.000016  -0.003810  -0.000145  -0.000001  -0.000022  -0.000025
     4  N    0.000008   0.002430   0.000079   0.000000  -0.000004  -0.000007
     5  C    0.001900  -0.042195  -0.007726  -0.000034  -0.000653  -0.000752
     6  O    0.000001   0.013798   0.000104   0.000002  -0.000042  -0.000082
     7  N    0.000341   0.003092  -0.000741   0.000028   0.000071   0.000112
     8  C   -0.003084  -0.547136  -0.027134   0.003028  -0.009427  -0.013101
     9  C   -0.008986   0.047683  -0.025895   0.029186  -0.032686  -0.037253
    10  C    0.004014  -0.023026   0.093361   0.002841   0.002308   0.002818
    11  C    0.266673   0.267264  -0.121953   0.001616  -0.001606  -0.002981
    12  C   -0.010223  -0.445840  -0.034037  -0.052279   0.029898   0.029021
    13  C    0.062946  -0.177559  -0.161351  -0.105456  -0.058537  -0.051471
    14  H   -0.000000  -0.000000  -0.000000   0.000000   0.000000   0.000000
    15  H    0.000000  -0.000000  -0.000000  -0.000000   0.000000  -0.000000
    16  H    0.000000  -0.000000  -0.000000  -0.000000  -0.000000   0.000000
    17  H   -0.000000  -0.000000  -0.000000  -0.000000  -0.000000   0.000000
    18  H    0.000000  -0.000000  -0.000000  -0.000000   0.000000  -0.000000
    19  H   -0.000000  -0.000009  -0.000000   0.000000  -0.000000   0.000000
    20  H   -0.000000  -0.000012  -0.000000   0.000000   0.000000  -0.000000
    21  H   -0.000000  -0.000067   0.000000   0.000000  -0.000000  -0.000000
    22  H   -0.000011   0.000831   0.000049  -0.000000   0.000000   0.000000
    23  H    0.000013  -0.021929   0.000248   0.000125   0.000651   0.000686
    24  H   -0.004657   0.002028   0.001272  -0.000000   0.000000   0.000000
    25  H    0.470303   0.001952  -0.005834  -0.000001   0.000002   0.000002
    26  C    0.001952   6.443521   0.023245   0.458487   0.406588   0.409493
    27  Cl  -0.005834   0.023245  17.047511   0.009834  -0.000842  -0.000690
    28  H   -0.000001   0.458487   0.009834   0.469242  -0.023521  -0.023448
    29  H    0.000002   0.406588  -0.000842  -0.023521   0.476161  -0.026575
    30  H    0.000002   0.409493  -0.000690  -0.023448  -0.026575   0.475691
 Mulliken charges:
               1
     1  C   -0.684960
     2  C   -0.362707
     3  C   -0.100348
     4  N   -0.658196
     5  C    0.688645
     6  O   -0.606149
     7  N   -0.626907
     8  C    0.218379
     9  C    0.651821
    10  C   -0.984653
    11  C   -0.162886
    12  C   -0.551411
    13  C    0.069058
    14  H    0.211509
    15  H    0.212619
    16  H    0.212595
    17  H    0.214590
    18  H    0.214938
    19  H    0.226457
    20  H    0.226346
    21  H    0.398130
    22  H    0.403348
    23  H    0.272231
    24  H    0.193755
    25  H    0.224625
    26  C   -0.818620
    27  Cl   0.210640
    28  H    0.230352
    29  H    0.238238
    30  H    0.238564
 Sum of Mulliken charges =  -0.00000
 Mulliken charges with hydrogens summed into heavy atoms:
               1
     1  C   -0.048238
     2  C    0.066821
     3  C    0.352455
     4  N   -0.260067
     5  C    0.688645
     6  O   -0.606149
     7  N   -0.223558
     8  C    0.218379
     9  C    0.924052
    10  C   -0.790898
    11  C    0.061739
    12  C   -0.551411
    13  C    0.069058
    26  C   -0.111466
    27  Cl   0.210640
 Electronic spatial extent (au):  <R**2>=           6793.8303
 Charge=             -0.0000 electrons
 Dipole moment (field-independent basis, Debye):
    X=              4.0355    Y=             -3.4911    Z=             -0.0762  Tot=              5.3365
 Quadrupole moment (field-independent basis, Debye-Ang):
   XX=            -92.4172   YY=            -89.6088   ZZ=           -101.6217
   XY=             -8.4189   XZ=             -0.1037   YZ=             -0.0368
 Traceless Quadrupole moment (field-independent basis, Debye-Ang):
   XX=              2.1321   YY=              4.9404   ZZ=             -7.0725
   XY=             -8.4189   XZ=             -0.1037   YZ=             -0.0368
 Octapole moment (field-independent basis, Debye-Ang**2):
  XXX=            133.7878  YYY=            -20.5747  ZZZ=              0.1710  XYY=             -9.5696
  XXY=             -9.6337  XXZ=             -0.2513  XZZ=              7.9040  YZZ=              6.0005
  YYZ=             -0.3011  XYZ=              0.1813
 Hexadecapole moment (field-independent basis, Debye-Ang**3):
 XXXX=          -8163.4763 YYYY=           -754.1476 ZZZZ=           -142.4674 XXXY=            -65.7228
 XXXZ=             -1.2054 YYYX=            -22.0449 YYYZ=              0.0746 ZZZX=              0.2439
 ZZZY=              0.0926 XXYY=          -1468.1916 XXZZ=          -1429.8252 YYZZ=           -161.8440
 XXYZ=             -0.4374 YYXZ=             -1.1373 ZZXY=             -1.2250
 N-N= 1.020763840984D+03 E-N=-4.557306247863D+03  KE= 1.065873229929D+03
 Calling FoFJK, ICntrl=      2127 FMM=F ISym2X=0 I1Cent= 0 IOpClX= 0 NMat=1 NMatS=1 NMatT=0.
 ***** Axes restored to original set *****
 -------------------------------------------------------------------
 Center     Atomic                   Forces (Hartrees/Bohr)
 Number     Number              X              Y              Z
 -------------------------------------------------------------------
      1        6          -0.006093233    0.001135827    0.000646582
      2        6           0.005225086   -0.005151670   -0.000868272
      3        6          -0.004668134    0.006117300    0.000821372
      4        7           0.008028875   -0.038068769   -0.003614134
      5        6          -0.006278681    0.026928017    0.002388320
      6        8           0.000929202    0.013216382    0.001124573
      7        7           0.018095870   -0.027037135   -0.003822760
      8        6          -0.009639546    0.006140706    0.001600749
      9        6           0.008021162   -0.013653321   -0.002104313
     10        6          -0.000966708    0.005483678    0.000551833
     11        6          -0.005264477    0.001884924    0.000865689
     12        6          -0.009935400    0.000169797    0.001116348
     13        6           0.009746410   -0.007393171   -0.001840907
     14        1           0.006034345    0.009507820    0.000113112
     15        1          -0.000013443   -0.005551141    0.009246759
     16        1          -0.001887243   -0.004189183   -0.009723155
     17        1           0.001813632    0.002548950    0.008793125
     18        1           0.000038449    0.003817831   -0.008537580
     19        1           0.000548176   -0.002408292   -0.010693351
     20        1           0.002532609   -0.003887892    0.009913757
     21        1          -0.003943754    0.017139354    0.001742167
     22        1           0.006489761    0.016223744    0.000662631
     23        1          -0.008636506   -0.000571977    0.000747904
     24        1          -0.001529471   -0.002892636   -0.000147976
     25        1           0.001634467   -0.000568724   -0.000226839
     26        6           0.001073857    0.010104527    0.000916306
     27       17          -0.007205862   -0.000533685    0.000736115
     28        1          -0.010543986   -0.004301389    0.000736372
     29        1           0.002132153   -0.001129777   -0.010145509
     30        1           0.004262390   -0.003080096    0.009001080
 -------------------------------------------------------------------
 Cartesian Forces:  Max     0.038068769 RMS     0.008426419

 GradGradGradGradGradGradGradGradGradGradGradGradGradGradGradGradGradGrad
 Berny optimization.
 FormGI is forming the generalized inverse of G from B-inverse, IUseBI=4.
 GSVD:  received Info=                   1 from GESDD.
 Internal  Forces:  Max     0.028828424 RMS     0.005907777
 Search for a local minimum.
 Step number   1 out of a maximum of  157
 All quantities printed in internal units (Hartrees-Bohrs-Radians)
 Mixed Optimization -- RFO/linear search
 Second derivative matrix not updated -- first step.
 ITU=  0
     Eigenvalues ---    0.00329   0.00423   0.00676   0.00994   0.01161
     Eigenvalues ---    0.01452   0.01468   0.01631   0.01698   0.01927
     Eigenvalues ---    0.01949   0.01998   0.02046   0.02084   0.02098
     Eigenvalues ---    0.02122   0.02137   0.02160   0.02177   0.03756
     Eigenvalues ---    0.04435   0.04933   0.05553   0.05673   0.05783
     Eigenvalues ---    0.07026   0.07435   0.08033   0.09179   0.11975
     Eigenvalues ---    0.12669   0.16000   0.16000   0.16000   0.16000
     Eigenvalues ---    0.16000   0.16000   0.16000   0.16000   0.16000
     Eigenvalues ---    0.16000   0.16000   0.21964   0.22000   0.22000
     Eigenvalues ---    0.22004   0.22367   0.23481   0.24601   0.25000
     Eigenvalues ---    0.25000   0.25000   0.25000   0.25000   0.29145
     Eigenvalues ---    0.29411   0.29805   0.31677   0.32337   0.32338
     Eigenvalues ---    0.32404   0.32406   0.32502   0.32508   0.32548
     Eigenvalues ---    0.32552   0.32560   0.32892   0.35628   0.35649
     Eigenvalues ---    0.36666   0.37885   0.39573   0.40653   0.40977
     Eigenvalues ---    0.42441   0.42459   0.43853   0.44345   0.45563
     Eigenvalues ---    0.46285   0.51106   0.52286   0.95145
 RFO step:  Lambda=-1.54797430D-02 EMin= 3.28923124D-03
 Linear search not attempted -- first point.
 Iteration  1 RMS(Cart)=  0.06540137 RMS(Int)=  0.00061681
 Iteration  2 RMS(Cart)=  0.00206358 RMS(Int)=  0.00003815
 Iteration  3 RMS(Cart)=  0.00000026 RMS(Int)=  0.00003815
 Variable       Old X    -DE/DX   Delta X   Delta X   Delta X     New X
                                 (Linear)    (Quad)   (Total)
    R1        2.88353   0.00217   0.00000   0.00693   0.00693   2.89046
    R2        2.09832  -0.01087   0.00000  -0.03187  -0.03187   2.06644
    R3        2.09934  -0.01051   0.00000  -0.03087  -0.03087   2.06848
    R4        2.09924  -0.01048   0.00000  -0.03078  -0.03078   2.06846
    R5        2.89702  -0.00526   0.00000  -0.01713  -0.01713   2.87989
    R6        2.10108  -0.00888   0.00000  -0.02614  -0.02614   2.07493
    R7        2.10110  -0.00890   0.00000  -0.02623  -0.02623   2.07488
    R8        2.74533  -0.00222   0.00000  -0.00564  -0.00564   2.73968
    R9        2.10229  -0.01039   0.00000  -0.03068  -0.03068   2.07162
   R10        2.10231  -0.01035   0.00000  -0.03056  -0.03056   2.07175
   R11        2.57626   0.00285   0.00000   0.00530   0.00530   2.58157
   R12        1.95066  -0.01727   0.00000  -0.03926  -0.03926   1.91140
   R13        2.30649   0.01325   0.00000   0.01371   0.01371   2.32019
   R14        2.58765   0.00888   0.00000   0.01687   0.01687   2.60452
   R15        2.72137  -0.02883   0.00000  -0.07011  -0.07011   2.65127
   R16        1.95043  -0.01671   0.00000  -0.03796  -0.03796   1.91247
   R17        2.67592  -0.01856   0.00000  -0.04236  -0.04235   2.63358
   R18        2.65745  -0.00862   0.00000  -0.01877  -0.01873   2.63872
   R19        2.65879  -0.00683   0.00000  -0.01544  -0.01546   2.64333
   R20        2.03053   0.00565   0.00000   0.01479   0.01479   2.04532
   R21        2.63433  -0.00813   0.00000  -0.01631  -0.01629   2.61804
   R22        2.04667   0.00314   0.00000   0.00843   0.00843   2.05510
   R23        2.63643  -0.00384   0.00000  -0.00730  -0.00732   2.62911
   R24        2.04634   0.00160   0.00000   0.00430   0.00430   2.05063
   R25        2.66521  -0.01128   0.00000  -0.02467  -0.02471   2.64050
   R26        3.32854  -0.00713   0.00000  -0.02304  -0.02304   3.30549
   R27        2.84739   0.00104   0.00000   0.00314   0.00314   2.85053
   R28        2.09242  -0.01127   0.00000  -0.03273  -0.03273   2.05969
   R29        2.09852  -0.01008   0.00000  -0.02956  -0.02956   2.06896
   R30        2.09846  -0.01008   0.00000  -0.02956  -0.02956   2.06889
    A1        1.91260   0.00352   0.00000   0.02189   0.02172   1.93432
    A2        1.92554   0.00217   0.00000   0.01146   0.01136   1.93691
    A3        1.92603   0.00214   0.00000   0.01121   0.01112   1.93715
    A4        1.89657  -0.00259   0.00000  -0.01286  -0.01303   1.88354
    A5        1.89689  -0.00260   0.00000  -0.01311  -0.01327   1.88363
    A6        1.90570  -0.00280   0.00000  -0.01946  -0.01948   1.88622
    A7        1.94138  -0.00072   0.00000   0.00122   0.00120   1.94258
    A8        1.90069   0.00132   0.00000   0.01267   0.01267   1.91336
    A9        1.90149   0.00125   0.00000   0.01210   0.01210   1.91359
   A10        1.91085  -0.00019   0.00000  -0.00308  -0.00314   1.90772
   A11        1.91045  -0.00014   0.00000  -0.00275  -0.00280   1.90765
   A12        1.89845  -0.00153   0.00000  -0.02060  -0.02067   1.87778
   A13        1.93750  -0.00409   0.00000  -0.01353  -0.01347   1.92403
   A14        1.90561   0.00260   0.00000   0.01705   0.01703   1.92264
   A15        1.90559   0.00256   0.00000   0.01711   0.01710   1.92269
   A16        1.90677   0.00078   0.00000   0.00146   0.00152   1.90829
   A17        1.90562   0.00090   0.00000   0.00270   0.00276   1.90837
   A18        1.90243  -0.00275   0.00000  -0.02520  -0.02529   1.87714
   A19        2.12684  -0.00625   0.00000  -0.02655  -0.02655   2.10029
   A20        2.07751  -0.00054   0.00000  -0.00763  -0.00763   2.06988
   A21        2.07883   0.00680   0.00000   0.03418   0.03418   2.11302
   A22        2.08076   0.01396   0.00000   0.05257   0.05257   2.13333
   A23        2.08448  -0.02550   0.00000  -0.09606  -0.09606   1.98842
   A24        2.11794   0.01155   0.00000   0.04349   0.04349   2.16144
   A25        2.23547  -0.00536   0.00000  -0.02278  -0.02278   2.21270
   A26        2.02610   0.00772   0.00000   0.04010   0.04010   2.06620
   A27        2.02161  -0.00236   0.00000  -0.01732  -0.01732   2.00429
   A28        2.17491  -0.00498   0.00000  -0.01833  -0.01835   2.15656
   A29        2.05165  -0.00264   0.00000  -0.00949  -0.00952   2.04213
   A30        2.05662   0.00762   0.00000   0.02782   0.02788   2.08450
   A31        2.11524  -0.00048   0.00000  -0.00396  -0.00397   2.11128
   A32        2.13826  -0.00646   0.00000  -0.03617  -0.03617   2.10209
   A33        2.02968   0.00693   0.00000   0.04014   0.04014   2.06982
   A34        2.11705  -0.00472   0.00000  -0.01838  -0.01833   2.09872
   A35        2.09912   0.00139   0.00000   0.00368   0.00365   2.10277
   A36        2.06702   0.00333   0.00000   0.01471   0.01468   2.08170
   A37        2.10438  -0.00327   0.00000  -0.01056  -0.01056   2.09382
   A38        2.08301   0.00236   0.00000   0.00937   0.00937   2.09239
   A39        2.09579   0.00092   0.00000   0.00119   0.00119   2.09698
   A40        2.08804   0.00503   0.00000   0.02107   0.02102   2.10906
   A41        2.05552  -0.00024   0.00000  -0.00197  -0.00194   2.05358
   A42        2.13962  -0.00479   0.00000  -0.01910  -0.01908   2.12055
   A43        2.08503  -0.00418   0.00000  -0.01598  -0.01604   2.06899
   A44        2.06171   0.00014   0.00000   0.00065   0.00068   2.06238
   A45        2.13645   0.00404   0.00000   0.01534   0.01537   2.15181
   A46        1.97683  -0.00325   0.00000  -0.01742  -0.01736   1.95947
   A47        1.91044   0.00274   0.00000   0.01510   0.01510   1.92555
   A48        1.91072   0.00271   0.00000   0.01490   0.01490   1.92562
   A49        1.88181   0.00043   0.00000   0.00352   0.00359   1.88540
   A50        1.88202   0.00043   0.00000   0.00352   0.00358   1.88560
   A51        1.90048  -0.00322   0.00000  -0.02063  -0.02070   1.87978
    D1       -3.14107   0.00000   0.00000   0.00016   0.00016  -3.14091
    D2        1.03467  -0.00017   0.00000  -0.00508  -0.00509   1.02958
    D3       -1.03359   0.00020   0.00000   0.00544   0.00545  -1.02814
    D4        1.05460  -0.00036   0.00000  -0.00483  -0.00488   1.04972
    D5       -1.05285  -0.00053   0.00000  -0.01007  -0.01012  -1.06298
    D6       -3.12111  -0.00016   0.00000   0.00045   0.00041  -3.12070
    D7       -1.05285   0.00033   0.00000   0.00472   0.00476  -1.04809
    D8        3.12289   0.00016   0.00000  -0.00052  -0.00049   3.12240
    D9        1.05463   0.00053   0.00000   0.01000   0.01005   1.06468
   D10       -3.13812  -0.00006   0.00000  -0.00106  -0.00106  -3.13918
   D11        1.04192  -0.00015   0.00000  -0.00544  -0.00540   1.03652
   D12       -1.03642   0.00014   0.00000   0.00491   0.00487  -1.03155
   D13       -1.03666   0.00100   0.00000   0.01350   0.01347  -1.02318
   D14       -3.13980   0.00091   0.00000   0.00912   0.00913  -3.13067
   D15        1.06505   0.00120   0.00000   0.01947   0.01940   1.08445
   D16        1.04287  -0.00107   0.00000  -0.01513  -0.01510   1.02777
   D17       -1.06027  -0.00116   0.00000  -0.01951  -0.01945  -1.07972
   D18       -3.13861  -0.00087   0.00000  -0.00916  -0.00917   3.13540
   D19       -3.14118   0.00001   0.00000   0.00044   0.00043  -3.14074
   D20        0.00171  -0.00000   0.00000  -0.00004  -0.00004   0.00166
   D21       -1.03872   0.00118   0.00000   0.01405   0.01404  -1.02468
   D22        2.10416   0.00116   0.00000   0.01356   0.01357   2.11772
   D23        1.04032  -0.00117   0.00000  -0.01407  -0.01407   1.02626
   D24       -2.09998  -0.00119   0.00000  -0.01455  -0.01454  -2.11453
   D25        0.00171   0.00007   0.00000   0.00185   0.00185   0.00357
   D26       -3.13725  -0.00008   0.00000  -0.00233  -0.00233  -3.13959
   D27       -3.14117   0.00008   0.00000   0.00231   0.00231  -3.13886
   D28        0.00305  -0.00007   0.00000  -0.00188  -0.00188   0.00118
   D29        3.14158   0.00005   0.00000   0.00141   0.00141  -3.14020
   D30        0.00407   0.00006   0.00000   0.00140   0.00139   0.00547
   D31        0.00267  -0.00011   0.00000  -0.00287  -0.00287  -0.00019
   D32       -3.13483  -0.00010   0.00000  -0.00289  -0.00288  -3.13771
   D33        0.02168  -0.00005   0.00000  -0.00178  -0.00179   0.01989
   D34       -3.12088  -0.00006   0.00000  -0.00222  -0.00221  -3.12309
   D35       -3.12399  -0.00004   0.00000  -0.00165  -0.00166  -3.12565
   D36        0.01664  -0.00005   0.00000  -0.00208  -0.00208   0.01456
   D37        3.14151  -0.00003   0.00000  -0.00092  -0.00093   3.14058
   D38        0.00180  -0.00011   0.00000  -0.00293  -0.00289  -0.00109
   D39        0.00088  -0.00002   0.00000  -0.00047  -0.00048   0.00040
   D40       -3.13883  -0.00009   0.00000  -0.00247  -0.00244  -3.14127
   D41        3.14090   0.00006   0.00000   0.00174   0.00176  -3.14053
   D42        0.00053   0.00003   0.00000   0.00087   0.00088   0.00141
   D43       -0.00159   0.00004   0.00000   0.00131   0.00132  -0.00026
   D44        3.14122   0.00001   0.00000   0.00044   0.00045  -3.14151
   D45        0.00039  -0.00001   0.00000  -0.00043  -0.00044  -0.00004
   D46       -3.14085  -0.00002   0.00000  -0.00053  -0.00054  -3.14139
   D47        3.14021   0.00004   0.00000   0.00138   0.00141  -3.14156
   D48       -0.00103   0.00004   0.00000   0.00128   0.00131   0.00028
   D49        0.00102  -0.00005   0.00000  -0.00126  -0.00125  -0.00024
   D50       -3.14057  -0.00003   0.00000  -0.00069  -0.00068  -3.14125
   D51        3.14141  -0.00002   0.00000  -0.00041  -0.00040   3.14102
   D52       -0.00018   0.00000   0.00000   0.00016   0.00017  -0.00000
   D53        0.00031   0.00001   0.00000   0.00029   0.00030   0.00061
   D54        3.14145   0.00003   0.00000   0.00083   0.00084  -3.14090
   D55       -3.14129  -0.00001   0.00000  -0.00028  -0.00027  -3.14156
   D56       -0.00015   0.00001   0.00000   0.00025   0.00026   0.00012
   D57       -0.00100   0.00002   0.00000   0.00053   0.00053  -0.00046
   D58        3.14023   0.00002   0.00000   0.00063   0.00064   3.14087
   D59        3.14107  -0.00000   0.00000  -0.00004  -0.00003   3.14104
   D60       -0.00089  -0.00000   0.00000   0.00006   0.00007  -0.00082
   D61       -3.14152   0.00001   0.00000   0.00009   0.00010  -3.14142
   D62        1.04127  -0.00032   0.00000  -0.00352  -0.00347   1.03780
   D63       -1.04065   0.00032   0.00000   0.00355   0.00350  -1.03715
   D64        0.00044   0.00000   0.00000  -0.00000  -0.00000   0.00043
   D65       -2.09997  -0.00032   0.00000  -0.00362  -0.00357  -2.10354
   D66        2.10130   0.00031   0.00000   0.00345   0.00340   2.10471
         Item               Value     Threshold  Converged?
 Maximum Force            0.028828     0.000450     NO 
 RMS     Force            0.005908     0.000300     NO 
 Maximum Displacement     0.236576     0.001800     NO 
 RMS     Displacement     0.066416     0.001200     NO 
 Predicted change in Energy=-8.155903D-03
 GradGradGradGradGradGradGradGradGradGradGradGradGradGradGradGradGradGrad

                          Input orientation:                          
 ---------------------------------------------------------------------
 Center     Atomic      Atomic             Coordinates (Angstroms)
 Number     Number       Type             X           Y           Z
 ---------------------------------------------------------------------
      1          6           0       -1.692666    1.839345    0.313363
      2          6           0       -0.324321    1.181885    0.126415
      3          6           0        0.789439    2.221538    0.092515
      4          7           0        2.074137    1.574525   -0.088547
      5          6           0        3.218846    2.317778   -0.147388
      6          8           0        3.210876    3.541501   -0.047812
      7          7           0        4.362684    1.569549   -0.324513
      8          6           0        5.676306    2.052980   -0.419782
      9          6           0        6.009587    3.402622   -0.321835
     10          6           0        6.685910    1.109816   -0.622105
     11          6           0        8.007330    1.513128   -0.724801
     12          6           0        8.331728    2.862470   -0.626535
     13          6           0        7.339225    3.824877   -0.423710
     14          1           0       -2.485639    1.086752    0.337276
     15          1           0       -1.910011    2.531648   -0.506153
     16          1           0       -1.732860    2.400976    1.252014
     17          1           0       -0.315117    0.609397   -0.810490
     18          1           0       -0.138148    0.477264    0.947637
     19          1           0        0.800050    2.794439    1.027096
     20          1           0        0.620679    2.929508   -0.727376
     21          1           0        2.101378    0.566733   -0.170308
     22          1           0        4.273137    0.564314   -0.399986
     23          1           0        5.240174    4.147460   -0.164754
     24          1           0        6.445046    0.052259   -0.701118
     25          1           0        8.787181    0.775185   -0.882335
     26          6           0        7.628409    5.300817   -0.308182
     27         17           0       10.018424    3.304404   -0.765903
     28          1           0        8.691604    5.521936   -0.401408
     29          1           0        7.287043    5.680569    0.660293
     30          1           0        7.097230    5.854742   -1.088970
 ---------------------------------------------------------------------
                    Distance matrix (angstroms):
                    1          2          3          4          5
     1  C    0.000000
     2  C    1.529565   0.000000
     3  C    2.521049   1.523972   0.000000
     4  N    3.797429   2.439873   1.449779   0.000000
     5  C    4.956222   3.730852   2.443120   1.366106   0.000000
     6  O    5.203125   4.253912   2.761404   2.272186   1.227793
     7  N    6.094829   4.724579   3.656102   2.300686   1.378255
     8  C    7.408433   6.088075   4.916536   3.648870   2.486649
     9  C    7.884922   6.726886   5.368108   4.345587   2.999258
    10  C    8.462142   7.050448   6.042763   4.665736   3.702035
    11  C    9.760846   8.381570   7.298479   5.967526   4.889831
    12  C   10.120211   8.849774   7.603549   6.411371   5.164091
    13  C    9.276889   8.125146   6.762905   5.735641   4.396047
    14  H    1.093515   2.173662   3.474735   4.605519   5.855893
    15  H    1.094591   2.176330   2.782373   4.118727   5.145836
    16  H    1.094582   2.176497   2.781839   4.119873   5.146323
    17  H    2.161818   1.098006   2.152779   2.676043   3.980850
    18  H    2.161965   1.097978   2.152707   2.678034   3.981958
    19  H    2.763195   2.162352   1.096252   2.087138   2.730786
    20  H    2.761006   2.162446   1.096322   2.087253   2.731497
    21  H    4.030912   2.520015   2.128061   1.011471   2.077359
    22  H    6.142098   4.668524   3.889100   2.439902   2.061546
    23  H    7.322586   6.312133   4.856378   4.080391   2.726500
    24  H    8.393163   6.912684   6.109133   4.668766   3.980899
    25  H   10.601383   9.176190   8.185729   6.806909   5.824611
    26  C    9.962456   8.966627   7.510927   6.692042   5.326220
    27  Cl  11.851618  10.595929   9.331862   8.158615   6.898569
    28  H   11.041079  10.020057   8.577925   7.711731   6.346828
    29  H    9.772950   8.857543   7.382827   6.677930   5.339564
    30  H    9.764846   8.853936   7.374572   6.674771   5.332781
                    6          7          8          9         10
     6  O    0.000000
     7  N    2.300395   0.000000
     8  C    2.903859   1.402990   0.000000
     9  C    2.815520   2.464234   1.393629   0.000000
    10  C    4.280042   2.386900   1.396350   2.409260   0.000000
    11  C    5.251531   3.666995   2.412085   2.779127   1.385409
    12  C    5.197993   4.185233   2.783755   2.403528   2.404274
    13  C    4.155102   3.735792   2.430008   1.398792   2.799596
    14  H    6.214851   6.897144   8.253731   8.829866   9.221619
    15  H    5.239596   6.348648   7.601893   7.969479   8.713490
    16  H    5.237449   6.350777   7.603403   7.964030   8.720958
    17  H    4.648821   4.799988   6.175251   6.931288   7.021416
    18  H    4.647196   4.803015   6.177426   6.925599   7.030788
    19  H    2.743285   4.002445   5.140145   5.415605   6.340439
    20  H    2.746901   4.001799   5.140261   5.424816   6.333198
    21  H    3.177300   2.478493   3.879597   4.831079   4.638641
    22  H    3.180576   1.012034   2.045825   3.328266   2.483623
    23  H    2.121064   2.727844   2.154552   1.082337   3.395085
    24  H    4.802235   2.603887   2.161711   3.399766   1.087513
    25  H    6.280455   4.529719   3.394741   3.864274   2.143604
    26  C    4.762098   4.958587   3.790991   2.494778   4.307127
    27  Cl   6.849422   5.932280   4.532092   4.034554   3.992812
    28  H    5.838281   5.862322   4.596305   3.419217   4.851631
    29  H    4.657485   5.140254   4.113447   2.790254   4.785154
    30  H    4.640996   5.140526   4.113421   2.790046   4.785548
                   11         12         13         14         15
    11  C    0.000000
    12  C    1.391264   0.000000
    13  C    2.425119   1.397293   0.000000
    14  H   10.555198  11.004433  10.227629   0.000000
    15  H    9.971903  10.247788   9.339573   1.769306   0.000000
    16  H    9.978345  10.248798   9.334789   1.769352   1.771894
    17  H    8.371810   8.937455   8.311310   2.501280   2.516218
    18  H    8.379671   8.939018   8.306517   2.500946   3.077904
    19  H    7.527004   7.711375   6.776980   3.766669   3.124795
    20  H    7.521220   7.712000   6.784745   3.765428   2.571308
    21  H    6.006946   6.655511   6.173716   4.644221   4.479389
    22  H    3.866517   4.669584   4.475794   6.818911   6.489452
    23  H    3.861413   3.379667   2.139424   8.325152   7.338430
    24  H    2.139026   3.385620   3.887050   9.050169   8.717359
    25  H    1.085147   2.151657   3.406983  11.342884  10.846963
    26  C    3.829327   2.557644   1.508434  10.975834   9.934231
    27  Cl   2.693485   1.749192   2.750654  12.747023  11.956262
    28  H    4.079627   2.693131   2.170123  12.047708  11.015763
    29  H    4.450266   3.269400   2.149739  10.803371   9.790920
    30  H    4.450900   3.269789   2.149764  10.798115   9.618369
                   16         17         18         19         20
    16  H    0.000000
    17  H    3.077933   0.000000
    18  H    2.517224   1.771945   0.000000
    19  H    2.573137   3.065081   2.501165   0.000000
    20  H    3.120333   2.503105   3.065125   1.768782   0.000000
    21  H    4.482057   2.500220   2.504653   2.844276   2.843502
    22  H    6.494184   4.606801   4.613361   4.367190   4.363688
    23  H    7.326708   6.617864   6.605612   4.792273   4.810373
    24  H    8.729796   6.783964   6.799814   6.509397   6.496345
    25  H   10.856791   9.104092   9.115869   8.456807   8.447301
    26  C    9.923540   9.239120   9.228389   7.395363   7.409933
    27  Cl  11.957460  10.679285  10.681054   9.404964   9.405299
    28  H   11.006527  10.267492  10.258322   8.470920   8.483323
    29  H    9.615848   9.255962   9.071407   7.109528   7.344003
    30  H    9.766228   9.084827   9.242064   7.314211   7.115719
                   21         22         23         24         25
    21  H    0.000000
    22  H    2.183871   0.000000
    23  H    4.761689   3.718794   0.000000
    24  H    4.406120   2.251681   4.302333   0.000000
    25  H    6.726842   4.544637   4.946556   2.457857   0.000000
    26  C    7.278643   5.805234   2.656025   5.394637   4.706777
    27  Cl   8.398167   6.375760   4.889151   4.832151   2.815398
    28  H    8.248547   6.640849   3.722574   5.920660   4.772009
    29  H    7.330236   6.031906   2.687155   5.851519   5.356576
    30  H    7.332498   6.036458   2.686567   5.851887   5.357287
                   26         27         28         29         30
    26  C    0.000000
    27  Cl   3.147594   0.000000
    28  H    1.089939   2.609743   0.000000
    29  H    1.094845   3.891097   1.767813   0.000000
    30  H    1.094812   3.891268   1.767916   1.768131   0.000000
 Stoichiometry    C11H15ClN2O
 Framework group  C1[X(C11H15ClN2O)]
 Deg. of freedom    84
 Full point group                 C1      NOp   1
 Largest Abelian subgroup         C1      NOp   1
 Largest concise Abelian subgroup C1      NOp   1
[...]
 0390,-0.00000666,0.00000056,0.00000658,-0.00000546,-0.00001170,-0.0000
 0341,-0.00000933,0.00000545,0.00001000,-0.00000432,0.00004083,-0.00003
 466,0.00003043,0.00036161,-0.00012040,0.00089929,-0.00005962,-0.000212
 65,0.00006104,-0.00064712,0.01792862,0.02463678,-0.00000636,-0.0000174
 1,-0.00000238,-0.00001335,0.00003591,0.00000815,0.00005585,-0.00008279
 ,-0.00000343,-0.00034687,0.00005274,-0.00002377,0.00031758,-0.00067726
 ,0.00005456,-0.00004183,0.00023394,0.00000069,-0.00127793,0.00140654,0
 .00017439,-0.00324131,-0.00316770,0.00095393,-0.00030865,-0.00089731,-
 0.00016443,-0.01546088,0.02076670,0.00385969,-0.21056817,0.14480104,0.
 03150760,0.00700681,-0.00682389,-0.00095381,0.00047340,-0.00196844,0.0
 0046536,-0.00001056,-0.00000003,0.00000066,0.00000157,0.00000225,0.000
 00005,0.00000137,0.00000196,0.00000035,0.00000151,-0.00000128,-0.00000
 278,0.00000049,-0.00000355,0.00000213,-0.00001730,0.00000996,0.0000081
 6,-0.00000174,0.00000577,0.00000148,0.00001583,0.00003317,0.00000775,0
 .00001983,0.00006942,0.00000168,0.00001405,0.00009728,-0.00005694,0.00
 084460,-0.00008318,-0.00060172,0.22086748,-0.00000153,-0.00000138,-0.0
 0000023,-0.00000472,0.00000495,0.00000008,-0.00001186,-0.00001656,-0.0
 0000340,-0.00003019,0.00005815,0.00000345,-0.00017766,-0.00012976,0.00
 005625,0.00004691,0.00001406,0.00000191,-0.00019433,0.00057065,0.00000
 042,-0.00286974,0.00032589,-0.00021212,-0.00111617,-0.00034037,0.00017
 610,-0.00820778,0.01070102,0.00155265,0.14235903,-0.19221472,-0.028790
 88,0.02385635,-0.01547592,-0.00420203,-0.00308121,-0.00476234,-0.00050
 208,-0.00000005,0.00000076,0.00000003,0.00000002,-0.00000060,0.,-0.000
 00004,-0.00000038,-0.00000008,0.00000001,0.00000032,-0.00000048,0.0000
 0046,-0.00000011,0.00000102,0.00000147,-0.00000064,0.00000046,-0.00000
 021,-0.00000052,-0.00000111,0.00000202,0.00000165,-0.00000253,0.000012
 27,0.00000028,-0.00000596,0.00007173,0.00002045,0.00003090,0.00036032,
 0.00067453,0.00035817,-0.15269886,0.20058611,0.00000034,0.00000168,0.0
 0000015,0.00000086,-0.00000513,0.00000403,-0.00000438,0.00001166,0.000
 00348,0.00002553,-0.00001123,-0.00004244,-0.00001852,0.00000737,-0.000
 07115,0.00002430,0.00000158,0.00002756,0.00011822,-0.00013371,0.000255
 06,0.00095131,-0.00016000,0.00699995,-0.00014780,0.00017466,-0.0008794
 2,0.00151463,-0.00179112,0.00309672,0.03133377,-0.02910161,-0.04241812
 ,0.00144015,-0.00066097,0.00303191,0.00038318,-0.00061194,0.00573797,0
 .00000102,-0.00000010,0.00000049,-0.00000053,0.00000085,-0.00000039,0.
 00000037,-0.00000115,-0.00000120,-0.00000056,-0.00000071,-0.00000149,-
 0.00000004,0.00000222,-0.00000147,0.00000244,-0.00000334,-0.00000316,-
 0.00000024,0.00000118,-0.00000050,-0.00000019,-0.00000247,0.00001324,0
 .00000390,-0.00001560,0.00000984,-0.00004118,0.00003080,-0.00054560,-0
 .00057551,0.00040704,-0.00427483,-0.03463033,0.03150250,0.03174765,-0.
 00000041,-0.00001305,-0.00000098,-0.00001324,0.00001776,0.00000796,0.0
 0007213,-0.00006840,-0.00001483,-0.00020614,0.00011160,0.00002313,0.00
 064788,-0.00057580,-0.00001405,-0.00013500,0.00047566,0.00005348,0.000
 19749,-0.00116063,-0.00024756,-0.00412433,0.00125625,0.00172120,-0.007
 12638,-0.03183598,-0.00098943,-0.00025621,-0.00168093,-0.00021937,-0.0
 0498603,0.00363674,0.00146546,0.00931531,0.02100512,0.00088131,-0.0930
 5383,-0.02540905,0.00048221,-0.00000613,0.00000232,0.00000080,-0.00000
 185,0.00000254,-0.00000447,-0.00000118,0.00000052,0.00000462,0.0000041
 2,0.00000138,0.00000368,0.00000166,0.00000305,-0.00000411,-0.00001893,
 0.00000898,0.00001787,-0.00000913,0.00000189,-0.00000576,0.00003613,0.
 00001623,-0.00003187,-0.00033978,-0.00013925,0.00002198,0.00071585,-0.
 00169002,-0.00083469,0.00014791,0.00002277,-0.00007726,0.00056283,0.00
 142566,0.00005652,0.59704966,0.00000034,0.00000362,0.00000040,0.000005
 23,-0.00000531,-0.00000321,-0.00002466,0.00002305,0.00000471,0.0000879
 4,-0.00003285,-0.00000879,-0.00028915,0.00037286,0.00001028,0.00021521
 ,-0.00025641,0.00001840,0.00055480,0.00011399,-0.00006196,0.00015016,0
 .00197172,-0.00048646,-0.00870400,-0.01321371,-0.00056688,0.00015695,-
 0.00072917,-0.00000835,0.00212631,0.00090438,-0.00057457,0.00271700,-0
 .02577031,-0.00254033,-0.03306640,-0.22112442,-0.00788375,0.00000069,-
 0.00000185,-0.00000033,0.00000141,-0.00000030,0.00000180,0.00000098,0.
 00000057,-0.00000165,-0.00000154,-0.00000100,-0.00000176,-0.00000125,-
 0.00000189,0.00000228,0.00001029,-0.00000192,-0.00000832,0.00000575,0.
 00000104,0.00000219,-0.00000572,-0.00001057,0.00000681,0.00007865,0.00
 003587,0.00000985,0.00195756,0.00128393,0.00024673,-0.00002894,0.00000
 101,0.00004841,-0.00031882,-0.00021215,0.00001865,-0.02953252,0.512706
 00,-0.00000022,0.00000097,-0.00000368,0.00000175,-0.00000101,0.0000021
 4,0.00000196,0.00000083,0.00001236,0.00002510,-0.00004337,-0.00000921,
 -0.00013395,0.00014573,0.00003125,-0.00001725,-0.00012990,0.00012565,0
 .00003740,0.00006150,0.00005201,0.00145006,-0.00061686,0.00817923,0.00
 075603,0.00218141,0.00639427,-0.00007934,0.00024633,-0.00084479,0.0013
 7729,-0.00081373,0.00501902,-0.00052120,-0.00464451,0.00267084,-0.0000
 7922,-0.00871392,-0.07176013,0.00000034,-0.00000047,0.00000066,0.00000
 079,0.00000055,0.00000095,-0.00000050,0.00000031,-0.00000015,-0.000001
 22,-0.00000027,-0.00000078,0.00000020,-0.00000125,0.00000114,0.0000005
 0,-0.00000028,-0.00000134,0.00000387,0.00000035,0.00000126,-0.00001403
 ,0.00000650,-0.00000298,0.00000765,0.00002587,-0.00025904,-0.00037581,
 0.00063375,-0.00505979,-0.00008577,0.00004077,-0.00055557,-0.00008301,
 -0.00018755,0.00007487,-0.00708510,0.00025098,0.55525598,-0.00001724,-
 0.00009241,-0.00001300,-0.00002349,0.00015282,0.00004237,0.00055842,-0
 .00033427,0.00002169,-0.00186816,-0.00061651,-0.00010543,0.00384150,-0
 .00156391,-0.00046077,-0.00118032,0.00090252,0.00001932,-0.00490281,0.
 00001549,0.00051895,0.00228701,0.00119160,-0.00029177,-0.00043706,0.00
 533980,0.00107823,0.00253433,-0.00227013,0.00001256,-0.02794300,-0.008
 95069,0.00285589,-0.15670367,-0.03458909,0.01254330,-0.03901024,-0.011
 30204,0.00398687,-0.00007161,-0.00001213,0.00000210,0.00000975,0.00002
 282,-0.00000427,0.00000790,0.00001997,0.00001081,0.00001412,-0.0000080
 1,-0.00000347,-0.00000297,-0.00001924,-0.00000141,-0.00013456,0.000079
 51,0.00006614,-0.00000831,0.00003424,0.00001426,0.00006242,0.00019013,
 0.00008513,-0.00003496,0.00012839,0.00003035,-0.00107746,-0.00110386,0
 .00014375,-0.00116383,-0.00035906,0.00014314,0.00111913,0.00043511,-0.
 00040882,-0.00188148,-0.00285341,-0.00030733,0.22532408,-0.00000425,-0
 .00002519,-0.00000309,-0.00001152,0.00004101,0.00000988,0.00014970,-0.
 00009962,-0.00000059,-0.00051500,-0.00007298,-0.00003637,0.00114889,-0
 .00094502,-0.00006425,-0.00011004,0.00058135,0.00002130,-0.00161524,0.
 00032780,0.00023292,0.00001977,0.00126668,0.00008455,0.00064579,-0.002
 81683,-0.00063708,0.00254269,-0.00376606,-0.00094624,-0.03651975,-0.00
 748754,0.00337370,-0.03609184,-0.05001156,0.00175459,0.01174311,0.0049
 1230,-0.00120363,-0.00001800,-0.00000227,0.00000069,0.00000138,0.00000
 650,-0.00000262,0.00000113,0.00000495,0.00000422,0.00000569,-0.0000012
 2,0.00000152,0.00000057,-0.00000209,-0.00000293,-0.00003987,0.00002072
 ,0.00002325,-0.00000938,0.00000857,0.00000087,0.00003186,0.00005260,0.
 00000900,0.00011030,0.00002922,-0.00000449,0.00036100,0.00036595,-0.00
 004400,-0.00132256,-0.00034010,0.00010094,-0.00073673,0.00074125,0.000
 36758,0.00517605,-0.00227842,-0.00059815,0.05327737,0.05880353,0.00000
 251,0.00001022,0.00000034,0.00000252,-0.00001607,-0.00000472,-0.000047
 64,0.00002617,0.00001687,0.00017351,0.00006307,0.00006441,-0.00035433,
 0.00008571,-0.00010073,0.00018241,-0.00003650,-0.00000804,0.00036356,0
 .00004912,-0.00062496,-0.00036201,0.00003306,-0.00059383,0.00067644,-0
 .00116972,0.00444686,0.00048487,-0.00045901,0.00481750,0.00060007,0.00
 023541,0.00249328,0.01254682,0.00154405,-0.02181390,0.00568808,0.00148
 498,0.00243453,0.00000719,0.00000109,-0.00000037,-0.00000108,-0.000002
 60,0.00000048,-0.00000061,-0.00000173,-0.00000029,-0.00000221,0.000000
 70,0.00000073,0.00000116,0.00000206,0.00000004,0.00000762,-0.00000711,
 -0.00000845,0.00000403,0.00000090,-0.00000534,-0.00001516,-0.00002207,
 0.00000011,0.00001607,-0.00003194,0.00000408,0.00014495,0.00015377,0.0
 0016104,0.00005916,-0.00001403,0.00029304,-0.00050589,0.00023663,-0.00
 262746,0.00030934,0.00035124,-0.00264307,-0.02006840,-0.00230749,0.013
 70180,-0.00000100,-0.00000568,0.00000018,-0.00000150,0.00000761,0.0000
 0332,0.00002675,-0.00001908,0.00001546,-0.00009332,-0.00003097,-0.0000
 1024,0.00018332,-0.00005456,0.00000111,-0.00009314,0.00001938,-0.00007
 977,-0.00018099,-0.00012680,0.00000375,-0.00025898,-0.00025719,-0.0006
 8509,0.00008159,-0.00129082,-0.00011657,0.00015098,0.00022531,0.000003
 90,-0.00021698,-0.00056519,0.00002090,-0.00058049,0.00174039,0.0000176
 4,-0.00489542,-0.00501267,0.00473806,-0.00000328,-0.00000007,0.0000002
 1,-0.00000036,0.00000225,-0.00000082,0.00000060,0.00000046,-0.00000058
 ,0.,-0.00000256,-0.00000100,-0.00000022,0.00000087,-0.00000163,-0.0000
 0497,0.00000415,-0.00000078,-0.00000191,0.00000325,0.00000126,0.000003
 56,0.00001007,0.00000872,-0.00004706,-0.00001255,0.00003001,0.00033705
 ,-0.00013499,0.00056410,0.00001045,-0.00005597,0.00007721,0.00000098,-
 0.00001184,-0.00000520,-0.09898017,-0.03335529,0.10407802,0.00031296,0
 .00039052,-0.00027640,0.10534743,-0.00000098,-0.00000791,-0.00000163,-
 0.00000488,0.00001253,0.00000571,0.00004698,-0.00003694,-0.00000710,-0
 .00014628,-0.00000807,-0.00000603,0.00032147,-0.00014675,-0.00000649,-
 0.00014396,0.00011614,-0.00000408,-0.00007483,-0.00014425,-0.00006843,
 -0.00066279,-0.00008055,-0.00128759,0.00078719,-0.00294110,-0.00027011
 ,-0.00011988,-0.00042080,0.00018959,-0.00036843,0.00025683,-0.00086203
 ,-0.00230488,-0.00008004,-0.00027692,-0.01482303,-0.01155317,0.0275926
 0,-0.00000531,-0.00000005,0.00000046,-0.00000008,0.00000197,-0.0000009
 3,0.,0.00000125,0.00000165,0.00000158,-0.00000031,0.00000071,0.0000001
 9,-0.00000035,-0.00000169,-0.00001097,0.00000661,0.00000817,-0.0000026
 8,0.00000325,0.00000041,0.00001400,0.00001085,-0.00000387,-0.00004502,
 -0.00003891,0.00005168,-0.00000389,-0.00011044,0.00052943,0.00002678,-
 0.00000053,0.00001690,0.00007089,-0.00003543,0.00001530,-0.03456971,-0
 .07092725,0.06974660,0.00143249,0.00016891,0.00032407,0.04066720,0.078
 47311,0.00000043,0.00000270,-0.00000046,-0.00000113,-0.00000330,-0.000
 00014,-0.00001446,0.00000520,-0.00000373,0.00003585,0.00002826,0.00000
 691,-0.00003975,-0.00008599,-0.00001300,0.00004208,0.00005494,0.000005
 63,-0.00001783,-0.00002365,0.00003418,-0.00018283,0.00008352,-0.000316
 23,-0.00067063,-0.00038439,-0.00035518,-0.00004460,-0.00010064,-0.0000
 4415,-0.00021463,0.00022163,-0.00015709,0.00148629,-0.00004534,0.00066
 306,-0.00230812,-0.00044298,0.00507790,0.00000251,0.00000099,0.0000000
 5,-0.00000057,-0.00000110,0.00000030,-0.00000073,-0.00000058,0.0000001
 3,0.00000013,0.00000087,0.00000079,0.00000041,0.00000021,-0.00000015,0
 .00000080,-0.00000151,0.00000059,-0.00000132,-0.00000077,-0.00000015,-
 0.00000026,-0.00000371,-0.00000557,-0.00000166,-0.00000846,0.00001981,
 -0.00012144,-0.00002422,0.00014261,-0.00001273,0.00000529,0.00001049,0
 .00002421,0.00006437,0.00000717,0.10282593,0.06870246,-0.24101139,-0.0
 0030883,-0.00068065,-0.00006570,-0.11258607,-0.07456406,0.26009877,-0.
 00000091,-0.00000566,-0.00000276,-0.00000206,0.00000916,0.00000331,0.0
 0003722,-0.00002415,-0.00001113,-0.00011628,-0.00005513,0.00000672,0.0
 0017094,0.00005427,-0.00006240,-0.00011337,-0.00005149,0.00005617,-0.0
 0015035,-0.00014769,0.00003616,-0.00008496,-0.00037804,0.00060285,0.00
 022169,-0.00120204,-0.00023328,0.00013699,0.00024021,-0.00002874,-0.00
 017146,-0.00057723,-0.00008271,-0.00087056,0.00165090,0.00060036,-0.00
 542330,-0.00435647,-0.00349377,-0.00000405,-0.00000023,0.00000027,0.00
 000085,0.00000051,0.00000013,-0.00000018,0.00000168,0.00000213,0.00000
 149,0.00000116,0.00000137,-0.00000065,-0.00000316,0.00000018,-0.000010
 10,0.00000705,0.00000788,0.00000230,0.00000220,0.00000245,0.00000022,0
 .00000551,-0.00000355,-0.00004945,-0.00001004,-0.00001062,0.00025202,-
 0.00005533,-0.00057425,-0.00000452,-0.00004347,-0.00008196,-0.00000219
 ,-0.00002958,0.00000199,-0.15524403,-0.02681296,-0.13160066,0.00034034
 ,0.00062883,0.00028099,0.00954656,0.00327435,0.01186650,0.16687218,-0.
 00000121,-0.00000858,0.00000016,-0.00000489,0.00001298,0.00000307,0.00
 004619,-0.00003559,-0.00000326,-0.00014318,-0.00000021,0.00001384,0.00
 032048,-0.00017400,-0.00001989,-0.00014188,0.00012652,-0.00000721,-0.0
 0008536,-0.00018983,0.00000102,-0.00037023,-0.00025153,0.00145634,0.00
 064142,-0.00301479,-0.00027113,-0.00017353,-0.00038147,-0.00020912,-0.
 00018947,0.00012096,0.00095724,-0.00194762,-0.00011735,0.00062618,-0.0
 2141456,-0.00729963,-0.02531130,-0.00000494,0.00000005,0.00000020,-0.0
 0000016,0.00000200,-0.00000128,-0.00000003,0.00000137,0.00000140,0.000
 00216,-0.00000054,0.00000112,0.00000003,-0.00000030,-0.00000146,-0.000
 01196,0.00000725,0.00000679,-0.00000281,0.00000278,-0.00000005,0.00001
 071,0.00000799,-0.00000660,-0.00005763,-0.00003557,-0.00003710,-0.0001
 0643,-0.00003673,-0.00054580,0.00002166,0.00000076,-0.00001908,0.00006
 668,-0.00002113,-0.00003809,-0.02835445,-0.05475024,-0.03701616,0.0013
 5286,0.00003706,-0.00061052,0.00708587,0.00151862,0.00722182,0.0333967
 6,0.06118603,-0.00000049,-0.00000268,-0.00000017,0.00000040,0.00000393
 ,-0.00000003,0.00001554,-0.00000726,-0.00000508,-0.00003616,-0.0000223
 0,-0.00000087,0.00005578,0.00007002,-0.00000294,-0.00003269,-0.0000356
 3,0.00000754,0.00005358,0.00002402,0.00002726,0.00005847,0.00002490,-0
 .00031130,0.00065481,0.00025744,-0.00042569,-0.00001996,-0.00002018,-0
 .00004014,0.00018188,-0.00003205,-0.00010085,-0.00144702,-0.00051063,0
 .00102476,0.00143940,-0.00037816,0.00130943,-0.00000253,-0.00000090,-0
 .00000006,0.00000072,0.00000064,-0.00000011,0.00000057,0.00000082,0.00
 000056,0.00000017,0.00000011,-0.00000011,-0.00000018,-0.00000080,0.000
 00036,-0.00000163,0.00000163,0.00000147,0.00000164,0.00000058,-0.00000
 006,0.00000122,0.00000459,0.00000317,0.00001034,0.00000394,0.00001538,
 0.00006967,0.00002114,0.00017319,0.00001950,0.00000402,0.00002365,-0.0
 0001360,-0.00006532,-0.00000503,-0.13055386,-0.03638292,-0.20098603,0.
 00042108,0.00061429,-0.00018977,-0.01860568,-0.00476135,-0.02168345,0.
 14320960,0.03892273,0.21618212,0.00000078,0.00000798,0.00000188,0.0000
 0346,-0.00001035,-0.00000469,-0.00004715,0.00003226,0.00000185,0.00014
 160,0.00003189,0.00000076,-0.00028618,0.00012984,0.00005060,0.00012491
 ,-0.00006978,-0.00001517,0.00031945,0.00002457,-0.00004651,-0.00001656
 ,-0.00005973,-0.00002173,0.00056038,-0.00201209,-0.00026790,0.00020778
 ,-0.00005595,-0.00002240,0.00031075,-0.00033595,-0.00001109,-0.0010250
 7,-0.00203600,0.00008174,0.00701595,-0.00620717,-0.00154555,0.00000473
 ,-0.00000021,-0.00000038,0.00000010,-0.00000180,0.00000170,0.00000014,
 -0.00000112,-0.00000234,-0.00000158,-0.00000012,-0.00000147,0.00000034
 ,0.00000029,0.00000173,0.00001138,-0.00000674,-0.00000837,0.00000156,-
 0.00000223,-0.00000026,-0.00000634,-0.00000992,-0.00000145,0.00001230,
 0.00000003,-0.00000129,0.00002341,-0.00028469,0.00003502,0.00001273,0.
 00001751,0.00000160,-0.00000617,-0.00013560,-0.00002527,-0.24236672,0.
 12692541,0.03264363,0.00004921,0.00075952,0.00008246,-0.01064245,0.006
 64450,0.00024243,-0.01533436,0.01006551,0.00451944,0.26093163,0.000000
 74,0.00000301,-0.00000002,-0.00000414,-0.00000329,-0.00000070,-0.00001
 599,0.00000243,-0.00000132,0.00002427,0.00010096,0.00000396,0.00013042
 ,-0.00055635,0.00001433,0.00011859,0.00036204,0.00000322,-0.00032324,0
 .00018833,0.00003142,0.00013948,-0.00002646,-0.00000504,0.00232322,0.0
 0145318,-0.00010561,-0.00035584,0.00018805,0.00004282,0.00184032,-0.00
 031249,-0.00025598,-0.00337369,-0.00562020,-0.00015983,0.02785297,-0.0
 1856860,-0.00456000,0.00000320,0.00000132,0.00000004,-0.00000127,-0.00
 000086,-0.00000041,-0.00000115,-0.00000095,0.00000035,0.00000123,0.000
 00120,0.00000160,0.00000165,0.00000229,-0.00000138,-0.00000342,-0.0000
 0279,0.00000290,-0.00000686,-0.00000109,-0.00000217,0.00001134,-0.0000
 0007,-0.00001315,0.00005119,0.00001525,0.00000118,-0.00136241,-0.00011
 972,0.00008244,-0.00008764,0.00003853,0.00001462,-0.00017699,-0.000488
 08,-0.00000592,0.12186526,-0.12810029,-0.02057504,-0.00050039,0.000480
 50,0.00007656,-0.00922109,0.00596278,-0.00002091,-0.00551992,0.0032931
 1,0.00226540,-0.13340984,0.14170823,0.00000006,-0.00000143,0.00000294,
 -0.00000019,0.00000044,-0.00000131,-0.00000189,-0.00000092,0.00002030,
 -0.00000601,0.00001928,-0.00000812,0.00007055,-0.00013561,0.00004335,-
 0.00000651,0.00009488,-0.00011458,-0.00009624,0.00003312,-0.00005616,0
 .00000233,0.00002485,-0.00013391,0.00009519,0.00036871,-0.00031265,-0.
 00005243,0.00001588,0.00004204,0.00015497,-0.00001127,0.00037964,-0.00
 001686,-0.00029230,0.00105996,0.00113023,-0.00056294,-0.00201878,-0.00
 000019,0.00000014,-0.00000021,-0.00000096,0.00000148,-0.00000101,0.000
 00067,-0.00000053,-0.00000168,-0.00000089,-0.00000287,-0.00000141,0.00
 000029,0.00000296,-0.00000134,0.00000220,-0.00000084,-0.00000584,-0.00
 000371,0.00000021,-0.00000151,0.00000426,0.00000439,0.00000682,0.00000
 138,0.00000193,0.00000446,-0.00004887,-0.00002668,0.00053101,-0.000007
 82,0.00000014,0.00000754,-0.00002874,-0.00001121,-0.00013782,0.0322078
 3,-0.02114592,-0.05468368,-0.00002245,-0.00006770,0.00025151,0.0228059
 9,-0.01636097,-0.00241200,-0.02049324,0.01488613,0.00498280,-0.0356889
 5,0.02316664,0.05255964\\0.00000079,-0.00000291,0.00000281,-0.00000220
 ,0.00000950,-0.00000092,0.00001411,-0.00001691,-0.00000463,0.00001745,
 0.00003094,0.00001251,-0.00005216,-0.00000932,-0.00000277,0.00001041,0
 .00000747,-0.00000067,0.00002205,-0.00001446,-0.00000288,0.00000181,0.
 00000584,-0.00000150,-0.00001468,-0.00001455,-0.00000202,0.00000854,0.
 00000326,-0.00000267,-0.00000178,-0.00000756,-0.00000549,-0.00001906,-
 0.00000320,0.00000138,0.00000832,0.00000712,0.00000031,0.00000004,-0.0
 0000058,-0.00000058,-0.00000010,0.00000271,0.00000164,0.00000010,-0.00
 000038,0.00000231,-0.00000030,-0.00000150,-0.00000214,-0.00000003,-0.0
 0000434,-0.00000025,-0.00000124,0.00000153,0.00000393,0.00000109,0.000
 00198,0.00000138,-0.00000133,-0.00000328,-0.00000829,-0.00000174,-0.00
 000116,-0.00000120,0.00000183,0.00000419,0.00000410,-0.00000296,0.0000
 0210,-0.00000295,0.00000253,0.00000346,-0.00000301,0.00000146,-0.00000
 188,0.00000953,0.00000998,0.00000095,-0.00000169,-0.00000158,0.0000010
 0,0.00000030,0.00000029,-0.00000151,0.00000123,-0.00000167,0.00000147,
 0.00000222\\\@


 IF NO USE IS MADE OF THE LABOR OF PAST AGES,
 THE WORLD MUST REMAIN ALWAYS IN THE INFANCY OF KNOWLEDGE.

                          -- CICERO
 Job cpu time:       0 days  2 hours 17 minutes 14.1 seconds.
 File lengths (MBytes):  RWF=    332 Int=      0 D2E=      0 Chk=      9 Scr=      1
 Normal termination of Gaussian 09 at Tue Oct 30 13:22:27 2018.
WARNING: pbs_rusage is deprecated and values produced may not be accurate


=============================================================================
                                     Resource usage:
                                       CPU time:              09:24:57
   JobId:    1828843.r-man2            Elapsed time:          02:21:56
   Project:             q95            Requested time:        30:00:00
   Service Units:      9.46 
                                       Max physical memory:      557MB
                                       Max virtual memory:      1029MB
                                       Requested memory:           0MB

                                       Number of cpus:               4

                                       Max jobfs disk use:       0.3GB
                                       Requested jobfs:         12.0GB
=============================================================================

