 Entering Gaussian System, Link 0=/apps/gaussian/g09e01/g09/g09
 AtFile(1): /home/507/hio507/Basis/6-31pGd.gbs
 Initial command:
 /apps/gaussian/g09e01/g09/l1.exe "/jobfs/local/1828850.r-man2/Gau-3873.inp" -scrdir="/jobfs/local/1828850.r-man2/"
 Entering Link 1 = /apps/gaussian/g09e01/g09/l1.exe PID=      3874.
  
 Copyright (c) 1988,1990,1992,1993,1995,1998,2003,2009,2015,
            Gaussian, Inc.  All Rights Reserved.
  
 This is part of the Gaussian(R) 09 program.  It is based on
 the Gaussian(R) 03 system (copyright 2003, Gaussian, Inc.),
 the Gaussian(R) 98 system (copyright 1998, Gaussian, Inc.),
 the Gaussian(R) 94 system (copyright 1995, Gaussian, Inc.),
 the Gaussian 92(TM) system (copyright 1992, Gaussian, Inc.),
 the Gaussian 90(TM) system (copyright 1990, Gaussian, Inc.),
 the Gaussian 88(TM) system (copyright 1988, Gaussian, Inc.),
 the Gaussian 86(TM) system (copyright 1986, Carnegie Mellon
 University), and the Gaussian 82(TM) system (copyright 1983,
 Carnegie Mellon University). Gaussian is a federally registered
 trademark of Gaussian, Inc.
  
 This software contains proprietary and confidential information,
 including trade secrets, belonging to Gaussian, Inc.
  
 This software is provided under written license and may be
 used, copied, transmitted, or stored only in accord with that
 written license.
  
 The following legend is applicable only to US Government
 contracts under FAR:
  
                    RESTRICTED RIGHTS LEGEND
  
 Use, reproduction and disclosure by the US Government is
 subject to restrictions as set forth in subparagraphs (a)
 and (c) of the Commercial Computer Software - Restricted
 Rights clause in FAR 52.227-19.
  
 Gaussian, Inc.
 340 Quinnipiac St., Bldg. 40, Wallingford CT 06492
  
  
 ---------------------------------------------------------------
 Warning -- This program may not be used in any manner that
 competes with the business of Gaussian, Inc. or will provide
 assistance to any competitor of Gaussian, Inc.  The licensee
 of this program is prohibited from giving any competitor of
 Gaussian, Inc. access to this program.  By using this program,
 the user acknowledges that Gaussian, Inc. is engaged in the
 business of creating and licensing software in the field of
 computational chemistry and represents and warrants to the
 licensee that it is not a competitor of Gaussian, Inc. and that
 it will not use this program in any manner prohibited above.
 ---------------------------------------------------------------
  

 Cite this work as:
 Gaussian 09, Revision E.01,
 M. J. Frisch, G. W. Trucks, H. B. Schlegel, G. E. Scuseria, 
 M. A. Robb, J. R. Cheeseman, G. Scalmani, V. Barone, B. Mennucci, 
 G. A. Petersson, H. Nakatsuji, M. Caricato, X. Li, H. P. Hratchian, 
 A. F. Izmaylov, J. Bloino, G. Zheng, J. L. Sonnenberg, M. Hada, 
 M. Ehara, K. Toyota, R. Fukuda, J. Hasegawa, M. Ishida, T. Nakajima, 
 Y. Honda, O. Kitao, H. Nakai, T. Vreven, J. A. Montgomery, Jr., 
 J. E. Peralta, F. Ogliaro, M. Bearpark, J. J. Heyd, E. Brothers, 
 K. N. Kudin, V. N. Staroverov, T. Keith, R. Kobayashi, J. Normand, 
 K. Raghavachari, A. Rendell, J. C. Burant, S. S. Iyengar, J. Tomasi, 
 M. Cossi, N. Rega, J. M. Millam, M. Klene, J. E. Knox, J. B. Cross, 
 V. Bakken, C. Adamo, J. Jaramillo, R. Gomperts, R. E. Stratmann, 
 O. Yazyev, A. J. Austin, R. Cammi, C. Pomelli, J. W. Ochterski, 
 R. L. Martin, K. Morokuma, V. G. Zakrzewski, G. A. Voth, 
 P. Salvador, J. J. Dannenberg, S. Dapprich, A. D. Daniels, 
 O. Farkas, J. B. Foresman, J. V. Ortiz, J. Cioslowski, 
 and D. J. Fox, Gaussian, Inc., Wallingford CT, 2013.
 
 ******************************************
 Gaussian 09:  ES64L-G09RevE.01 30-Nov-2015
                30-Oct-2018 
 ******************************************
 %chk=3Methyl4Chloro.M062X_6-31pGd_opt_water.chk
 %mem=196608000
 %nproc=4
 Will use up to    4 processors via shared memory.
 ----------------------------------------------------------------------
 # M062X/Gen 6D SCF=Tight INT(grid=ultrafine) OPT IOP(2/17=4) SCRF=(SMD
 ,Solvent=h2o) maxdisk=1610612736
 ----------------------------------------------------------------------
 1/14=-1,18=20,19=15,26=4,38=1/1,3;
 2/9=110,12=2,17=4,18=5,40=1/2;
 3/5=7,8=2,11=2,16=1,25=1,30=1,70=32201,71=1,72=1,74=-55,75=-5/1,2,3;
 4//1;
 5/5=2,32=2,38=5,53=1/2;
 6/7=2,8=2,9=2,10=2,28=1/1;
 7//1,2,3,16;
 1/14=-1,18=20,19=15,26=4/3(2);
 2/9=110,17=4/2;
 99//99;
 2/9=110,17=4/2;
 3/5=7,6=1,8=2,11=2,16=1,25=1,30=1,70=32205,71=1,72=1,74=-55,75=-5,82=7/1,2,3;
 4/5=5,16=3,69=1/1;
 5/5=2,32=2,38=5,53=1/2;
 7//1,2,3,16;
 1/14=-1,18=20,19=15,26=4/3(-5);
 2/9=110,17=4/2;
 6/7=2,8=2,9=2,10=2,19=2,28=1/1;
 99/9=1/99;
 --------------------------------------
 3Methyl4Chloro.M062X_6-31pGd_opt_water
 --------------------------------------
 Symbolic Z-matrix:
 Charge =  0 Multiplicity = 1
 C                    -1.74362   1.89621   0.31924 
 C                    -0.40412   1.18878   0.13579 
 C                     0.75324   2.19329   0.09478 
 N                     2.02542   1.51514  -0.08465 
 C                     3.20259   2.19955  -0.1513 
 O                     3.19056   3.41631  -0.05608 
 N                     4.37271   1.51022  -0.32652 
 C                     5.70904   2.03839  -0.42199 
 C                     6.04036   3.41144  -0.32138 
 C                     6.75683   1.1235   -0.62861 
 C                     8.08002   1.54948  -0.73359 
 C                     8.39945   2.90392  -0.63427 
 C                     7.37353   3.84892  -0.42547 
 H                    -2.56078   1.14488   0.34569 
 H                    -1.92991   2.59458  -0.5244 
 H                    -1.75251   2.46539   1.27317 
 H                    -0.42852   0.61213  -0.81451 
 H                    -0.25089   0.48136   0.97977 
 H                     0.77417   2.76599   1.0483 
 H                     0.59374   2.90048  -0.74907 
 H                     2.03761   0.4861   -0.165 
 H                     4.28805   0.48444  -0.40323 
 H                     5.30036   4.1739   -0.16131 
 H                     6.54814   0.06395  -0.71107 
 H                     8.86204   0.81773  -0.8936 
 C                     7.64779   5.32579  -0.30715 
 Cl                    10.09472   3.36002  -0.77748 
 H                     8.72136   5.58012  -0.40092 
 H                     7.29765   5.68901   0.68212 
 H                     7.09863   5.8694   -1.10466 
 

 GradGradGradGradGradGradGradGradGradGradGradGradGradGradGradGradGradGrad
 Berny optimization.
 Initialization pass.
                           ----------------------------
                           !    Initial Parameters    !
                           ! (Angstroms and Degrees)  !
 --------------------------                            --------------------------
 ! Name  Definition              Value          Derivative Info.                !
 --------------------------------------------------------------------------------
 ! R1    R(1,2)                  1.5259         estimate D2E/DX2                !
 ! R2    R(1,14)                 1.1104         estimate D2E/DX2                !
 ! R3    R(1,15)                 1.1109         estimate D2E/DX2                !
 ! R4    R(1,16)                 1.1109         estimate D2E/DX2                !
 ! R5    R(2,3)                  1.533          estimate D2E/DX2                !
 ! R6    R(2,17)                 1.1118         estimate D2E/DX2                !
 ! R7    R(2,18)                 1.1119         estimate D2E/DX2                !
 ! R8    R(3,4)                  1.4528         estimate D2E/DX2                !
 ! R9    R(3,19)                 1.1125         estimate D2E/DX2                !
 ! R10   R(3,20)                 1.1125         estimate D2E/DX2                !
 ! R11   R(4,5)                  1.3633         estimate D2E/DX2                !
 ! R12   R(4,21)                 1.0322         estimate D2E/DX2                !
 ! R13   R(5,6)                  1.2205         estimate D2E/DX2                !
 ! R14   R(5,7)                  1.3693         estimate D2E/DX2                !
 ! R15   R(7,8)                  1.4401         estimate D2E/DX2                !
 ! R16   R(7,22)                 1.0321         estimate D2E/DX2                !
 ! R17   R(8,9)                  1.416          estimate D2E/DX2                !
 ! R18   R(8,10)                 1.4063         estimate D2E/DX2                !
 ! R19   R(9,13)                 1.407          estimate D2E/DX2                !
 ! R20   R(9,23)                 1.0745         estimate D2E/DX2                !
 ! R21   R(10,11)                1.394          estimate D2E/DX2                !
 ! R22   R(10,24)                1.0831         estimate D2E/DX2                !
 ! R23   R(11,12)                1.3951         estimate D2E/DX2                !
 ! R24   R(11,25)                1.0829         estimate D2E/DX2                !
 ! R25   R(12,13)                1.4104         estimate D2E/DX2                !
 ! R26   R(12,27)                1.7614         estimate D2E/DX2                !
 ! R27   R(13,26)                1.5068         estimate D2E/DX2                !
 ! R28   R(26,28)                1.1073         estimate D2E/DX2                !
 ! R29   R(26,29)                1.1105         estimate D2E/DX2                !
 ! R30   R(26,30)                1.1105         estimate D2E/DX2                !
 ! A1    A(2,1,14)             109.5842         estimate D2E/DX2                !
 ! A2    A(2,1,15)             110.3255         estimate D2E/DX2                !
 ! A3    A(2,1,16)             110.3534         estimate D2E/DX2                !
 ! A4    A(14,1,15)            108.6657         estimate D2E/DX2                !
 ! A5    A(14,1,16)            108.684          estimate D2E/DX2                !
 ! A6    A(15,1,16)            109.1886         estimate D2E/DX2                !
 ! A7    A(1,2,3)              111.2329         estimate D2E/DX2                !
 ! A8    A(1,2,17)             108.9015         estimate D2E/DX2                !
 ! A9    A(1,2,18)             108.9472         estimate D2E/DX2                !
 ! A10   A(3,2,17)             109.4838         estimate D2E/DX2                !
 ! A11   A(3,2,18)             109.4608         estimate D2E/DX2                !
 ! A12   A(17,2,18)            108.7732         estimate D2E/DX2                !
 ! A13   A(2,3,4)              111.0106         estimate D2E/DX2                !
 ! A14   A(2,3,19)             109.1832         estimate D2E/DX2                !
 ! A15   A(2,3,20)             109.1825         estimate D2E/DX2                !
 ! A16   A(4,3,19)             109.25           estimate D2E/DX2                !
 ! A17   A(4,3,20)             109.1839         estimate D2E/DX2                !
 ! A18   A(19,3,20)            109.0012         estimate D2E/DX2                !
 ! A19   A(3,4,5)              121.859          estimate D2E/DX2                !
 ! A20   A(3,4,21)             119.0325         estimate D2E/DX2                !
 ! A21   A(5,4,21)             119.1084         estimate D2E/DX2                !
 ! A22   A(4,5,6)              119.2187         estimate D2E/DX2                !
 ! A23   A(4,5,7)              119.4318         estimate D2E/DX2                !
 ! A24   A(6,5,7)              121.3493         estimate D2E/DX2                !
 ! A25   A(5,7,8)              128.0832         estimate D2E/DX2                !
 ! A26   A(5,7,22)             116.0868         estimate D2E/DX2                !
 ! A27   A(8,7,22)             115.8296         estimate D2E/DX2                !
 ! A28   A(7,8,9)              124.6134         estimate D2E/DX2                !
 ! A29   A(7,8,10)             117.5508         estimate D2E/DX2                !
 ! A30   A(9,8,10)             117.8357         estimate D2E/DX2                !
 ! A31   A(8,9,13)             121.1946         estimate D2E/DX2                !
 ! A32   A(8,9,23)             122.5133         estimate D2E/DX2                !
 ! A33   A(13,9,23)            116.292          estimate D2E/DX2                !
 ! A34   A(8,10,11)            121.298          estimate D2E/DX2                !
 ! A35   A(8,10,24)            120.2705         estimate D2E/DX2                !
 ! A36   A(11,10,24)           118.4315         estimate D2E/DX2                !
 ! A37   A(10,11,12)           120.5723         estimate D2E/DX2                !
 ! A38   A(10,11,25)           119.3478         estimate D2E/DX2                !
 ! A39   A(12,11,25)           120.0799         estimate D2E/DX2                !
 ! A40   A(11,12,13)           119.6357         estimate D2E/DX2                !
 ! A41   A(11,12,27)           117.7729         estimate D2E/DX2                !
 ! A42   A(13,12,27)           122.5914         estimate D2E/DX2                !
 ! A43   A(9,13,12)            119.4636         estimate D2E/DX2                !
 ! A44   A(9,13,26)            118.127          estimate D2E/DX2                !
 ! A45   A(12,13,26)           122.4093         estimate D2E/DX2                !
 ! A46   A(13,26,28)           113.2637         estimate D2E/DX2                !
 ! A47   A(13,26,29)           109.4603         estimate D2E/DX2                !
 ! A48   A(13,26,30)           109.476          estimate D2E/DX2                !
 ! A49   A(28,26,29)           107.8197         estimate D2E/DX2                !
 ! A50   A(28,26,30)           107.8318         estimate D2E/DX2                !
 ! A51   A(29,26,30)           108.8893         estimate D2E/DX2                !
 ! D1    D(14,1,2,3)          -179.9698         estimate D2E/DX2                !
 ! D2    D(14,1,2,17)           59.2821         estimate D2E/DX2                !
 ! D3    D(14,1,2,18)          -59.2205         estimate D2E/DX2                !
 ! D4    D(15,1,2,3)            60.424          estimate D2E/DX2                !
 ! D5    D(15,1,2,17)          -60.3241         estimate D2E/DX2                !
 ! D6    D(15,1,2,18)         -178.8267         estimate D2E/DX2                !
 ! D7    D(16,1,2,3)           -60.3236         estimate D2E/DX2                !
 ! D8    D(16,1,2,17)          178.9283         estimate D2E/DX2                !
 ! D9    D(16,1,2,18)           60.4257         estimate D2E/DX2                !
 ! D10   D(1,2,3,4)           -179.8011         estimate D2E/DX2                !
 ! D11   D(1,2,3,19)            59.6976         estimate D2E/DX2                !
 ! D12   D(1,2,3,20)           -59.3824         estimate D2E/DX2                !
 ! D13   D(17,2,3,4)           -59.3961         estimate D2E/DX2                !
 ! D14   D(17,2,3,19)         -179.8974         estimate D2E/DX2                !
 ! D15   D(17,2,3,20)           61.0226         estimate D2E/DX2                !
 ! D16   D(18,2,3,4)            59.7521         estimate D2E/DX2                !
 ! D17   D(18,2,3,19)          -60.7492         estimate D2E/DX2                !
 ! D18   D(18,2,3,20)         -179.8292         estimate D2E/DX2                !
 ! D19   D(2,3,4,5)           -179.9761         estimate D2E/DX2                !
 ! D20   D(2,3,4,21)             0.0977         estimate D2E/DX2                !
 ! D21   D(19,3,4,5)           -59.5144         estimate D2E/DX2                !
 ! D22   D(19,3,4,21)          120.5594         estimate D2E/DX2                !
 ! D23   D(20,3,4,5)            59.6061         estimate D2E/DX2                !
 ! D24   D(20,3,4,21)         -120.3201         estimate D2E/DX2                !
 ! D25   D(3,4,5,6)              0.0981         estimate D2E/DX2                !
 ! D26   D(3,4,5,7)           -179.7513         estimate D2E/DX2                !
 ! D27   D(21,4,5,6)          -179.9758         estimate D2E/DX2                !
 ! D28   D(21,4,5,7)             0.1748         estimate D2E/DX2                !
 ! D29   D(4,5,7,8)            179.9992         estimate D2E/DX2                !
 ! D30   D(4,5,7,22)             0.2334         estimate D2E/DX2                !
 ! D31   D(6,5,7,8)              0.1531         estimate D2E/DX2                !
 ! D32   D(6,5,7,22)          -179.6127         estimate D2E/DX2                !
 ! D33   D(5,7,8,9)              1.242          estimate D2E/DX2                !
 ! D34   D(5,7,8,10)          -178.8131         estimate D2E/DX2                !
 ! D35   D(22,7,8,9)          -178.9917         estimate D2E/DX2                !
 ! D36   D(22,7,8,10)            0.9532         estimate D2E/DX2                !
 ! D37   D(7,8,9,13)           179.9951         estimate D2E/DX2                !
 ! D38   D(7,8,9,23)             0.1032         estimate D2E/DX2                !
 ! D39   D(10,8,9,13)            0.0504         estimate D2E/DX2                !
 ! D40   D(10,8,9,23)         -179.8416         estimate D2E/DX2                !
 ! D41   D(7,8,10,11)          179.9604         estimate D2E/DX2                !
 ! D42   D(7,8,10,24)            0.0302         estimate D2E/DX2                !
 ! D43   D(9,8,10,11)           -0.0909         estimate D2E/DX2                !
 ! D44   D(9,8,10,24)          179.9789         estimate D2E/DX2                !
 ! D45   D(8,9,13,12)            0.0225         estimate D2E/DX2                !
 ! D46   D(8,9,13,26)         -179.9575         estimate D2E/DX2                !
 ! D47   D(23,9,13,12)         179.9209         estimate D2E/DX2                !
 ! D48   D(23,9,13,26)          -0.0591         estimate D2E/DX2                !
 ! D49   D(8,10,11,12)           0.0582         estimate D2E/DX2                !
 ! D50   D(8,10,11,25)        -179.9415         estimate D2E/DX2                !
 ! D51   D(24,10,11,12)        179.9896         estimate D2E/DX2                !
 ! D52   D(24,10,11,25)         -0.0101         estimate D2E/DX2                !
 ! D53   D(10,11,12,13)          0.0177         estimate D2E/DX2                !
 ! D54   D(10,11,12,27)        179.992          estimate D2E/DX2                !
 ! D55   D(25,11,12,13)       -179.9826         estimate D2E/DX2                !
 ! D56   D(25,11,12,27)         -0.0084         estimate D2E/DX2                !
 ! D57   D(11,12,13,9)          -0.0571         estimate D2E/DX2                !
 ! D58   D(11,12,13,26)        179.922          estimate D2E/DX2                !
 ! D59   D(27,12,13,9)         179.97           estimate D2E/DX2                !
 ! D60   D(27,12,13,26)         -0.0509         estimate D2E/DX2                !
 ! D61   D(9,13,26,28)        -179.9956         estimate D2E/DX2                !
 ! D62   D(9,13,26,29)          59.6601         estimate D2E/DX2                !
 ! D63   D(9,13,26,30)         -59.6248         estimate D2E/DX2                !
 ! D64   D(12,13,26,28)          0.025          estimate D2E/DX2                !
 ! D65   D(12,13,26,29)       -120.3193         estimate D2E/DX2                !
 ! D66   D(12,13,26,30)        120.3958         estimate D2E/DX2                !
 --------------------------------------------------------------------------------
 Trust Radius=3.00D-01 FncErr=1.00D-07 GrdErr=1.00D-06
 Number of steps in this run=    157 maximum allowed number of steps=    180.
 GradGradGradGradGradGradGradGradGradGradGradGradGradGradGradGradGradGrad

                          Input orientation:                          
 ---------------------------------------------------------------------
 Center     Atomic      Atomic             Coordinates (Angstroms)
 Number     Number       Type             X           Y           Z
 ---------------------------------------------------------------------
      1          6           0       -1.743620    1.896210    0.319240
      2          6           0       -0.404120    1.188780    0.135790
      3          6           0        0.753240    2.193290    0.094780
      4          7           0        2.025420    1.515140   -0.084650
      5          6           0        3.202590    2.199550   -0.151300
      6          8           0        3.190560    3.416310   -0.056080
      7          7           0        4.372710    1.510220   -0.326520
      8          6           0        5.709040    2.038390   -0.421990
      9          6           0        6.040360    3.411440   -0.321380
     10          6           0        6.756830    1.123500   -0.628610
     11          6           0        8.080020    1.549480   -0.733590
     12          6           0        8.399450    2.903920   -0.634270
     13          6           0        7.373530    3.848920   -0.425470
     14          1           0       -2.560780    1.144880    0.345690
     15          1           0       -1.929910    2.594580   -0.524400
     16          1           0       -1.752510    2.465390    1.273170
     17          1           0       -0.428520    0.612130   -0.814510
     18          1           0       -0.250890    0.481360    0.979770
     19          1           0        0.774170    2.765990    1.048300
     20          1           0        0.593740    2.900480   -0.749070
     21          1           0        2.037610    0.486100   -0.165000
     22          1           0        4.288050    0.484440   -0.403230
     23          1           0        5.300360    4.173900   -0.161310
     24          1           0        6.548140    0.063950   -0.711070
     25          1           0        8.862040    0.817730   -0.893600
     26          6           0        7.647790    5.325790   -0.307150
     27         17           0       10.094720    3.360020   -0.777480
     28          1           0        8.721360    5.580120   -0.400920
     29          1           0        7.297650    5.689010    0.682120
     30          1           0        7.098630    5.869400   -1.104660
 ---------------------------------------------------------------------
                    Distance matrix (angstroms):
                    1          2          3          4          5
     1  C    0.000000
     2  C    1.525900   0.000000
     3  C    2.524470   1.533038   0.000000
     4  N    3.809725   2.461254   1.452764   0.000000
     5  C    4.977792   3.756652   2.461688   1.363301   0.000000
     6  O    5.176650   4.233253   2.731129   2.229981   1.220539
     7  N    6.162425   4.809902   3.707377   2.359724   1.369328
     8  C    7.490780   6.197070   4.985078   3.735859   2.526170
     9  C    7.955920   6.832316   5.441573   4.446542   3.090395
    10  C    8.587965   7.201928   6.140915   4.778652   3.744106
    11  C    9.885979   8.536191   7.401513   6.089375   4.954894
    12  C   10.237506   9.002085   7.713691   6.546682   5.266569
    13  C    9.353614   8.239126   6.843976   5.845081   4.493588
    14  H    1.110381   2.167295   3.484946   4.621203   5.880116
    15  H    1.110924   2.177191   2.782752   4.123494   5.161183
    16  H    1.110868   2.177504   2.782342   4.125458   5.162635
    17  H    2.159569   1.111841   2.173346   2.714764   4.018048
    18  H    2.160172   1.111856   2.173060   2.717219   4.019704
    19  H    2.761759   2.169939   1.112485   2.100911   2.767150
    20  H    2.759184   2.169935   1.112493   2.100078   2.766718
    21  H    4.064554   2.558570   2.152113   1.032244   2.072022
    22  H    6.236674   4.775259   3.957659   2.506657   2.045310
    23  H    7.418656   6.445177   4.966357   4.219018   2.880763
    24  H    8.554063   7.093401   6.226102   4.790966   4.008346
    25  H   10.729125   9.330544   8.283821   6.919549   5.872803
    26  C   10.017633   9.063349   7.583464   6.795705   5.436678
    27  Cl  11.978807  10.759832   9.454382   8.306455   7.017140
    28  H   11.117807  10.141317   8.672213   7.839624   6.476680
    29  H    9.811298   8.936879   7.442737   6.767979   5.444303
    30  H    9.797914   8.929624   7.430775   6.762948   5.436527
                    6          7          8          9         10
     6  O    0.000000
     7  N    2.259158   0.000000
     8  C    2.894010   1.440089   0.000000
     9  C    2.862126   2.528976   1.416037   0.000000
    10  C    4.278206   2.434099   1.406264   2.417103   0.000000
    11  C    5.277395   3.729798   2.440835   2.792315   1.394027
    12  C    5.265870   4.272206   2.834168   2.433266   2.422422
    13  C    4.221473   3.805815   2.459382   1.406970   2.801696
    14  H    6.196670   6.975573   8.353300   8.919747   9.368435
    15  H    5.207089   6.398282   7.659856   8.014592   8.811038
    16  H    5.206255   6.402318   7.663591   8.010395   8.821922
    17  H    4.640731   4.908820   6.313314   7.065814   7.205922
    18  H    4.640096   4.913514   6.317439   7.061033   7.218543
    19  H    2.735235   4.051738   5.200394   5.479543   6.426665
    20  H    2.736748   4.048702   5.197737   5.487228   6.415282
    21  H    3.150760   2.554917   3.994377   4.960250   4.784585
    22  H    3.149740   1.032122   2.105784   3.412421   2.560092
    23  H    2.244164   2.825424   2.189835   1.074508   3.412421
    24  H    4.789642   2.640468   2.164733   3.408136   1.083050
    25  H    6.294422   4.577686   3.413771   3.875132   2.143741
    26  C    4.855517   5.028429   3.818238   2.499754   4.307713
    27  Cl   6.941975   6.030466   4.594265   4.080258   4.020658
    28  H    5.949011   5.956541   4.649556   3.449241   4.875724
    29  H    4.751662   5.199511   4.131557   2.788389   4.780626
    30  H    4.731826   5.199865   4.132026   2.788374   4.781947
                   11         12         13         14         15
    11  C    0.000000
    12  C    1.395137   0.000000
    13  C    2.425178   1.410367   0.000000
    14  H   10.703045  11.143661  10.324584   0.000000
    15  H   10.066513  10.334575   9.388139   1.804628   0.000000
    16  H   10.076935  10.338904   9.385315   1.804790   1.810917
    17  H    8.560399   9.122381   8.455776   2.485240   2.503686
    18  H    8.572079   9.127010   8.452629   2.485540   3.089876
    19  H    7.617773   7.809927   6.848086   3.774063   3.132861
    20  H    7.607222   7.806555   6.853452   3.772483   2.552031
    21  H    6.161557   6.821955   6.312562   4.673327   4.507335
    22  H    3.952529   4.776073   4.565129   6.921238   6.567374
    23  H    3.865436   3.382440   2.115048   8.439759   7.409648
    24  H    2.134002   3.390970   3.884435   9.233503   8.849648
    25  H    1.082874   2.152540   3.409240  11.494507  10.943477
    26  C    3.824813   2.556845   1.506772  11.050842   9.961879
    27  Cl   2.709058   1.761385   2.787079  12.896900  12.051625
    28  H    4.094880   2.705573   2.194152  12.145594  11.062470
    29  H    4.444327   3.271631   2.149057  10.860522   9.807092
    30  H    4.445507   3.272227   2.149234  10.850291   9.621626
                   16         17         18         19         20
    16  H    0.000000
    17  H    3.089649   0.000000
    18  H    2.505458   1.807787   0.000000
    19  H    2.554416   3.091219   2.504991   0.000000
    20  H    3.127882   2.507158   3.091024   1.811403   0.000000
    21  H    4.511201   2.553340   2.558858   2.875113   2.873174
    22  H    6.574408   4.736189   4.744963   4.433933   4.427729
    23  H    7.397278   6.777385   6.764118   4.892010   4.911144
    24  H    8.865941   6.998927   7.018545   6.613254   6.595622
    25  H   10.958027   9.293171   9.309573   8.542853   8.527809
    26  C    9.952132   9.364977   9.354882   7.458986   7.472419
    27  Cl  12.056632  10.876160  10.881464   9.516249   9.512129
    28  H   11.054686  10.419803  10.411769   8.554379   8.565039
    29  H    9.625303   9.365272   9.175438   7.157788   7.400447
    30  H    9.776709   9.185917   9.348330   7.366491   7.159227
                   21         22         23         24         25
    21  H    0.000000
    22  H    2.263015   0.000000
    23  H    4.923964   3.833460   0.000000
    24  H    4.563035   2.319393   4.330229   0.000000
    25  H    6.871221   4.612259   4.948302   2.440417   0.000000
    26  C    7.410595   5.893705   2.618883   5.390672   4.705415
    27  Cl   8.576221   6.490488   4.901832   4.842181   2.827759
    28  H    8.406974   6.754273   3.706495   5.936936   4.789873
    29  H    7.446872   6.109274   2.645014   5.843290   5.353464
    30  H    7.448275   6.114667   2.645450   5.844759   5.354767
                   26         27         28         29         30
    26  C    0.000000
    27  Cl   3.173788   0.000000
    28  H    1.107262   2.637567   0.000000
    29  H    1.110487   3.921508   1.792145   0.000000
    30  H    1.110455   3.921810   1.792257   1.806857   0.000000
 Stoichiometry    C11H15ClN2O
 Framework group  C1[X(C11H15ClN2O)]
 Deg. of freedom    84
 Full point group                 C1      NOp   1
 Largest Abelian subgroup         C1      NOp   1
 Largest concise Abelian subgroup C1      NOp   1
                         Standard orientation:                         
 ---------------------------------------------------------------------
 Center     Atomic      Atomic             Coordinates (Angstroms)
 Number     Number       Type             X           Y           Z
 ---------------------------------------------------------------------
      1          6           0        6.766269    0.490389    0.015719
      2          6           0        5.555934   -0.438529   -0.008187
      3          6           0        4.245357    0.356680    0.007164
      4          7           0        3.096468   -0.532279   -0.010984
      5          6           0        1.818705   -0.057055   -0.002481
      6          8           0        1.631672    1.148874    0.019209
      7          7           0        0.772265   -0.940151   -0.015272
      8          6           0       -0.637633   -0.646879   -0.009461
      9          6           0       -1.187832    0.657890   -0.013963
     10          6           0       -1.528323   -1.735069    0.000251
     11          6           0       -2.908754   -1.540974    0.007204
     12          6           0       -3.444226   -0.252695    0.003458
     13          6           0       -2.579940    0.861763   -0.007841
     14          1           0        7.698555   -0.112634    0.003392
     15          1           0        6.757253    1.112323    0.936192
     16          1           0        6.760692    1.155233   -0.874213
     17          1           0        5.595773   -1.104962    0.880897
     18          1           0        5.598971   -1.064000   -0.926423
     19          1           0        4.209874    1.020150   -0.885121
     20          1           0        4.208525    0.982946    0.925899
     21          1           0        3.252682   -1.552463   -0.029714
     22          1           0        1.023308   -1.941206   -0.027260
     23          1           0       -0.577357    1.542079   -0.023860
     24          1           0       -1.150282   -2.749993    0.003628
     25          1           0       -3.565698   -2.401771    0.015582
     26          6           0       -3.090265    2.279469   -0.014174
     27         17           0       -5.198327   -0.092933    0.012536
     28          1           0       -4.195485    2.346456   -0.008630
     29          1           0       -2.722758    2.800904   -0.923144
     30          1           0       -2.712755    2.812870    0.883646
 ---------------------------------------------------------------------
 Rotational constants (GHZ):      2.0343356      0.1627691      0.1513090
 General basis read from cards:  (6D, 7F)
 There are   319 symmetry adapted cartesian basis functions of A   symmetry.
 There are   319 symmetry adapted basis functions of A   symmetry.
   319 basis functions,   564 primitive gaussians,   319 cartesian basis functions
    60 alpha electrons       60 beta electrons
       nuclear repulsion energy      1020.7638409842 Hartrees.
 NAtoms=   30 NActive=   30 NUniq=   30 SFac= 1.00D+00 NAtFMM=   60 NAOKFM=F Big=F
 Integral buffers will be    131072 words long.
 Raffenetti 2 integral format.
 Two-electron integral symmetry is turned on.
 ------------------------------------------------------------------------------
 Polarizable Continuum Model (PCM)
 =================================
 Model                : PCM (using non-symmetric T matrix).
 Atomic radii         : SMD-Coulomb.
 Polarization charges : Total charges.
 Charge compensation  : None.
 Solution method      : On-the-fly selection.
 Cavity type          : VdW (van der Waals Surface) (Alpha=1.000).
 Cavity algorithm     : GePol (No added spheres)
                        Default sphere list used, NSphG=   30.
                        Lebedev-Laikov grids with approx.  5.0 points / Ang**2.
                        Smoothing algorithm: York/Karplus (Gamma=1.0000).
                        Polarization charges: spherical gaussians, with
                                              point-specific exponents (IZeta= 3).
                        Self-potential: point-specific (ISelfS= 7).
                        Self-field    : sphere-specific E.n sum rule (ISelfD= 2).
 1st derivatives      : Analytical E(r).r(x)/FMM algorithm (CHGder, D1EAlg=3).
                        Cavity 1st derivative terms included.
 Solvent              : Water, Eps=  78.355300 Eps(inf)=   1.777849
 ------------------------------------------------------------------------------
 ------------------------------------------------------------------------------
 Atomic radii for non-electrostatic terms: SMD-CDS.
 ------------------------------------------------------------------------------
 Nuclear repulsion after PCM non-electrostatic terms =     1020.7726285448 Hartrees.
 One-electron integrals computed using PRISM.
 NBasis=   319 RedAO= T EigKep=  1.89D-06  NBF=   319
 NBsUse=   318 1.00D-06 EigRej=  6.20D-07 NBFU=   318
 ExpMin= 4.38D-02 ExpMax= 2.52D+04 ExpMxC= 3.78D+03 IAcc=3 IRadAn=         5 AccDes= 0.00D+00
 Harris functional with IExCor= 1009 and IRadAn=       5 diagonalized for initial guess.
 HarFok:  IExCor= 1009 AccDes= 0.00D+00 IRadAn=         5 IDoV= 1 UseB2=F ITyADJ=14
 ICtDFT=  3500011 ScaDFX=  1.000000  1.000000  1.000000  1.000000
 FoFCou: FMM=F IPFlag=           0 FMFlag=      100000 FMFlg1=           0
         NFxFlg=           0 DoJE=T BraDBF=F KetDBF=T FulRan=T
         wScrn=  0.000000 ICntrl=     500 IOpCl=  0 I1Cent=   200000004 NGrid=           0
         NMat0=    1 NMatS0=      1 NMatT0=    0 NMatD0=    1 NMtDS0=    0 NMtDT0=    0
 Petite list used in FoFCou.
 Requested convergence on RMS density matrix=1.00D-08 within 128 cycles.
 Requested convergence on MAX density matrix=1.00D-06.
 Requested convergence on             energy=1.00D-06.
 No special actions if energy rises.
 Inv3:  Mode=1 IEnd=    17409843.
 Iteration    1 A*A^-1 deviation from unit magnitude is 4.88D-15 for    602.
 Iteration    1 A*A^-1 deviation from orthogonality  is 3.44D-15 for   1109    220.
 Iteration    1 A^-1*A deviation from unit magnitude is 4.00D-15 for   2407.
 Iteration    1 A^-1*A deviation from orthogonality  is 1.14D-11 for   1746   1694.
 Error on total polarization charges =  0.05542
 SCF Done:  E(RM062X) =  -1072.89067513     A.U. after   15 cycles
            NFock= 15  Conv=0.36D-08     -V/T= 2.0066
 SMD-CDS (non-electrostatic) energy       (kcal/mol) =       5.51
 (included in total energy above)

 **********************************************************************

            Population analysis using the SCF density.

 **********************************************************************

 Orbital symmetries:
       Occupied  (A) (A) (A) (A) (A) (A) (A) (A) (A) (A) (A) (A)
                 (A) (A) (A) (A) (A) (A) (A) (A) (A) (A) (A) (A)
                 (A) (A) (A) (A) (A) (A) (A) (A) (A) (A) (A) (A)
                 (A) (A) (A) (A) (A) (A) (A) (A) (A) (A) (A) (A)
                 (A) (A) (A) (A) (A) (A) (A) (A) (A) (A) (A) (A)
       Virtual   (A) (A) (A) (A) (A) (A) (A) (A) (A) (A) (A) (A)
                 (A) (A) (A) (A) (A) (A) (A) (A) (A) (A) (A) (A)
                 (A) (A) (A) (A) (A) (A) (A) (A) (A) (A) (A) (A)
                 (A) (A) (A) (A) (A) (A) (A) (A) (A) (A) (A) (A)
                 (A) (A) (A) (A) (A) (A) (A) (A) (A) (A) (A) (A)
                 (A) (A) (A) (A) (A) (A) (A) (A) (A) (A) (A) (A)
                 (A) (A) (A) (A) (A) (A) (A) (A) (A) (A) (A) (A)
                 (A) (A) (A) (A) (A) (A) (A) (A) (A) (A) (A) (A)
                 (A) (A) (A) (A) (A) (A) (A) (A) (A) (A) (A) (A)
                 (A) (A) (A) (A) (A) (A) (A) (A) (A) (A) (A) (A)
                 (A) (A) (A) (A) (A) (A) (A) (A) (A) (A) (A) (A)
                 (A) (A) (A) (A) (A) (A) (A) (A) (A) (A) (A) (A)
                 (A) (A) (A) (A) (A) (A) (A) (A) (A) (A) (A) (A)
                 (A) (A) (A) (A) (A) (A) (A) (A) (A) (A) (A) (A)
                 (A) (A) (A) (A) (A) (A) (A) (A) (A) (A) (A) (A)
                 (A) (A) (A) (A) (A) (A) (A) (A) (A) (A) (A) (A)
                 (A) (A) (A) (A) (A) (A) (A) (A) (A) (A) (A) (A)
                 (A) (A) (A) (A) (A) (A) (A) (A) (A) (A) (A) (A)
                 (A) (A) (A) (A) (A) (A) (A) (A) (A) (A) (A) (A)
                 (A) (A) (A) (A) (A) (A) (A) (A) (A) (A) (A) (A)
                 (A) (A) (A) (A) (A) (A) (A) (A) (A) (A) (A) (A)
                 (A) (A) (A) (A) (A) (A)
 The electronic state is 1-A.
 Alpha  occ. eigenvalues -- -102.67522 -19.61677 -14.80506 -14.78466 -10.68903
 Alpha  occ. eigenvalues --  -10.61855 -10.61459 -10.58036 -10.57942 -10.56754
 Alpha  occ. eigenvalues --  -10.56187 -10.55867 -10.54547 -10.54361 -10.53443
 Alpha  occ. eigenvalues --   -9.82153  -7.54545  -7.53905  -7.53890  -1.18956
 Alpha  occ. eigenvalues --   -1.05114  -1.02400  -0.99258  -0.93283  -0.87965
 Alpha  occ. eigenvalues --   -0.87339  -0.83149  -0.78104  -0.76800  -0.71101
 Alpha  occ. eigenvalues --   -0.68278  -0.67491  -0.65907  -0.62966  -0.59537
 Alpha  occ. eigenvalues --   -0.56090  -0.55628  -0.54516  -0.53138  -0.52146
 Alpha  occ. eigenvalues --   -0.51089  -0.50107  -0.49491  -0.47703  -0.46145
 Alpha  occ. eigenvalues --   -0.46100  -0.45473  -0.44599  -0.42976  -0.41865
 Alpha  occ. eigenvalues --   -0.41657  -0.41596  -0.39431  -0.39082  -0.37806
 Alpha  occ. eigenvalues --   -0.36108  -0.35438  -0.32176  -0.30666  -0.27028
 Alpha virt. eigenvalues --    0.00789   0.01502   0.01568   0.02093   0.03395
 Alpha virt. eigenvalues --    0.03879   0.04171   0.04494   0.04976   0.05661
 Alpha virt. eigenvalues --    0.06055   0.06546   0.07034   0.07717   0.07881
 Alpha virt. eigenvalues --    0.07948   0.08426   0.09211   0.09359   0.09845
 Alpha virt. eigenvalues --    0.10021   0.10287   0.10748   0.11207   0.12174
 Alpha virt. eigenvalues --    0.12602   0.12631   0.13417   0.13792   0.14592
 Alpha virt. eigenvalues --    0.14628   0.15039   0.15921   0.16652   0.16987
 Alpha virt. eigenvalues --    0.17816   0.18440   0.19100   0.19599   0.19878
 Alpha virt. eigenvalues --    0.19891   0.20560   0.21130   0.21908   0.22301
 Alpha virt. eigenvalues --    0.22522   0.22767   0.23116   0.23388   0.24055
 Alpha virt. eigenvalues --    0.24313   0.24737   0.25594   0.25803   0.25954
 Alpha virt. eigenvalues --    0.25978   0.26629   0.26899   0.27730   0.28535
 Alpha virt. eigenvalues --    0.28595   0.29462   0.29571   0.30135   0.30743
 Alpha virt. eigenvalues --    0.31292   0.31820   0.32460   0.32588   0.32722
 Alpha virt. eigenvalues --    0.33004   0.33217   0.34038   0.34676   0.35777
 Alpha virt. eigenvalues --    0.36252   0.37277   0.38028   0.38300   0.39438
 Alpha virt. eigenvalues --    0.40208   0.40788   0.41467   0.44155   0.45521
 Alpha virt. eigenvalues --    0.46074   0.47928   0.50659   0.52047   0.54511
 Alpha virt. eigenvalues --    0.57690   0.58950   0.60794   0.64623   0.67736
 Alpha virt. eigenvalues --    0.68314   0.69477   0.70150   0.71110   0.71607
 Alpha virt. eigenvalues --    0.72427   0.74212   0.74971   0.75643   0.76449
 Alpha virt. eigenvalues --    0.76746   0.77052   0.77914   0.78055   0.79736
 Alpha virt. eigenvalues --    0.79993   0.80085   0.80690   0.82620   0.83374
 Alpha virt. eigenvalues --    0.83717   0.85274   0.86173   0.87904   0.89529
 Alpha virt. eigenvalues --    0.89605   0.91937   0.93418   0.93652   0.98024
 Alpha virt. eigenvalues --    0.98233   0.98362   0.99404   1.00267   1.00582
 Alpha virt. eigenvalues --    1.03116   1.03161   1.03650   1.05319   1.05367
 Alpha virt. eigenvalues --    1.05720   1.06147   1.07413   1.11001   1.11484
 Alpha virt. eigenvalues --    1.11560   1.12532   1.14149   1.15004   1.16015
 Alpha virt. eigenvalues --    1.16722   1.17848   1.18913   1.19622   1.22436
 Alpha virt. eigenvalues --    1.22639   1.23596   1.27124   1.27558   1.28051
 Alpha virt. eigenvalues --    1.31357   1.31644   1.31978   1.34198   1.37690
 Alpha virt. eigenvalues --    1.38824   1.39502   1.41638   1.44301   1.44971
 Alpha virt. eigenvalues --    1.45758   1.45894   1.46134   1.47981   1.50306
 Alpha virt. eigenvalues --    1.50449   1.51666   1.53224   1.56678   1.57277
 Alpha virt. eigenvalues --    1.59136   1.60193   1.61010   1.64813   1.71732
 Alpha virt. eigenvalues --    1.79961   1.84049   1.85083   1.85897   1.86488
 Alpha virt. eigenvalues --    1.88251   1.88972   1.91551   1.93171   1.93694
 Alpha virt. eigenvalues --    1.94050   1.95412   1.97583   1.98026   2.00220
 Alpha virt. eigenvalues --    2.02731   2.02903   2.05028   2.05572   2.06245
 Alpha virt. eigenvalues --    2.11719   2.13768   2.15590   2.17187   2.17548
 Alpha virt. eigenvalues --    2.20614   2.21065   2.24377   2.24664   2.27491
 Alpha virt. eigenvalues --    2.28014   2.29927   2.32002   2.36308   2.37521
 Alpha virt. eigenvalues --    2.37878   2.39991   2.40325   2.40920   2.41481
 Alpha virt. eigenvalues --    2.43872   2.44842   2.52154   2.56577   2.59311
 Alpha virt. eigenvalues --    2.65409   2.66335   2.68761   2.70198   2.73452
 Alpha virt. eigenvalues --    2.74067   2.78790   2.80325   2.80954   2.82648
 Alpha virt. eigenvalues --    2.86206   2.93144   3.00140   3.06691   3.12011
 Alpha virt. eigenvalues --    3.26688   3.32663   3.40279   4.15171   4.25195
 Alpha virt. eigenvalues --    4.26660   4.30935   4.35087   4.37936   4.39685
 Alpha virt. eigenvalues --    4.42175   4.44058   4.47360   4.49673   4.52799
 Alpha virt. eigenvalues --    4.59339   4.66317   4.77507
          Condensed to atoms (all electrons):
               1          2          3          4          5          6
     1  C    5.639926  -0.039593  -0.003938  -0.001975  -0.027811  -0.003460
     2  C   -0.039593   6.116155  -0.303976  -0.084275   0.093233   0.017172
     3  C   -0.003938  -0.303976   6.432537   0.256737  -0.420494  -0.065460
     4  N   -0.001975  -0.084275   0.256737   7.559398   0.433200  -0.206812
     5  C   -0.027811   0.093233  -0.420494   0.433200   5.639149   0.607618
     6  O   -0.003460   0.017172  -0.065460  -0.206812   0.607618   8.536961
     7  N   -0.001858   0.006414  -0.073471  -0.317365   0.155969  -0.105455
     8  C   -0.004929   0.002512  -0.230500  -0.080133  -0.658288  -0.397869
     9  C    0.000183  -0.001464  -0.004921   0.011626   0.405825   0.397292
    10  C   -0.000893   0.001452  -0.051690  -0.056007  -1.050622  -0.114025
    11  C    0.000045  -0.000406   0.004153   0.003817   0.029033   0.001610
    12  C   -0.000031   0.001108  -0.005395  -0.008565  -0.134750  -0.018652
    13  C    0.000110   0.000120  -0.001666   0.009093   0.201520   0.084718
    14  H    0.412059  -0.087243   0.027591   0.000459  -0.001842   0.000007
    15  H    0.414960  -0.062828  -0.009220   0.000476   0.000621  -0.000052
    16  H    0.414764  -0.062440  -0.009195   0.000468   0.000407  -0.000052
    17  H   -0.036941   0.428420  -0.077336   0.005936  -0.004475  -0.000184
    18  H   -0.037067   0.428643  -0.078548   0.006000  -0.003459  -0.000179
    19  H    0.002331  -0.042204   0.424644  -0.054529  -0.022580   0.003854
    20  H    0.003463  -0.043736   0.430719  -0.055008  -0.026888   0.004027
    21  H   -0.003480   0.000085  -0.057946   0.249093   0.017632   0.009077
    22  H   -0.000063   0.000627  -0.001734   0.010542  -0.023719   0.007440
    23  H    0.000001   0.000084   0.002008  -0.000571   0.011065  -0.002892
    24  H   -0.000001   0.000021  -0.000407   0.000675  -0.008150   0.000022
    25  H    0.000000   0.000000   0.000016   0.000012   0.001941   0.000001
    26  C   -0.000026  -0.000042  -0.005283   0.000349  -0.057953   0.010364
    27  Cl  -0.000001   0.000007  -0.000165   0.000063  -0.008431   0.000122
    28  H   -0.000000  -0.000000  -0.000001   0.000000  -0.000103   0.000004
    29  H   -0.000000  -0.000001  -0.000015  -0.000004  -0.000455  -0.000046
    30  H   -0.000000  -0.000001  -0.000020  -0.000007  -0.000565  -0.000086
               7          8          9         10         11         12
     1  C   -0.001858  -0.004929   0.000183  -0.000893   0.000045  -0.000031
     2  C    0.006414   0.002512  -0.001464   0.001452  -0.000406   0.001108
     3  C   -0.073471  -0.230500  -0.004921  -0.051690   0.004153  -0.005395
     4  N   -0.317365  -0.080133   0.011626  -0.056007   0.003817  -0.008565
     5  C    0.155969  -0.658288   0.405825  -1.050622   0.029033  -0.134750
     6  O   -0.105455  -0.397869   0.397292  -0.114025   0.001610  -0.018652
     7  N    7.717202   0.079700  -0.470115   0.343320   0.073571   0.024915
     8  C    0.079700  11.022196  -1.617279   0.627714  -0.646927  -0.047297
     9  C   -0.470115  -1.617279   9.460371  -3.975564   0.322491  -1.552430
    10  C    0.343320   0.627714  -3.975564  12.275669  -0.396639   0.709706
    11  C    0.073571  -0.646927   0.322491  -0.396639   6.936760  -0.477911
    12  C    0.024915  -0.047297  -1.552430   0.709706  -0.477911   9.433493
    13  C   -0.012463  -1.830770   2.094338  -1.470874  -0.087849  -1.068170
    14  H    0.000008  -0.000034   0.000003  -0.000001  -0.000000  -0.000000
    15  H    0.000019   0.000034  -0.000028   0.000003   0.000000   0.000000
    16  H    0.000016   0.000029  -0.000031   0.000003   0.000000  -0.000000
    17  H    0.000024  -0.000391  -0.000197   0.000137   0.000003   0.000000
    18  H    0.000130  -0.000466  -0.000097   0.000124   0.000001   0.000001
    19  H   -0.000394  -0.003522   0.002246  -0.000529  -0.000027   0.000009
    20  H   -0.000178  -0.005532   0.003129  -0.000797  -0.000023   0.000002
    21  H    0.018199   0.013016   0.002401  -0.002620  -0.000260   0.000192
    22  H    0.243813  -0.009160   0.035126  -0.043535   0.014078  -0.004024
    23  H   -0.012599   0.033788   0.258412   0.036565  -0.019397   0.080597
    24  H   -0.009914   0.049658   0.041957   0.270521  -0.036156  -0.030954
    25  H    0.000538   0.010491  -0.002176  -0.017230   0.310048  -0.043799
    26  C    0.004432  -0.470518  -0.021535   0.017927   0.255589  -0.284786
    27  Cl  -0.000923  -0.030791  -0.031052   0.083410  -0.123850   0.004396
    28  H    0.000013   0.003824   0.029950   0.001491   0.013554  -0.040198
    29  H    0.000071  -0.008058  -0.031672   0.002279  -0.004683   0.019207
    30  H    0.000115  -0.011692  -0.036801   0.002851  -0.006107   0.019239
              13         14         15         16         17         18
     1  C    0.000110   0.412059   0.414960   0.414764  -0.036941  -0.037067
     2  C    0.000120  -0.087243  -0.062828  -0.062440   0.428420   0.428643
     3  C   -0.001666   0.027591  -0.009220  -0.009195  -0.077336  -0.078548
     4  N    0.009093   0.000459   0.000476   0.000468   0.005936   0.006000
     5  C    0.201520  -0.001842   0.000621   0.000407  -0.004475  -0.003459
     6  O    0.084718   0.000007  -0.000052  -0.000052  -0.000184  -0.000179
     7  N   -0.012463   0.000008   0.000019   0.000016   0.000024   0.000130
     8  C   -1.830770  -0.000034   0.000034   0.000029  -0.000391  -0.000466
     9  C    2.094338   0.000003  -0.000028  -0.000031  -0.000197  -0.000097
    10  C   -1.470874  -0.000001   0.000003   0.000003   0.000137   0.000124
    11  C   -0.087849  -0.000000   0.000000   0.000000   0.000003   0.000001
    12  C   -1.068170  -0.000000   0.000000  -0.000000   0.000000   0.000001
    13  C    8.575604  -0.000000  -0.000000  -0.000000  -0.000008  -0.000004
    14  H   -0.000000   0.481159  -0.023820  -0.023801  -0.002989  -0.002990
    15  H   -0.000000  -0.023820   0.486886  -0.028347  -0.004566   0.003766
    16  H   -0.000000  -0.023801  -0.028347   0.486894   0.003770  -0.004545
    17  H   -0.000008  -0.002989  -0.004566   0.003770   0.489705  -0.030619
    18  H   -0.000004  -0.002990   0.003766  -0.004545  -0.030619   0.489581
    19  H    0.000176  -0.000056  -0.000323   0.002612   0.003671  -0.005355
    20  H    0.000219  -0.000054   0.002624  -0.000332  -0.005309   0.003672
    21  H   -0.000064  -0.000003   0.000000   0.000000   0.000583   0.000584
    22  H    0.004870  -0.000000  -0.000000  -0.000000   0.000001   0.000001
    23  H   -0.077602  -0.000000  -0.000000  -0.000000  -0.000000  -0.000000
    24  H    0.020707   0.000000  -0.000000  -0.000000   0.000000  -0.000000
    25  H    0.055561  -0.000000   0.000000   0.000000   0.000000   0.000000
    26  C   -0.238158  -0.000000  -0.000000  -0.000000  -0.000000  -0.000000
    27  Cl  -0.178151  -0.000000  -0.000000  -0.000000  -0.000000  -0.000000
    28  H   -0.124793   0.000000  -0.000000  -0.000000  -0.000000  -0.000000
    29  H   -0.041467  -0.000000   0.000000  -0.000000  -0.000000   0.000000
    30  H   -0.033936  -0.000000  -0.000000   0.000000   0.000000  -0.000000
              19         20         21         22         23         24
     1  C    0.002331   0.003463  -0.003480  -0.000063   0.000001  -0.000001
     2  C   -0.042204  -0.043736   0.000085   0.000627   0.000084   0.000021
     3  C    0.424644   0.430719  -0.057946  -0.001734   0.002008  -0.000407
     4  N   -0.054529  -0.055008   0.249093   0.010542  -0.000571   0.000675
     5  C   -0.022580  -0.026888   0.017632  -0.023719   0.011065  -0.008150
     6  O    0.003854   0.004027   0.009077   0.007440  -0.002892   0.000022
     7  N   -0.000394  -0.000178   0.018199   0.243813  -0.012599  -0.009914
     8  C   -0.003522  -0.005532   0.013016  -0.009160   0.033788   0.049658
     9  C    0.002246   0.003129   0.002401   0.035126   0.258412   0.041957
    10  C   -0.000529  -0.000797  -0.002620  -0.043535   0.036565   0.270521
    11  C   -0.000027  -0.000023  -0.000260   0.014078  -0.019397  -0.036156
    12  C    0.000009   0.000002   0.000192  -0.004024   0.080597  -0.030954
    13  C    0.000176   0.000219  -0.000064   0.004870  -0.077602   0.020707
    14  H   -0.000056  -0.000054  -0.000003  -0.000000  -0.000000   0.000000
    15  H   -0.000323   0.002624   0.000000  -0.000000  -0.000000  -0.000000
    16  H    0.002612  -0.000332   0.000000  -0.000000  -0.000000  -0.000000
    17  H    0.003671  -0.005309   0.000583   0.000001  -0.000000   0.000000
    18  H   -0.005355   0.003672   0.000584   0.000001  -0.000000  -0.000000
    19  H    0.495677  -0.038758   0.002062   0.000005  -0.000000   0.000000
    20  H   -0.038758   0.495813   0.002066   0.000005   0.000000   0.000000
    21  H    0.002062   0.002066   0.266956   0.002060   0.000001   0.000004
    22  H    0.000005   0.000005   0.002060   0.260719  -0.000132   0.004485
    23  H   -0.000000   0.000000   0.000001  -0.000132   0.436050  -0.000105
    24  H    0.000000   0.000000   0.000004   0.004485  -0.000105   0.437763
    25  H   -0.000000  -0.000000  -0.000000  -0.000009   0.000012  -0.003666
    26  C   -0.000004  -0.000007  -0.000021   0.000673  -0.020626   0.002538
    27  Cl  -0.000000  -0.000000   0.000000   0.000029   0.000358   0.000849
    28  H    0.000000   0.000000   0.000000  -0.000000   0.000117  -0.000000
    29  H   -0.000000   0.000000  -0.000000   0.000000   0.000688   0.000000
    30  H    0.000000  -0.000000  -0.000000   0.000000   0.000723   0.000000
              25         26         27         28         29         30
     1  C    0.000000  -0.000026  -0.000001  -0.000000  -0.000000  -0.000000
     2  C    0.000000  -0.000042   0.000007  -0.000000  -0.000001  -0.000001
     3  C    0.000016  -0.005283  -0.000165  -0.000001  -0.000015  -0.000020
     4  N    0.000012   0.000349   0.000063   0.000000  -0.000004  -0.000007
     5  C    0.001941  -0.057953  -0.008431  -0.000103  -0.000455  -0.000565
     6  O    0.000001   0.010364   0.000122   0.000004  -0.000046  -0.000086
     7  N    0.000538   0.004432  -0.000923   0.000013   0.000071   0.000115
     8  C    0.010491  -0.470518  -0.030791   0.003824  -0.008058  -0.011692
     9  C   -0.002176  -0.021535  -0.031052   0.029950  -0.031672  -0.036801
    10  C   -0.017230   0.017927   0.083410   0.001491   0.002279   0.002851
    11  C    0.310048   0.255589  -0.123850   0.013554  -0.004683  -0.006107
    12  C   -0.043799  -0.284786   0.004396  -0.040198   0.019207   0.019239
    13  C    0.055561  -0.238158  -0.178151  -0.124793  -0.041467  -0.033936
    14  H   -0.000000  -0.000000  -0.000000   0.000000  -0.000000  -0.000000
    15  H    0.000000  -0.000000  -0.000000  -0.000000   0.000000  -0.000000
    16  H    0.000000  -0.000000  -0.000000  -0.000000  -0.000000   0.000000
    17  H    0.000000  -0.000000  -0.000000  -0.000000  -0.000000   0.000000
    18  H    0.000000  -0.000000  -0.000000  -0.000000   0.000000  -0.000000
    19  H   -0.000000  -0.000004  -0.000000   0.000000  -0.000000   0.000000
    20  H   -0.000000  -0.000007  -0.000000   0.000000   0.000000  -0.000000
    21  H   -0.000000  -0.000021   0.000000   0.000000  -0.000000  -0.000000
    22  H   -0.000009   0.000673   0.000029  -0.000000   0.000000   0.000000
    23  H    0.000012  -0.020626   0.000358   0.000117   0.000688   0.000723
    24  H   -0.003666   0.002538   0.000849  -0.000000   0.000000   0.000000
    25  H    0.426425  -0.000422  -0.002484  -0.000002   0.000002   0.000002
    26  C   -0.000422   6.360206   0.027411   0.449569   0.401018   0.403027
    27  Cl  -0.002484   0.027411  17.073651   0.010869  -0.000767  -0.000598
    28  H   -0.000002   0.449569   0.010869   0.467811  -0.022979  -0.022930
    29  H    0.000002   0.401018  -0.000767  -0.022979   0.454613  -0.024660
    30  H    0.000002   0.403027  -0.000598  -0.022930  -0.024660   0.454538
 Mulliken charges:
               1
     1  C   -0.725775
     2  C   -0.367844
     3  C   -0.177023
     4  N   -0.682697
     5  C    0.853372
     6  O   -0.765065
     7  N   -0.663735
     8  C    0.211194
     9  C    0.680009
    10  C   -1.192145
    11  C   -0.164520
    12  C   -0.575902
    13  C    0.118939
    14  H    0.221547
    15  H    0.219795
    16  H    0.219780
    17  H    0.230766
    18  H    0.230826
    19  H    0.230997
    20  H    0.230884
    21  H    0.480382
    22  H    0.497899
    23  H    0.273455
    24  H    0.260154
    25  H    0.264740
    26  C   -0.833720
    27  Cl   0.176046
    28  H    0.233805
    29  H    0.256928
    30  H    0.256907
 Sum of Mulliken charges =  -0.00000
 Mulliken charges with hydrogens summed into heavy atoms:
               1
     1  C   -0.064654
     2  C    0.093749
     3  C    0.284858
     4  N   -0.202314
     5  C    0.853372
     6  O   -0.765065
     7  N   -0.165836
     8  C    0.211194
     9  C    0.953464
    10  C   -0.931991
    11  C    0.100220
    12  C   -0.575902
    13  C    0.118939
    26  C   -0.086079
    27  Cl   0.176046
 Electronic spatial extent (au):  <R**2>=           6791.0223
 Charge=             -0.0000 electrons
 Dipole moment (field-independent basis, Debye):
    X=              5.0301    Y=             -5.8451    Z=             -0.1179  Tot=              7.7124
 Quadrupole moment (field-independent basis, Debye-Ang):
   XX=            -91.5890   YY=            -86.5302   ZZ=           -101.7514
   XY=            -12.1803   XZ=             -0.1641   YZ=             -0.0442
 Traceless Quadrupole moment (field-independent basis, Debye-Ang):
   XX=              1.7012   YY=              6.7600   ZZ=             -8.4612
   XY=            -12.1803   XZ=             -0.1641   YZ=             -0.0442
 Octapole moment (field-independent basis, Debye-Ang**2):
  XXX=            164.0551  YYY=            -32.0517  ZZZ=              0.0937  XYY=            -11.9070
  XXY=            -25.8027  XXZ=             -0.5814  XZZ=              9.3711  YZZ=              5.0150
  YYZ=             -0.4140  XYZ=              0.2241
 Hexadecapole moment (field-independent basis, Debye-Ang**3):
 XXXX=          -8179.4524 YYYY=           -721.9782 ZZZZ=           -142.9599 XXXY=           -125.5955
 XXXZ=             -2.1657 YYYX=            -33.1462 YYYZ=              0.0249 ZZZX=              0.1663
 ZZZY=              0.0633 XXYY=          -1449.0728 XXZZ=          -1428.9270 YYZZ=           -160.1975
 XXYZ=             -0.5339 YYXZ=             -1.2771 ZZXY=             -4.1543
 N-N= 1.020772628545D+03 E-N=-4.557845684733D+03  KE= 1.065882903355D+03
 D1PCM: PCM CHGder 1st derivatives, ID1Alg=3 FixD1E=F DoIter=F DoCFld=F I1PDM=0.
 Calling FoFJK, ICntrl=      2127 FMM=F ISym2X=0 I1Cent= 0 IOpClX= 0 NMat=1 NMatS=1 NMatT=0.
 ***** Axes restored to original set *****
 -------------------------------------------------------------------
 Center     Atomic                   Forces (Hartrees/Bohr)
 Number     Number              X              Y              Z
 -------------------------------------------------------------------
      1        6          -0.004920021    0.001747027    0.000579369
      2        6           0.004377614   -0.005334294   -0.000799859
      3        6          -0.005830459    0.006557843    0.000969979
      4        7           0.017127953   -0.029369520   -0.003840105
      5        6          -0.011244450   -0.010242124    0.000068601
      6        8           0.001175698    0.037795480    0.002813325
      7        7           0.016216851   -0.019061209   -0.002976963
      8        6          -0.012551496    0.006212019    0.001920186
      9        6           0.007898687   -0.014506276   -0.002199444
     10        6          -0.000269176    0.002912756    0.000215985
     11        6          -0.004732645    0.001798077    0.000785071
     12        6          -0.013246528   -0.000059495    0.001469490
     13        6           0.011103919   -0.003991227   -0.001666751
     14        1           0.006142591    0.008993537    0.000058829
     15        1           0.000013740   -0.005386317    0.008785621
     16        1          -0.001767604   -0.004089125   -0.009256965
     17        1           0.002274812    0.003104805    0.009289989
     18        1           0.000396493    0.004444106   -0.009017286
     19        1          -0.000605966   -0.002882436   -0.010120818
     20        1           0.001297898   -0.004286773    0.009514248
     21        1          -0.002216734    0.014531157    0.001353081
     22        1           0.005128299    0.012859271    0.000488630
     23        1          -0.006210785    0.000591610    0.000728028
     24        1          -0.002071833   -0.002324507   -0.000004090
     25        1           0.001235402   -0.001531826   -0.000275656
     26        6           0.000666989    0.009404017    0.000900128
     27       17          -0.005398572    0.000184941    0.000612468
     28        1          -0.010481428   -0.003824333    0.000771686
     29        1           0.002182442   -0.001156809   -0.010109317
     30        1           0.004308310   -0.003090375    0.008942541
 -------------------------------------------------------------------
 Cartesian Forces:  Max     0.037795480 RMS     0.008258827

 GradGradGradGradGradGradGradGradGradGradGradGradGradGradGradGradGradGrad
 Berny optimization.
 FormGI is forming the generalized inverse of G from B-inverse, IUseBI=4.
 GSVD:  received Info=                   1 from GESDD.
 Internal  Forces:  Max     0.037885543 RMS     0.006369297
 Search for a local minimum.
 Step number   1 out of a maximum of  157
 All quantities printed in internal units (Hartrees-Bohrs-Radians)
 Mixed Optimization -- RFO/linear search
 Second derivative matrix not updated -- first step.
 ITU=  0
     Eigenvalues ---    0.00329   0.00423   0.00676   0.00994   0.01161
     Eigenvalues ---    0.01452   0.01468   0.01631   0.01698   0.01927
     Eigenvalues ---    0.01949   0.01998   0.02046   0.02084   0.02098
     Eigenvalues ---    0.02122   0.02137   0.02160   0.02177   0.03756
     Eigenvalues ---    0.04435   0.04933   0.05553   0.05673   0.05783
     Eigenvalues ---    0.07026   0.07435   0.08033   0.09179   0.11975
     Eigenvalues ---    0.12669   0.16000   0.16000   0.16000   0.16000
     Eigenvalues ---    0.16000   0.16000   0.16000   0.16000   0.16000
     Eigenvalues ---    0.16000   0.16000   0.21964   0.22000   0.22000
     Eigenvalues ---    0.22004   0.22367   0.23481   0.24601   0.25000
     Eigenvalues ---    0.25000   0.25000   0.25000   0.25000   0.29145
     Eigenvalues ---    0.29411   0.29805   0.31677   0.32337   0.32338
     Eigenvalues ---    0.32404   0.32406   0.32502   0.32508   0.32548
     Eigenvalues ---    0.32552   0.32560   0.32892   0.35628   0.35649
     Eigenvalues ---    0.36666   0.37885   0.39573   0.40653   0.40977
     Eigenvalues ---    0.42441   0.42459   0.43853   0.44345   0.45563
     Eigenvalues ---    0.46285   0.51106   0.52286   0.95145
 RFO step:  Lambda=-1.53877015D-02 EMin= 3.28923124D-03
 Linear search not attempted -- first point.
 Iteration  1 RMS(Cart)=  0.09520897 RMS(Int)=  0.00136800
 Iteration  2 RMS(Cart)=  0.00402288 RMS(Int)=  0.00003040
 Iteration  3 RMS(Cart)=  0.00000151 RMS(Int)=  0.00003039
 Iteration  4 RMS(Cart)=  0.00000000 RMS(Int)=  0.00003039
 Variable       Old X    -DE/DX   Delta X   Delta X   Delta X     New X
                                 (Linear)    (Quad)   (Total)
    R1        2.88353   0.00106   0.00000   0.00338   0.00338   2.88691
    R2        2.09832  -0.01060   0.00000  -0.03109  -0.03109   2.06723
    R3        2.09934  -0.01007   0.00000  -0.02957  -0.02957   2.06977
    R4        2.09924  -0.01003   0.00000  -0.02946  -0.02946   2.06977
    R5        2.89702  -0.00719   0.00000  -0.02343  -0.02343   2.87360
    R6        2.10108  -0.00960   0.00000  -0.02828  -0.02828   2.07280
    R7        2.10110  -0.00961   0.00000  -0.02832  -0.02832   2.07278
    R8        2.74533   0.00010   0.00000   0.00025   0.00025   2.74558
    R9        2.10229  -0.01017   0.00000  -0.03002  -0.03002   2.07227
   R10        2.10231  -0.01013   0.00000  -0.02991  -0.02991   2.07240
   R11        2.57626  -0.00816   0.00000  -0.01516  -0.01516   2.56111
   R12        1.95066  -0.01462   0.00000  -0.03323  -0.03323   1.91743
   R13        2.30649   0.03789   0.00000   0.03919   0.03919   2.34567
   R14        2.58765   0.00254   0.00000   0.00483   0.00483   2.59248
   R15        2.72137  -0.02915   0.00000  -0.07091  -0.07091   2.65047
   R16        1.95043  -0.01324   0.00000  -0.03009  -0.03009   1.92034
   R17        2.67592  -0.01581   0.00000  -0.03615  -0.03614   2.63978
   R18        2.65745  -0.00777   0.00000  -0.01687  -0.01685   2.64061
   R19        2.65879  -0.00628   0.00000  -0.01426  -0.01428   2.64451
   R20        2.03053   0.00481   0.00000   0.01259   0.01259   2.04311
   R21        2.63433  -0.00815   0.00000  -0.01634  -0.01632   2.61801
   R22        2.04667   0.00267   0.00000   0.00718   0.00718   2.05385
   R23        2.63643  -0.00227   0.00000  -0.00408  -0.00409   2.63234
   R24        2.04634   0.00197   0.00000   0.00529   0.00529   2.05162
   R25        2.66521  -0.01132   0.00000  -0.02484  -0.02486   2.64035
   R26        3.32854  -0.00520   0.00000  -0.01679  -0.01679   3.31174
   R27        2.84739   0.00076   0.00000   0.00228   0.00228   2.84966
   R28        2.09242  -0.01111   0.00000  -0.03226  -0.03226   2.06016
   R29        2.09852  -0.01007   0.00000  -0.02953  -0.02953   2.06898
   R30        2.09846  -0.01006   0.00000  -0.02952  -0.02952   2.06893
    A1        1.91260   0.00286   0.00000   0.01768   0.01755   1.93016
    A2        1.92554   0.00208   0.00000   0.01123   0.01116   1.93670
    A3        1.92603   0.00205   0.00000   0.01095   0.01088   1.93691
    A4        1.89657  -0.00228   0.00000  -0.01160  -0.01173   1.88484
    A5        1.89689  -0.00229   0.00000  -0.01182  -0.01194   1.88495
    A6        1.90570  -0.00257   0.00000  -0.01725  -0.01727   1.88843
    A7        1.94138  -0.00171   0.00000  -0.00355  -0.00352   1.93786
    A8        1.90069   0.00187   0.00000   0.01645   0.01644   1.91713
    A9        1.90149   0.00179   0.00000   0.01575   0.01574   1.91722
   A10        1.91085  -0.00021   0.00000  -0.00516  -0.00519   1.90567
   A11        1.91045  -0.00015   0.00000  -0.00481  -0.00484   1.90561
   A12        1.89845  -0.00160   0.00000  -0.01895  -0.01911   1.87934
   A13        1.93750  -0.00433   0.00000  -0.01522  -0.01517   1.92233
   A14        1.90561   0.00171   0.00000   0.00856   0.00858   1.91419
   A15        1.90559   0.00169   0.00000   0.00885   0.00889   1.91448
   A16        1.90677   0.00157   0.00000   0.00849   0.00852   1.91530
   A17        1.90562   0.00168   0.00000   0.00976   0.00979   1.91541
   A18        1.90243  -0.00232   0.00000  -0.02072  -0.02073   1.88170
   A19        2.12684  -0.00344   0.00000  -0.01463  -0.01463   2.11221
   A20        2.07751  -0.00028   0.00000  -0.00410  -0.00410   2.07341
   A21        2.07883   0.00372   0.00000   0.01873   0.01873   2.09757
   A22        2.08076   0.01487   0.00000   0.05604   0.05604   2.13680
   A23        2.08448  -0.02616   0.00000  -0.09856  -0.09856   1.98591
   A24        2.11794   0.01129   0.00000   0.04253   0.04253   2.16047
   A25        2.23547  -0.00091   0.00000  -0.00386  -0.00386   2.23161
   A26        2.02610   0.00444   0.00000   0.02464   0.02464   2.05074
   A27        2.02161  -0.00353   0.00000  -0.02079  -0.02079   2.00082
   A28        2.17491  -0.00013   0.00000  -0.00012  -0.00014   2.17477
   A29        2.05165  -0.00677   0.00000  -0.02513  -0.02515   2.02650
   A30        2.05662   0.00690   0.00000   0.02525   0.02528   2.08191
   A31        2.11524   0.00047   0.00000   0.00008   0.00006   2.11531
   A32        2.13826  -0.00434   0.00000  -0.02345  -0.02345   2.11481
   A33        2.02968   0.00387   0.00000   0.02338   0.02338   2.05306
   A34        2.11705  -0.00476   0.00000  -0.01851  -0.01846   2.09859
   A35        2.09912   0.00075   0.00000  -0.00005  -0.00007   2.09905
   A36        2.06702   0.00401   0.00000   0.01855   0.01853   2.08555
   A37        2.10438  -0.00321   0.00000  -0.01048  -0.01047   2.09392
   A38        2.08301   0.00133   0.00000   0.00367   0.00366   2.08668
   A39        2.09579   0.00188   0.00000   0.00681   0.00680   2.10259
   A40        2.08804   0.00599   0.00000   0.02441   0.02438   2.11242
   A41        2.05552  -0.00033   0.00000  -0.00217  -0.00216   2.05337
   A42        2.13962  -0.00566   0.00000  -0.02224  -0.02222   2.11740
   A43        2.08503  -0.00540   0.00000  -0.02076  -0.02080   2.06423
   A44        2.06171  -0.00001   0.00000   0.00018   0.00020   2.06190
   A45        2.13645   0.00540   0.00000   0.02058   0.02060   2.15705
   A46        1.97683  -0.00255   0.00000  -0.01324  -0.01319   1.96363
   A47        1.91044   0.00260   0.00000   0.01419   0.01419   1.92463
   A48        1.91072   0.00258   0.00000   0.01406   0.01406   1.92477
   A49        1.88181   0.00018   0.00000   0.00233   0.00238   1.88419
   A50        1.88202   0.00018   0.00000   0.00226   0.00230   1.88432
   A51        1.90048  -0.00317   0.00000  -0.02074  -0.02079   1.87968
    D1       -3.14107   0.00000   0.00000   0.00009   0.00009  -3.14097
    D2        1.03467   0.00011   0.00000  -0.00204  -0.00202   1.03265
    D3       -1.03359  -0.00008   0.00000   0.00221   0.00219  -1.03141
    D4        1.05460  -0.00027   0.00000  -0.00366  -0.00369   1.05091
    D5       -1.05285  -0.00016   0.00000  -0.00580  -0.00581  -1.05866
    D6       -3.12111  -0.00035   0.00000  -0.00155  -0.00160  -3.12271
    D7       -1.05285   0.00024   0.00000   0.00343   0.00346  -1.04939
    D8        3.12289   0.00035   0.00000   0.00129   0.00134   3.12423
    D9        1.05463   0.00016   0.00000   0.00554   0.00555   1.06017
   D10       -3.13812  -0.00007   0.00000  -0.00129  -0.00129  -3.13941
   D11        1.04192  -0.00041   0.00000  -0.00782  -0.00781   1.03411
   D12       -1.03642   0.00039   0.00000   0.00701   0.00701  -1.02941
   D13       -1.03666   0.00104   0.00000   0.01359   0.01356  -1.02310
   D14       -3.13980   0.00070   0.00000   0.00706   0.00703  -3.13277
   D15        1.06505   0.00150   0.00000   0.02189   0.02185   1.08690
   D16        1.04287  -0.00112   0.00000  -0.01552  -0.01549   1.02738
   D17       -1.06027  -0.00146   0.00000  -0.02205  -0.02201  -1.08229
   D18       -3.13861  -0.00066   0.00000  -0.00722  -0.00720   3.13738
   D19       -3.14118   0.00003   0.00000   0.00080   0.00079  -3.14038
   D20        0.00171   0.00000   0.00000   0.00002   0.00002   0.00172
   D21       -1.03872   0.00045   0.00000   0.00736   0.00735  -1.03138
   D22        2.10416   0.00043   0.00000   0.00658   0.00657   2.11073
   D23        1.04032  -0.00044   0.00000  -0.00697  -0.00696   1.03337
   D24       -2.09998  -0.00047   0.00000  -0.00775  -0.00773  -2.10772
   D25        0.00171   0.00002   0.00000   0.00044   0.00044   0.00215
   D26       -3.13725  -0.00008   0.00000  -0.00232  -0.00233  -3.13958
   D27       -3.14117   0.00004   0.00000   0.00121   0.00121  -3.13996
   D28        0.00305  -0.00006   0.00000  -0.00156  -0.00156   0.00149
   D29        3.14158   0.00011   0.00000   0.00312   0.00311  -3.13850
   D30        0.00407   0.00015   0.00000   0.00411   0.00411   0.00819
   D31        0.00267   0.00001   0.00000   0.00028   0.00028   0.00295
   D32       -3.13483   0.00005   0.00000   0.00127   0.00128  -3.13355
   D33        0.02168   0.00009   0.00000   0.00320   0.00319   0.02487
   D34       -3.12088   0.00005   0.00000   0.00199   0.00199  -3.11888
   D35       -3.12399   0.00006   0.00000   0.00230   0.00230  -3.12169
   D36        0.01664   0.00003   0.00000   0.00109   0.00111   0.01774
   D37        3.14151  -0.00003   0.00000  -0.00096  -0.00097   3.14053
   D38        0.00180  -0.00005   0.00000  -0.00134  -0.00135   0.00045
   D39        0.00088   0.00001   0.00000   0.00028   0.00028   0.00116
   D40       -3.13883  -0.00001   0.00000  -0.00010  -0.00009  -3.13892
   D41        3.14090   0.00005   0.00000   0.00150   0.00150  -3.14079
   D42        0.00053   0.00003   0.00000   0.00085   0.00085   0.00138
   D43       -0.00159   0.00001   0.00000   0.00035   0.00036  -0.00123
   D44        3.14122  -0.00001   0.00000  -0.00029  -0.00029   3.14094
   D45        0.00039  -0.00002   0.00000  -0.00051  -0.00051  -0.00012
   D46       -3.14085  -0.00001   0.00000  -0.00027  -0.00027  -3.14112
   D47        3.14021  -0.00001   0.00000  -0.00020  -0.00019   3.14002
   D48       -0.00103  -0.00000   0.00000   0.00004   0.00004  -0.00099
   D49        0.00102  -0.00003   0.00000  -0.00076  -0.00075   0.00026
   D50       -3.14057  -0.00001   0.00000  -0.00038  -0.00037  -3.14094
   D51        3.14141  -0.00001   0.00000  -0.00014  -0.00013   3.14128
   D52       -0.00018   0.00001   0.00000   0.00025   0.00025   0.00008
   D53        0.00031   0.00002   0.00000   0.00050   0.00050   0.00081
   D54        3.14145   0.00002   0.00000   0.00054   0.00054  -3.14119
   D55       -3.14129   0.00000   0.00000   0.00011   0.00012  -3.14117
   D56       -0.00015   0.00000   0.00000   0.00015   0.00016   0.00001
   D57       -0.00100   0.00000   0.00000   0.00012   0.00012  -0.00088
   D58        3.14023  -0.00000   0.00000  -0.00014  -0.00014   3.14009
   D59        3.14107   0.00000   0.00000   0.00007   0.00007   3.14114
   D60       -0.00089  -0.00001   0.00000  -0.00018  -0.00018  -0.00107
   D61       -3.14152   0.00000   0.00000  -0.00007  -0.00008  -3.14159
   D62        1.04127  -0.00038   0.00000  -0.00430  -0.00426   1.03700
   D63       -1.04065   0.00036   0.00000   0.00396   0.00392  -1.03673
   D64        0.00044   0.00001   0.00000   0.00018   0.00018   0.00062
   D65       -2.09997  -0.00037   0.00000  -0.00404  -0.00400  -2.10397
   D66        2.10130   0.00037   0.00000   0.00422   0.00418   2.10548
         Item               Value     Threshold  Converged?
 Maximum Force            0.037886     0.000450     NO 
 RMS     Force            0.006369     0.000300     NO 
 Maximum Displacement     0.339003     0.001800     NO 
 RMS     Displacement     0.096023     0.001200     NO 
 Predicted change in Energy=-8.070955D-03
 GradGradGradGradGradGradGradGradGradGradGradGradGradGradGradGradGradGrad

                          Input orientation:                          
 ---------------------------------------------------------------------
 Center     Atomic      Atomic             Coordinates (Angstroms)
 Number     Number       Type             X           Y           Z
 ---------------------------------------------------------------------
      1          6           0       -1.698667    1.784458    0.309282
      2          6           0       -0.317824    1.157145    0.126038
      3          6           0        0.765832    2.223397    0.092158
      4          7           0        2.069229    1.606561   -0.085555
      5          6           0        3.195396    2.358220   -0.145048
      6          8           0        3.175526    3.595703   -0.050151
      7          7           0        4.341722    1.624650   -0.317878
      8          6           0        5.659111    2.096171   -0.414566
      9          6           0        6.029915    3.439581   -0.319083
     10          6           0        6.645558    1.127640   -0.618167
     11          6           0        7.976048    1.498627   -0.725289
     12          6           0        8.333952    2.841437   -0.629665
     13          6           0        7.369237    3.831201   -0.424992
     14          1           0       -2.472296    1.011408    0.333276
     15          1           0       -1.930217    2.469430   -0.513414
     16          1           0       -1.752582    2.346487    1.247815
     17          1           0       -0.289957    0.584991   -0.809379
     18          1           0       -0.112901    0.460988    0.948529
     19          1           0        0.751001    2.794755    1.028030
     20          1           0        0.571287    2.921986   -0.730524
     21          1           0        2.125188    0.596617   -0.165646
     22          1           0        4.246476    0.615577   -0.391115
     23          1           0        5.292263    4.213704   -0.159311
     24          1           0        6.375019    0.077750   -0.694236
     25          1           0        8.733297    0.737008   -0.884012
     26          6           0        7.691896    5.299836   -0.310992
     27         17           0       10.033828    3.242318   -0.774475
     28          1           0        8.759030    5.501320   -0.406601
     29          1           0        7.360833    5.686870    0.658191
     30          1           0        7.170459    5.864583   -1.090621
 ---------------------------------------------------------------------
                    Distance matrix (angstroms):
                    1          2          3          4          5
     1  C    0.000000
     2  C    1.527687   0.000000
     3  C    2.512680   1.520641   0.000000
     4  N    3.792701   2.438189   1.452898   0.000000
     5  C    4.948482   3.722738   2.444837   1.355280   0.000000
     6  O    5.212250   4.263929   2.776707   2.276363   1.241275
     7  N    6.074962   4.703934   3.648784   2.284410   1.371881
     8  C    7.399866   6.074354   4.921092   3.638025   2.492228
     9  C    7.928761   6.760284   5.418376   4.370530   3.038771
    10  C    8.421262   7.003099   6.022991   4.632043   3.693478
    11  C    9.734071   8.344440   7.292512   5.942341   4.891851
    12  C   10.131746   8.846534   7.627546   6.408411   5.183928
    13  C    9.324976   8.157518   6.815969   5.757979   4.434973
    14  H    1.093930   2.169317   3.465909   4.599465   5.845120
    15  H    1.095276   2.175041   2.774154   4.113779   5.140036
    16  H    1.095276   2.175189   2.773644   4.114803   5.140301
    17  H    2.162079   1.096879   2.147517   2.670821   3.966530
    18  H    2.162143   1.096868   2.147470   2.672706   3.967396
    19  H    2.745573   2.153542   1.096598   2.095138   2.746223
    20  H    2.743694   2.153806   1.096667   2.095270   2.747101
    21  H    4.032169   2.523406   2.135585   1.014658   2.061313
    22  H    6.099308   4.625319   3.864392   2.411602   2.049908
    23  H    7.415788   6.395080   4.951075   4.146153   2.799978
    24  H    8.312900   6.828769   6.056831   4.609510   3.951221
    25  H   10.552107   9.116989   8.163501   6.767825   5.817451
    26  C   10.046158   9.028205   7.589293   6.730935   5.375793
    27  Cl  11.872292  10.597904   9.364028   8.159973   6.924013
    28  H   11.121644  10.076945   8.653598   7.747623   6.395429
    29  H    9.870415   8.931034   7.470615   6.723329   5.392214
    30  H    9.862481   8.928303   7.461665   6.720376   5.384219
                    6          7          8          9         10
     6  O    0.000000
     7  N    2.305806   0.000000
     8  C    2.923968   1.402567   0.000000
     9  C    2.871278   2.478704   1.396911   0.000000
    10  C    4.295940   2.375889   1.397349   2.411128   0.000000
    11  C    5.281908   3.659260   2.412841   2.778442   1.385392
    12  C    5.245390   4.185174   2.785043   2.400589   2.405808
    13  C    4.217010   3.747824   2.436178   1.399416   2.805400
    14  H    6.222820   6.872475   8.237461   8.866182   9.168097
    15  H    5.248973   6.331596   7.599145   8.021388   8.680742
    16  H    5.247047   6.333482   7.599958   8.013569   8.688856
    17  H    4.652997   4.772307   6.150687   6.951968   6.959338
    18  H    4.651618   4.775099   6.152071   6.943562   6.969629
    19  H    2.771698   4.009226   5.163201   5.486114   6.343109
    20  H    2.774682   4.008683   5.164083   5.498528   6.334750
    21  H    3.179789   2.448071   3.846978   4.832482   4.573893
    22  H    3.185018   1.016201   2.046521   3.340784   2.463605
    23  H    2.207809   2.762585   2.164181   1.081168   3.400845
    24  H    4.798707   2.582410   2.159807   3.400257   1.086851
    25  H    6.305257   4.516009   3.393865   3.864106   2.140542
    26  C    4.834223   4.972997   3.795577   2.494553   4.312354
    27  Cl   6.905494   5.935099   4.536666   4.034553   3.997083
    28  H    5.910495   5.877844   4.604845   3.421476   4.862161
    29  H    4.731969   5.154549   4.115797   2.788676   4.788245
    30  H    4.710614   5.155183   4.116084   2.788682   4.789297
                   11         12         13         14         15
    11  C    0.000000
    12  C    1.392975   0.000000
    13  C    2.428847   1.397211   0.000000
    14  H   10.513127  11.002330  10.265572   0.000000
    15  H    9.955975  10.271567   9.399047   1.771033   0.000000
    16  H    9.962843  10.271713   9.392030   1.771103   1.774429
    17  H    8.316768   8.916034   8.327597   2.500019   2.515781
    18  H    8.325230   8.916646   8.320293   2.499649   3.077946
    19  H    7.546879   7.762170   6.854673   3.748687   3.109794
    20  H    7.540322   7.763738   6.865285   3.747716   2.551366
    21  H    5.946375   6.618405   6.166833   4.643041   4.480477
    22  H    3.847227   4.660346   4.482523   6.769293   6.450059
    23  H    3.859362   3.369900   2.128547   8.413425   7.438555
    24  H    2.140829   3.388149   3.892217   8.955584   8.644638
    25  H    1.085671   2.157032   3.412533  11.274856  10.809678
    26  C    3.834263   2.560764   1.507977  11.050633  10.031811
    27  Cl   2.697654   1.752499   2.751176  12.751753  11.991826
[...]
 05,0.00064885,0.00038576,-0.00022317,-0.00016527,-0.00042525,0.0000007
 0,0.00464402,0.05657956,0.03741249,-0.00000593,-0.00001480,0.00000308,
 -0.00001530,0.00003351,-0.00000448,0.00005347,-0.00008326,-0.00000064,
 -0.00039042,0.00001956,-0.00006212,0.00052157,-0.00077582,0.00041907,-
 0.00009195,0.00031839,-0.00008378,-0.00152936,0.00122247,0.00029236,-0
 .00232906,-0.00328489,0.00192272,-0.00044771,-0.00066063,-0.00032856,-
 0.01395713,0.01898605,0.01028177,-0.18960453,0.12860655,0.07700589,0.0
 0718809,-0.00751672,-0.00292283,0.00059815,-0.00237432,0.00094852,-0.0
 0000688,0.00000186,0.00000031,-0.00000019,0.00000077,-0.00000082,-0.00
 000044,0.00000083,0.00000040,0.00000072,-0.00000234,-0.00000112,0.0000
 0070,-0.00000207,0.00000160,-0.00001729,0.00001180,0.00000522,-0.00001
 912,0.00000838,-0.00000235,0.00001334,0.00003833,0.00000242,0.00002618
 ,0.00009843,-0.00008857,0.00002348,0.00016976,-0.00012020,0.00098180,0
 .00034879,-0.00147243,0.19768303,-0.00000179,-0.00000320,0.00000091,-0
 .00000487,0.00000743,-0.00000165,0.00000241,-0.00002652,-0.00000851,-0
 .00007865,0.00003420,-0.00002536,-0.00005911,-0.00011387,0.00017884,-0
 .00002636,0.00002694,-0.00000549,-0.00036160,0.00060933,0.00007704,-0.
 00309879,0.00049848,-0.00076557,-0.00096508,-0.00037899,0.00041411,-0.
 00803587,0.01097856,0.00421856,0.12687079,-0.17998744,-0.07259968,0.02
 024879,-0.01429256,-0.01031438,-0.00328567,-0.00390608,-0.00143309,-0.
 00000140,0.00000065,0.00000008,0.00000011,0.,0.00000007,-0.00000006,0.
 00000013,0.00000004,-0.00000010,-0.00000024,0.00000004,0.00000017,-0.0
 0000037,0.00000027,-0.00000014,0.00000170,0.00000128,-0.00000345,0.000
 00167,-0.00000030,0.00000521,0.00000747,0.00000145,0.00002868,-0.00000
 177,-0.00005573,0.00013746,0.00003201,0.00007909,0.00078070,0.00034288
 ,0.00100606,-0.13412382,0.18663240,0.00000154,0.00000355,-0.00000109,0
 .00000227,-0.00000922,0.00000279,-0.00001152,0.00002043,-0.00000268,0.
 00008709,-0.00000510,-0.00000480,-0.00015742,0.00009198,-0.00009113,0.
 00008214,-0.00004890,0.00003096,0.00035599,-0.00031536,-0.00007363,0.0
 0200909,-0.00092033,0.00649230,-0.00023057,0.00054070,-0.00076354,0.00
 306766,-0.00399398,0.00225689,0.07661097,-0.07317305,-0.07818234,0.003
 72873,-0.00185077,0.00178193,0.00091825,-0.00169525,0.00502900,0.00000
 198,-0.00000054,-0.00000004,-0.00000002,-0.00000013,0.00000010,0.00000
 020,-0.00000032,-0.00000019,0.00000056,0.00000091,0.00000046,-0.000000
 08,0.00000082,-0.00000072,0.00000594,-0.00000168,-0.00000115,0.0000051
 1,-0.00000169,0.00000062,-0.00000575,-0.00001351,-0.00000205,-0.000000
 21,-0.00001235,0.00001092,-0.00010641,0.00009353,-0.00047216,-0.001396
 24,0.00113870,-0.00385746,-0.08427852,0.07918628,0.07000472,-0.0000018
 5,-0.00000730,0.00000221,-0.00000752,0.00001621,-0.00000190,0.00004363
 ,-0.00004753,0.00000808,-0.00021387,-0.00001832,-0.00001388,0.00051104
 ,-0.00021141,0.00015113,-0.00022091,0.00014062,-0.00003353,-0.00012517
 ,-0.00134766,-0.00040697,-0.00261636,0.00111278,0.00404517,-0.00794670
 ,-0.03081650,-0.00387426,-0.00015900,-0.00155090,-0.00056397,-0.004232
 94,0.00265156,0.00344466,0.00942054,0.01902322,0.00296089,-0.09327534,
 -0.03055443,-0.00156849,-0.00000381,0.00000143,0.00000003,-0.00000043,
 0.00000052,-0.00000046,-0.00000021,0.00000097,0.00000069,-0.00000069,-
 0.00000113,-0.00000046,0.00000064,-0.00000091,0.00000086,-0.00001363,0
 .00000941,0.00000393,-0.00000946,0.00000479,-0.00000206,0.00001090,0.0
 0002372,-0.00001132,-0.00036695,-0.00003809,-0.00011230,0.00044850,-0.
 00110021,-0.00195591,0.00014418,0.00001985,-0.00020511,0.00058928,0.00
 126044,0.00011931,0.59136046,0.00000015,0.00000311,-0.00000033,0.00000
 181,-0.00000791,-0.00000114,-0.00002593,0.00001862,-0.00000464,0.00010
 830,0.00003600,-0.00001841,-0.00021594,0.00011552,0.00001411,0.0001560
 5,-0.00002006,0.00008009,0.00047672,0.00021109,-0.00006473,-0.00038295
 ,0.00233018,-0.00142595,-0.00892612,-0.01276146,-0.00240835,0.00008806
 ,-0.00084756,0.00009313,0.00152060,0.00155604,-0.00147997,0.00182185,-
 0.02377759,-0.00727368,-0.03780884,-0.21603816,-0.02635754,0.00000206,
 -0.00000049,-0.00000005,0.00000047,-0.00000041,0.00000052,0.00000004,-
 0.00000073,-0.00000079,0.00000062,0.00000081,0.00000035,-0.00000059,0.
 00000079,-0.00000046,0.00000840,-0.00000439,-0.00000256,0.00000499,-0.
 00000277,0.00000253,0.00000473,-0.00001276,-0.00000036,0.00008407,0.00
 000568,0.00000024,0.00202650,0.00062924,0.00072363,-0.00001960,-0.0000
 0987,0.00014193,-0.00029926,-0.00014842,0.00002030,-0.02700580,0.51428
 867,0.00000084,0.00000339,-0.00000233,0.00000183,-0.00000371,0.0000020
 2,0.00000405,0.00000196,0.00000732,0.00003893,-0.00002846,0.00002922,-
 0.00010288,0.00007309,-0.00007837,-0.00003374,-0.00009720,-0.00000678,
 -0.00018247,0.00018647,0.00005378,0.00360432,-0.00134959,0.00710047,0.
 00142111,0.00386964,0.00692273,-0.00003079,0.00057214,-0.00098459,0.00
 307253,-0.00217421,0.00387027,-0.00176745,-0.01195118,0.00036095,-0.00
 253453,-0.02854252,-0.07828303,0.00000059,0.00000046,-0.00000011,-0.00
 000033,-0.00000026,0.00000064,0.00000053,-0.00000039,-0.00000029,-0.00
 000127,0.00000059,0.00000055,0.00000160,0.00000037,-0.00000067,0.00000
 078,-0.00000065,-0.00000033,0.00000214,-0.00000159,-0.00000087,-0.0000
 1182,-0.00000051,-0.00000637,0.00003220,0.00003768,-0.00014902,-0.0009
 1140,0.00181724,-0.00399538,-0.00019341,0.00011317,-0.00045636,-0.0002
 3371,-0.00044216,0.00006919,-0.01710693,-0.00226378,0.56069568,-0.0000
 1865,-0.00004684,0.00000912,-0.00003150,0.00010857,-0.00000794,0.00027
 484,-0.00020989,0.00011876,-0.00149057,-0.00036373,0.00002580,0.003281
 86,-0.00235058,-0.00004324,-0.00085426,0.00114113,-0.00038660,-0.00504
 906,-0.00017546,0.00061735,0.00231161,0.00148868,-0.00064220,-0.000011
 65,0.00458041,0.00322848,0.00264294,-0.00298239,-0.00043558,-0.0281678
 2,-0.00929394,0.00687886,-0.14113021,-0.03401062,0.02766469,-0.0365010
 6,-0.01198981,0.00900042,-0.00002417,0.00000611,0.00000005,-0.00000139
 ,0.00000310,-0.00000266,-0.00000163,0.00000272,0.00000116,0.00000156,-
 0.00000914,-0.00000290,0.00000121,-0.00000760,0.00000409,-0.00010755,0
 .00005017,0.00001811,-0.00006898,0.00002817,-0.00001130,0.00001330,0.0
 0014989,0.00000125,-0.00020140,0.00029692,0.00024975,-0.00140090,-0.00
 104374,0.00028807,-0.00129078,-0.00031687,0.00039391,0.00075613,0.0008
 8640,-0.00073948,-0.00166499,-0.00260975,-0.00105826,0.20744402,-0.000
 00596,-0.00001436,0.00000325,-0.00000988,0.00003315,-0.00000269,0.0000
 7577,-0.00006467,0.00002279,-0.00044178,-0.00008889,-0.00002026,0.0009
 7941,-0.00080216,0.00007178,-0.00018802,0.00041355,-0.00007159,-0.0015
 7318,0.00018285,0.00039626,0.00028773,0.00116832,0.00030406,0.00021147
 ,-0.00233749,-0.00170802,0.00202837,-0.00379755,-0.00277376,-0.0353585
 4,-0.00750412,0.00803372,-0.03539616,-0.04933158,0.00364104,0.00993502
 ,0.00489521,-0.00250218,-0.00000705,0.00000185,0.,-0.00000040,0.000000
 76,-0.00000077,-0.00000064,0.00000086,0.00000041,0.00000084,-0.0000025
 1,-0.00000069,0.00000047,-0.00000262,0.00000140,-0.00002995,0.00001560
 ,0.00000684,-0.00002327,0.00000719,-0.00000151,0.00000805,0.00004387,-
 0.00000339,-0.00000702,0.00008647,0.00005486,0.00036841,0.00034493,-0.
 00007904,-0.00133639,-0.00022116,0.00026895,-0.00072936,0.00015339,0.0
 0101126,0.00470669,-0.00212618,-0.00142569,0.05488608,0.05840232,0.000
 00555,0.00001190,-0.00000333,0.00000594,-0.00002652,0.00000247,-0.0000
 5913,0.00004736,-0.00000552,0.00032497,0.00010307,0.00004075,-0.000856
 90,0.00046112,-0.00007235,0.00036819,-0.00024280,0.00012317,0.00099525
 ,0.00003089,-0.00085001,-0.00087450,0.00003581,-0.00021017,0.00173361,
 -0.00292048,0.00317030,0.00089339,-0.00135413,0.00443342,0.00065113,0.
 00050897,0.00250862,0.02734471,0.00295667,-0.02815091,0.01406961,0.004
 04321,-0.00026297,0.00000560,-0.00000130,-0.00000015,0.00000006,-0.000
 00068,0.00000048,0.00000046,-0.00000062,-0.00000016,-0.00000055,0.0000
 0227,0.00000069,0.00000025,0.00000277,-0.00000188,0.00002120,-0.000012
 79,-0.00000619,0.00002102,-0.00000427,-0.00000197,-0.00000752,-0.00003
 543,0.00000596,0.00008086,-0.00003771,-0.00006053,0.00052330,0.0003328
 8,0.00002770,0.00014437,-0.00005950,0.00020487,-0.00125475,0.00052484,
 -0.00210991,0.00109230,0.00088767,-0.00253056,-0.04523355,-0.00495410,
 0.02369388,-0.00000053,-0.00000256,0.00000017,-0.00000155,0.00000558,0
 .00000004,0.00001302,-0.00001103,0.00000381,-0.00006907,-0.00002150,0.
 00000103,0.00014677,-0.00006051,0.00000774,-0.00007949,0.00002444,-0.0
 0002646,-0.00015002,-0.00015700,0.00001083,-0.00003722,-0.00033855,0.0
 0055565,0.00040496,-0.00120745,-0.00078377,0.00015098,0.00019907,-0.00
 004127,-0.00009046,-0.00056549,-0.00016265,-0.00129670,0.00132482,0.00
 121644,-0.00591715,-0.00356581,-0.00319918,-0.00000146,0.00000019,0.00
 000004,-0.00000005,0.00000019,-0.00000012,-0.00000015,0.00000048,0.000
 00027,0.,-0.00000047,-0.00000023,-0.00000004,-0.00000082,0.00000067,-0
 .00000470,0.00000302,0.00000095,-0.00000301,0.00000134,-0.00000019,0.0
 0000123,0.00000728,-0.00000176,-0.00005628,0.00000481,-0.00000354,0.00
 007481,-0.00007164,-0.00044521,-0.00000985,-0.00001814,-0.00007397,-0.
 00000071,-0.00005070,0.00000481,-0.20136013,-0.00763575,-0.13651688,0.
 00084544,0.00059113,0.00016326,0.21633461,-0.00000247,-0.00000630,0.00
 000163,-0.00000425,0.00001361,-0.00000108,0.00003278,-0.00002851,0.000
 00850,-0.00017208,-0.00003063,0.00000228,0.00037648,-0.00021287,0.0000
 5862,-0.00016838,0.00009160,-0.00004941,-0.00037396,-0.00033834,-0.000
 02143,0.00018287,-0.00037689,0.00142225,0.00040504,-0.00291622,-0.0008
 2074,-0.00028765,-0.00035173,-0.00017113,-0.00000266,-0.00007071,0.000
 90083,-0.00144505,0.00026212,0.00080744,-0.02505889,-0.00275382,-0.021
 78768,-0.00000300,0.00000078,0.00000005,-0.00000018,0.00000040,-0.0000
 0059,-0.00000026,0.00000052,0.00000035,0.00000031,-0.00000093,-0.00000
 016,0.,-0.00000112,0.00000065,-0.00001179,0.00000672,0.00000212,-0.000
 00792,0.00000354,-0.00000128,0.00000338,0.00001689,-0.00000339,-0.0001
 1074,0.00001675,-0.00004213,-0.00017542,0.00014702,-0.00053952,0.00000
 404,-0.00001607,-0.00003711,0.00007940,-0.00000041,-0.00003847,-0.0088
 6186,-0.04644280,-0.01039653,0.00085517,0.00001013,-0.00067884,0.01236
 441,0.05168113,-0.00000006,-0.00000089,0.00000021,-0.00000045,0.000001
 59,-0.00000037,0.00000332,-0.00000379,-0.00000196,-0.00001351,-0.00000
 034,0.00000261,0.00003292,-0.00000418,0.00001521,-0.00001392,0.0000027
 6,-0.00000167,0.00004684,-0.00003178,0.00001064,-0.00003321,0.00000985
 ,-0.00018235,0.00052530,0.00008039,-0.00049897,-0.00008591,-0.00009244
 ,-0.00004557,0.00007187,0.00000011,0.00006853,-0.00085367,-0.00075325,
 0.00094609,-0.00164158,-0.00057202,-0.00193318,-0.00000047,-0.00000009
 ,0.00000008,0.,0.00000016,-0.00000016,-0.00000002,0.00000030,0.0000002
 4,0.00000011,-0.00000011,-0.00000005,-0.00000001,-0.00000025,0.0000002
 6,-0.00000086,0.00000075,0.00000053,-0.00000062,0.00000053,-0.00000024
 ,-0.00000002,0.00000157,0.00000049,-0.00000611,0.00000323,-0.00000048,
 0.00003369,0.00004770,0.00014174,0.00001673,-0.00000149,0.00002735,0.0
 0000766,-0.00003084,-0.00001223,-0.13582326,-0.01069010,-0.16321671,0.
 00011768,0.00056989,-0.00011758,0.14883805,0.01082437,0.17317622,-0.00
 000001,0.00000206,0.00000008,0.00000122,-0.00000365,0.00000029,-0.0000
 0898,0.00000883,-0.00000318,0.00004251,0.00000759,-0.00000002,-0.00009
 553,0.00005308,0.00000712,0.00004835,-0.00002176,0.00001345,0.00011102
 ,0.00006813,-0.00002349,0.00018696,-0.00008994,-0.00011297,0.00059275,
 -0.00190768,-0.00074337,0.00012386,-0.00003366,-0.00002952,0.00030327,
 -0.00031176,-0.00005394,-0.00063615,-0.00204170,0.00006641,0.00691600,
 -0.00639836,-0.00429800,0.00000094,-0.00000015,-0.00000005,0.00000018,
 -0.00000022,0.00000038,0.00000022,-0.00000053,-0.00000053,0.00000021,0
 .00000021,0.00000014,-0.00000008,0.00000036,-0.00000039,0.00000325,-0.
 00000224,-0.00000144,0.00000209,-0.00000128,0.00000035,-0.00000095,-0.
 00000435,0.00000019,0.00002231,-0.00000381,-0.00000331,-0.00002558,-0.
 00008943,0.00005195,0.00000117,0.00000308,0.00000295,-0.00002149,-0.00
 010024,-0.00006274,-0.22183715,0.11227333,0.08181875,-0.00010790,0.000
 61423,0.00024924,-0.01661312,0.01092405,0.01000461,0.23727028,-0.00000
 060,-0.00000270,0.00000035,-0.00000193,0.00000626,-0.00000079,0.000014
 07,-0.00001278,0.00000430,-0.00007924,-0.00001136,-0.00000069,0.000183
 81,-0.00016960,0.00000716,-0.00002137,0.00009121,-0.00000338,-0.000298
 35,0.00005937,0.00006344,0.00043241,0.00004005,-0.00007497,0.00197001,
 0.00114253,-0.00024743,-0.00035065,0.00006333,0.00008644,0.00171330,-0
 .00036359,-0.00068500,-0.00343328,-0.00523156,-0.00062847,0.02532385,-
 0.01699884,-0.01164540,-0.00000135,0.00000030,0.00000003,-0.00000009,0
 .00000021,-0.00000033,-0.00000025,0.00000040,0.00000042,0.00000040,-0.
 00000027,-0.00000007,0.00000013,-0.00000065,0.00000036,-0.00000613,0.0
 0000298,0.00000189,-0.00000407,0.00000144,-0.00000083,0.00000143,0.000
 00711,-0.00000124,0.00000883,0.00002844,0.00000851,-0.00089258,0.00006
 722,0.00021923,-0.00006945,0.00000103,0.00001577,-0.00016094,-0.000440
 63,-0.00001230,0.10685896,-0.11702949,-0.05054418,-0.00036121,0.000442
 81,0.00018163,-0.00189972,0.00067551,0.00191116,-0.11660941,0.12937597
 ,-0.00000041,-0.00000171,0.00000039,-0.00000118,0.00000289,-0.00000043
 ,0.00000631,-0.00000467,0.00000272,-0.00003729,-0.00000185,-0.00000313
 ,0.00008329,-0.00009291,0.00002207,-0.00001473,0.00004623,-0.00001635,
 -0.00014457,0.00001784,-0.00000588,0.00003125,0.00008805,-0.00012345,0
 .00027996,0.00086315,0.00003347,-0.00012107,0.00001152,0.00006007,0.00
 046056,-0.00009099,0.00018206,-0.00035453,-0.00104931,0.00097550,0.003
 99747,-0.00202010,-0.00348378,-0.00000060,0.00000018,0.00000002,-0.000
 00031,0.00000017,-0.00000048,-0.00000008,0.00000016,0.00000034,0.00000
 017,-0.00000024,-0.00000006,0.00000016,0.00000013,-0.00000005,-0.00000
 289,0.00000115,0.00000089,-0.00000201,0.00000062,-0.00000097,0.0000008
 8,0.00000250,0.00000028,-0.00000133,0.00000674,-0.00000286,-0.00015413
 ,0.00000552,0.00018746,-0.00001728,-0.00000189,0.00000726,-0.00007494,
 -0.00005398,-0.00011452,0.08041180,-0.05210581,-0.08645261,-0.00000546
 ,-0.00008989,0.00014566,-0.01642862,0.01178522,0.00959772,-0.08862621,
 0.05741387,0.08745172,-0.00000096,-0.00000262,0.00000002,-0.00000196,0
 .00000497,-0.00000021,0.00001076,-0.00000864,0.00000763,-0.00006294,-0
 .00000861,-0.00000356,0.00014587,-0.00010130,0.00002403,-0.00003577,0.
 00004855,-0.00003216,-0.00014738,-0.00013555,0.00000679,-0.00048789,-0
 .00004333,-0.00070295,0.00016491,-0.00138954,-0.00038918,0.00013273,0.
 00015135,0.00000978,-0.00012111,-0.00042188,-0.00009821,-0.00080438,0.
 00149304,0.00061841,-0.00428985,-0.00576870,0.00598597,-0.00000102,0.0
 0000029,0.,-0.00000028,0.00000026,-0.00000041,-0.00000012,0.00000011,0
 .00000016,0.00000023,-0.00000050,-0.00000026,0.00000023,-0.00000001,-0
 .00000005,-0.00000424,0.00000184,0.00000049,-0.00000316,0.00000151,-0.
 00000098,0.00000229,0.00000676,0.00000083,-0.00004687,0.00000188,0.000
 01948,0.00027453,-0.00028563,0.00035192,0.00002462,-0.00005157,0.00007
 265,0.00000157,-0.00002346,-0.00001269,-0.06847207,-0.03364824,0.07068
 569,0.00055156,0.00041394,-0.00040736,0.00771984,0.01145867,-0.0212250
 8,-0.00627964,-0.01231658,0.02071579,0.07173052,-0.00000148,-0.0000053
 3,0.00000125,-0.00000392,0.00001266,-0.00000107,0.00002898,-0.00002859
 ,0.00000723,-0.00015641,-0.00002906,-0.00000140,0.00034040,-0.00016327
 ,0.00005147,-0.00017775,0.00009539,-0.00004290,-0.00027848,-0.00018155
 ,-0.00005351,-0.00059449,0.00004264,-0.00109061,0.00092541,-0.00268535
 ,-0.00092013,-0.00023097,-0.00042027,0.00018535,-0.00038314,0.00036481
 ,-0.00069679,-0.00217338,0.00024435,-0.00007141,-0.00982291,-0.0154399
 4,0.02602406,-0.00000287,0.00000068,0.00000008,-0.00000021,0.00000048,
 -0.00000058,-0.00000021,0.00000057,0.00000040,0.00000005,-0.00000110,-
 0.00000034,-0.00000010,-0.00000107,0.00000044,-0.00000979,0.00000592,0
 .00000223,-0.00000747,0.00000347,-0.00000150,0.00000462,0.00001481,0.0
 0000046,-0.00007037,0.00000569,0.00000738,0.00012682,-0.00012637,0.000
 45942,0.00001680,-0.00002304,0.00000733,0.00008335,-0.00002674,-0.0000
 1551,-0.03426913,-0.09996468,0.10254638,0.00128805,0.00009004,0.000198
 15,0.00108038,0.00062062,-0.00127279,0.00366522,0.00825529,-0.01473259
 ,0.04062299,0.10933895,-0.00000055,-0.00000038,0.00000014,-0.00000059,
 0.00000208,-0.00000045,0.00000409,-0.00000409,-0.00000119,-0.00002617,
 -0.00000483,-0.00000107,0.00006361,-0.00003253,0.00000074,-0.00001580,
 0.00002527,0.00000203,-0.00004804,-0.00003476,0.00002188,-0.00019085,0
 .00017202,-0.00038714,-0.00060134,-0.00046314,-0.00043054,-0.00015163,
 -0.00021481,-0.00000303,-0.00018784,0.00046014,-0.00019526,0.00107703,
 -0.00040154,0.00032579,-0.00227840,-0.00302613,0.00895067,-0.00000022,
 0.00000024,0.,0.00000013,-0.00000015,0.00000037,0.00000004,-0.00000007
 ,-0.00000014,-0.00000016,0.00000002,0.00000016,-0.00000002,-0.00000028
 ,0.00000005,-0.00000155,0.00000081,0.00000033,-0.00000131,0.00000040,0
 .00000030,0.00000160,0.00000270,-0.00000021,-0.00000640,-0.00000134,0.
 00001820,-0.00005605,-0.00002894,0.00019568,-0.00000661,0.00000515,-0.
 00000105,0.00003879,0.00004776,0.00000976,0.06943977,0.10213416,-0.242
 94846,-0.00004838,-0.00075295,0.00002623,0.00688011,0.00877518,-0.0179
 7641,0.00174325,0.00393052,-0.00846305,-0.07562651,-0.11059050,0.26085
 570\\0.00000070,-0.00000345,0.00000050,0.00000058,-0.00000315,-0.00000
 027,0.00000247,-0.00000099,0.00000043,0.00000409,0.00000031,-0.0000020
 7,-0.00000555,-0.00000531,0.00000230,-0.00000217,0.00000256,-0.0000007
 4,0.00000284,-0.00000161,0.00000017,0.00000088,0.00000065,-0.00000103,
 -0.00000088,0.00000136,-0.00000009,0.00000021,0.00000195,0.00000013,0.
 00000052,0.00000224,-0.00000031,-0.00000198,0.00000262,0.00000045,-0.0
 0000052,0.00000262,-0.00000045,0.00000096,-0.00000418,0.00000060,0.000
 00019,-0.00000410,0.00000053,-0.00000022,-0.00000375,0.00000026,0.0000
 0121,-0.00000294,0.00000054,0.00000130,-0.00000212,0.00000038,-0.00000
 056,-0.00000162,0.00000042,0.00000021,-0.00000240,0.00000019,0.0000010
 5,0.00000030,0.00000098,0.00000103,0.00000066,0.00000050,-0.00000088,0
 .00000104,-0.00000013,0.00000152,0.00000153,0.00000034,0.00000119,0.00
 000315,0.00000006,-0.00000210,0.00000258,0.00000004,0.00000010,0.00000
 398,-0.00000085,-0.00000186,0.00000327,-0.00000112,-0.00000222,0.00000
 202,-0.00000096,-0.00000210,0.00000279,-0.00000078\\\@


 GOD GAVE US TWO ENDS... ONE TO SIT ON...    
 AND THE OTHER TO THINK WITH...              
 YOUR SUCCESS DEPENDS UPON WHICH END YOU     
 USE THE MOST...                             
                                             
 IT'S A CASE OF HEADS YOU WIN TAILS YOU LOSE.
          SOURCE UNKNOWN(IT'S JUST AS WELL.) 
 Job cpu time:       0 days  2 hours 18 minutes 15.1 seconds.
 File lengths (MBytes):  RWF=    435 Int=      0 D2E=      0 Chk=     18 Scr=      1
 Normal termination of Gaussian 09 at Tue Oct 30 15:50:58 2018.
WARNING: pbs_rusage is deprecated and values produced may not be accurate


=============================================================================
                                     Resource usage:
                                       CPU time:              15:58:51
   JobId:    1828850.r-man2            Elapsed time:          04:00:56
   Project:             q95            Requested time:        30:00:00
   Service Units:     16.06 
                                       Max physical memory:      557MB
                                       Max virtual memory:      1149MB
                                       Requested memory:           0MB

                                       Number of cpus:               4

                                       Max jobfs disk use:       0.4GB
                                       Requested jobfs:         12.0GB
=============================================================================

