 Entering Gaussian System, Link 0=/apps/gaussian/g09e01/g09/g09
 AtFile(1): /home/507/hio507/Basis/6-31pGd.gbs
 Initial command:
 /apps/gaussian/g09e01/g09/l1.exe "/jobfs/local/7091376.r-man2/Gau-14359.inp" -scrdir="/jobfs/local/7091376.r-man2/"
 Entering Link 1 = /apps/gaussian/g09e01/g09/l1.exe PID=     14360.
  
 Copyright (c) 1988,1990,1992,1993,1995,1998,2003,2009,2015,
            Gaussian, Inc.  All Rights Reserved.
  
 This is part of the Gaussian(R) 09 program.  It is based on
 the Gaussian(R) 03 system (copyright 2003, Gaussian, Inc.),
 the Gaussian(R) 98 system (copyright 1998, Gaussian, Inc.),
 the Gaussian(R) 94 system (copyright 1995, Gaussian, Inc.),
 the Gaussian 92(TM) system (copyright 1992, Gaussian, Inc.),
 the Gaussian 90(TM) system (copyright 1990, Gaussian, Inc.),
 the Gaussian 88(TM) system (copyright 1988, Gaussian, Inc.),
 the Gaussian 86(TM) system (copyright 1986, Carnegie Mellon
 University), and the Gaussian 82(TM) system (copyright 1983,
 Carnegie Mellon University). Gaussian is a federally registered
 trademark of Gaussian, Inc.
  
 This software contains proprietary and confidential information,
 including trade secrets, belonging to Gaussian, Inc.
  
 This software is provided under written license and may be
 used, copied, transmitted, or stored only in accord with that
 written license.
  
 The following legend is applicable only to US Government
 contracts under FAR:
  
                    RESTRICTED RIGHTS LEGEND
  
 Use, reproduction and disclosure by the US Government is
 subject to restrictions as set forth in subparagraphs (a)
 and (c) of the Commercial Computer Software - Restricted
 Rights clause in FAR 52.227-19.
  
 Gaussian, Inc.
 340 Quinnipiac St., Bldg. 40, Wallingford CT 06492
  
  
 ---------------------------------------------------------------
 Warning -- This program may not be used in any manner that
 competes with the business of Gaussian, Inc. or will provide
 assistance to any competitor of Gaussian, Inc.  The licensee
 of this program is prohibited from giving any competitor of
 Gaussian, Inc. access to this program.  By using this program,
 the user acknowledges that Gaussian, Inc. is engaged in the
 business of creating and licensing software in the field of
 computational chemistry and represents and warrants to the
 licensee that it is not a competitor of Gaussian, Inc. and that
 it will not use this program in any manner prohibited above.
 ---------------------------------------------------------------
  

 Cite this work as:
 Gaussian 09, Revision E.01,
 M. J. Frisch, G. W. Trucks, H. B. Schlegel, G. E. Scuseria, 
 M. A. Robb, J. R. Cheeseman, G. Scalmani, V. Barone, B. Mennucci, 
 G. A. Petersson, H. Nakatsuji, M. Caricato, X. Li, H. P. Hratchian, 
 A. F. Izmaylov, J. Bloino, G. Zheng, J. L. Sonnenberg, M. Hada, 
 M. Ehara, K. Toyota, R. Fukuda, J. Hasegawa, M. Ishida, T. Nakajima, 
 Y. Honda, O. Kitao, H. Nakai, T. Vreven, J. A. Montgomery, Jr., 
 J. E. Peralta, F. Ogliaro, M. Bearpark, J. J. Heyd, E. Brothers, 
 K. N. Kudin, V. N. Staroverov, T. Keith, R. Kobayashi, J. Normand, 
 K. Raghavachari, A. Rendell, J. C. Burant, S. S. Iyengar, J. Tomasi, 
 M. Cossi, N. Rega, J. M. Millam, M. Klene, J. E. Knox, J. B. Cross, 
 V. Bakken, C. Adamo, J. Jaramillo, R. Gomperts, R. E. Stratmann, 
 O. Yazyev, A. J. Austin, R. Cammi, C. Pomelli, J. W. Ochterski, 
 R. L. Martin, K. Morokuma, V. G. Zakrzewski, G. A. Voth, 
 P. Salvador, J. J. Dannenberg, S. Dapprich, A. D. Daniels, 
 O. Farkas, J. B. Foresman, J. V. Ortiz, J. Cioslowski, 
 and D. J. Fox, Gaussian, Inc., Wallingford CT, 2013.
 
 ******************************************
 Gaussian 09:  ES64L-G09RevE.01 30-Nov-2015
                22-May-2018 
 ******************************************
 %chk=bfcgm_longer.M062X.chk
 %mem=196608000
 %nproc=4
 Will use up to    4 processors via shared memory.
 ----------------------------------------------------------------------
 # M062X/Gen 6D SCF=Tight INT(grid=ultrafine) OPT IOP(2/17=4) maxdisk=2
 147483648
 ----------------------------------------------------------------------
 1/14=-1,18=20,19=15,26=4,38=1/1,3;
 2/9=110,12=2,17=4,18=5,40=1/2;
 3/5=7,8=2,11=2,16=1,25=1,30=1,71=1,74=-55,75=-5/1,2,3;
 4//1;
 5/5=2,32=2,38=5/2;
 6/7=2,8=2,9=2,10=2,28=1/1;
 7//1,2,3,16;
 1/14=-1,18=20,19=15,26=4/3(2);
 2/9=110,17=4/2;
 99//99;
 2/9=110,17=4/2;
 3/5=7,6=1,8=2,11=2,16=1,25=1,30=1,71=1,74=-55,75=-5,82=7/1,2,3;
 4/5=5,16=3,69=1/1;
 5/5=2,32=2,38=5/2;
 7//1,2,3,16;
 1/14=-1,18=20,19=15,26=4/3(-5);
 2/9=110,17=4/2;
 6/7=2,8=2,9=2,10=2,19=2,28=1/1;
 99/9=1/99;
 ------------------
 bfcgm_longer.M062X
 ------------------
 Symbolic Z-matrix:
 Charge =  0 Multiplicity = 1
 C                     1.1086    2.28607  -0.14581 
 C                     0.87489   0.90712   0.03017 
 C                    -0.45506   0.44857   0.10131 
 C                    -1.55164   1.32783   0.00028 
 C                    -1.28227   2.70415  -0.17526 
 C                     0.032     3.16793  -0.24602 
 N                    -2.87294   0.76078   0.08305 
 H                    -2.91757  -0.26052   0.22486 
 C                    -4.07556   1.40902  -0.00828 
 O                    -4.1344    2.61587  -0.18166 
 N                    -5.23176   0.69386   0.09275 
 H                    -5.17978  -0.32665   0.2392 
 C                    -6.53584   1.32691  -0.0026 
 Cl                    2.73618   2.95327  -0.24614 
 C                     2.03193  -0.06374   0.13999 
 F                     1.59982  -1.36819   0.30842 
 F                     2.79589  -0.00748  -1.01173 
 F                     2.81993   0.27362   1.22552 
 H                    -0.64977  -0.60771   0.23596 
 H                    -2.0476    3.4529   -0.26098 
 H                     0.21373   4.22714  -0.38071 
 H                    -6.63334   2.08908   0.8019 
 H                    -6.62665   1.82973  -0.99083 
 C                    -7.65991   0.29454   0.14185 
 H                    -7.56565  -0.47059  -0.65933 
 H                    -7.57577  -0.20925   1.12943 
 C                    -9.03222   0.95343   0.03689 
 H                    -9.14878   1.44688  -0.95158 
 H                    -9.15992   1.71016   0.84006 
 H                    -9.82433   0.18283   0.14495 
 

 GradGradGradGradGradGradGradGradGradGradGradGradGradGradGradGradGradGrad
 Berny optimization.
 Initialization pass.
                           ----------------------------
                           !    Initial Parameters    !
                           ! (Angstroms and Degrees)  !
 --------------------------                            --------------------------
 ! Name  Definition              Value          Derivative Info.                !
 --------------------------------------------------------------------------------
 ! R1    R(1,2)                  1.4096         estimate D2E/DX2                !
 ! R2    R(1,6)                  1.3953         estimate D2E/DX2                !
 ! R3    R(1,14)                 1.7619         estimate D2E/DX2                !
 ! R4    R(2,3)                  1.4086         estimate D2E/DX2                !
 ! R5    R(2,15)                 1.5144         estimate D2E/DX2                !
 ! R6    R(3,4)                  1.4092         estimate D2E/DX2                !
 ! R7    R(3,19)                 1.0825         estimate D2E/DX2                !
 ! R8    R(4,5)                  1.4134         estimate D2E/DX2                !
 ! R9    R(4,7)                  1.4402         estimate D2E/DX2                !
 ! R10   R(5,6)                  1.3955         estimate D2E/DX2                !
 ! R11   R(5,20)                 1.0741         estimate D2E/DX2                !
 ! R12   R(6,21)                 1.0831         estimate D2E/DX2                !
 ! R13   R(7,8)                  1.0321         estimate D2E/DX2                !
 ! R14   R(7,9)                  1.3693         estimate D2E/DX2                !
 ! R15   R(9,10)                 1.2207         estimate D2E/DX2                !
 ! R16   R(9,11)                 1.3633         estimate D2E/DX2                !
 ! R17   R(11,12)                1.0323         estimate D2E/DX2                !
 ! R18   R(11,13)                1.4527         estimate D2E/DX2                !
 ! R19   R(13,22)                1.1125         estimate D2E/DX2                !
 ! R20   R(13,23)                1.1125         estimate D2E/DX2                !
 ! R21   R(13,24)                1.533          estimate D2E/DX2                !
 ! R22   R(15,16)                1.3844         estimate D2E/DX2                !
 ! R23   R(15,17)                1.3832         estimate D2E/DX2                !
 ! R24   R(15,18)                1.3832         estimate D2E/DX2                !
 ! R25   R(24,25)                1.1118         estimate D2E/DX2                !
 ! R26   R(24,26)                1.1118         estimate D2E/DX2                !
 ! R27   R(24,27)                1.5259         estimate D2E/DX2                !
 ! R28   R(27,28)                1.1109         estimate D2E/DX2                !
 ! R29   R(27,29)                1.1109         estimate D2E/DX2                !
 ! R30   R(27,30)                1.1104         estimate D2E/DX2                !
 ! A1    A(2,1,6)              119.9544         estimate D2E/DX2                !
 ! A2    A(2,1,14)             122.0531         estimate D2E/DX2                !
 ! A3    A(6,1,14)             117.9925         estimate D2E/DX2                !
 ! A4    A(1,2,3)              118.7701         estimate D2E/DX2                !
 ! A5    A(1,2,15)             120.6314         estimate D2E/DX2                !
 ! A6    A(3,2,15)             120.5985         estimate D2E/DX2                !
 ! A7    A(2,3,4)              121.8695         estimate D2E/DX2                !
 ! A8    A(2,3,19)             119.589          estimate D2E/DX2                !
 ! A9    A(4,3,19)             118.5414         estimate D2E/DX2                !
 ! A10   A(3,4,5)              117.9168         estimate D2E/DX2                !
 ! A11   A(3,4,7)              117.6539         estimate D2E/DX2                !
 ! A12   A(5,4,7)              124.4293         estimate D2E/DX2                !
 ! A13   A(4,5,6)              120.6251         estimate D2E/DX2                !
 ! A14   A(4,5,20)             123.5682         estimate D2E/DX2                !
 ! A15   A(6,5,20)             115.8067         estimate D2E/DX2                !
 ! A16   A(1,6,5)              120.864          estimate D2E/DX2                !
 ! A17   A(1,6,21)             119.8388         estimate D2E/DX2                !
 ! A18   A(5,6,21)             119.2972         estimate D2E/DX2                !
 ! A19   A(4,7,8)              115.9246         estimate D2E/DX2                !
 ! A20   A(4,7,9)              127.9919         estimate D2E/DX2                !
 ! A21   A(8,7,9)              116.083          estimate D2E/DX2                !
 ! A22   A(7,9,10)             121.3243         estimate D2E/DX2                !
 ! A23   A(7,9,11)             119.4461         estimate D2E/DX2                !
 ! A24   A(10,9,11)            119.2294         estimate D2E/DX2                !
 ! A25   A(9,11,12)            119.106          estimate D2E/DX2                !
 ! A26   A(9,11,13)            121.8612         estimate D2E/DX2                !
 ! A27   A(12,11,13)           119.0327         estimate D2E/DX2                !
 ! A28   A(11,13,22)           109.2536         estimate D2E/DX2                !
 ! A29   A(11,13,23)           109.1794         estimate D2E/DX2                !
 ! A30   A(11,13,24)           111.0121         estimate D2E/DX2                !
 ! A31   A(22,13,23)           109.0001         estimate D2E/DX2                !
 ! A32   A(22,13,24)           109.2057         estimate D2E/DX2                !
 ! A33   A(23,13,24)           109.1603         estimate D2E/DX2                !
 ! A34   A(2,15,16)            111.9874         estimate D2E/DX2                !
 ! A35   A(2,15,17)            109.6045         estimate D2E/DX2                !
 ! A36   A(2,15,18)            109.6227         estimate D2E/DX2                !
 ! A37   A(16,15,17)           108.1804         estimate D2E/DX2                !
 ! A38   A(16,15,18)           108.1888         estimate D2E/DX2                !
 ! A39   A(17,15,18)           109.2019         estimate D2E/DX2                !
 ! A40   A(13,24,25)           109.4729         estimate D2E/DX2                !
 ! A41   A(13,24,26)           109.4716         estimate D2E/DX2                !
 ! A42   A(13,24,27)           111.2331         estimate D2E/DX2                !
 ! A43   A(25,24,26)           108.773          estimate D2E/DX2                !
 ! A44   A(25,24,27)           108.8947         estimate D2E/DX2                !
 ! A45   A(26,24,27)           108.9541         estimate D2E/DX2                !
 ! A46   A(24,27,28)           110.326          estimate D2E/DX2                !
 ! A47   A(24,27,29)           110.3527         estimate D2E/DX2                !
 ! A48   A(24,27,30)           109.5846         estimate D2E/DX2                !
 ! A49   A(28,27,29)           109.1884         estimate D2E/DX2                !
 ! A50   A(28,27,30)           108.6631         estimate D2E/DX2                !
 ! A51   A(29,27,30)           108.6864         estimate D2E/DX2                !
 ! D1    D(6,1,2,3)             -0.0012         estimate D2E/DX2                !
 ! D2    D(6,1,2,15)           179.9657         estimate D2E/DX2                !
 ! D3    D(14,1,2,3)           179.9969         estimate D2E/DX2                !
 ! D4    D(14,1,2,15)           -0.0363         estimate D2E/DX2                !
 ! D5    D(2,1,6,5)             -0.0406         estimate D2E/DX2                !
 ! D6    D(2,1,6,21)           179.9693         estimate D2E/DX2                !
 ! D7    D(14,1,6,5)           179.9612         estimate D2E/DX2                !
 ! D8    D(14,1,6,21)           -0.0289         estimate D2E/DX2                !
 ! D9    D(1,2,3,4)              0.0652         estimate D2E/DX2                !
 ! D10   D(1,2,3,19)           179.9813         estimate D2E/DX2                !
 ! D11   D(15,2,3,4)          -179.9016         estimate D2E/DX2                !
 ! D12   D(15,2,3,19)            0.0145         estimate D2E/DX2                !
 ! D13   D(1,2,15,16)         -179.9871         estimate D2E/DX2                !
 ! D14   D(1,2,15,17)          -59.9209         estimate D2E/DX2                !
 ! D15   D(1,2,15,18)           59.9238         estimate D2E/DX2                !
 ! D16   D(3,2,15,16)           -0.0209         estimate D2E/DX2                !
 ! D17   D(3,2,15,17)          120.0453         estimate D2E/DX2                !
 ! D18   D(3,2,15,18)         -120.11           estimate D2E/DX2                !
 ! D19   D(2,3,4,5)             -0.0851         estimate D2E/DX2                !
 ! D20   D(2,3,4,7)            179.908          estimate D2E/DX2                !
 ! D21   D(19,3,4,5)           179.998          estimate D2E/DX2                !
 ! D22   D(19,3,4,7)            -0.009          estimate D2E/DX2                !
 ! D23   D(3,4,5,6)              0.0421         estimate D2E/DX2                !
 ! D24   D(3,4,5,20)          -179.8863         estimate D2E/DX2                !
 ! D25   D(7,4,5,6)           -179.9504         estimate D2E/DX2                !
 ! D26   D(7,4,5,20)             0.1211         estimate D2E/DX2                !
 ! D27   D(3,4,7,8)              0.7969         estimate D2E/DX2                !
 ! D28   D(3,4,7,9)           -178.9323         estimate D2E/DX2                !
 ! D29   D(5,4,7,8)           -179.2105         estimate D2E/DX2                !
 ! D30   D(5,4,7,9)              1.0603         estimate D2E/DX2                !
 ! D31   D(4,5,6,1)              0.0196         estimate D2E/DX2                !
 ! D32   D(4,5,6,21)          -179.9902         estimate D2E/DX2                !
 ! D33   D(20,5,6,1)           179.9534         estimate D2E/DX2                !
 ! D34   D(20,5,6,21)           -0.0565         estimate D2E/DX2                !
 ! D35   D(4,7,9,10)             0.0383         estimate D2E/DX2                !
 ! D36   D(4,7,9,11)           179.8691         estimate D2E/DX2                !
 ! D37   D(8,7,9,10)          -179.6905         estimate D2E/DX2                !
 ! D38   D(8,7,9,11)             0.1403         estimate D2E/DX2                !
 ! D39   D(7,9,11,12)            0.1554         estimate D2E/DX2                !
 ! D40   D(7,9,11,13)         -179.7161         estimate D2E/DX2                !
 ! D41   D(10,9,11,12)         179.9898         estimate D2E/DX2                !
 ! D42   D(10,9,11,13)           0.1183         estimate D2E/DX2                !
 ! D43   D(9,11,13,22)         -59.617          estimate D2E/DX2                !
 ! D44   D(9,11,13,23)          59.5016         estimate D2E/DX2                !
 ! D45   D(9,11,13,24)         179.8899         estimate D2E/DX2                !
 ! D46   D(12,11,13,22)        120.5114         estimate D2E/DX2                !
 ! D47   D(12,11,13,23)       -120.37           estimate D2E/DX2                !
 ! D48   D(12,11,13,24)          0.0184         estimate D2E/DX2                !
 ! D49   D(11,13,24,25)        -59.3847         estimate D2E/DX2                !
 ! D50   D(11,13,24,26)         59.7633         estimate D2E/DX2                !
 ! D51   D(11,13,24,27)       -179.774          estimate D2E/DX2                !
 ! D52   D(22,13,24,25)       -179.9061         estimate D2E/DX2                !
 ! D53   D(22,13,24,26)        -60.7582         estimate D2E/DX2                !
 ! D54   D(22,13,24,27)         59.7045         estimate D2E/DX2                !
 ! D55   D(23,13,24,25)         61.015          estimate D2E/DX2                !
 ! D56   D(23,13,24,26)       -179.8371         estimate D2E/DX2                !
 ! D57   D(23,13,24,27)        -59.3744         estimate D2E/DX2                !
 ! D58   D(13,24,27,28)         60.3936         estimate D2E/DX2                !
 ! D59   D(13,24,27,29)        -60.3538         estimate D2E/DX2                !
 ! D60   D(13,24,27,30)        179.9973         estimate D2E/DX2                !
 ! D61   D(25,24,27,28)        -60.3365         estimate D2E/DX2                !
 ! D62   D(25,24,27,29)        178.9162         estimate D2E/DX2                !
 ! D63   D(25,24,27,30)         59.2672         estimate D2E/DX2                !
 ! D64   D(26,24,27,28)       -178.839          estimate D2E/DX2                !
 ! D65   D(26,24,27,29)         60.4137         estimate D2E/DX2                !
 ! D66   D(26,24,27,30)        -59.2353         estimate D2E/DX2                !
 --------------------------------------------------------------------------------
 Trust Radius=3.00D-01 FncErr=1.00D-07 GrdErr=1.00D-06
 Number of steps in this run=    157 maximum allowed number of steps=    180.
 GradGradGradGradGradGradGradGradGradGradGradGradGradGradGradGradGradGrad

                          Input orientation:                          
 ---------------------------------------------------------------------
 Center     Atomic      Atomic             Coordinates (Angstroms)
 Number     Number       Type             X           Y           Z
 ---------------------------------------------------------------------
      1          6           0        1.108600    2.286070   -0.145810
      2          6           0        0.874890    0.907120    0.030170
      3          6           0       -0.455060    0.448570    0.101310
      4          6           0       -1.551640    1.327830    0.000280
      5          6           0       -1.282270    2.704150   -0.175260
      6          6           0        0.032000    3.167930   -0.246020
      7          7           0       -2.872940    0.760780    0.083050
      8          1           0       -2.917570   -0.260520    0.224860
      9          6           0       -4.075560    1.409020   -0.008280
     10          8           0       -4.134400    2.615870   -0.181660
     11          7           0       -5.231760    0.693860    0.092750
     12          1           0       -5.179780   -0.326650    0.239200
     13          6           0       -6.535840    1.326910   -0.002600
     14         17           0        2.736180    2.953270   -0.246140
     15          6           0        2.031930   -0.063740    0.139990
     16          9           0        1.599820   -1.368190    0.308420
     17          9           0        2.795890   -0.007480   -1.011730
     18          9           0        2.819930    0.273620    1.225520
     19          1           0       -0.649770   -0.607710    0.235960
     20          1           0       -2.047600    3.452900   -0.260980
     21          1           0        0.213730    4.227140   -0.380710
     22          1           0       -6.633340    2.089080    0.801900
     23          1           0       -6.626650    1.829730   -0.990830
     24          6           0       -7.659910    0.294540    0.141850
     25          1           0       -7.565650   -0.470590   -0.659330
     26          1           0       -7.575770   -0.209250    1.129430
     27          6           0       -9.032220    0.953430    0.036890
     28          1           0       -9.148780    1.446880   -0.951580
     29          1           0       -9.159920    1.710160    0.840060
     30          1           0       -9.824330    0.182830    0.144950
 ---------------------------------------------------------------------
                    Distance matrix (angstroms):
                    1          2          3          4          5
     1  C    0.000000
     2  C    1.409643   0.000000
     3  C    2.425388   1.408579   0.000000
     4  C    2.831332   2.462913   1.409182   0.000000
     5  C    2.427327   2.815112   2.418348   1.413376   0.000000
     6  C    1.395273   2.428581   2.784382   2.440194   1.395494
     7  N    4.269842   3.751059   2.438022   1.440219   2.524607
     8  H    4.778343   3.972913   2.565546   2.106907   3.409336
     9  C    5.259624   4.975976   3.747332   2.525240   3.083458
    10  O    5.253485   5.296951   4.279580   2.891850   2.853503
    11  N    6.541575   6.110693   4.783001   3.735472   4.439771
    12  H    6.820430   6.182630   4.789881   3.994720   4.954605
    13  C    7.705710   7.422683   6.144767   4.984201   5.433838
    14  Cl   1.761885   2.779834   4.071640   4.592187   4.026788
    15  C    2.540832   1.514388   2.539503   3.846812   4.329494
    16  F    3.715002   2.404159   2.750644   4.158747   5.012419
    17  F    2.976094   2.369027   3.466340   4.659210   4.968300
    18  F    2.976433   2.369254   3.466989   4.660815   4.969679
    19  H    3.407576   2.159085   1.082483   2.148309   3.396701
    20  H    3.366950   3.886735   3.419567   2.197762   1.074106
    21  H    2.150284   3.410057   3.867456   3.415799   2.144697
    22  H    7.802217   7.639772   6.430649   5.200555   5.474222
    23  H    7.794639   7.626713   6.417858   5.195183   5.476510
    24  C    8.996427   8.557484   7.206610   6.196668   6.825033
    25  H    9.116221   8.579989   7.209987   6.311713   7.056498
    26  H    9.125302   8.594667   7.224560   6.318840   7.056788
    27  C   10.229640   9.907221   8.592247   7.490033   7.948066
    28  H   10.323146  10.086086   8.813964   7.657463   8.004085
    29  H   10.331801  10.099416   8.826775   7.664028   8.004765
    30  H   11.137195  10.724322   9.373139   8.352805   8.912148
                    6          7          8          9         10
     6  C    0.000000
     7  N    3.786995   0.000000
     8  H    4.547083   1.032064   0.000000
     9  C    4.474632   1.369252   2.045155   0.000000
    10  O    4.203308   2.258918   3.149532   1.220660   0.000000
    11  N    5.826058   2.359789   2.506745   1.363253   2.230162
    12  H    6.293662   2.555073   2.263222   2.071979   3.150931
    13  C    6.825330   3.707381   3.957720   2.461656   2.731372
    14  Cl   2.712687   6.031385   6.520366   6.988640   6.879162
    15  C    3.820002   4.974015   4.954137   6.284301   6.731077
    16  F    4.831340   4.958718   4.651960   6.326384   6.999585
    17  F    4.278858   5.824466   5.851223   7.087327   7.456534
    18  F    4.279604   5.826777   5.848550   7.096420   7.471880
    19  H    3.866856   2.615078   2.294250   3.982824   4.765346
    20  H    2.099087   2.836733   3.844786   2.890316   2.249810
    21  H    1.083094   4.664575   5.505529   5.145728   4.641341
    22  H    6.832921   4.052374   4.434021   2.767871   2.736713
    23  H    6.832506   4.047989   4.427677   2.765947   2.735705
    24  C    8.220237   4.809981   4.775434   3.756617   4.233492
    25  H    8.434094   4.908047   4.736092   4.017154   4.639815
    26  H    8.436550   4.914517   4.745493   4.020529   4.641475
    27  C    9.335102   6.162465   6.236822   4.977759   5.176882
    28  H    9.367313   6.397450   6.567131   5.160311   5.206085
    29  H    9.369955   6.403164   6.574875   5.163437   5.207694
    30  H   10.305868   6.975649   6.921436   5.880083   6.196907
                   11         12         13         14         15
    11  N    0.000000
    12  H    1.032274   0.000000
    13  C    1.452745   2.152121   0.000000
    14  Cl   8.289020   8.582299   9.416725   0.000000
    15  C    7.303245   7.217183   8.681067   3.122085   0.000000
    16  F    7.139261   6.859488   8.576087   4.502651   1.384441
    17  F    8.133567   8.079481   9.480513   3.058714   1.383206
    18  F    8.141835   8.082605   9.494637   3.058320   1.383160
    19  H    4.765420   4.538722   6.200442   4.937373   2.737997
    20  H    4.228038   4.934139   4.973016   4.809823   5.400935
    21  H    6.508578   7.085989   7.356018   2.829065   4.689204
    22  H    2.100942   2.874929   1.112488   9.467477   8.953193
    23  H    2.100015   2.873392   1.112508   9.459360   8.935043
    24  C    2.461256   2.558593   1.533032  10.737694   9.698460
    25  H    2.714518   2.553517   2.173203  10.863758   9.639397
    26  H    2.717480   2.558722   2.173185  10.873364   9.659610
    27  C    3.809723   4.064582   2.524472  11.940465  11.111286
    28  H    4.123192   4.507364   2.782519  12.000797  11.334980
    29  H    4.125746   4.511224   2.782580  12.010094  11.353164
    30  H    4.621209   4.673360   3.484947  12.868360  11.858825
                   16         17         18         19         20
    16  F    0.000000
    17  F    2.241631   0.000000
    18  F    2.241714   2.254968   0.000000
    19  H    2.375760   3.713432   3.714134   0.000000
    20  H    6.072133   5.999771   6.000863   4.323128   0.000000
    21  H    5.805503   4.999774   5.000257   4.949918   2.393198
    22  H    8.943219   9.828286   9.635334   6.587570   4.900891
    23  H    8.921298   9.600002   9.827083   6.570329   4.912745
    24  C    9.409305  10.523579  10.535740   7.068591   6.452560
    25  H    9.260025  10.377869  10.581436   6.974937   6.782428
    26  H    9.284861  10.592290  10.407352   6.994751   6.775341
    27  C   10.885951  11.913318  11.930987   8.528907   7.424351
    28  H   11.182335  12.033035  12.221552   8.824101   7.411329
    29  H   11.204057  12.219689  12.071828   8.840821   7.405034
    30  H   11.530117  12.674545  12.690673   9.209006   8.446044
                   21         22         23         24         25
    21  H    0.000000
    22  H    7.269954   0.000000
    23  H    7.273969   1.811405   0.000000
    24  C    8.816610   2.170227   2.169654   0.000000
    25  H    9.092032   3.091327   2.506608   1.111845   0.000000
    26  H    9.090566   2.505548   3.090917   1.111844   1.807779
    27  C    9.817289   2.762167   2.758782   1.525905   2.159487
    28  H    9.783268   3.132818   2.551324   2.177202   2.503678
    29  H    9.782167   2.555121   3.127925   2.177500   3.089585
    30  H   10.834916   3.774624   3.771927   2.167303   2.485047
                   26         27         28         29         30
    26  H    0.000000
    27  C    2.160258   0.000000
    28  H    3.089940   1.110924   0.000000
    29  H    2.505474   1.110869   1.810915   0.000000
    30  H    2.485749   1.110378   1.804596   1.804815   0.000000
 Stoichiometry    C11H12ClF3N2O
 Framework group  C1[X(C11H12ClF3N2O)]
 Deg. of freedom    84
 Full point group                 C1      NOp   1
 Largest Abelian subgroup         C1      NOp   1
 Largest concise Abelian subgroup C1      NOp   1
                         Standard orientation:                         
 ---------------------------------------------------------------------
 Center     Atomic      Atomic             Coordinates (Angstroms)
 Number     Number       Type             X           Y           Z
 ---------------------------------------------------------------------
      1          6           0        2.543585   -1.063100   -0.001800
      2          6           0        2.292901    0.324073   -0.002731
      3          6           0        0.957342    0.771638   -0.010650
      4          6           0       -0.128374   -0.126684   -0.016264
      5          6           0        0.157934   -1.510758   -0.015580
      6          6           0        1.477873   -1.963655   -0.008631
      7          7           0       -1.456609    0.430080   -0.022163
      8          1           0       -1.513882    1.460477   -0.034739
      9          6           0       -2.651095   -0.239139   -0.008044
     10          8           0       -2.694954   -1.458828    0.013014
     11          7           0       -3.816065    0.468863   -0.014153
     12          1           0       -3.776753    1.500237   -0.031810
     13          6           0       -5.112158   -0.187030    0.006256
     14         17           0        4.179335   -1.717675    0.007774
     15          6           0        3.437959    1.315107    0.005400
     16          9           0        2.989800    2.625003    0.003405
     17          9           0        4.208754    1.124414    1.137994
     18          9           0        4.223933    1.125983   -1.116923
     19          1           0        0.749633    1.834007   -0.011152
     20          1           0       -0.598160   -2.273643   -0.021332
     21          1           0        1.672638   -3.029093   -0.008406
     22          1           0       -5.205147   -0.843599   -0.886997
     23          1           0       -5.191755   -0.810707    0.924060
     24          6           0       -6.248926    0.841490   -0.003319
     25          1           0       -6.159230    1.501371    0.887023
     26          1           0       -6.176006    1.465967   -0.920331
     27          6           0       -7.612891    0.157926    0.023654
     28          1           0       -7.718343   -0.456801    0.942971
     29          1           0       -7.736133   -0.493781   -0.867479
     30          1           0       -8.414484    0.926255    0.016088
 ---------------------------------------------------------------------
 Rotational constants (GHZ):      0.9521130      0.1241755      0.1124542
 General basis read from cards:  (6D, 7F)
 There are   370 symmetry adapted cartesian basis functions of A   symmetry.
 There are   370 symmetry adapted basis functions of A   symmetry.
   370 basis functions,   648 primitive gaussians,   370 cartesian basis functions
    72 alpha electrons       72 beta electrons
       nuclear repulsion energy      1414.0015179113 Hartrees.
 NAtoms=   30 NActive=   30 NUniq=   30 SFac= 1.00D+00 NAtFMM=   60 NAOKFM=F Big=F
 Integral buffers will be    131072 words long.
 Raffenetti 2 integral format.
 Two-electron integral symmetry is turned on.
 One-electron integrals computed using PRISM.
 NBasis=   370 RedAO= T EigKep=  1.26D-06  NBF=   370
 NBsUse=   369 1.00D-06 EigRej=  9.92D-07 NBFU=   369
 ExpMin= 4.38D-02 ExpMax= 2.52D+04 ExpMxC= 3.78D+03 IAcc=3 IRadAn=         5 AccDes= 0.00D+00
 Harris functional with IExCor= 1009 and IRadAn=       5 diagonalized for initial guess.
 HarFok:  IExCor= 1009 AccDes= 0.00D+00 IRadAn=         5 IDoV= 1 UseB2=F ITyADJ=14
 ICtDFT=  3500011 ScaDFX=  1.000000  1.000000  1.000000  1.000000
 FoFCou: FMM=F IPFlag=           0 FMFlag=      100000 FMFlg1=           0
         NFxFlg=           0 DoJE=T BraDBF=F KetDBF=T FulRan=T
         wScrn=  0.000000 ICntrl=     500 IOpCl=  0 I1Cent=   200000004 NGrid=           0
         NMat0=    1 NMatS0=      1 NMatT0=    0 NMatD0=    1 NMtDS0=    0 NMtDT0=    0
 Petite list used in FoFCou.
 Requested convergence on RMS density matrix=1.00D-08 within 128 cycles.
 Requested convergence on MAX density matrix=1.00D-06.
 Requested convergence on             energy=1.00D-06.
 No special actions if energy rises.
 SCF Done:  E(RM062X) =  -1370.51959152     A.U. after   16 cycles
            NFock= 16  Conv=0.44D-08     -V/T= 2.0068

 **********************************************************************

            Population analysis using the SCF density.

 **********************************************************************

 Orbital symmetries:
       Occupied  (A) (A) (A) (A) (A) (A) (A) (A) (A) (A) (A) (A)
                 (A) (A) (A) (A) (A) (A) (A) (A) (A) (A) (A) (A)
                 (A) (A) (A) (A) (A) (A) (A) (A) (A) (A) (A) (A)
                 (A) (A) (A) (A) (A) (A) (A) (A) (A) (A) (A) (A)
                 (A) (A) (A) (A) (A) (A) (A) (A) (A) (A) (A) (A)
                 (A) (A) (A) (A) (A) (A) (A) (A) (A) (A) (A) (A)
       Virtual   (A) (A) (A) (A) (A) (A) (A) (A) (A) (A) (A) (A)
                 (A) (A) (A) (A) (A) (A) (A) (A) (A) (A) (A) (A)
                 (A) (A) (A) (A) (A) (A) (A) (A) (A) (A) (A) (A)
                 (A) (A) (A) (A) (A) (A) (A) (A) (A) (A) (A) (A)
                 (A) (A) (A) (A) (A) (A) (A) (A) (A) (A) (A) (A)
                 (A) (A) (A) (A) (A) (A) (A) (A) (A) (A) (A) (A)
                 (A) (A) (A) (A) (A) (A) (A) (A) (A) (A) (A) (A)
                 (A) (A) (A) (A) (A) (A) (A) (A) (A) (A) (A) (A)
                 (A) (A) (A) (A) (A) (A) (A) (A) (A) (A) (A) (A)
                 (A) (A) (A) (A) (A) (A) (A) (A) (A) (A) (A) (A)
                 (A) (A) (A) (A) (A) (A) (A) (A) (A) (A) (A) (A)
                 (A) (A) (A) (A) (A) (A) (A) (A) (A) (A) (A) (A)
                 (A) (A) (A) (A) (A) (A) (A) (A) (A) (A) (A) (A)
                 (A) (A) (A) (A) (A) (A) (A) (A) (A) (A) (A) (A)
                 (A) (A) (A) (A) (A) (A) (A) (A) (A) (A) (A) (A)
                 (A) (A) (A) (A) (A) (A) (A) (A) (A) (A) (A) (A)
                 (A) (A) (A) (A) (A) (A) (A) (A) (A) (A) (A) (A)
                 (A) (A) (A) (A) (A) (A) (A) (A) (A) (A) (A) (A)
                 (A) (A) (A) (A) (A) (A) (A) (A) (A) (A) (A) (A)
                 (A) (A) (A) (A) (A) (A) (A) (A) (A) (A) (A) (A)
                 (A) (A) (A) (A) (A) (A) (A) (A) (A) (A) (A) (A)
                 (A) (A) (A) (A) (A) (A) (A) (A) (A) (A) (A) (A)
                 (A) (A) (A) (A) (A) (A) (A) (A) (A) (A) (A) (A)
                 (A) (A) (A) (A) (A) (A) (A) (A) (A) (A) (A) (A)
                 (A) (A) (A) (A) (A) (A) (A) (A) (A)
 The electronic state is 1-A.
 Alpha  occ. eigenvalues -- -102.67948 -25.31280 -25.30395 -25.30392 -19.61328
 Alpha  occ. eigenvalues --  -14.82688 -14.80410 -10.83098 -10.69526 -10.63938
 Alpha  occ. eigenvalues --  -10.63917 -10.61162 -10.59936 -10.59662 -10.58444
 Alpha  occ. eigenvalues --  -10.57882 -10.57131 -10.55841  -9.82553  -7.54972
 Alpha  occ. eigenvalues --   -7.54282  -7.54265  -1.44713  -1.37081  -1.36627
 Alpha  occ. eigenvalues --   -1.19030  -1.06683  -1.04231  -1.01006  -0.94761
 Alpha  occ. eigenvalues --   -0.90467  -0.89684  -0.85554  -0.81162  -0.78987
 Alpha  occ. eigenvalues --   -0.73911  -0.72513  -0.70014  -0.69603  -0.68186
 Alpha  occ. eigenvalues --   -0.68111  -0.65398  -0.64889  -0.59886  -0.57695
 Alpha  occ. eigenvalues --   -0.57361  -0.57073  -0.57040  -0.55430  -0.55234
 Alpha  occ. eigenvalues --   -0.53719  -0.53388  -0.53296  -0.52006  -0.51626
 Alpha  occ. eigenvalues --   -0.50737  -0.49019  -0.48915  -0.47965  -0.47015
 Alpha  occ. eigenvalues --   -0.45849  -0.44678  -0.43998  -0.42745  -0.41699
 Alpha  occ. eigenvalues --   -0.41369  -0.38367  -0.37223  -0.35069  -0.33997
 Alpha  occ. eigenvalues --   -0.33012  -0.28769
 Alpha virt. eigenvalues --   -0.01669  -0.01377  -0.00632   0.01714   0.02199
 Alpha virt. eigenvalues --    0.02738   0.03239   0.03390   0.03736   0.04570
 Alpha virt. eigenvalues --    0.05276   0.05461   0.06251   0.06432   0.06838
 Alpha virt. eigenvalues --    0.06876   0.07712   0.08029   0.08059   0.08884
 Alpha virt. eigenvalues --    0.09160   0.09420   0.09796   0.10287   0.11183
 Alpha virt. eigenvalues --    0.12191   0.12385   0.12583   0.12858   0.13252
 Alpha virt. eigenvalues --    0.13836   0.13978   0.14639   0.14983   0.14998
 Alpha virt. eigenvalues --    0.16129   0.17293   0.17368   0.17576   0.18334
 Alpha virt. eigenvalues --    0.18891   0.18994   0.19265   0.20171   0.20286
 Alpha virt. eigenvalues --    0.20299   0.20587   0.20932   0.21455   0.22342
 Alpha virt. eigenvalues --    0.22887   0.23421   0.23440   0.23525   0.24362
 Alpha virt. eigenvalues --    0.24665   0.24897   0.24995   0.25209   0.26244
 Alpha virt. eigenvalues --    0.26545   0.27078   0.27591   0.28027   0.28299
 Alpha virt. eigenvalues --    0.28925   0.29483   0.29985   0.30649   0.30734
 Alpha virt. eigenvalues --    0.31278   0.31324   0.31887   0.32406   0.32732
 Alpha virt. eigenvalues --    0.33580   0.33864   0.34842   0.34959   0.35942
 Alpha virt. eigenvalues --    0.36017   0.36981   0.37546   0.38013   0.38999
 Alpha virt. eigenvalues --    0.39442   0.39708   0.40446   0.40793   0.41033
 Alpha virt. eigenvalues --    0.42240   0.43942   0.44372   0.45331   0.46041
 Alpha virt. eigenvalues --    0.46362   0.48231   0.49273   0.51095   0.52944
 Alpha virt. eigenvalues --    0.53670   0.56631   0.57207   0.58851   0.61178
 Alpha virt. eigenvalues --    0.67004   0.67258   0.67857   0.68178   0.68512
 Alpha virt. eigenvalues --    0.70080   0.71984   0.72534   0.72607   0.73537
 Alpha virt. eigenvalues --    0.74008   0.74995   0.76354   0.77544   0.77620
 Alpha virt. eigenvalues --    0.78688   0.79095   0.79930   0.81599   0.81702
 Alpha virt. eigenvalues --    0.82449   0.85380   0.85446   0.86504   0.86835
 Alpha virt. eigenvalues --    0.87774   0.87985   0.88416   0.91236   0.93780
 Alpha virt. eigenvalues --    0.96303   0.97367   0.97806   0.98461   0.99069
 Alpha virt. eigenvalues --    1.00312   1.01325   1.02481   1.03066   1.03378
 Alpha virt. eigenvalues --    1.03697   1.04497   1.05270   1.07383   1.08704
 Alpha virt. eigenvalues --    1.09175   1.10087   1.12025   1.12958   1.14281
 Alpha virt. eigenvalues --    1.14987   1.15369   1.16696   1.18214   1.20045
 Alpha virt. eigenvalues --    1.21395   1.21925   1.23280   1.27019   1.27604
 Alpha virt. eigenvalues --    1.30272   1.30629   1.31822   1.34957   1.35909
 Alpha virt. eigenvalues --    1.37811   1.38147   1.39904   1.42867   1.43417
 Alpha virt. eigenvalues --    1.43479   1.44678   1.45828   1.48545   1.48625
 Alpha virt. eigenvalues --    1.50038   1.51217   1.54874   1.55943   1.56076
 Alpha virt. eigenvalues --    1.57230   1.58795   1.61129   1.64962   1.65252
 Alpha virt. eigenvalues --    1.66981   1.68674   1.71276   1.72722   1.73883
 Alpha virt. eigenvalues --    1.75079   1.75284   1.75827   1.77668   1.79545
 Alpha virt. eigenvalues --    1.80848   1.82701   1.85017   1.85453   1.85587
 Alpha virt. eigenvalues --    1.86093   1.86659   1.87520   1.87941   1.88329
 Alpha virt. eigenvalues --    1.89730   1.91055   1.92009   1.92603   1.93688
 Alpha virt. eigenvalues --    1.95580   1.97065   1.98203   2.01067   2.02307
 Alpha virt. eigenvalues --    2.02795   2.02853   2.03282   2.04279   2.05324
 Alpha virt. eigenvalues --    2.07003   2.08550   2.08600   2.09063   2.10487
 Alpha virt. eigenvalues --    2.12592   2.13694   2.17749   2.18627   2.18790
 Alpha virt. eigenvalues --    2.19586   2.20685   2.22657   2.24593   2.24845
 Alpha virt. eigenvalues --    2.28159   2.29203   2.30035   2.34042   2.35656
 Alpha virt. eigenvalues --    2.36577   2.38305   2.38593   2.40212   2.40325
 Alpha virt. eigenvalues --    2.46759   2.48963   2.49753   2.55881   2.57223
 Alpha virt. eigenvalues --    2.63226   2.64188   2.64605   2.65994   2.71082
 Alpha virt. eigenvalues --    2.72914   2.73317   2.76560   2.77279   2.77540
 Alpha virt. eigenvalues --    2.79988   2.82088   2.83300   2.92055   2.97532
 Alpha virt. eigenvalues --    2.98994   3.08570   3.11488   3.13698   3.25737
 Alpha virt. eigenvalues --    3.26448   3.27268   3.32457   3.38960   4.13565
 Alpha virt. eigenvalues --    4.23937   4.24777   4.29567   4.33244   4.36630
 Alpha virt. eigenvalues --    4.40390   4.42095   4.45775   4.48170   4.49922
 Alpha virt. eigenvalues --    4.57216   4.59735   4.67959   4.77585   5.51251
 Alpha virt. eigenvalues --    6.02081   6.88868
          Condensed to atoms (all electrons):
               1          2          3          4          5          6
     1  C   15.059916  -2.566720  -2.318077  -1.486863  -0.583066  -0.511659
     2  C   -2.566720  18.106332  -9.607561   1.349814  -0.950446   1.818494
     3  C   -2.318077  -9.607561  31.973193  -5.911587  -1.531119  -6.768306
     4  C   -1.486863   1.349814  -5.911587  14.999623  -1.126703  -0.372730
     5  C   -0.583066  -0.950446  -1.531119  -1.126703  11.170833  -1.463467
     6  C   -0.511659   1.818494  -6.768306  -0.372730  -1.463467  13.432509
     7  N   -0.005683   0.031388   0.431976  -0.055010  -0.302861  -0.036059
     8  H   -0.000189   0.080420  -0.183551   0.031053   0.024774   0.022847
     9  C   -0.234531   0.158202  -0.615144  -0.065831  -0.539689   0.231967
    10  O   -0.000619   0.009309  -0.171847  -0.420617   0.307150   0.233617
    11  N   -0.011360   0.067984  -0.166816  -0.073839  -0.039182   0.033838
    12  H   -0.000040  -0.000762  -0.007980   0.020811   0.005525   0.000630
    13  C   -0.011596   0.014055   0.012493  -0.129263  -0.156601  -0.018742
    14  Cl  -0.263365  -0.184361   0.231587  -0.048511   0.063610  -0.084990
    15  C   -0.694917  -1.946924   1.401310  -1.037286   0.447897  -0.692773
    16  F   -0.034664  -0.029184  -0.148830   0.171829  -0.003434   0.026983
    17  F   -0.229521   0.341809  -0.104243   0.048848  -0.015531   0.027858
    18  F   -0.231247   0.342001  -0.100744   0.047783  -0.015611   0.027053
    19  H   -0.048613   0.162333  -0.007365   0.104864   0.039056   0.012223
    20  H    0.036596  -0.014951   0.050169  -0.013262   0.315888  -0.082547
    21  H   -0.022985   0.096015   0.011146  -0.020141  -0.055188   0.302858
    22  H   -0.000002   0.000021  -0.000679  -0.002088   0.001950   0.000394
    23  H   -0.000009   0.000014  -0.000804  -0.002856   0.001864   0.000393
    24  C    0.000043   0.000975   0.007452   0.012620  -0.001922  -0.002642
    25  H    0.000000   0.000006   0.000250  -0.000006  -0.000361  -0.000024
    26  H    0.000000   0.000002   0.000212  -0.000106  -0.000245  -0.000016
    27  C   -0.000121   0.000149   0.000695   0.002422  -0.003933  -0.000609
    28  H   -0.000000   0.000000   0.000009   0.000107  -0.000060  -0.000004
    29  H   -0.000000   0.000000   0.000010   0.000101  -0.000063  -0.000004
    30  H    0.000000  -0.000000  -0.000001  -0.000051   0.000006   0.000000
               7          8          9         10         11         12
     1  C   -0.005683  -0.000189  -0.234531  -0.000619  -0.011360  -0.000040
     2  C    0.031388   0.080420   0.158202   0.009309   0.067984  -0.000762
     3  C    0.431976  -0.183551  -0.615144  -0.171847  -0.166816  -0.007980
     4  C   -0.055010   0.031053  -0.065831  -0.420617  -0.073839   0.020811
     5  C   -0.302861   0.024774  -0.539689   0.307150  -0.039182   0.005525
     6  C   -0.036059   0.022847   0.231967   0.233617   0.033838   0.000630
     7  N    7.830644   0.216971   0.093007  -0.081376  -0.422328   0.031328
     8  H    0.216971   0.348678   0.000180   0.008143   0.030216   0.002612
     9  C    0.093007   0.000180   5.749228   0.670476   0.316656   0.035311
    10  O   -0.081376   0.008143   0.670476   8.303259  -0.205932   0.008840
    11  N   -0.422328   0.030216   0.316656  -0.205932   7.745009   0.232691
    12  H    0.031328   0.002612   0.035311   0.008840   0.232691   0.345683
    13  C   -0.109147   0.006777  -0.509696  -0.073493   0.366651  -0.078950
    14  Cl   0.000219   0.000021  -0.002841   0.000099   0.000142  -0.000000
    15  C   -0.010503  -0.000769  -0.053855  -0.001902  -0.002018  -0.000025
    16  F   -0.000524  -0.000018  -0.001165   0.000004  -0.000021   0.000000
    17  F    0.000141  -0.000001  -0.000385   0.000000   0.000002  -0.000000
    18  F    0.000116  -0.000001  -0.000507   0.000000   0.000002  -0.000000
    19  H   -0.012784   0.007023  -0.016364   0.000117   0.001176   0.000005
    20  H   -0.012887  -0.000107   0.022907  -0.002501   0.000223   0.000000
    21  H   -0.000987   0.000002  -0.006602   0.000249  -0.000001  -0.000000
    22  H    0.000210   0.000004  -0.003389   0.001044  -0.057793   0.002787
    23  H    0.000386   0.000004  -0.007416   0.001216  -0.058471   0.002796
    24  C    0.016731  -0.000118   0.117566   0.018819  -0.086430  -0.001464
    25  H    0.000108   0.000002   0.000231  -0.000240   0.007219   0.001010
    26  H    0.000209   0.000002   0.000114  -0.000231   0.007168   0.001009
    27  C   -0.000895  -0.000114  -0.013072  -0.001701  -0.004350  -0.001520
    28  H    0.000020  -0.000000   0.002161  -0.000064   0.000519   0.000001
    29  H    0.000018  -0.000000   0.002179  -0.000063   0.000550   0.000001
    30  H    0.000012  -0.000000  -0.002354   0.000010   0.000628  -0.000003
              13         14         15         16         17         18
     1  C   -0.011596  -0.263365  -0.694917  -0.034664  -0.229521  -0.231247
     2  C    0.014055  -0.184361  -1.946924  -0.029184   0.341809   0.342001
     3  C    0.012493   0.231587   1.401310  -0.148830  -0.104243  -0.100744
     4  C   -0.129263  -0.048511  -1.037286   0.171829   0.048848   0.047783
     5  C   -0.156601   0.063610   0.447897  -0.003434  -0.015531  -0.015611
     6  C   -0.018742  -0.084990  -0.692773   0.026983   0.027858   0.027053
     7  N   -0.109147   0.000219  -0.010503  -0.000524   0.000141   0.000116
     8  H    0.006777   0.000021  -0.000769  -0.000018  -0.000001  -0.000001
     9  C   -0.509696  -0.002841  -0.053855  -0.001165  -0.000385  -0.000507
    10  O   -0.073493   0.000099  -0.001902   0.000004   0.000000   0.000000
    11  N    0.366651   0.000142  -0.002018  -0.000021   0.000002   0.000002
    12  H   -0.078950  -0.000000  -0.000025   0.000000  -0.000000  -0.000000
    13  C    6.552192  -0.000072  -0.002199  -0.000024  -0.000002  -0.000003
    14  Cl  -0.000072  16.971083   0.033099   0.000944   0.003169   0.003149
    15  C   -0.002199   0.033099   6.981532   0.132041   0.064410   0.064646
    16  F   -0.000024   0.000944   0.132041   9.286158  -0.038537  -0.038551
    17  F   -0.000002   0.003169   0.064410  -0.038537   9.209409  -0.051500
    18  F   -0.000003   0.003149   0.064646  -0.038551  -0.051500   9.209283
    19  H   -0.000725   0.000560   0.046500   0.007079  -0.000011  -0.000011
    20  H    0.003345   0.000261   0.001472   0.000000   0.000000   0.000000
    21  H   -0.000100  -0.000505   0.009949   0.000011   0.000014   0.000014
    22  H    0.418475   0.000000  -0.000000  -0.000000  -0.000000   0.000000
    23  H    0.423528   0.000000  -0.000001  -0.000000   0.000000  -0.000000
    24  C   -0.362469   0.000003   0.000250   0.000001  -0.000000  -0.000000
    25  H   -0.080840  -0.000000  -0.000000   0.000000   0.000000   0.000000
    26  H   -0.080819  -0.000000   0.000000   0.000000   0.000000   0.000000
    27  C   -0.024268  -0.000001   0.000002  -0.000000   0.000000  -0.000000
    28  H   -0.007807  -0.000000   0.000000   0.000000  -0.000000   0.000000
    29  H   -0.007722  -0.000000   0.000000   0.000000   0.000000  -0.000000
    30  H    0.025762   0.000000  -0.000000  -0.000000   0.000000   0.000000
              19         20         21         22         23         24
     1  C   -0.048613   0.036596  -0.022985  -0.000002  -0.000009   0.000043
     2  C    0.162333  -0.014951   0.096015   0.000021   0.000014   0.000975
     3  C   -0.007365   0.050169   0.011146  -0.000679  -0.000804   0.007452
     4  C    0.104864  -0.013262  -0.020141  -0.002088  -0.002856   0.012620
     5  C    0.039056   0.315888  -0.055188   0.001950   0.001864  -0.001922
     6  C    0.012223  -0.082547   0.302858   0.000394   0.000393  -0.002642
     7  N   -0.012784  -0.012887  -0.000987   0.000210   0.000386   0.016731
     8  H    0.007023  -0.000107   0.000002   0.000004   0.000004  -0.000118
     9  C   -0.016364   0.022907  -0.006602  -0.003389  -0.007416   0.117566
    10  O    0.000117  -0.002501   0.000249   0.001044   0.001216   0.018819
    11  N    0.001176   0.000223  -0.000001  -0.057793  -0.058471  -0.086430
    12  H    0.000005   0.000000  -0.000000   0.002787   0.002796  -0.001464
    13  C   -0.000725   0.003345  -0.000100   0.418475   0.423528  -0.362469
    14  Cl   0.000560   0.000261  -0.000505   0.000000   0.000000   0.000003
    15  C    0.046500   0.001472   0.009949  -0.000000  -0.000001   0.000250
    16  F    0.007079   0.000000   0.000011  -0.000000  -0.000000   0.000001
    17  F   -0.000011   0.000000   0.000014  -0.000000   0.000000  -0.000000
    18  F   -0.000011   0.000000   0.000014   0.000000  -0.000000  -0.000000
    19  H    0.481858  -0.000112   0.000011   0.000000   0.000000   0.000017
    20  H   -0.000112   0.418507  -0.004256  -0.000000  -0.000000  -0.000026
    21  H    0.000011  -0.004256   0.450271  -0.000000  -0.000000   0.000002
    22  H    0.000000  -0.000000  -0.000000   0.494450  -0.035234  -0.052689
    23  H    0.000000  -0.000000  -0.000000  -0.035234   0.494522  -0.053908
    24  C    0.000017  -0.000026   0.000002  -0.052689  -0.053908   6.114399
    25  H    0.000000  -0.000000   0.000000   0.003914  -0.005383   0.416388
    26  H   -0.000000  -0.000000   0.000000  -0.005416   0.003915   0.415812
    27  C   -0.000002   0.000011  -0.000000   0.003643   0.005054   0.010752
    28  H   -0.000000  -0.000000   0.000000  -0.000323   0.002750  -0.064734
    29  H   -0.000000  -0.000000   0.000000   0.002730  -0.000332  -0.063937
    30  H   -0.000000   0.000000  -0.000000  -0.000063  -0.000061  -0.082523
              25         26         27         28         29         30
     1  C    0.000000   0.000000  -0.000121  -0.000000  -0.000000   0.000000
     2  C    0.000006   0.000002   0.000149   0.000000   0.000000  -0.000000
     3  C    0.000250   0.000212   0.000695   0.000009   0.000010  -0.000001
     4  C   -0.000006  -0.000106   0.002422   0.000107   0.000101  -0.000051
     5  C   -0.000361  -0.000245  -0.003933  -0.000060  -0.000063   0.000006
     6  C   -0.000024  -0.000016  -0.000609  -0.000004  -0.000004   0.000000
     7  N    0.000108   0.000209  -0.000895   0.000020   0.000018   0.000012
     8  H    0.000002   0.000002  -0.000114  -0.000000  -0.000000  -0.000000
     9  C    0.000231   0.000114  -0.013072   0.002161   0.002179  -0.002354
    10  O   -0.000240  -0.000231  -0.001701  -0.000064  -0.000063   0.000010
    11  N    0.007219   0.007168  -0.004350   0.000519   0.000550   0.000628
    12  H    0.001010   0.001009  -0.001520   0.000001   0.000001  -0.000003
    13  C   -0.080840  -0.080819  -0.024268  -0.007807  -0.007722   0.025762
    14  Cl  -0.000000  -0.000000  -0.000001  -0.000000  -0.000000   0.000000
    15  C   -0.000000   0.000000   0.000002   0.000000   0.000000  -0.000000
    16  F    0.000000   0.000000  -0.000000   0.000000   0.000000  -0.000000
    17  F    0.000000   0.000000   0.000000  -0.000000   0.000000   0.000000
    18  F    0.000000   0.000000  -0.000000   0.000000  -0.000000   0.000000
    19  H    0.000000  -0.000000  -0.000002  -0.000000  -0.000000  -0.000000
    20  H   -0.000000  -0.000000   0.000011  -0.000000  -0.000000   0.000000
    21  H    0.000000   0.000000  -0.000000   0.000000   0.000000  -0.000000
    22  H    0.003914  -0.005416   0.003643  -0.000323   0.002730  -0.000063
    23  H   -0.005383   0.003915   0.005054   0.002750  -0.000332  -0.000061
    24  C    0.416388   0.415812   0.010752  -0.064734  -0.063937  -0.082523
    25  H    0.511403  -0.033914  -0.031426  -0.004861   0.003959  -0.003081
    26  H   -0.033914   0.511027  -0.030667   0.003953  -0.004844  -0.003074
    27  C   -0.031426  -0.030667   5.537926   0.414388   0.413459   0.409749
    28  H   -0.004861   0.003953   0.414388   0.492729  -0.027888  -0.024013
    29  H    0.003959  -0.004844   0.413459  -0.027888   0.492708  -0.023981
    30  H   -0.003081  -0.003074   0.409749  -0.024013  -0.023981   0.490053
 Mulliken charges:
               1
     1  C    0.159293
     2  C   -1.278413
     3  C   -0.475848
     4  C   -0.023124
     5  C    0.410927
     6  C   -0.137094
     7  N   -0.602440
     8  H    0.405140
     9  C    0.672655
    10  O   -0.601768
    11  N   -0.682132
    12  H    0.399704
    13  C   -0.168739
    14  Cl   0.276698
    15  C    1.260063
    16  F   -0.330098
    17  F   -0.255931
    18  F   -0.255871
    19  H    0.223166
    20  H    0.281269
    21  H    0.240222
    22  H    0.228054
    23  H    0.228034
    24  C   -0.358968
    25  H    0.215644
    26  H    0.215909
    27  C   -0.685571
    28  H    0.213116
    29  H    0.213117
    30  H    0.212985
 Sum of Mulliken charges =  -0.00000
 Mulliken charges with hydrogens summed into heavy atoms:
               1
     1  C    0.159293
     2  C   -1.278413
     3  C   -0.252682
     4  C   -0.023124
     5  C    0.692196
     6  C    0.103128
     7  N   -0.197300
     9  C    0.672655
    10  O   -0.601768
    11  N   -0.282428
    13  C    0.287349
    14  Cl   0.276698
    15  C    1.260063
    16  F   -0.330098
    17  F   -0.255931
    18  F   -0.255871
    24  C    0.072585
    27  C   -0.046353
 Electronic spatial extent (au):  <R**2>=           8922.8322
 Charge=              0.0000 electrons
 Dipole moment (field-independent basis, Debye):
    X=             -5.5503    Y=              2.8053    Z=             -0.0787  Tot=              6.2195
 Quadrupole moment (field-independent basis, Debye-Ang):
   XX=           -109.6159   YY=           -108.8654   ZZ=           -115.6213
   XY=            -14.9955   XZ=              0.1265   YZ=             -0.0161
 Traceless Quadrupole moment (field-independent basis, Debye-Ang):
   XX=              1.7516   YY=              2.5021   ZZ=             -4.2538
   XY=            -14.9955   XZ=              0.1265   YZ=             -0.0161
 Octapole moment (field-independent basis, Debye-Ang**2):
  XXX=           -109.9988  YYY=             21.0353  ZZZ=              0.3796  XYY=             17.3772
  XXY=             32.6568  XXZ=             -0.2920  XZZ=             14.0880  YZZ=              8.1549
  YYZ=             -0.3718  XYZ=             -0.0307
 Hexadecapole moment (field-independent basis, Debye-Ang**3):
 XXXX=          -9533.5577 YYYY=          -1128.7953 ZZZZ=           -216.1070 XXXY=            -94.3866
 XXXZ=              2.3815 YYYX=             15.3638 YYYZ=              0.1226 ZZZX=              0.1319
 ZZZY=             -0.1025 XXYY=          -1893.0404 XXZZ=          -1728.8327 YYZZ=           -237.9178
 XXYZ=              0.2146 YYXZ=              1.2781 ZZXY=             36.5552
 N-N= 1.414001517911D+03 E-N=-6.052307011584D+03  KE= 1.361198289340D+03
 Calling FoFJK, ICntrl=      2127 FMM=F ISym2X=0 I1Cent= 0 IOpClX= 0 NMat=1 NMatS=1 NMatT=0.
 ***** Axes restored to original set *****
 -------------------------------------------------------------------
 Center     Atomic                   Forces (Hartrees/Bohr)
 Number     Number              X              Y              Z
 -------------------------------------------------------------------
      1        6           0.004958408   -0.001757104    0.000140978
      2        6          -0.011275900    0.004244471   -0.000344756
      3        6           0.002405327    0.007979912   -0.001133954
      4        6          -0.009938004    0.001273957   -0.000204036
      5        6           0.004352701   -0.004211410    0.000611144
      6        6           0.000994451   -0.013903691    0.001734321
      7        7           0.024155807   -0.027499762    0.004052637
      8        1           0.005826763    0.016061134   -0.002251647
      9        6          -0.011700326    0.028069868   -0.004402420
     10        8           0.001517988    0.012304163   -0.001577981
     11        7           0.011826575   -0.037128172    0.005506764
     12        1          -0.004721336    0.016754735   -0.002402534
     13        6          -0.005623882    0.006363558   -0.001110335
     14       17          -0.009727360   -0.004984957    0.000733177
     15        6           0.006629203   -0.001871477    0.000133470
     16        9           0.016909649    0.034438364   -0.004487018
     17        9          -0.013980913   -0.009045211    0.035453063
     18        9          -0.014704810   -0.017488684   -0.031784377
     19        1           0.002537543   -0.003177017    0.000349075
     20        1          -0.010202116   -0.002902820    0.000343694
     21        1           0.001064619    0.000597938   -0.000080240
     22        1           0.001825193   -0.004672611   -0.009795333
     23        1           0.001703060   -0.001623503    0.010756746
     24        6           0.005467224   -0.005169584    0.000809175
     25        1           0.000790377    0.004463591    0.008169859
     26        1           0.000833342    0.001953581   -0.009118417
     27        6          -0.006140551    0.001054453   -0.000219782
     28        1          -0.000834957   -0.003494724    0.010187302
     29        1          -0.000730026   -0.006266181   -0.008718301
     30        1           0.005781949    0.009637183   -0.001350275
 -------------------------------------------------------------------
 Cartesian Forces:  Max     0.037128172 RMS     0.011052305

 GradGradGradGradGradGradGradGradGradGradGradGradGradGradGradGradGradGrad
 Berny optimization.
 FormGI is forming the generalized inverse of G from B-inverse, IUseBI=4.
 GSVD:  received Info=                   1 from GESDD.
 Internal  Forces:  Max     0.038270482 RMS     0.008525308
 Search for a local minimum.
 Step number   1 out of a maximum of  157
 All quantities printed in internal units (Hartrees-Bohrs-Radians)
 Mixed Optimization -- RFO/linear search
 Second derivative matrix not updated -- first step.
 ITU=  0
     Eigenvalues ---    0.00329   0.00423   0.00576   0.00994   0.01160
     Eigenvalues ---    0.01405   0.01468   0.01630   0.01698   0.01952
     Eigenvalues ---    0.01971   0.01980   0.02019   0.02054   0.02099
     Eigenvalues ---    0.02108   0.02137   0.02150   0.02178   0.03756
     Eigenvalues ---    0.04435   0.04933   0.05553   0.05673   0.05783
     Eigenvalues ---    0.08033   0.09180   0.10946   0.11321   0.11975
     Eigenvalues ---    0.12669   0.16000   0.16000   0.16000   0.16000
     Eigenvalues ---    0.16000   0.16000   0.16000   0.16000   0.21964
     Eigenvalues ---    0.22000   0.22000   0.22004   0.22369   0.23478
     Eigenvalues ---    0.24602   0.25000   0.25000   0.25000   0.25000
     Eigenvalues ---    0.25000   0.25000   0.25000   0.25000   0.29145
     Eigenvalues ---    0.29365   0.29805   0.30914   0.32336   0.32338
     Eigenvalues ---    0.32406   0.32406   0.32502   0.32508   0.32560
     Eigenvalues ---    0.35623   0.35696   0.36716   0.37888   0.39555
     Eigenvalues ---    0.40645   0.41056   0.42436   0.42468   0.43744
     Eigenvalues ---    0.44145   0.45529   0.46118   0.48299   0.48521
     Eigenvalues ---    0.48529   0.51121   0.52295   0.95092
 RFO step:  Lambda=-2.75777748D-02 EMin= 3.28997958D-03
 Linear search not attempted -- first point.
 Iteration  1 RMS(Cart)=  0.08010503 RMS(Int)=  0.00142870
 Iteration  2 RMS(Cart)=  0.00278298 RMS(Int)=  0.00024578
 Iteration  3 RMS(Cart)=  0.00000457 RMS(Int)=  0.00024575
 Iteration  4 RMS(Cart)=  0.00000000 RMS(Int)=  0.00024575
 Variable       Old X    -DE/DX   Delta X   Delta X   Delta X     New X
                                 (Linear)    (Quad)   (Total)
    R1        2.66384  -0.01258   0.00000  -0.02714  -0.02716   2.63667
    R2        2.63668  -0.00595   0.00000  -0.01149  -0.01153   2.62515
    R3        3.32948  -0.01092   0.00000  -0.03398  -0.03398   3.29550
    R4        2.66183  -0.01785   0.00000  -0.03890  -0.03888   2.62295
    R5        2.86178  -0.00785   0.00000  -0.02330  -0.02330   2.83848
    R6        2.66297  -0.01199   0.00000  -0.02620  -0.02616   2.63681
    R7        2.04560   0.00269   0.00000   0.00699   0.00699   2.05259
    R8        2.67089  -0.01595   0.00000  -0.03421  -0.03419   2.63671
    R9        2.72162  -0.03185   0.00000  -0.07527  -0.07527   2.64635
   R10        2.63710  -0.00352   0.00000  -0.00631  -0.00633   2.63077
   R11        2.02977   0.00522   0.00000   0.01322   0.01322   2.04298
   R12        2.04675   0.00077   0.00000   0.00201   0.00201   2.04876
   R13        1.95032  -0.01645   0.00000  -0.03638  -0.03638   1.91393
   R14        2.58751   0.01076   0.00000   0.01998   0.01998   2.60749
   R15        2.30671   0.01232   0.00000   0.01259   0.01259   2.31930
   R16        2.57618   0.00107   0.00000   0.00195   0.00195   2.57812
   R17        1.95072  -0.01714   0.00000  -0.03793  -0.03793   1.91278
   R18        2.74529  -0.00175   0.00000  -0.00429  -0.00429   2.74100
   R19        2.10230  -0.01044   0.00000  -0.02976  -0.02976   2.07254
   R20        2.10233  -0.01043   0.00000  -0.02971  -0.02971   2.07262
   R21        2.89701  -0.00529   0.00000  -0.01657  -0.01657   2.88044
   R22        2.61621  -0.03827   0.00000  -0.07496  -0.07496   2.54126
   R23        2.61388  -0.03761   0.00000  -0.07334  -0.07334   2.54054
   R24        2.61379  -0.03759   0.00000  -0.07329  -0.07329   2.54050
   R25        2.10108  -0.00889   0.00000  -0.02529  -0.02529   2.07579
   R26        2.10108  -0.00892   0.00000  -0.02537  -0.02537   2.07571
   R27        2.88354   0.00214   0.00000   0.00658   0.00658   2.89012
   R28        2.09934  -0.01053   0.00000  -0.02986  -0.02986   2.06948
   R29        2.09924  -0.01049   0.00000  -0.02974  -0.02974   2.06950
   R30        2.09831  -0.01095   0.00000  -0.03099  -0.03099   2.06732
    A1        2.09360  -0.00214   0.00000  -0.00658  -0.00664   2.08696
    A2        2.13023  -0.00048   0.00000  -0.00230  -0.00227   2.12796
    A3        2.05936   0.00262   0.00000   0.00888   0.00891   2.06827
    A4        2.07293   0.00322   0.00000   0.01007   0.01007   2.08300
    A5        2.10542   0.00392   0.00000   0.01487   0.01487   2.12029
    A6        2.10484  -0.00713   0.00000  -0.02494  -0.02494   2.07990
    A7        2.12702  -0.00220   0.00000  -0.01124  -0.01117   2.11585
    A8        2.08722  -0.00204   0.00000  -0.01113  -0.01116   2.07607
    A9        2.06894   0.00424   0.00000   0.02236   0.02233   2.09127
   A10        2.05804   0.00682   0.00000   0.02445   0.02452   2.08256
   A11        2.05345  -0.00323   0.00000  -0.01156  -0.01159   2.04185
   A12        2.17170  -0.00360   0.00000  -0.01289  -0.01293   2.15877
   A13        2.10531  -0.00617   0.00000  -0.02210  -0.02210   2.08321
   A14        2.15667  -0.00629   0.00000  -0.03894  -0.03894   2.11773
   A15        2.02121   0.01246   0.00000   0.06104   0.06104   2.08225
   A16        2.10947   0.00047   0.00000   0.00539   0.00533   2.11481
   A17        2.09158  -0.00121   0.00000  -0.00788  -0.00785   2.08374
   A18        2.08213   0.00074   0.00000   0.00248   0.00251   2.08464
   A19        2.02327  -0.00148   0.00000  -0.01242  -0.01242   2.01084
   A20        2.23388  -0.00703   0.00000  -0.02838  -0.02838   2.20549
   A21        2.02603   0.00851   0.00000   0.04081   0.04081   2.06684
   A22        2.11751   0.01024   0.00000   0.03689   0.03689   2.15440
   A23        2.08473  -0.02536   0.00000  -0.09135  -0.09135   1.99337
   A24        2.08095   0.01512   0.00000   0.05447   0.05446   2.13541
   A25        2.07879   0.00699   0.00000   0.03309   0.03309   2.11188
   A26        2.12688  -0.00644   0.00000  -0.02600  -0.02600   2.10088
   A27        2.07751  -0.00055   0.00000  -0.00709  -0.00709   2.07042
   A28        1.90684   0.00074   0.00000   0.00088   0.00094   1.90777
   A29        1.90554   0.00083   0.00000   0.00201   0.00207   1.90761
   A30        1.93753  -0.00412   0.00000  -0.01356  -0.01351   1.92402
   A31        1.90241  -0.00272   0.00000  -0.02175  -0.02184   1.88057
   A32        1.90600   0.00262   0.00000   0.01577   0.01575   1.92175
   A33        1.90521   0.00264   0.00000   0.01633   0.01632   1.92152
   A34        1.95455   0.00259   0.00000   0.00654   0.00634   1.96089
   A35        1.91296   0.01586   0.00000   0.05853   0.05732   1.97028
   A36        1.91328   0.01583   0.00000   0.05836   0.05715   1.97042
   A37        1.88810  -0.01078   0.00000  -0.04151  -0.04169   1.84641
   A38        1.88825  -0.01079   0.00000  -0.04164  -0.04182   1.84643
   A39        1.90593  -0.01389   0.00000  -0.04443  -0.04640   1.85953
   A40        1.91066  -0.00015   0.00000  -0.00260  -0.00263   1.90803
   A41        1.91064  -0.00011   0.00000  -0.00246  -0.00249   1.90815
   A42        1.94138  -0.00087   0.00000  -0.00017  -0.00017   1.94122
   A43        1.89845  -0.00154   0.00000  -0.01728  -0.01734   1.88110
   A44        1.90057   0.00137   0.00000   0.01140   0.01140   1.91197
   A45        1.90161   0.00129   0.00000   0.01075   0.01075   1.91236
   A46        1.92555   0.00218   0.00000   0.01094   0.01086   1.93641
   A47        1.92602   0.00217   0.00000   0.01081   0.01073   1.93674
   A48        1.91261   0.00344   0.00000   0.01973   0.01958   1.93220
   A49        1.90570  -0.00279   0.00000  -0.01754  -0.01756   1.88814
   A50        1.89653  -0.00257   0.00000  -0.01226  -0.01240   1.88413
   A51        1.89693  -0.00259   0.00000  -0.01250  -0.01264   1.88429
    D1       -0.00002   0.00001   0.00000   0.00030   0.00030   0.00028
    D2        3.14099   0.00001   0.00000   0.00035   0.00036   3.14135
    D3        3.14154   0.00001   0.00000   0.00011   0.00012  -3.14153
    D4       -0.00063   0.00001   0.00000   0.00017   0.00017  -0.00046
    D5       -0.00071   0.00001   0.00000   0.00032   0.00033  -0.00038
    D6        3.14106   0.00000   0.00000   0.00010   0.00011   3.14117
    D7        3.14092   0.00002   0.00000   0.00050   0.00051   3.14142
    D8       -0.00050   0.00001   0.00000   0.00028   0.00029  -0.00022
    D9        0.00114  -0.00005   0.00000  -0.00099  -0.00099   0.00015
   D10        3.14127  -0.00000   0.00000  -0.00004  -0.00004   3.14123
   D11       -3.13988  -0.00005   0.00000  -0.00106  -0.00106  -3.14093
   D12        0.00025  -0.00001   0.00000  -0.00010  -0.00011   0.00015
   D13       -3.14137  -0.00002   0.00000  -0.00022  -0.00022  -3.14159
   D14       -1.04582  -0.00122   0.00000  -0.00879  -0.00946  -1.05528
   D15        1.04587   0.00123   0.00000   0.00861   0.00929   1.05516
   D16       -0.00037  -0.00001   0.00000  -0.00015  -0.00016  -0.00052
   D17        2.09519  -0.00122   0.00000  -0.00872  -0.00940   2.08579
   D18       -2.09632   0.00123   0.00000   0.00868   0.00936  -2.08696
   D19       -0.00149   0.00005   0.00000   0.00100   0.00100  -0.00048
   D20        3.13999   0.00008   0.00000   0.00175   0.00176  -3.14144
   D21        3.14156   0.00000   0.00000   0.00008   0.00007  -3.14156
   D22       -0.00016   0.00004   0.00000   0.00083   0.00083   0.00067
   D23        0.00074  -0.00002   0.00000  -0.00035  -0.00035   0.00038
   D24       -3.13961  -0.00006   0.00000  -0.00124  -0.00122  -3.14083
   D25       -3.14073  -0.00005   0.00000  -0.00115  -0.00116   3.14130
   D26        0.00211  -0.00010   0.00000  -0.00204  -0.00203   0.00009
   D27        0.01391  -0.00005   0.00000  -0.00145  -0.00145   0.01246
   D28       -3.12296  -0.00008   0.00000  -0.00189  -0.00188  -3.12484
   D29       -3.12781  -0.00002   0.00000  -0.00065  -0.00065  -3.12847
   D30        0.01851  -0.00004   0.00000  -0.00108  -0.00109   0.01742
   D31        0.00034  -0.00001   0.00000  -0.00030  -0.00030   0.00004
   D32       -3.14142  -0.00000   0.00000  -0.00008  -0.00008  -3.14150
   D33        3.14078   0.00002   0.00000   0.00046   0.00048   3.14126
   D34       -0.00099   0.00003   0.00000   0.00068   0.00070  -0.00028
   D35        0.00067  -0.00010   0.00000  -0.00195  -0.00194  -0.00127
   D36        3.13931   0.00008   0.00000   0.00169   0.00169   3.14099
   D37       -3.13619  -0.00011   0.00000  -0.00226  -0.00225  -3.13844
   D38        0.00245   0.00008   0.00000   0.00138   0.00137   0.00382
   D39        0.00271  -0.00010   0.00000  -0.00192  -0.00192   0.00079
   D40       -3.13664  -0.00011   0.00000  -0.00236  -0.00237  -3.13900
   D41        3.14141   0.00007   0.00000   0.00162   0.00163  -3.14014
   D42        0.00206   0.00006   0.00000   0.00118   0.00119   0.00325
   D43       -1.04051   0.00118   0.00000   0.01233   0.01233  -1.02818
   D44        1.03850  -0.00119   0.00000  -0.01235  -0.01235   1.02615
   D45        3.13967   0.00004   0.00000   0.00071   0.00071   3.14038
   D46        2.10332   0.00116   0.00000   0.01185   0.01185   2.11517
   D47       -2.10085  -0.00122   0.00000  -0.01284  -0.01283  -2.11369
   D48        0.00032   0.00002   0.00000   0.00023   0.00023   0.00055
   D49       -1.03646   0.00097   0.00000   0.01127   0.01125  -1.02521
   D50        1.04307  -0.00106   0.00000  -0.01285  -0.01284   1.03023
   D51       -3.13765  -0.00008   0.00000  -0.00115  -0.00115  -3.13880
   D52       -3.13995   0.00095   0.00000   0.00846   0.00848  -3.13147
   D53       -1.06043  -0.00109   0.00000  -0.01566  -0.01560  -1.07603
   D54        1.04204  -0.00010   0.00000  -0.00396  -0.00392   1.03812
   D55        1.06491   0.00114   0.00000   0.01585   0.01579   1.08070
   D56       -3.13875  -0.00090   0.00000  -0.00827  -0.00830   3.13614
   D57       -1.03628   0.00009   0.00000   0.00343   0.00339  -1.03289
   D58        1.05407  -0.00033   0.00000  -0.00382  -0.00385   1.05021
   D59       -1.05337   0.00032   0.00000   0.00393   0.00396  -1.04941
   D60        3.14155   0.00001   0.00000   0.00023   0.00024  -3.14140
   D61       -1.05307  -0.00049   0.00000  -0.00796  -0.00799  -1.06106
   D62        3.12268   0.00016   0.00000  -0.00021  -0.00018   3.12250
   D63        1.03441  -0.00015   0.00000  -0.00390  -0.00390   1.03050
   D64       -3.12133  -0.00017   0.00000   0.00008   0.00004  -3.12129
   D65        1.05442   0.00049   0.00000   0.00782   0.00786   1.06227
   D66       -1.03385   0.00018   0.00000   0.00413   0.00413  -1.02972
         Item               Value     Threshold  Converged?
 Maximum Force            0.038270     0.000450     NO 
 RMS     Force            0.008525     0.000300     NO 
 Maximum Displacement     0.262993     0.001800     NO 
 RMS     Displacement     0.081233     0.001200     NO 
 Predicted change in Energy=-1.490701D-02
 GradGradGradGradGradGradGradGradGradGradGradGradGradGradGradGradGradGrad

                          Input orientation:                          
 ---------------------------------------------------------------------
 Center     Atomic      Atomic             Coordinates (Angstroms)
 Number     Number       Type             X           Y           Z
 ---------------------------------------------------------------------
      1          6           0        1.062586    2.272513   -0.141685
      2          6           0        0.803678    0.912386    0.030925
      3          6           0       -0.511388    0.473096    0.095631
      4          6           0       -1.578405    1.366138   -0.008883
      5          6           0       -1.317049    2.725870   -0.181050
      6          6           0        0.002638    3.164425   -0.245588
      7          7           0       -2.868460    0.826809    0.068405
      8          1           0       -2.909408   -0.175732    0.206316
      9          6           0       -4.054433    1.525231   -0.029521
     10          8           0       -4.112242    2.739286   -0.199946
     11          7           0       -5.171309    0.749480    0.080336
     12          1           0       -5.099855   -0.250220    0.221921
     13          6           0       -6.490356    1.346508   -0.006509
     14         17           0        2.688105    2.897588   -0.232066
     15          6           0        1.916765   -0.089377    0.147894
     16          9           0        1.460650   -1.344161    0.308824
     17          9           0        2.705872   -0.123639   -0.940009
     18          9           0        2.722719    0.144486    1.198176
     19          1           0       -0.705542   -0.587140    0.229776
     20          1           0       -2.118754    3.446280   -0.265055
     21          1           0        0.207248    4.220677   -0.379255
     22          1           0       -6.598733    2.102537    0.780584
     23          1           0       -6.595970    1.853104   -0.973535
     24          6           0       -7.564718    0.275753    0.143868
     25          1           0       -7.437952   -0.479437   -0.643682
     26          1           0       -7.443969   -0.226841    1.113063
     27          6           0       -8.966252    0.880927    0.051718
     28          1           0       -9.118319    1.370897   -0.915805
     29          1           0       -9.124634    1.624497    0.839966
     30          1           0       -9.730301    0.105616    0.160847
 ---------------------------------------------------------------------
                    Distance matrix (angstroms):
                    1          2          3          4          5
     1  C    0.000000
     2  C    1.395268   0.000000
     3  C    2.402419   1.388006   0.000000
     4  C    2.795351   2.425241   1.395339   0.000000
     5  C    2.422756   2.798417   2.408450   1.395285   0.000000
     6  C    1.389170   2.406201   2.761141   2.406151   1.392145
     7  N    4.193725   3.673327   2.383620   1.400390   2.464861
     8  H    4.678862   3.873212   2.486710   2.048229   3.332410
     9  C    5.172514   4.896986   3.698083   2.481220   2.992953
    10  O    5.196164   5.249489   4.264871   2.888316   2.795289
    11  N    6.421088   5.977411   4.668135   3.646531   4.339327
    12  H    6.668739   6.019953   4.646844   3.881558   4.830023
    13  C    7.610697   7.307038   6.043289   4.911991   5.356885
    14  Cl   1.743903   2.749774   4.027692   4.538530   4.009158
    15  C    2.528241   1.502057   2.492998   3.789369   4.300160
    16  F    3.666298   2.366610   2.690132   4.084423   4.951842
    17  F    3.013180   2.373690   3.432114   4.630493   4.987947
    18  F    3.013265   2.373787   3.432643   4.631316   4.988540
    19  H    3.382585   2.136789   1.086182   2.152706   3.393930
    20  H    3.393211   3.879283   3.399050   2.164392   1.081101
    21  H    2.140884   3.386556   3.845298   3.387348   2.144111
    22  H    7.718503   7.534861   6.338770   5.135098   5.404579
    23  H    7.715008   7.526531   6.330061   5.132606   5.408951
    24  C    8.859964   8.393337   7.056254   6.086724   6.718780
    25  H    8.948988   8.385507   7.030732   6.176035   6.924845
    26  H    8.954476   8.395983   7.041715   6.180711   6.923322
    27  C   10.126772   9.770002   8.464808   7.404011   7.871995
    28  H   10.250025   9.977603   8.712537   7.594263   7.952084
    29  H   10.254903   9.986643   8.721684   7.598215   7.950716
    30  H   11.012420  10.565627   9.226465   8.250523   8.818472
                    6          7          8          9         10
     6  C    0.000000
     7  N    3.715676   0.000000
     8  H    4.454310   1.012810   0.000000
     9  C    4.381035   1.379824   2.063971   0.000000
    10  O    4.137036   2.297079   3.179494   1.227320   0.000000
    11  N    5.719083   2.304177   2.447056   1.364283   2.271454
    12  H    6.157418   2.482475   2.191769   2.075658   3.176553
    13  C    6.746922   3.659758   3.896883   2.442579   2.762730
    14  Cl   2.698725   5.937493   6.400752   6.883764   6.802265
    15  C    3.795515   4.872792   4.827299   6.188186   6.668677
    16  F    4.770798   4.848929   4.524725   6.226077   6.927518
    17  F    4.312894   5.743991   5.731330   7.017798   7.431737
    18  F    4.313157   5.744844   5.727755   7.024492   7.443415
    19  H    3.847302   2.589114   2.242060   3.967924   4.780730
    20  H    2.140123   2.744974   3.737151   2.737290   2.116146
    21  H    1.084159   4.602035   5.420779   5.054668   4.569975
    22  H    6.764520   4.006197   4.373947   2.731852   2.747640
    23  H    6.766912   4.004153   4.370236   2.730947   2.748210
    24  C    8.109314   4.729079   4.677569   3.730061   4.255207
    25  H    8.294492   4.805580   4.617624   3.980464   4.649454
    26  H    8.294491   4.810069   4.624613   3.982990   4.649979
    27  C    9.259792   6.098054   6.150267   4.954562   5.203676
    28  H    9.319753   6.350231   6.496291   5.143176   5.238869
    29  H    9.319705   6.353843   6.501644   5.145173   5.239107
    30  H   10.210368   6.900255   6.826845   5.853804   6.215221
                   11         12         13         14         15
    11  N    0.000000
    12  H    1.012201   0.000000
    13  C    1.450473   2.129604   0.000000
    14  Cl   8.153671   8.412319   9.311331   0.000000
    15  C    7.137860   7.018854   8.530258   3.108262   0.000000
    16  F    6.958334   6.651653   8.399859   4.448779   1.344776
    17  F    7.990834   7.892749   9.359668   3.103113   1.344394
    18  F    7.995702   7.893132   9.368931   3.102637   1.344376
    19  H    4.663899   4.407217   6.104007   4.886048   2.670388
    20  H    4.087801   4.773701   4.856624   4.838187   5.381154
    21  H    6.417890   6.965319   7.297787   2.815471   4.666572
    22  H    2.087738   2.845031   1.096741   9.375656   8.815809
    23  H    2.087652   2.844547   1.096784   9.372020   8.803266
    24  C    2.440668   2.521564   1.524264  10.589415   9.488512
    25  H    2.678080   2.503699   2.153603  10.682264   9.396248
    26  H    2.680431   2.507898   2.153659  10.687860   9.411365
    27  C    3.797327   4.032057   2.519963  11.830955  10.926610
    28  H    4.117930   4.480010   2.780936  11.924342  11.181992
    29  H    4.119645   4.482788   2.780866  11.929410  11.195036
    30  H    4.604938   4.644500   3.473480  12.734453  11.648706
                   16         17         18         19         20
    16  F    0.000000
    17  F    2.144723   0.000000
    18  F    2.144723   2.154997   0.000000
    19  H    2.296022   3.636066   3.636764   0.000000
    20  H    6.007478   6.039612   6.040095   4.302384   0.000000
    21  H    5.745597   5.042881   5.042937   4.931451   2.454184
    22  H    8.778151   9.720698   9.534034   6.501342   4.792621
    23  H    8.762195   9.509621   9.719756   6.488442   4.804749
    24  C    9.171074  10.335343  10.342154   6.913773   6.314901
    25  H    8.991114  10.154387  10.345094   6.789689   6.621819
    26  H    9.010407  10.355918  10.173823   6.805616   6.614298
    27  C   10.664774  11.757175  11.768124   8.392035   7.319126
    28  H   10.990261  11.918294  12.090624   8.713270   7.329707
    29  H   11.006511  12.090706  11.944812   8.726098   7.322726
[...]
 293,-0.00002226,-0.00000277,0.00000095,-0.00001351,-0.00000247,0.00000
 309,0.00001936,-0.00001359,-0.00002012,-0.00000847,0.00000118,0.000001
 91,0.00000135,-0.01994883,-0.02025518,0.00011887,0.02055599,0.01908922
 ,0.00272239,-0.00651890,0.00423635,0.60574152,-0.00000766,-0.00000514,
 -0.00000418,-0.00000046,0.00000201,0.00001012,0.00002741,-0.00000459,0
 .00000031,-0.00009018,-0.00004477,-0.00000319,0.00002327,0.00000885,0.
 00000954,-0.00000388,0.00000174,-0.00000003,0.00020793,0.00003611,-0.0
 0004117,-0.00002663,0.00000919,-0.00003878,-0.00048281,-0.00100589,0.0
 0046182,-0.00022963,0.00060023,-0.00007726,0.00243700,0.00084993,0.000
 45358,-0.00014622,-0.00007568,-0.00067912,0.00161845,-0.01561864,-0.02
 137197,0.00001354,0.00000633,-0.00000133,-0.00002209,0.00000663,-0.000
 00608,0.00000580,-0.00000157,0.00000151,0.00000766,-0.00000287,-0.0000
 0248,0.00000875,-0.00000158,0.00000677,-0.00000422,0.00000386,-0.00000
 465,0.00000067,-0.00000140,-0.00000528,0.00000204,0.00000116,-0.000000
 67,-0.00334558,-0.00319462,0.00016810,0.00078689,0.00084958,0.00038934
 ,-0.05238694,0.02195756,0.03011090,0.06068953,0.00000307,-0.00000097,-
 0.00000376,-0.00000368,0.00000710,0.00001338,-0.00001465,0.00000142,0.
 00000547,0.00004329,0.00001869,-0.00005909,-0.00000155,-0.00001618,0.0
 0000948,-0.00000040,0.00000609,0.00000828,-0.00013292,0.00002131,-0.00
 003746,0.00000199,-0.00000352,-0.00002614,-0.00012713,-0.00045099,0.00
 030709,-0.00014868,0.00034313,0.00006234,0.00127448,0.00191018,0.00107
 255,-0.00027550,-0.00007692,-0.00011997,0.00317097,-0.01660535,-0.0217
 0229,-0.00000764,-0.00000164,0.00000008,0.00001189,-0.00001884,-0.0000
 1624,-0.00000151,0.00000774,0.00000235,-0.00000750,0.00000488,0.000008
 79,-0.00000210,0.00000394,0.00000361,0.00000021,0.00000007,-0.00000583
 ,0.00000708,0.00000141,-0.00001327,0.00000032,-0.00000085,-0.00000262,
 -0.00374577,-0.00278225,0.00029359,0.00084592,0.00049632,0.00010332,0.
 02064653,-0.13654703,-0.12024801,-0.02245112,0.14872004,-0.00000276,0.
 00000252,-0.00000106,-0.00000789,0.00000769,0.00000578,-0.00000233,-0.
 00001202,0.00001046,-0.00000281,0.00002976,-0.00002264,0.00000272,-0.0
 0000614,0.00001136,0.00000316,0.00000432,-0.00000133,-0.00011634,-0.00
 000131,0.00002881,-0.00003516,-0.00003720,-0.00004894,-0.00023409,-0.0
 0017535,0.00014147,-0.00002478,0.00028184,-0.00013328,-0.00014529,0.00
 092591,0.00065935,-0.00019082,-0.00041984,-0.00069821,0.00056117,-0.00
 025558,-0.00032765,0.00000021,0.00000155,-0.00000014,-0.00000471,-0.00
 003815,-0.00001432,0.00000458,0.00002089,0.00000110,-0.00000235,0.0000
 0739,0.00000463,0.00000377,0.00000747,0.00000742,-0.00000241,0.0000005
 7,-0.00000723,0.00000456,0.00000008,-0.00000591,0.00000183,0.,-0.00000
 140,0.00004508,0.00019353,0.00162322,-0.00040260,0.00009402,0.00079442
 ,0.02923768,-0.12181102,-0.22443039,-0.03220370,0.13380053,0.23937730,
 0.00000181,-0.00000027,0.00000280,-0.00000459,0.00000302,-0.00000007,0
 .00001020,-0.00000163,0.00000360,-0.00000998,-0.00002349,-0.00002283,0
 .00000433,-0.00001617,-0.00000634,-0.00000429,0.00000964,0.00000310,0.
 00005567,0.00013079,-0.00006068,-0.00003725,0.00002269,0.00001660,-0.0
 0008444,-0.00095034,0.00032938,-0.00064865,0.00046779,-0.00027065,0.00
 281507,-0.00052163,0.00068956,-0.00083506,0.00044720,-0.00034043,-0.00
 011821,-0.01503222,0.02154634,-0.00000104,0.00000089,-0.00000042,0.000
 00066,-0.00000702,0.00000085,0.00000099,0.00000409,-0.00000091,-0.0000
 0046,0.00000124,-0.00000073,-0.00000004,0.00000134,-0.00000013,-0.0000
 0221,0.00000251,0.00000033,0.00000971,0.00001104,-0.00000043,0.0000012
 8,0.00000023,-0.00000018,0.00078136,0.00098016,-0.00046039,-0.00328854
 ,-0.00296766,-0.00075015,-0.04905093,0.01152737,-0.01657493,-0.0002532
 5,-0.00292792,0.00347640,0.05825907,0.00000873,0.00000679,-0.00000063,
 -0.00001270,0.00000731,0.00000212,-0.00001873,-0.00000532,-0.00000146,
 0.00008168,0.00004534,-0.00001190,-0.00001503,-0.00003021,-0.00000212,
 -0.00000003,0.00000988,-0.00000225,-0.00023810,0.00011574,-0.00006033,
 -0.00001882,0.00001095,0.00003409,-0.00003755,-0.00088903,0.00004219,-
 0.00054128,0.00053683,-0.00023005,0.00178283,0.00095279,-0.00081325,-0
 .00105248,0.00043154,0.00017092,0.00176813,-0.01577251,0.02202775,-0.0
 0001786,-0.00000499,0.00000050,0.00002736,-0.00003791,0.00001984,-0.00
 000348,0.00001837,-0.00000600,-0.00000810,0.00000819,-0.00000195,-0.00
 001345,0.00000695,-0.00001287,0.00000115,0.00000108,0.00000545,0.00001
 850,0.00001238,0.00000860,0.00000070,-0.00000083,0.00000210,0.00070484
 ,0.00056343,-0.00021451,-0.00356071,-0.00244513,-0.00093794,0.01138995
 ,-0.13489611,0.11794947,-0.00198942,0.01200514,-0.01532729,-0.01203716
 ,0.14684748,0.00000231,-0.00000511,0.00000414,0.00001262,-0.00001004,-
 0.00001318,0.00000138,0.00001945,-0.00000058,0.00000352,-0.00003876,0.
 00002262,-0.00000201,0.00000587,0.00000519,-0.00000616,-0.00000321,-0.
 00000460,0.00016701,-0.00000668,0.00003682,0.00004449,0.00003753,-0.00
 005074,0.00025581,0.00008777,0.00005175,-0.00008892,-0.00042952,0.0001
 0433,0.00032643,-0.00061195,0.00061020,0.00124589,0.00060272,-0.000184
 97,-0.00046567,-0.00099238,0.00087117,0.00000058,-0.00000167,0.0000009
 6,0.00000411,0.00004675,-0.00001928,-0.00000567,-0.00002745,0.00000780
 ,-0.00000274,-0.00000759,0.00000954,0.00000247,-0.00000868,0.00000594,
 0.00000276,-0.00000197,-0.00000545,-0.00000713,0.00000035,-0.00000438,
 -0.00000260,-0.00000057,-0.00000155,0.00059623,0.00019600,0.00082476,-
 0.00039502,-0.00035214,0.00159078,-0.01713447,0.11924763,-0.22156430,-
 0.00247222,0.01583939,-0.02156037,0.01880926,-0.13273360,0.23698814,0.
 00000126,0.00000763,0.00000073,-0.00001016,0.00000640,-0.00001526,-0.0
 0003936,-0.00002637,-0.00000213,0.00005213,0.00013602,0.00002637,-0.00
 001040,-0.00001420,0.00000067,0.00000865,0.00000325,-0.00000360,-0.000
 46561,-0.00025615,0.00006228,-0.00000173,-0.00004026,-0.00000163,-0.00
 008791,0.00145140,-0.00057576,0.00026936,-0.00019018,0.00007198,-0.003
 41099,-0.00294747,0.00034463,-0.00035531,-0.00030064,-0.00003781,-0.02
 755364,0.00858586,-0.00075128,-0.00001152,-0.00000397,0.00000141,0.000
 01119,-0.00003868,0.00000660,0.00000023,0.00001861,-0.00000189,-0.0000
 0608,0.00000820,0.00000312,-0.00000588,0.00000723,-0.00000303,0.000001
 27,0.00000033,0.00000019,0.00000546,-0.00000039,0.00000072,-0.00000121
 ,-0.00000084,-0.00000018,0.00162699,0.00108383,-0.00003162,0.00152516,
 0.00109846,0.00022067,-0.18793841,0.04799693,-0.00311967,-0.00534844,0
 .00215269,-0.00021276,-0.00398709,0.00186599,-0.00002782,0.51240230,0.
 00004925,0.00003069,-0.00001064,-0.00003462,0.00003115,0.00001234,-0.0
 0016973,-0.00003802,0.00000567,0.00042800,0.00040238,-0.00006266,-0.00
 008871,-0.00009499,0.00001695,0.00001644,0.00002339,-0.00000082,-0.001
 59371,-0.00045123,0.00018558,0.00004693,-0.00008724,-0.00000959,0.0000
 5494,0.00210855,-0.00096245,-0.00012418,-0.00055246,0.00019392,-0.0068
 5713,-0.00465246,0.00083354,-0.00032170,-0.00022145,-0.00006538,-0.018
 81542,0.01284914,-0.00055221,-0.00009092,-0.00003526,0.00000617,0.0001
 3630,-0.00012239,0.00000950,-0.00002678,0.00004902,-0.00000613,-0.0000
 5388,0.00003186,0.00002635,-0.00005442,0.00002373,-0.00003229,0.000014
 41,-0.00001102,0.00000308,0.00004007,0.00003278,-0.00000141,-0.0000102
 6,-0.00000578,0.00000057,-0.00072745,0.00050249,0.00012263,-0.00049113
 ,0.00079579,-0.00025361,0.05080709,-0.10404648,0.00058294,0.01847176,-
 0.00723443,0.00210070,0.01917258,-0.00772694,-0.00046358,0.03961652,0.
 57084833,0.00000161,-0.00000456,0.00000235,0.00000161,0.00000421,0.000
 01139,0.00000598,0.00000124,0.00000434,-0.00004207,-0.00002146,-0.0000
 4778,0.00001037,0.00000759,0.00001292,-0.00000552,-0.00000350,-0.00000
 584,0.00009338,-0.00003282,-0.00000365,0.00000474,0.00000567,-0.000040
 76,-0.00029457,-0.00020744,0.00065090,-0.00005009,0.00006351,-0.000192
 99,0.00048180,0.00063844,0.00067031,0.00044019,-0.00027509,-0.00033300
 ,-0.00084817,0.00023878,-0.00078674,0.00000417,0.00000182,-0.00000178,
 -0.00000629,0.00000696,-0.00000250,0.00000101,-0.00000342,0.00000101,0
 .00000262,-0.00000116,-0.00000109,0.00000178,-0.00000175,0.00000060,-0
 .00000038,0.00000038,-0.00000392,-0.00000267,-0.00000098,0.00000586,0.
 00000071,0.00000051,0.00000136,-0.00075172,0.00003465,0.00015968,0.000
 95746,-0.00014071,0.00025609,-0.00324998,0.00071289,-0.08042951,0.0262
 1410,-0.00980490,0.00243847,-0.02702339,0.01060109,0.00004178,-0.00202
 536,0.00080757,0.58224399,-0.00000583,-0.00000456,0.00000131,0.0000065
 8,-0.00000313,-0.00000315,0.00000770,0.00000448,0.00000220,-0.00003243
 ,-0.00002529,0.00000458,0.00000468,0.00001087,0.00000384,-0.00000240,-
 0.00000439,-0.00000022,0.00011951,-0.00001814,0.00001445,0.00001159,0.
 00000878,-0.00001260,-0.00000732,0.00008339,0.00001197,0.00005804,-0.0
 0016592,0.00006877,0.00011664,-0.00022007,0.00034267,0.00039040,-0.000
 05781,0.00010979,0.00121448,0.00137011,-0.00133723,0.00000913,0.000002
 61,-0.00000040,-0.00001476,0.00002242,-0.00000559,0.00000171,-0.000010
 79,0.00000216,0.00000536,-0.00000493,-0.00000073,0.00000658,-0.0000042
 2,0.00000440,-0.00000026,0.00000010,-0.00000181,-0.00000617,-0.0000024
 2,-0.00000325,-0.00000070,0.00000019,-0.00000069,-0.00002343,-0.000160
 90,0.00004512,-0.00046752,-0.00059721,0.00054034,-0.00414161,0.0179331
 6,-0.02690171,0.00135353,-0.00046691,0.00035404,-0.00603026,0.00255788
 ,-0.00004806,-0.05110842,0.01539070,-0.02249321,0.05606789,-0.00001469
 ,-0.00000542,0.00000403,0.00000534,-0.00000479,-0.00001241,0.00002523,
 -0.00000465,-0.00000364,-0.00009542,-0.00004101,0.00003455,0.00001676,
 0.00001924,-0.00000537,0.00000006,-0.00000580,-0.00000299,0.00017905,0
 .00000073,-0.00001326,-0.00001637,0.00000262,0.00001147,-0.00028235,-0
 .00008059,0.00004407,0.00013182,0.00009895,-0.00005807,0.00003064,0.00
 026723,-0.00032469,-0.00025066,-0.00009390,-0.00001439,-0.00079094,0.0
 0036125,-0.00042826,0.00002075,0.00000818,-0.00000146,-0.00003621,0.00
 001802,0.00001208,0.00000831,-0.00000502,-0.00000165,0.00001534,-0.000
 00610,-0.00001121,0.00001171,-0.00000391,0.00000359,-0.00000355,0.0000
 0330,0.00000240,-0.00001059,-0.00000638,0.00000406,0.00000137,0.000001
 46,0.00000104,0.00010694,-0.00001057,-0.00010577,0.00028332,0.00053978
 ,0.00004902,0.00152375,-0.00853887,0.01116689,-0.00038368,-0.00014973,
 -0.00005815,0.00287958,-0.00026303,-0.00039616,0.01572748,-0.13686017,
 0.12514596,-0.01992254,0.14552936,0.00000532,0.00000097,-0.00000111,0.
 00000281,-0.00000022,0.00000242,-0.00001296,0.00000208,0.00000049,0.00
 003831,0.00001932,-0.00000265,-0.00001033,-0.00000431,-0.00000593,0.00
 000005,0.00000129,0.00000559,-0.00006028,-0.00004166,0.00002598,0.0000
 1150,0.00000067,-0.00000435,0.00009408,0.00025759,-0.00013249,-0.00000
 130,-0.00017720,0.00007303,-0.00019028,-0.00053112,0.00025330,0.000195
 23,0.00006045,0.00000862,0.00021476,0.00004273,0.00014241,-0.00000710,
 -0.00000384,0.00000038,0.00001021,0.00001023,-0.00000803,-0.00000392,-
 0.00000725,0.00000221,-0.00000458,-0.00000112,0.00000475,-0.00000257,-
 0.00000183,0.00000021,0.00000145,-0.00000202,-0.00000110,-0.00000098,0
 .00000490,-0.00000319,-0.00000233,-0.00000047,-0.00000060,-0.00005812,
 0.00011653,-0.00008969,-0.00057760,-0.00012049,0.00002828,-0.00002017,
 -0.00059038,0.00055692,-0.00047101,-0.00012269,0.00064434,0.00028949,-
 0.00021732,0.00155915,-0.02324398,0.12540486,-0.22922296,0.02543799,-0
 .13836966,0.24545922,-0.00000324,-0.00000168,0.00000166,0.00000307,-0.
 00000213,0.00000540,0.00000587,0.00000389,-0.00000099,-0.00001981,-0.0
 0001991,0.00000277,-0.00000027,0.00000739,-0.00000548,-0.00000103,-0.0
 0000423,-0.00000061,0.00008193,0.00001942,0.00001448,0.00000719,0.0000
 1316,0.00001253,0.00006895,0.00002437,-0.00012308,0.00001439,-0.000135
 98,0.00002176,0.00015652,-0.00062302,-0.00068907,0.00014466,0.00013738
 ,0.00020446,0.00095642,0.00158926,0.00159331,0.00000528,0.00000118,-0.
 00000081,-0.00000962,0.00001817,0.00000163,0.00000078,-0.00000847,-0.0
 0000032,0.00000490,-0.00000431,-0.00000368,0.00000297,-0.00000335,-0.0
 0000039,0.00000012,0.00000034,0.00000298,-0.00000343,0.00000024,0.0000
 0482,-0.00000077,0.00000019,0.00000092,-0.00044702,-0.00067076,-0.0005
 8807,-0.00004123,-0.00013680,-0.00004590,-0.00539125,0.01783972,0.0267
 8472,-0.00580832,0.00230748,-0.00066507,0.00135123,-0.00048956,-0.0003
 1968,-0.05449935,0.02265298,0.03292975,-0.00054745,-0.00254246,-0.0024
 5991,0.05970518,-0.00001435,-0.00000638,0.00000257,0.00000578,-0.00000
 346,-0.00000457,0.00002338,-0.00000246,0.00000184,-0.00009347,-0.00004
 477,0.00000611,0.00001612,0.00001983,0.00000294,-0.00000102,-0.0000059
 2,-0.00000100,0.00017712,-0.00001018,0.00000105,-0.00001386,-0.0000005
 0,-0.00001587,-0.00026470,-0.00001978,0.00010379,0.00011388,0.00005561
 ,-0.00003181,-0.00002497,0.00025245,0.00032506,-0.00003156,-0.00009880
 ,-0.00015341,-0.00090800,0.00029672,0.00033715,0.00002050,0.00000801,-
 0.00000116,-0.00003677,0.00001896,-0.00001192,0.00000802,-0.00000658,0
 .00000336,0.00001181,-0.00000545,-0.00000222,0.00001572,-0.00000362,0.
 00001233,-0.00000349,0.00000249,-0.00000411,-0.00001045,-0.00000661,-0
 .00000267,0.00000104,0.00000104,-0.00000113,0.00028318,0.00057563,0.00
 000258,0.00003567,-0.00001624,0.00010906,0.00224364,-0.00861263,-0.011
 14688,0.00274999,-0.00023603,0.00069455,-0.00038527,-0.00013085,0.0000
 5748,0.02283672,-0.13538956,-0.12318475,-0.00351273,0.01241197,0.01609
 185,-0.02781497,0.14404913,-0.00000610,-0.00000053,-0.00000019,-0.0000
 0231,-0.00000097,-0.00000259,0.00001186,-0.00000154,0.00000127,-0.0000
 3250,-0.00001836,-0.00000435,0.00000777,0.00000401,0.00000467,0.000001
 00,-0.00000085,0.00000075,0.00004882,0.00003207,-0.00001570,-0.0000103
 4,-0.00000459,-0.00000345,-0.00002372,-0.00011555,0.00003700,0.0000225
 5,0.00010704,0.00001884,-0.00002785,0.00039641,0.00019535,-0.00008628,
 -0.00003173,-0.00002179,-0.00015040,-0.00007234,0.00001212,0.00000695,
 0.00000367,-0.00000011,-0.00001127,-0.00000966,-0.00000686,0.00000393,
 0.00000635,0.00000108,0.00000238,0.00000162,0.00000126,0.00000568,0.00
 000203,0.00000602,-0.00000156,0.00000145,-0.00000264,-0.00000034,-0.00
 000556,-0.00000483,0.00000199,0.00000011,-0.00000167,0.00054418,0.0002
 1089,0.00010889,0.00000394,-0.00015895,-0.00006616,-0.00025870,0.00164
 639,0.00204452,-0.00069481,0.00030055,0.00150529,0.00054143,0.00007512
 ,0.00072185,0.03358989,-0.12343868,-0.22684424,0.00363322,-0.01616870,
 -0.02077156,-0.03650371,0.13621954,0.24302131,0.00003834,0.00002275,-0
 .00000383,-0.00002162,0.00001322,-0.00000552,-0.00009679,-0.00001125,0
 .00000110,0.00032308,0.00022309,-0.00002152,-0.00006143,-0.00006713,0.
 00001162,0.00000991,0.00001978,-0.00000409,-0.00085758,-0.00014485,0.0
 0004927,0.00003424,-0.00004428,0.00000118,0.00067249,0.00098012,-0.000
 43704,-0.00019190,-0.00036549,0.00013035,-0.00240755,-0.00203241,0.000
 24083,0.00002598,-0.00004687,0.00004847,-0.00331895,0.00540493,-0.0000
 0343,-0.00006641,-0.00002439,0.00000474,0.00010767,-0.00009307,0.00000
 984,-0.00002112,0.00003797,-0.00000446,-0.00004134,0.00002431,0.000020
 22,-0.00004145,0.00001824,-0.00002322,0.00001043,-0.00000918,0.0000017
 2,0.00003168,0.00002268,-0.00000083,-0.00000455,-0.00000385,0.00000016
 ,0.00013676,0.00007076,-0.00020298,0.00017693,0.00022653,0.00013971,-0
 .02041227,-0.02315505,-0.00073026,0.00097383,-0.00015092,0.00056069,0.
 00106492,-0.00015327,-0.00049671,-0.18106246,-0.13743792,-0.00435787,0
 .00301476,0.00338202,0.00082626,0.00426332,0.00457303,-0.00061568,0.19
 772107,0.00001189,0.00000533,-0.00000236,-0.00000434,0.00000045,0.0000
 0448,-0.00000249,0.00000759,-0.00000013,0.00005834,-0.00000330,-0.0000
 1329,-0.00000625,-0.00001308,-0.00000386,-0.00000003,0.00000530,0.0000
 0377,-0.00000887,0.00007659,-0.00003944,0.00000357,0.00000093,0.000005
 52,0.00032304,-0.00021859,0.00012488,-0.00008025,0.00007051,-0.0000081
 6,0.00074691,0.00082777,-0.00009383,-0.00005761,0.00001645,-0.00001103
 ,0.00233454,-0.00157394,0.00003823,-0.00001358,-0.00000484,0.00000074,
 0.00002848,-0.00001752,0.00000054,-0.00000569,0.00000655,-0.00000077,-
 0.00001040,0.00000496,0.00000480,-0.00001028,0.00000355,-0.00000523,0.
 00000162,-0.00000178,0.00000007,0.00000741,0.00000159,-0.00000052,0.00
 000119,-0.00000045,-0.00000011,0.00015033,0.00013793,0.00024240,0.0001
 6615,0.00002901,-0.00020115,0.01235580,0.01221095,0.00051573,-0.000773
 98,0.00057728,-0.00003127,-0.00079137,0.00062265,-0.00004985,-0.138784
 38,-0.19019943,-0.00458875,-0.01220272,-0.01318213,-0.00182188,-0.0121
 5753,-0.01309205,0.00102079,0.14872049,0.20370174,0.00000063,0.0000008
 6,0.00000079,-0.00000018,-0.00000053,-0.00000356,-0.00000198,-0.000000
 79,0.00000032,0.00000701,0.00000412,-0.00001451,-0.00000114,-0.0000009
 6,0.00000185,0.00000050,0.00000099,-0.00000060,-0.00002071,-0.00001771
 ,-0.00002095,0.00000047,-0.00000223,0.00001261,0.00001433,0.00009029,0
 .00005436,0.00000685,-0.00001684,0.00002957,-0.00008743,-0.00014588,0.
 00053428,0.00004281,-0.00001835,0.00001900,-0.00016719,0.00009269,-0.0
 0005435,-0.00000171,-0.00000064,0.00000015,0.00000294,-0.00000297,0.00
 000732,-0.00000046,0.00000155,-0.00000147,-0.00000019,0.00000052,-0.00
 000189,-0.00000211,0.00000039,-0.00000284,0.00000024,-0.00000021,0.000
 00095,0.00000052,0.00000059,-0.00000137,-0.00000016,-0.00000006,0.0000
 0008,0.00018755,0.00043492,0.00020743,-0.00023841,-0.00037207,0.000215
 45,-0.00044071,-0.00055701,-0.00154296,0.00025182,0.00033147,-0.000000
 56,-0.00019645,-0.00036579,-0.00004750,-0.00427549,-0.00445294,-0.0485
 8431,0.02023180,0.01949667,0.00147637,-0.02017439,-0.01940975,0.000065
 91,0.00486124,0.00490968,0.04765043\\0.00000424,-0.00000402,-0.0000036
 7,0.00000079,0.00000514,-0.00000158,-0.00000780,0.00000047,0.00000036,
 0.00000440,-0.00001058,0.00000213,0.00000775,0.00000775,-0.00000157,-0
 .00000977,0.00000095,-0.00000265,-0.00000339,0.00000473,-0.00000564,0.
 00000070,-0.00000091,0.00000612,-0.00000290,0.00000099,0.00000406,0.00
 000267,-0.00000326,-0.00000210,0.00000483,-0.00000062,-0.00000471,-0.0
 0000178,0.00000248,0.00000144,0.00000361,-0.00000027,0.00000059,-0.000
 00156,-0.00000076,-0.00000063,0.00000862,-0.00000901,0.00000187,-0.000
 00186,0.00000410,0.00000111,-0.00000444,-0.00000163,0.00000399,-0.0000
 0131,0.00000318,0.00000207,0.00000144,-0.00000080,0.00000171,-0.000003
 85,-0.00000235,-0.00000244,0.00000215,-0.00000073,-0.00000357,-0.00000
 044,0.00000349,-0.00000104,0.00000025,-0.00000092,-0.00000107,-0.00000
 204,0.00000177,-0.00000239,-0.00000074,-0.00000246,0.00000339,0.000000
 81,0.00000186,0.00000269,0.00000091,-0.00000120,0.00000368,0.00000014,
 0.00000155,-0.00000070,-0.00000034,0.00000046,-0.00000006,-0.00000110,
 0.00000060,-0.00000143\\\@


 ARTHROPOD AXIOM: A COMPUTER SYSTEM IS LIKE A SPIDER'S WEB.
 YOU CANNOT PULL ON ONE END WITHOUT MAKING THE OTHER END MOVE.
     -- GREG WETTSTEIN
 Job cpu time:       0 days  3 hours 35 minutes  7.2 seconds.
 File lengths (MBytes):  RWF=    456 Int=      0 D2E=      0 Chk=     12 Scr=      1
 Normal termination of Gaussian 09 at Tue May 22 13:18:59 2018.
WARNING: pbs_rusage is deprecated and values produced may not be accurate


=============================================================================
                                     Resource usage:
                                       CPU time:              16:14:33
   JobId:    7091376.r-man2            Elapsed time:          04:04:05
   Project:             q95            Requested time:        36:00:00
   Service Units:     16.27 
                                       Max physical memory:      672MB
                                       Max virtual memory:      1338MB
                                       Requested memory:           0MB

                                       Number of cpus:               4

                                       Max jobfs disk use:       0.4GB
                                       Requested jobfs:         16.0GB
=============================================================================

