 Entering Gaussian System, Link 0=/apps/gaussian/g09e01/g09/g09
 AtFile(1): /home/507/hio507/Basis/6-31pGd.gbs
 Initial command:
 /apps/gaussian/g09e01/g09/l1.exe "/jobfs/local/9657138.r-man2/Gau-6082.inp" -scrdir="/jobfs/local/9657138.r-man2/"
 Entering Link 1 = /apps/gaussian/g09e01/g09/l1.exe PID=      6083.
  
 Copyright (c) 1988,1990,1992,1993,1995,1998,2003,2009,2015,
            Gaussian, Inc.  All Rights Reserved.
  
 This is part of the Gaussian(R) 09 program.  It is based on
 the Gaussian(R) 03 system (copyright 2003, Gaussian, Inc.),
 the Gaussian(R) 98 system (copyright 1998, Gaussian, Inc.),
 the Gaussian(R) 94 system (copyright 1995, Gaussian, Inc.),
 the Gaussian 92(TM) system (copyright 1992, Gaussian, Inc.),
 the Gaussian 90(TM) system (copyright 1990, Gaussian, Inc.),
 the Gaussian 88(TM) system (copyright 1988, Gaussian, Inc.),
 the Gaussian 86(TM) system (copyright 1986, Carnegie Mellon
 University), and the Gaussian 82(TM) system (copyright 1983,
 Carnegie Mellon University). Gaussian is a federally registered
 trademark of Gaussian, Inc.
  
 This software contains proprietary and confidential information,
 including trade secrets, belonging to Gaussian, Inc.
  
 This software is provided under written license and may be
 used, copied, transmitted, or stored only in accord with that
 written license.
  
 The following legend is applicable only to US Government
 contracts under FAR:
  
                    RESTRICTED RIGHTS LEGEND
  
 Use, reproduction and disclosure by the US Government is
 subject to restrictions as set forth in subparagraphs (a)
 and (c) of the Commercial Computer Software - Restricted
 Rights clause in FAR 52.227-19.
  
 Gaussian, Inc.
 340 Quinnipiac St., Bldg. 40, Wallingford CT 06492
  
  
 ---------------------------------------------------------------
 Warning -- This program may not be used in any manner that
 competes with the business of Gaussian, Inc. or will provide
 assistance to any competitor of Gaussian, Inc.  The licensee
 of this program is prohibited from giving any competitor of
 Gaussian, Inc. access to this program.  By using this program,
 the user acknowledges that Gaussian, Inc. is engaged in the
 business of creating and licensing software in the field of
 computational chemistry and represents and warrants to the
 licensee that it is not a competitor of Gaussian, Inc. and that
 it will not use this program in any manner prohibited above.
 ---------------------------------------------------------------
  

 Cite this work as:
 Gaussian 09, Revision E.01,
 M. J. Frisch, G. W. Trucks, H. B. Schlegel, G. E. Scuseria, 
 M. A. Robb, J. R. Cheeseman, G. Scalmani, V. Barone, B. Mennucci, 
 G. A. Petersson, H. Nakatsuji, M. Caricato, X. Li, H. P. Hratchian, 
 A. F. Izmaylov, J. Bloino, G. Zheng, J. L. Sonnenberg, M. Hada, 
 M. Ehara, K. Toyota, R. Fukuda, J. Hasegawa, M. Ishida, T. Nakajima, 
 Y. Honda, O. Kitao, H. Nakai, T. Vreven, J. A. Montgomery, Jr., 
 J. E. Peralta, F. Ogliaro, M. Bearpark, J. J. Heyd, E. Brothers, 
 K. N. Kudin, V. N. Staroverov, T. Keith, R. Kobayashi, J. Normand, 
 K. Raghavachari, A. Rendell, J. C. Burant, S. S. Iyengar, J. Tomasi, 
 M. Cossi, N. Rega, J. M. Millam, M. Klene, J. E. Knox, J. B. Cross, 
 V. Bakken, C. Adamo, J. Jaramillo, R. Gomperts, R. E. Stratmann, 
 O. Yazyev, A. J. Austin, R. Cammi, C. Pomelli, J. W. Ochterski, 
 R. L. Martin, K. Morokuma, V. G. Zakrzewski, G. A. Voth, 
 P. Salvador, J. J. Dannenberg, S. Dapprich, A. D. Daniels, 
 O. Farkas, J. B. Foresman, J. V. Ortiz, J. Cioslowski, 
 and D. J. Fox, Gaussian, Inc., Wallingford CT, 2013.
 
 ******************************************
 Gaussian 09:  ES64L-G09RevE.01 30-Nov-2015
                30-Aug-2018 
 ******************************************
 %chk=aryl_urea_nitro_a1.M062X.chk
 %mem=196608000
 %nproc=4
 Will use up to    4 processors via shared memory.
 ----------------------------------------------------------------------
 # M062X/Gen 6D NoSymm SCF=Tight INT(grid=ultrafine) OPT IOP(2/17=4) ma
 xdisk=2147483648
 ----------------------------------------------------------------------
 1/14=-1,18=20,19=15,26=4,38=1/1,3;
 2/9=110,12=2,15=1,17=4,18=5,40=1/2;
 3/5=7,8=2,11=2,16=1,25=1,30=1,71=1,74=-55,75=-5/1,2,3;
 4//1;
 5/5=2,32=2,38=5/2;
 6/7=2,8=2,9=2,10=2,28=1/1;
 7/30=1/1,2,3,16;
 1/14=-1,18=20,19=15,26=4/3(2);
 2/9=110,15=1,17=4/2;
 99//99;
 2/9=110,15=1,17=4/2;
 3/5=7,6=1,8=2,11=2,16=1,25=1,30=1,71=1,74=-55,75=-5,82=7/1,2,3;
 4/5=5,16=3,69=1/1;
 5/5=2,32=2,38=5/2;
 7/30=1/1,2,3,16;
 1/14=-1,18=20,19=15,26=4/3(-5);
 2/9=110,15=1,17=4/2;
 6/7=2,8=2,9=2,10=2,19=2,28=1/1;
 99/9=1/99;
 ------------------------
 aryl_urea_nitro_a1.M062X
 ------------------------
 Symbolic Z-matrix:
 Charge = -1 Multiplicity = 1
 C                    -4.07187   3.51108  -1.21407 
 C                    -4.23676   2.26417  -0.57942 
 C                    -3.15668   1.6624    0.01365 
 C                    -1.85371   2.26211   0.02685 
 C                    -1.72906   3.52689  -0.64153 
 C                    -2.80771   4.12729  -1.24635 
 N                    -0.86173   1.55806   0.59902 
 C                     0.32875   2.14772   0.9152 
 N                     1.36282   1.26467   1.04642 
 O                     0.53518   3.36889   1.13396 
 C                     2.6144    1.64631   1.68254 
 C                     3.55558   0.4539    1.77051 
 C                     4.86989   0.83223   2.44607 
 H                    -3.27538   0.69919   0.50091 
 H                    -0.7622    4.01033  -0.68887 
 H                     1.11689   0.28176   1.04804 
 H                     2.42393   2.04584   2.68893 
 H                     3.08388   2.4478    1.10162 
 H                     3.74903   0.07123   0.76093 
 H                     3.06589  -0.35187   2.33214 
 H                     5.38122   1.62596   1.89006 
 H                     5.54515  -0.02678   2.50365 
 H                     4.69651   1.19356   3.46583 
 H                    -5.21124   1.78878  -0.56103 
 H                    -2.68509   5.07632  -1.7571 
 N                    -5.17545   4.1402   -1.8269 
 O                    -5.02412   5.24268  -2.37464 
 O                    -6.28306   3.58205  -1.8103 
 

 GradGradGradGradGradGradGradGradGradGradGradGradGradGradGradGradGradGrad
 Berny optimization.
 Initialization pass.
                           ----------------------------
                           !    Initial Parameters    !
                           ! (Angstroms and Degrees)  !
 --------------------------                            --------------------------
 ! Name  Definition              Value          Derivative Info.                !
 --------------------------------------------------------------------------------
 ! R1    R(1,2)                  1.4088         estimate D2E/DX2                !
 ! R2    R(1,6)                  1.4067         estimate D2E/DX2                !
 ! R3    R(1,26)                 1.4104         estimate D2E/DX2                !
 ! R4    R(2,3)                  1.3713         estimate D2E/DX2                !
 ! R5    R(2,24)                 1.0844         estimate D2E/DX2                !
 ! R6    R(3,4)                  1.4344         estimate D2E/DX2                !
 ! R7    R(3,14)                 1.086          estimate D2E/DX2                !
 ! R8    R(4,5)                  1.4359         estimate D2E/DX2                !
 ! R9    R(4,7)                  1.3443         estimate D2E/DX2                !
 ! R10   R(5,6)                  1.3747         estimate D2E/DX2                !
 ! R11   R(5,15)                 1.082          estimate D2E/DX2                !
 ! R12   R(6,25)                 1.0847         estimate D2E/DX2                !
 ! R13   R(7,8)                  1.3656         estimate D2E/DX2                !
 ! R14   R(8,9)                  1.3661         estimate D2E/DX2                !
 ! R15   R(8,10)                 1.2577         estimate D2E/DX2                !
 ! R16   R(9,11)                 1.4549         estimate D2E/DX2                !
 ! R17   R(9,16)                 1.0132         estimate D2E/DX2                !
 ! R18   R(11,12)                1.5216         estimate D2E/DX2                !
 ! R19   R(11,17)                1.0994         estimate D2E/DX2                !
 ! R20   R(11,18)                1.0956         estimate D2E/DX2                !
 ! R21   R(12,13)                1.5254         estimate D2E/DX2                !
 ! R22   R(12,19)                1.0969         estimate D2E/DX2                !
 ! R23   R(12,20)                1.0975         estimate D2E/DX2                !
 ! R24   R(13,21)                1.0957         estimate D2E/DX2                !
 ! R25   R(13,22)                1.0942         estimate D2E/DX2                !
 ! R26   R(13,23)                1.0957         estimate D2E/DX2                !
 ! R27   R(26,27)                1.2403         estimate D2E/DX2                !
 ! R28   R(26,28)                1.2404         estimate D2E/DX2                !
 ! A1    A(2,1,6)              120.2133         estimate D2E/DX2                !
 ! A2    A(2,1,26)             119.9307         estimate D2E/DX2                !
 ! A3    A(6,1,26)             119.8547         estimate D2E/DX2                !
 ! A4    A(1,2,3)              119.4093         estimate D2E/DX2                !
 ! A5    A(1,2,24)             120.054          estimate D2E/DX2                !
 ! A6    A(3,2,24)             120.5367         estimate D2E/DX2                !
 ! A7    A(2,3,4)              122.4101         estimate D2E/DX2                !
 ! A8    A(2,3,14)             119.8144         estimate D2E/DX2                !
 ! A9    A(4,3,14)             117.7745         estimate D2E/DX2                !
 ! A10   A(3,4,5)              116.2837         estimate D2E/DX2                !
 ! A11   A(3,4,7)              117.0816         estimate D2E/DX2                !
 ! A12   A(5,4,7)              126.5386         estimate D2E/DX2                !
 ! A13   A(4,5,6)              121.4243         estimate D2E/DX2                !
 ! A14   A(4,5,15)             119.4374         estimate D2E/DX2                !
 ! A15   A(6,5,15)             119.1266         estimate D2E/DX2                !
 ! A16   A(1,6,5)              120.2463         estimate D2E/DX2                !
 ! A17   A(1,6,25)             119.7125         estimate D2E/DX2                !
 ! A18   A(5,6,25)             120.0399         estimate D2E/DX2                !
 ! A19   A(4,7,8)              121.0435         estimate D2E/DX2                !
 ! A20   A(7,8,9)              113.7652         estimate D2E/DX2                !
 ! A21   A(7,8,10)             127.058          estimate D2E/DX2                !
 ! A22   A(9,8,10)             119.1228         estimate D2E/DX2                !
 ! A23   A(8,9,11)             121.5739         estimate D2E/DX2                !
 ! A24   A(8,9,16)             116.3266         estimate D2E/DX2                !
 ! A25   A(11,9,16)            117.5531         estimate D2E/DX2                !
 ! A26   A(9,11,12)            110.5982         estimate D2E/DX2                !
 ! A27   A(9,11,17)            110.2738         estimate D2E/DX2                !
 ! A28   A(9,11,18)            109.1903         estimate D2E/DX2                !
 ! A29   A(12,11,17)           109.8171         estimate D2E/DX2                !
 ! A30   A(12,11,18)           109.8091         estimate D2E/DX2                !
 ! A31   A(17,11,18)           107.0831         estimate D2E/DX2                !
 ! A32   A(11,12,13)           111.3569         estimate D2E/DX2                !
 ! A33   A(11,12,19)           109.2244         estimate D2E/DX2                !
 ! A34   A(11,12,20)           109.2046         estimate D2E/DX2                !
 ! A35   A(13,12,19)           110.0105         estimate D2E/DX2                !
 ! A36   A(13,12,20)           109.8704         estimate D2E/DX2                !
 ! A37   A(19,12,20)           107.0715         estimate D2E/DX2                !
 ! A38   A(12,13,21)           110.9167         estimate D2E/DX2                !
 ! A39   A(12,13,22)           111.1202         estimate D2E/DX2                !
 ! A40   A(12,13,23)           110.9544         estimate D2E/DX2                !
 ! A41   A(21,13,22)           107.9031         estimate D2E/DX2                !
 ! A42   A(21,13,23)           107.8925         estimate D2E/DX2                !
 ! A43   A(22,13,23)           107.9137         estimate D2E/DX2                !
 ! A44   A(1,26,27)            119.5318         estimate D2E/DX2                !
 ! A45   A(1,26,28)            119.4829         estimate D2E/DX2                !
 ! A46   A(27,26,28)           120.9853         estimate D2E/DX2                !
 ! D1    D(6,1,2,3)              0.4499         estimate D2E/DX2                !
 ! D2    D(6,1,2,24)          -179.6474         estimate D2E/DX2                !
 ! D3    D(26,1,2,3)          -179.9651         estimate D2E/DX2                !
 ! D4    D(26,1,2,24)           -0.0624         estimate D2E/DX2                !
 ! D5    D(2,1,6,5)             -0.9861         estimate D2E/DX2                !
 ! D6    D(2,1,6,25)           178.5846         estimate D2E/DX2                !
 ! D7    D(26,1,6,5)           179.4285         estimate D2E/DX2                !
 ! D8    D(26,1,6,25)           -1.0008         estimate D2E/DX2                !
 ! D9    D(2,1,26,27)          179.451          estimate D2E/DX2                !
 ! D10   D(2,1,26,28)           -0.5743         estimate D2E/DX2                !
 ! D11   D(6,1,26,27)           -0.9624         estimate D2E/DX2                !
 ! D12   D(6,1,26,28)          179.0123         estimate D2E/DX2                !
 ! D13   D(1,2,3,4)              0.6437         estimate D2E/DX2                !
 ! D14   D(1,2,3,14)          -179.7314         estimate D2E/DX2                !
 ! D15   D(24,2,3,4)          -179.2585         estimate D2E/DX2                !
 ! D16   D(24,2,3,14)            0.3664         estimate D2E/DX2                !
 ! D17   D(2,3,4,5)             -1.152          estimate D2E/DX2                !
 ! D18   D(2,3,4,7)           -177.8241         estimate D2E/DX2                !
 ! D19   D(14,3,4,5)           179.2158         estimate D2E/DX2                !
 ! D20   D(14,3,4,7)             2.5436         estimate D2E/DX2                !
 ! D21   D(3,4,5,6)              0.6001         estimate D2E/DX2                !
 ! D22   D(3,4,5,15)          -178.144          estimate D2E/DX2                !
 ! D23   D(7,4,5,6)            176.9118         estimate D2E/DX2                !
 ! D24   D(7,4,5,15)            -1.8323         estimate D2E/DX2                !
 ! D25   D(3,4,7,8)           -165.8674         estimate D2E/DX2                !
 ! D26   D(5,4,7,8)             17.8468         estimate D2E/DX2                !
 ! D27   D(4,5,6,1)              0.434          estimate D2E/DX2                !
 ! D28   D(4,5,6,25)          -179.1353         estimate D2E/DX2                !
 ! D29   D(15,5,6,1)           179.1819         estimate D2E/DX2                !
 ! D30   D(15,5,6,25)           -0.3874         estimate D2E/DX2                !
 ! D31   D(4,7,8,9)           -158.6211         estimate D2E/DX2                !
 ! D32   D(4,7,8,10)            24.0974         estimate D2E/DX2                !
 ! D33   D(7,8,9,11)          -165.0733         estimate D2E/DX2                !
 ! D34   D(7,8,9,16)            -9.5855         estimate D2E/DX2                !
 ! D35   D(10,8,9,11)           12.4436         estimate D2E/DX2                !
 ! D36   D(10,8,9,16)          167.9313         estimate D2E/DX2                !
 ! D37   D(8,9,11,12)          176.5623         estimate D2E/DX2                !
 ! D38   D(8,9,11,17)           54.8993         estimate D2E/DX2                !
 ! D39   D(8,9,11,18)          -62.4976         estimate D2E/DX2                !
 ! D40   D(16,9,11,12)          21.3607         estimate D2E/DX2                !
 ! D41   D(16,9,11,17)        -100.3023         estimate D2E/DX2                !
 ! D42   D(16,9,11,18)         142.3008         estimate D2E/DX2                !
 ! D43   D(9,11,12,13)        -179.514          estimate D2E/DX2                !
 ! D44   D(9,11,12,19)          58.7854         estimate D2E/DX2                !
 ! D45   D(9,11,12,20)         -58.0026         estimate D2E/DX2                !
 ! D46   D(17,11,12,13)        -57.5822         estimate D2E/DX2                !
 ! D47   D(17,11,12,19)       -179.2828         estimate D2E/DX2                !
 ! D48   D(17,11,12,20)         63.9292         estimate D2E/DX2                !
 ! D49   D(18,11,12,13)         59.9141         estimate D2E/DX2                !
 ! D50   D(18,11,12,19)        -61.7865         estimate D2E/DX2                !
 ! D51   D(18,11,12,20)       -178.5745         estimate D2E/DX2                !
 ! D52   D(11,12,13,21)        -59.7427         estimate D2E/DX2                !
 ! D53   D(11,12,13,22)       -179.771          estimate D2E/DX2                !
 ! D54   D(11,12,13,23)         60.1623         estimate D2E/DX2                !
 ! D55   D(19,12,13,21)         61.5002         estimate D2E/DX2                !
 ! D56   D(19,12,13,22)        -58.5281         estimate D2E/DX2                !
 ! D57   D(19,12,13,23)       -178.5948         estimate D2E/DX2                !
 ! D58   D(20,12,13,21)        179.1342         estimate D2E/DX2                !
 ! D59   D(20,12,13,22)         59.106          estimate D2E/DX2                !
 ! D60   D(20,12,13,23)        -60.9608         estimate D2E/DX2                !
 --------------------------------------------------------------------------------
 Trust Radius=3.00D-01 FncErr=1.00D-07 GrdErr=1.00D-06
 Number of steps in this run=    144 maximum allowed number of steps=    168.
 GradGradGradGradGradGradGradGradGradGradGradGradGradGradGradGradGradGrad

                          Input orientation:                          
 ---------------------------------------------------------------------
 Center     Atomic      Atomic             Coordinates (Angstroms)
 Number     Number       Type             X           Y           Z
 ---------------------------------------------------------------------
      1          6           0       -4.071868    3.511085   -1.214073
      2          6           0       -4.236760    2.264171   -0.579416
      3          6           0       -3.156678    1.662405    0.013648
      4          6           0       -1.853714    2.262105    0.026848
      5          6           0       -1.729065    3.526887   -0.641525
      6          6           0       -2.807707    4.127288   -1.246352
      7          7           0       -0.861729    1.558056    0.599020
      8          6           0        0.328748    2.147722    0.915197
      9          7           0        1.362817    1.264669    1.046424
     10          8           0        0.535178    3.368888    1.133961
     11          6           0        2.614403    1.646307    1.682540
     12          6           0        3.555581    0.453902    1.770508
     13          6           0        4.869889    0.832229    2.446068
     14          1           0       -3.275384    0.699190    0.500910
     15          1           0       -0.762203    4.010330   -0.688875
     16          1           0        1.116886    0.281759    1.048045
     17          1           0        2.423925    2.045841    2.688928
     18          1           0        3.083883    2.447802    1.101621
     19          1           0        3.749032    0.071234    0.760935
     20          1           0        3.065893   -0.351874    2.332139
     21          1           0        5.381223    1.625956    1.890060
     22          1           0        5.545148   -0.026783    2.503647
     23          1           0        4.696505    1.193559    3.465828
     24          1           0       -5.211243    1.788785   -0.561034
     25          1           0       -2.685092    5.076317   -1.757102
     26          7           0       -5.175446    4.140203   -1.826897
     27          8           0       -5.024121    5.242684   -2.374644
     28          8           0       -6.283061    3.582054   -1.810300
 ---------------------------------------------------------------------
                    Distance matrix (angstroms):
                    1          2          3          4          5
     1  C    0.000000
     2  C    1.408820   0.000000
     3  C    2.400519   1.371285   0.000000
     4  C    2.831968   2.458956   1.434410   0.000000
     5  C    2.411802   2.808353   2.437956   1.435943   0.000000
     6  C    1.406716   2.440942   2.790167   2.451539   1.374688
     7  N    4.172124   3.643918   2.370726   1.344284   2.483449
     8  C    5.075232   4.805340   3.632702   2.359108   2.925761
     9  N    6.300162   5.915879   4.653027   3.518592   4.186471
    10  O    5.172849   5.189167   4.218648   2.856129   2.881685
    11  C    7.521569   7.241315   6.007565   4.804644   5.272910
    12  C    8.742544   8.337853   7.042831   5.964095   6.571805
    13  C   10.026361   9.702322   8.428027   7.287250   7.767921
    14  H    3.388555   2.130848   1.085955   2.165314   3.419376
    15  H    3.388062   3.890192   3.426339   2.181729   1.082026
    16  H    6.516816   5.936338   4.608634   3.713365   4.635185
    17  H    7.718529   7.422564   6.200587   5.042979   5.525644
    18  H    7.595906   7.513415   6.383192   5.056628   5.231391
    19  H    8.769248   8.389183   7.125946   6.060493   6.627064
    20  H    8.856958   8.285504   6.939244   6.029079   6.846830
    21  H   10.126712   9.950439   8.741740   7.498038   7.783229
    22  H   10.900686  10.509018   9.207346   8.131218   8.685323
    23  H   10.205723   9.864757   8.591266   7.474874   7.975131
    24  H    2.165861   1.084411   2.137164   3.441313   3.892691
    25  H    2.160550   3.420932   3.874628   3.434159   2.135236
    26  N    1.410399   2.440663   3.688158   4.242348   3.695782
    27  O    2.291755   3.565714   4.691447   4.970160   4.099397
    28  O    2.291265   2.727497   4.097085   4.973579   4.701910
                    6          7          8          9         10
     6  C    0.000000
     7  N    3.713917   0.000000
     8  C    4.292823   1.365617   0.000000
     9  N    5.553799   2.287980   1.366126   0.000000
    10  O    4.173241   2.348749   1.257663   2.262827   0.000000
    11  C    6.643264   3.642156   2.462611   1.454909   2.755250
    12  C    7.942710   4.701508   3.743399   2.447418   4.245606
    13  C    9.134378   6.065464   4.969512   3.800732   5.190951
    14  H    3.876016   2.563787   3.906360   4.704281   4.695575
    15  H    2.123334   2.771682   2.689336   3.881446   2.327526
    16  H    5.954392   2.396972   2.029933   1.013211   3.142631
    17  H    6.869412   3.924433   2.747047   2.105706   2.781320
    18  H    6.560830   4.075795   2.777691   2.089238   2.710229
    19  H    7.966907   4.847265   4.004241   2.683247   4.619797
    20  H    8.207781   4.698697   3.968333   2.677077   4.656632
    21  H    9.118790   6.375410   5.172050   4.121873   5.205156
    22  H   10.054302   6.869308   5.870474   4.613376   6.205354
    23  H    9.334056   6.264616   5.147178   4.119714   5.242738
    24  H    3.422753   4.507464   5.744528   6.787996   6.196055
    25  H    1.084691   4.610219   4.980068   6.226876   4.652279
    26  N    2.437906   5.582177   6.464148   7.698932   6.478644
    27  O    2.725737   6.304337   7.003931   8.265669   6.835731
    28  O    3.562780   6.268351   7.293947   8.484727   7.429838
                   11         12         13         14         15
    11  C    0.000000
    12  C    1.521638   0.000000
    13  C    2.516528   1.525424   0.000000
    14  H    6.081354   6.952275   8.375369   0.000000
    15  H    4.755385   6.110647   7.186699   4.323807   0.000000
    16  H    2.123001   2.549279   4.042588   4.445856   4.522179
    17  H    1.099420   2.158335   2.741272   6.251641   5.041843
    18  H    1.095569   2.155353   2.758157   6.622595   4.521034
    19  H    2.148859   1.096857   2.162200   7.057221   6.161953
    20  H    2.149081   1.097497   2.160899   6.683556   6.542909
    21  H    2.774666   2.172780   1.095724   8.816206   7.076569
    22  H    3.473141   2.174149   1.094163   9.074126   8.140832
    23  H    2.778532   2.173225   1.095687   8.519751   7.415743
    24  H    8.142154   9.169254  10.563469   2.462213   4.974491
    25  H    7.188933   8.529757   9.631026   4.960473   2.444369
    26  N    8.900417  10.137108  11.406562   4.568313   4.559460
    27  O    9.367055  10.664239  11.856762   5.654222   4.745994
    28  O    9.752534  10.927324  12.250163   4.764317   5.649857
                   16         17         18         19         20
    16  H    0.000000
    17  H    2.740955   0.000000
    18  H    2.926378   1.765406   0.000000
    19  H    2.656115   3.061395   2.491298   0.000000
    20  H    2.418474   2.507680   3.058216   1.764761   0.000000
    21  H    4.549773   3.091942   2.564145   2.521137   3.077012
    22  H    4.671561   3.751284   3.761259   2.504532   2.506353
    23  H    4.414830   2.548446   3.124604   3.077948   2.516448
    24  H    6.701155   8.302056   8.485743   9.218683   9.025733
    25  H    6.731394   7.419772   6.954312   8.531666   8.902863
    26  N    7.921257   9.084573   8.925074  10.143948  10.266255
    27  O    8.604507   9.556827   9.253946  10.655701  10.904183
    28  O    8.591932   9.920414   9.874485  10.935264  10.956209
                   21         22         23         24         25
    21  H    0.000000
    22  H    1.770567   0.000000
    23  H    1.771680   1.770656   0.000000
    24  H   10.873579  11.330865  10.711367   0.000000
    25  H    9.501170  10.579814   9.840873   4.315076   0.000000
    26  N   11.470853  12.290179  11.582360   2.670740   2.661398
    27  O   11.812688  12.777889  12.041474   3.905587   2.424890
    28  O   12.392518  13.097342  12.413432   2.434188   3.896284
                   26         27         28
    26  N    0.000000
    27  O    1.240319   0.000000
    28  O    1.240410   2.158959   0.000000
 Symmetry turned off by external request.
 Stoichiometry    C10H12N3O3(1-)
 Framework group  C1[X(C10H12N3O3)]
 Deg. of freedom    78
 Full point group                 C1      NOp   1
 Rotational constants (GHZ):      2.4901249      0.1601301      0.1525057
 General basis read from cards:  (6D, 7F)
   328 basis functions,   560 primitive gaussians,   328 cartesian basis functions
    59 alpha electrons       59 beta electrons
       nuclear repulsion energy      1009.5712161595 Hartrees.
 NAtoms=   28 NActive=   28 NUniq=   28 SFac= 1.00D+00 NAtFMM=   60 NAOKFM=F Big=F
 Integral buffers will be    131072 words long.
 Raffenetti 2 integral format.
 Two-electron integral symmetry is turned off.
 One-electron integrals computed using PRISM.
 NBasis=   328 RedAO= T EigKep=  1.98D-06  NBF=   328
 NBsUse=   328 1.00D-06 EigRej= -1.00D+00 NBFU=   328
 ExpMin= 4.38D-02 ExpMax= 5.48D+03 ExpMxC= 8.25D+02 IAcc=3 IRadAn=         5 AccDes= 0.00D+00
 Harris functional with IExCor= 1009 and IRadAn=       5 diagonalized for initial guess.
 HarFok:  IExCor= 1009 AccDes= 0.00D+00 IRadAn=         5 IDoV= 1 UseB2=F ITyADJ=14
 ICtDFT=  3500011 ScaDFX=  1.000000  1.000000  1.000000  1.000000
 FoFCou: FMM=F IPFlag=           0 FMFlag=      100000 FMFlg1=           0
         NFxFlg=           0 DoJE=T BraDBF=F KetDBF=T FulRan=T
         wScrn=  0.000000 ICntrl=     500 IOpCl=  0 I1Cent=   200000004 NGrid=           0
         NMat0=    1 NMatS0=      1 NMatT0=    0 NMatD0=    1 NMtDS0=    0 NMtDT0=    0
 Symmetry not used in FoFCou.
 Requested convergence on RMS density matrix=1.00D-08 within 128 cycles.
 Requested convergence on MAX density matrix=1.00D-06.
 Requested convergence on             energy=1.00D-06.
 No special actions if energy rises.
 SCF Done:  E(RM062X) =  -777.914476607     A.U. after   17 cycles
            NFock= 17  Conv=0.27D-08     -V/T= 2.0085

 **********************************************************************

            Population analysis using the SCF density.

 **********************************************************************

 Alpha  occ. eigenvalues --  -19.53447 -19.53441 -19.46066 -14.86863 -14.65295
 Alpha  occ. eigenvalues --  -14.58906 -10.52451 -10.47778 -10.46919 -10.46845
 Alpha  occ. eigenvalues --  -10.46779 -10.46038 -10.44181 -10.43989 -10.42170
 Alpha  occ. eigenvalues --  -10.41716  -1.21283  -1.02223  -1.01163  -0.90024
 Alpha  occ. eigenvalues --   -0.87352  -0.83588  -0.79840  -0.75062  -0.72524
 Alpha  occ. eigenvalues --   -0.68866  -0.63578  -0.59553  -0.56986  -0.54994
 Alpha  occ. eigenvalues --   -0.52182  -0.50480  -0.47808  -0.47656  -0.46455
 Alpha  occ. eigenvalues --   -0.45887  -0.43324  -0.40453  -0.39520  -0.39309
 Alpha  occ. eigenvalues --   -0.38282  -0.37014  -0.36132  -0.35123  -0.34411
 Alpha  occ. eigenvalues --   -0.33135  -0.32168  -0.31551  -0.30465  -0.28087
 Alpha  occ. eigenvalues --   -0.25581  -0.23891  -0.23856  -0.23151  -0.20978
 Alpha  occ. eigenvalues --   -0.19098  -0.18719  -0.16546  -0.10722
 Alpha virt. eigenvalues --    0.07984   0.09055   0.10444   0.12255   0.12421
 Alpha virt. eigenvalues --    0.13055   0.13968   0.14548   0.14777   0.15220
 Alpha virt. eigenvalues --    0.15327   0.15437   0.16651   0.16668   0.17267
 Alpha virt. eigenvalues --    0.17651   0.18280   0.18584   0.20010   0.20424
 Alpha virt. eigenvalues --    0.20795   0.21396   0.21505   0.22984   0.23742
 Alpha virt. eigenvalues --    0.23987   0.25263   0.25367   0.26097   0.26530
 Alpha virt. eigenvalues --    0.26679   0.26907   0.27407   0.28726   0.28832
 Alpha virt. eigenvalues --    0.29491   0.30095   0.30476   0.30734   0.30937
 Alpha virt. eigenvalues --    0.31783   0.32060   0.32589   0.33131   0.33590
 Alpha virt. eigenvalues --    0.34568   0.35095   0.35106   0.35642   0.35972
 Alpha virt. eigenvalues --    0.36316   0.37067   0.37251   0.37735   0.38008
 Alpha virt. eigenvalues --    0.38624   0.39063   0.39478   0.40062   0.40250
 Alpha virt. eigenvalues --    0.40645   0.41214   0.41832   0.42086   0.42225
 Alpha virt. eigenvalues --    0.43023   0.43526   0.44295   0.44836   0.45188
 Alpha virt. eigenvalues --    0.45918   0.46297   0.46599   0.47243   0.47631
 Alpha virt. eigenvalues --    0.48477   0.48789   0.49350   0.49680   0.50939
 Alpha virt. eigenvalues --    0.51478   0.52375   0.53730   0.54027   0.55361
 Alpha virt. eigenvalues --    0.55865   0.56250   0.57967   0.59700   0.61778
 Alpha virt. eigenvalues --    0.62166   0.64957   0.65646   0.67221   0.71067
 Alpha virt. eigenvalues --    0.76636   0.76751   0.78336   0.81119   0.81663
 Alpha virt. eigenvalues --    0.83695   0.85021   0.86081   0.87411   0.87850
 Alpha virt. eigenvalues --    0.88482   0.89041   0.91281   0.92060   0.94127
 Alpha virt. eigenvalues --    0.95155   0.95846   0.96601   0.97720   0.99084
 Alpha virt. eigenvalues --    1.00491   1.01203   1.02217   1.03718   1.05725
 Alpha virt. eigenvalues --    1.06167   1.08651   1.09868   1.10746   1.12185
 Alpha virt. eigenvalues --    1.13318   1.13731   1.14730   1.15531   1.17036
 Alpha virt. eigenvalues --    1.17799   1.18778   1.20798   1.21713   1.22618
 Alpha virt. eigenvalues --    1.23649   1.24267   1.25578   1.26617   1.26838
 Alpha virt. eigenvalues --    1.27683   1.29136   1.30839   1.31677   1.35390
 Alpha virt. eigenvalues --    1.35745   1.37492   1.39420   1.40243   1.40876
 Alpha virt. eigenvalues --    1.42415   1.43041   1.43858   1.46309   1.48450
 Alpha virt. eigenvalues --    1.49083   1.49585   1.50069   1.50517   1.53080
 Alpha virt. eigenvalues --    1.53999   1.54654   1.55527   1.57370   1.58535
 Alpha virt. eigenvalues --    1.59434   1.60454   1.61735   1.62144   1.64200
 Alpha virt. eigenvalues --    1.64597   1.66685   1.67069   1.67661   1.68799
 Alpha virt. eigenvalues --    1.70884   1.75348   1.76551   1.83596   1.89020
 Alpha virt. eigenvalues --    1.90797   1.91429   1.94132   1.96540   1.98946
 Alpha virt. eigenvalues --    1.99835   2.00665   2.00743   2.01950   2.05388
 Alpha virt. eigenvalues --    2.06167   2.06364   2.07303   2.09067   2.10743
 Alpha virt. eigenvalues --    2.11279   2.12215   2.12822   2.14063   2.14900
 Alpha virt. eigenvalues --    2.16412   2.16919   2.19742   2.20821   2.21970
 Alpha virt. eigenvalues --    2.24349   2.26499   2.29137   2.29772   2.31609
 Alpha virt. eigenvalues --    2.32430   2.33168   2.35652   2.35920   2.39257
 Alpha virt. eigenvalues --    2.40121   2.41311   2.41442   2.42483   2.47413
 Alpha virt. eigenvalues --    2.48310   2.48733   2.52988   2.56649   2.62026
 Alpha virt. eigenvalues --    2.64539   2.67471   2.69940   2.71299   2.73770
 Alpha virt. eigenvalues --    2.74266   2.74552   2.78514   2.81961   2.84813
 Alpha virt. eigenvalues --    2.87240   2.87819   2.89105   2.91541   2.94069
 Alpha virt. eigenvalues --    2.99714   3.00460   3.04755   3.08380   3.14668
 Alpha virt. eigenvalues --    3.19178   3.21443   3.24914   3.27823   3.37069
 Alpha virt. eigenvalues --    3.39810   3.50826   3.58135   4.28183   4.31818
 Alpha virt. eigenvalues --    4.35162   4.43114   4.44398   4.49103   4.50876
 Alpha virt. eigenvalues --    4.53386   4.55617   4.60468   4.63879   4.66597
 Alpha virt. eigenvalues --    4.68965   4.78437   4.92921   4.93956
          Condensed to atoms (all electrons):
               1          2          3          4          5          6
     1  C   12.087828  -0.471672   1.022500  -2.927530  -4.590386   2.732677
     2  C   -0.471672  12.172735  -3.432292   0.479085  -2.063360  -1.402201
     3  C    1.022500  -3.432292  20.440913  -3.339190  -2.969723  -2.925752
     4  C   -2.927530   0.479085  -3.339190  12.079357   1.632423  -1.858326
     5  C   -4.590386  -2.063360  -2.969723   1.632423  19.952280  -8.167117
     6  C    2.732677  -1.402201  -2.925752  -1.858326  -8.167117  18.030517
     7  N    0.011940   0.045387   0.160683   0.565528  -0.328530  -0.242259
     8  C   -0.508105   0.155100  -1.706581  -0.571383   1.144532  -0.388354
     9  N   -0.010201   0.008547  -0.334794  -0.033145   0.157605   0.187850
    10  O   -0.010264   0.032990  -0.164026  -0.205615   0.162204   0.131986
    11  C   -0.023687   0.016422  -0.224096  -0.314157   0.152928   0.002617
    12  C    0.000099  -0.002372  -0.008305  -0.003963   0.001578   0.004149
    13  C   -0.000191   0.000121  -0.005370  -0.009692   0.003916  -0.000358
    14  H   -0.020360  -0.066729   0.255678   0.125827   0.048815  -0.023213
    15  H    0.008171  -0.010608   0.001621  -0.085574   0.283926   0.078475
    16  H    0.000017  -0.001279  -0.006937  -0.002806   0.002551  -0.001793
    17  H   -0.000083   0.000008  -0.000632  -0.001809  -0.003195  -0.001803
    18  H    0.000138  -0.000046  -0.000677  -0.001483   0.006405   0.002817
    19  H   -0.000008   0.000002  -0.000391  -0.001606   0.000479   0.000042
    20  H    0.000005   0.000019   0.000655   0.000223  -0.000611  -0.000024
    21  H    0.000000   0.000000   0.000018   0.000160  -0.000060  -0.000004
    22  H   -0.000000  -0.000000  -0.000000  -0.000020  -0.000001  -0.000000
    23  H   -0.000000   0.000000  -0.000008  -0.000075   0.000003   0.000001
    24  H    0.164971   0.231134  -0.147897   0.006761  -0.002274   0.068995
    25  H    0.167945   0.085276  -0.028128  -0.002601  -0.129187   0.232279
    26  N   -0.538495   0.157909   0.035604  -0.016239  -0.080174   0.146613
    27  O   -0.502501   0.095159  -0.042895   0.043385   0.360191  -0.075448
    28  O   -0.381124  -0.053098   0.200874   0.022592   0.022540   0.070456
               7          8          9         10         11         12
     1  C    0.011940  -0.508105  -0.010201  -0.010264  -0.023687   0.000099
     2  C    0.045387   0.155100   0.008547   0.032990   0.016422  -0.002372
     3  C    0.160683  -1.706581  -0.334794  -0.164026  -0.224096  -0.008305
     4  C    0.565528  -0.571383  -0.033145  -0.205615  -0.314157  -0.003963
     5  C   -0.328530   1.144532   0.157605   0.162204   0.152928   0.001578
     6  C   -0.242259  -0.388354   0.187850   0.131986   0.002617   0.004149
     7  N    7.585987   0.271119  -0.509911  -0.127211   0.023948  -0.009909
     8  C    0.271119   6.669266  -0.061599   0.549173  -0.394615   0.127777
     9  N   -0.509911  -0.061599   8.009354  -0.216752   0.318569  -0.063117
    10  O   -0.127211   0.549173  -0.216752   8.519423  -0.057385   0.025059
    11  C    0.023948  -0.394615   0.318569  -0.057385   6.769197  -0.619560
    12  C   -0.009909   0.127777  -0.063117   0.025059  -0.619560   6.404246
    13  C    0.005752  -0.039395   0.006074   0.001339  -0.038919  -0.042961
    14  H   -0.010524  -0.006026  -0.000236   0.000076  -0.000176   0.000013
    15  H   -0.003437   0.042516  -0.000313  -0.011302   0.002975   0.000111
    16  H    0.020148   0.049388   0.248908   0.009610  -0.084129   0.015518
    17  H    0.009511  -0.009728  -0.096929   0.004685   0.494782  -0.111880
    18  H   -0.008530   0.005795  -0.027316  -0.003331   0.363857  -0.006481
    19  H    0.001061  -0.006504   0.003376  -0.000086  -0.063197   0.417401
    20  H   -0.001724   0.002715   0.004522  -0.000388  -0.093640   0.443871
    21  H   -0.000010   0.002418   0.000134  -0.000063  -0.011479  -0.056454
    22  H    0.000012  -0.000836   0.000646   0.000005   0.033768  -0.095799
    23  H    0.000062  -0.000965   0.000634  -0.000033  -0.012824  -0.060097
    24  H    0.000514   0.002467  -0.000001  -0.000003   0.000007  -0.000000
    25  H   -0.000910  -0.000853  -0.000016   0.000193  -0.000017   0.000000
    26  N    0.000174   0.009424  -0.000093   0.000190   0.000206  -0.000000
    27  O   -0.000276   0.002710  -0.000015   0.000012   0.000012   0.000000
    28  O   -0.000197   0.000380  -0.000007  -0.000008  -0.000004  -0.000000
              13         14         15         16         17         18
     1  C   -0.000191  -0.020360   0.008171   0.000017  -0.000083   0.000138
     2  C    0.000121  -0.066729  -0.010608  -0.001279   0.000008  -0.000046
     3  C   -0.005370   0.255678   0.001621  -0.006937  -0.000632  -0.000677
     4  C   -0.009692   0.125827  -0.085574  -0.002806  -0.001809  -0.001483
     5  C    0.003916   0.048815   0.283926   0.002551  -0.003195   0.006405
     6  C   -0.000358  -0.023213   0.078475  -0.001793  -0.001803   0.002817
     7  N    0.005752  -0.010524  -0.003437   0.020148   0.009511  -0.008530
     8  C   -0.039395  -0.006026   0.042516   0.049388  -0.009728   0.005795
     9  N    0.006074  -0.000236  -0.000313   0.248908  -0.096929  -0.027316
    10  O    0.001339   0.000076  -0.011302   0.009610   0.004685  -0.003331
    11  C   -0.038919  -0.000176   0.002975  -0.084129   0.494782   0.363857
    12  C   -0.042961   0.000013   0.000111   0.015518  -0.111880  -0.006481
    13  C    5.664570   0.000002  -0.000001   0.002130   0.015903  -0.017876
    14  H    0.000002   0.512250  -0.000105   0.000007   0.000000  -0.000000
    15  H   -0.000001  -0.000105   0.471912   0.000002  -0.000001   0.000003
    16  H    0.002130   0.000007   0.000002   0.343827   0.001893   0.002800
    17  H    0.015903   0.000000  -0.000001   0.001893   0.539994  -0.044193
    18  H   -0.017876  -0.000000   0.000003   0.002800  -0.044193   0.514533
    19  H   -0.033983   0.000000  -0.000000  -0.000136   0.004532  -0.006343
    20  H   -0.044624  -0.000000  -0.000000   0.001589  -0.006570   0.004478
    21  H    0.413236  -0.000000   0.000000   0.000001  -0.000429   0.002790
    22  H    0.414043  -0.000000  -0.000000  -0.000002  -0.000061  -0.000079
    23  H    0.421468   0.000000   0.000000   0.000002   0.002571  -0.000273
    24  H   -0.000000  -0.004002   0.000011  -0.000000   0.000000  -0.000000
    25  H    0.000000   0.000012  -0.003838   0.000000   0.000000  -0.000000
    26  N    0.000001   0.000280   0.000064   0.000000   0.000000  -0.000000
    27  O    0.000000   0.000062  -0.000056   0.000000  -0.000000   0.000000
    28  O   -0.000000  -0.000136   0.000064  -0.000000  -0.000000  -0.000000
              19         20         21         22         23         24
     1  C   -0.000008   0.000005   0.000000  -0.000000  -0.000000   0.164971
     2  C    0.000002   0.000019   0.000000  -0.000000   0.000000   0.231134
     3  C   -0.000391   0.000655   0.000018  -0.000000  -0.000008  -0.147897
     4  C   -0.001606   0.000223   0.000160  -0.000020  -0.000075   0.006761
     5  C    0.000479  -0.000611  -0.000060  -0.000001   0.000003  -0.002274
     6  C    0.000042  -0.000024  -0.000004  -0.000000   0.000001   0.068995
     7  N    0.001061  -0.001724  -0.000010   0.000012   0.000062   0.000514
     8  C   -0.006504   0.002715   0.002418  -0.000836  -0.000965   0.002467
     9  N    0.003376   0.004522   0.000134   0.000646   0.000634  -0.000001
    10  O   -0.000086  -0.000388  -0.000063   0.000005  -0.000033  -0.000003
    11  C   -0.063197  -0.093640  -0.011479   0.033768  -0.012824   0.000007
    12  C    0.417401   0.443871  -0.056454  -0.095799  -0.060097  -0.000000
    13  C   -0.033983  -0.044624   0.413236   0.414043   0.421468  -0.000000
    14  H    0.000000  -0.000000  -0.000000  -0.000000   0.000000  -0.004002
    15  H   -0.000000  -0.000000   0.000000  -0.000000   0.000000   0.000011
    16  H   -0.000136   0.001589   0.000001  -0.000002   0.000002  -0.000000
    17  H    0.004532  -0.006570  -0.000429  -0.000061   0.002571   0.000000
    18  H   -0.006343   0.004478   0.002790  -0.000079  -0.000273  -0.000000
    19  H    0.511121  -0.037720  -0.004793  -0.002887   0.003992   0.000000
    20  H   -0.037720   0.529765   0.004176  -0.002964  -0.004849  -0.000000
    21  H   -0.004793   0.004176   0.501526  -0.027399  -0.030808   0.000000
    22  H   -0.002887  -0.002964  -0.027399   0.514651  -0.027620  -0.000000
    23  H    0.003992  -0.004849  -0.030808  -0.027620   0.501915   0.000000
    24  H    0.000000  -0.000000   0.000000  -0.000000   0.000000   0.481246
    25  H    0.000000  -0.000000  -0.000000  -0.000000   0.000000  -0.000119
    26  N    0.000000  -0.000000  -0.000000   0.000000   0.000000  -0.037278
    27  O   -0.000000   0.000000   0.000000  -0.000000   0.000000  -0.002000
    28  O   -0.000000   0.000000   0.000000  -0.000000  -0.000000   0.014084
              25         26         27         28
     1  C    0.167945  -0.538495  -0.502501  -0.381124
     2  C    0.085276   0.157909   0.095159  -0.053098
     3  C   -0.028128   0.035604  -0.042895   0.200874
     4  C   -0.002601  -0.016239   0.043385   0.022592
     5  C   -0.129187  -0.080174   0.360191   0.022540
     6  C    0.232279   0.146613  -0.075448   0.070456
     7  N   -0.000910   0.000174  -0.000276  -0.000197
     8  C   -0.000853   0.009424   0.002710   0.000380
     9  N   -0.000016  -0.000093  -0.000015  -0.000007
    10  O    0.000193   0.000190   0.000012  -0.000008
    11  C   -0.000017   0.000206   0.000012  -0.000004
    12  C    0.000000  -0.000000   0.000000  -0.000000
    13  C    0.000000   0.000001   0.000000  -0.000000
    14  H    0.000012   0.000280   0.000062  -0.000136
    15  H   -0.003838   0.000064  -0.000056   0.000064
    16  H    0.000000   0.000000   0.000000  -0.000000
    17  H    0.000000   0.000000  -0.000000  -0.000000
    18  H   -0.000000  -0.000000   0.000000  -0.000000
    19  H    0.000000   0.000000  -0.000000  -0.000000
    20  H   -0.000000  -0.000000   0.000000   0.000000
    21  H   -0.000000  -0.000000   0.000000   0.000000
    22  H   -0.000000   0.000000  -0.000000  -0.000000
    23  H    0.000000   0.000000   0.000000  -0.000000
    24  H   -0.000119  -0.037278  -0.002000   0.014084
    25  H    0.478404  -0.037270   0.014733  -0.002198
    26  N   -0.037270   7.043660   0.354914   0.336934
    27  O    0.014733   0.354914   7.947282  -0.082810
    28  O   -0.002198   0.336934  -0.082810   7.971212
 Mulliken charges:
               1
     1  C   -0.211684
     2  C    0.023764
     3  C   -0.780854
     4  C    0.419869
     5  C    0.402243
     6  C   -0.602821
     7  N   -0.458398
     8  C    0.660165
     9  N   -0.591774
    10  O   -0.640477
    11  C   -0.241403
    12  C   -0.358924
    13  C   -0.715183
    14  H    0.188483
    15  H    0.225384
    16  H    0.398691
    17  H    0.203432
    18  H    0.213014
    19  H    0.215646
    20  H    0.201095
    21  H    0.207040
    22  H    0.194546
    23  H    0.206906
    24  H    0.223384
    25  H    0.226292
    26  N   -0.376424
    27  O   -0.112459
    28  O   -0.119553
 Sum of Mulliken charges =  -1.00000
 Mulliken charges with hydrogens summed into heavy atoms:
               1
     1  C   -0.211684
     2  C    0.247148
     3  C   -0.592371
     4  C    0.419869
     5  C    0.627627
     6  C   -0.376529
     7  N   -0.458398
     8  C    0.660165
     9  N   -0.193083
    10  O   -0.640477
    11  C    0.175043
    12  C    0.057817
    13  C   -0.106691
    26  N   -0.376424
    27  O   -0.112459
    28  O   -0.119553
 Electronic spatial extent (au):  <R**2>=          10201.4470
 Charge=             -1.0000 electrons
 Dipole moment (field-independent basis, Debye):
    X=             13.6937    Y=            -17.2474    Z=              2.5064  Tot=             22.1647
 Quadrupole moment (field-independent basis, Debye-Ang):
   XX=           -176.7507   YY=           -167.2399   ZZ=           -112.5600
   XY=             56.3471   XZ=            -28.0863   YZ=             12.6547
 Traceless Quadrupole moment (field-independent basis, Debye-Ang):
   XX=            -24.5672   YY=            -15.0564   ZZ=             39.6236
   XY=             56.3471   XZ=            -28.0863   YZ=             12.6547
 Octapole moment (field-independent basis, Debye-Ang**2):
  XXX=            801.8074  YYY=          -1047.4523  ZZZ=             -0.7080  XYY=            370.4622
  XXY=           -590.0174  XXZ=            156.8434  XZZ=            179.4510  YZZ=           -312.3871
  YYZ=             64.8220  XYZ=           -132.0910
 Hexadecapole moment (field-independent basis, Debye-Ang**3):
 XXXX=         -10450.0633 YYYY=          -6391.0452 ZZZZ=          -1407.4207 XXXY=           3887.2528
 XXXZ=          -2388.1386 YYYX=           3086.2885 YYYZ=            844.1647 ZZZX=          -1452.5946
 ZZZY=            553.0744 XXYY=          -3616.9657 XXZZ=          -1873.5954 YYZZ=          -1363.6174
 XXYZ=            904.0991 YYXZ=          -1076.8270 ZZXY=            922.7576
 N-N= 1.009571216159D+03 E-N=-3.848198871059D+03  KE= 7.713729396324D+02
 Calling FoFJK, ICntrl=      2127 FMM=F ISym2X=0 I1Cent= 0 IOpClX= 0 NMat=1 NMatS=1 NMatT=0.
 -------------------------------------------------------------------
 Center     Atomic                   Forces (Hartrees/Bohr)
 Number     Number              X              Y              Z
 -------------------------------------------------------------------
      1        6           0.000956719   -0.001163742    0.000930334
      2        6           0.001605225    0.001236212   -0.000239236
      3        6          -0.000793186   -0.000060266   -0.000312098
      4        6           0.006727205   -0.004069326    0.003737830
      5        6          -0.000102470    0.001176858   -0.001527118
      6        6           0.000786812   -0.002590797    0.001208814
      7        7           0.000279052   -0.002956313   -0.001577132
      8        6          -0.014934747    0.034562163    0.001115093
      9        7           0.017156614   -0.013098088    0.002829073
     10        8           0.002224811   -0.018940937   -0.003720352
     11        6          -0.007969130   -0.001204646   -0.002883851
     12        6          -0.000150074    0.001428821   -0.000415396
     13        6           0.000849234   -0.001596614    0.000313101
     14        1           0.001870409   -0.000023094    0.000518366
     15        1           0.000905706   -0.000610592    0.002823504
     16        1          -0.002243492    0.002476432   -0.000280024
     17        1           0.000398048    0.001468596    0.000622030
     18        1          -0.000894540    0.001167337    0.000187907
     19        1          -0.000205371   -0.000407233   -0.000354720
     20        1           0.000256500   -0.000939555    0.000463785
     21        1          -0.000203821    0.000142930    0.000204453
     22        1           0.000977374   -0.000154674    0.000363186
     23        1           0.000088618    0.000319156   -0.000165375
     24        1          -0.000711590    0.001594881   -0.001051968
     25        1          -0.001854865   -0.000137464   -0.000239394
     26        7          -0.012202180    0.007384848   -0.006827886
     27        8           0.002769961   -0.003762071    0.002552310
     28        8           0.004413174   -0.001242820    0.001724762
 -------------------------------------------------------------------
 Cartesian Forces:  Max     0.034562163 RMS     0.005772265

 GradGradGradGradGradGradGradGradGradGradGradGradGradGradGradGradGradGrad
 Berny optimization.
 FormGI is forming the generalized inverse of G from B-inverse, IUseBI=4.
 Internal  Forces:  Max     0.018673494 RMS     0.002764923
 Search for a local minimum.
 Step number   1 out of a maximum of  144
 All quantities printed in internal units (Hartrees-Bohrs-Radians)
 Mixed Optimization -- RFO/linear search
 Second derivative matrix not updated -- first step.
 ITU=  0
     Eigenvalues ---    0.00430   0.00480   0.00965   0.01554   0.01554
     Eigenvalues ---    0.01676   0.01734   0.01826   0.01902   0.01971
     Eigenvalues ---    0.02024   0.02134   0.02140   0.02147   0.02151
     Eigenvalues ---    0.02154   0.02247   0.02268   0.02429   0.03736
     Eigenvalues ---    0.04451   0.04936   0.05555   0.05574   0.05577
     Eigenvalues ---    0.08157   0.09193   0.12059   0.12682   0.15125
     Eigenvalues ---    0.15996   0.16000   0.16000   0.16000   0.16000
     Eigenvalues ---    0.16000   0.16000   0.21897   0.21913   0.22000
     Eigenvalues ---    0.22224   0.22934   0.23995   0.24944   0.24986
     Eigenvalues ---    0.24999   0.25000   0.25000   0.25000   0.25000
     Eigenvalues ---    0.29850   0.30209   0.33746   0.33960   0.34032
     Eigenvalues ---    0.34159   0.34164   0.34177   0.34336   0.35284
     Eigenvalues ---    0.35433   0.35467   0.35751   0.37609   0.38304
     Eigenvalues ---    0.39242   0.43085   0.43506   0.43940   0.45439
     Eigenvalues ---    0.47771   0.50441   0.51728   0.51828   0.56256
     Eigenvalues ---    0.80468   0.86883   0.86919
 RFO step:  Lambda=-3.74824230D-03 EMin= 4.29639568D-03
 Linear search not attempted -- first point.
 Iteration  1 RMS(Cart)=  0.09899258 RMS(Int)=  0.00377983
 Iteration  2 RMS(Cart)=  0.00642710 RMS(Int)=  0.00005940
 Iteration  3 RMS(Cart)=  0.00002667 RMS(Int)=  0.00005895
 Iteration  4 RMS(Cart)=  0.00000000 RMS(Int)=  0.00005895
 Variable       Old X    -DE/DX   Delta X   Delta X   Delta X     New X
                                 (Linear)    (Quad)   (Total)
    R1        2.66228  -0.00156   0.00000  -0.00363  -0.00364   2.65864
    R2        2.65831   0.00009   0.00000   0.00010   0.00011   2.65842
    R3        2.66527   0.00610   0.00000   0.01376   0.01376   2.67903
    R4        2.59135   0.00255   0.00000   0.00498   0.00496   2.59631
    R5        2.04924  -0.00008   0.00000  -0.00022  -0.00022   2.04902
    R6        2.71064   0.00006   0.00000   0.00026   0.00025   2.71089
    R7        2.05216   0.00005   0.00000   0.00014   0.00014   2.05229
    R8        2.71354  -0.00003   0.00000   0.00006   0.00007   2.71361
    R9        2.54033  -0.00582   0.00000  -0.01027  -0.01027   2.53006
   R10        2.59778   0.00220   0.00000   0.00438   0.00440   2.60218
   R11        2.04473   0.00041   0.00000   0.00114   0.00114   2.04588
   R12        2.04977  -0.00022   0.00000  -0.00061  -0.00061   2.04916
   R13        2.58064  -0.00220   0.00000  -0.00421  -0.00421   2.57643
   R14        2.58160   0.01291   0.00000   0.02478   0.02478   2.60638
   R15        2.37664  -0.01867   0.00000  -0.02310  -0.02310   2.35354
   R16        2.74938  -0.00657   0.00000  -0.01729  -0.01729   2.73209
   R17        1.91469  -0.00186   0.00000  -0.00406  -0.00406   1.91064
   R18        2.87548   0.00197   0.00000   0.00644   0.00644   2.88192
   R19        2.07760   0.00103   0.00000   0.00303   0.00303   2.08063
   R20        2.07033   0.00037   0.00000   0.00107   0.00107   2.07140
   R21        2.88263   0.00147   0.00000   0.00487   0.00487   2.88750
   R22        2.07276   0.00043   0.00000   0.00126   0.00126   2.07402
   R23        2.07397   0.00081   0.00000   0.00237   0.00237   2.07634
   R24        2.07062  -0.00010   0.00000  -0.00028  -0.00028   2.07034
   R25        2.06767   0.00074   0.00000   0.00214   0.00214   2.06981
   R26        2.07055  -0.00006   0.00000  -0.00018  -0.00018   2.07037
   R27        2.34386  -0.00413   0.00000  -0.00473  -0.00473   2.33913
   R28        2.34403  -0.00336   0.00000  -0.00385  -0.00385   2.34019
    A1        2.09812  -0.00231   0.00000  -0.00981  -0.00981   2.08831
    A2        2.09319   0.00033   0.00000   0.00169   0.00168   2.09487
    A3        2.09186   0.00198   0.00000   0.00816   0.00815   2.10001
    A4        2.08409   0.00136   0.00000   0.00548   0.00545   2.08954
    A5        2.09534  -0.00277   0.00000  -0.01549  -0.01548   2.07986
    A6        2.10376   0.00141   0.00000   0.01001   0.01003   2.11379
    A7        2.13646   0.00055   0.00000   0.00235   0.00232   2.13878
    A8        2.09116   0.00171   0.00000   0.01101   0.01101   2.10217
    A9        2.05555  -0.00227   0.00000  -0.01331  -0.01331   2.04224
   A10        2.02953  -0.00134   0.00000  -0.00503  -0.00502   2.02451
   A11        2.04346   0.00064   0.00000   0.00257   0.00254   2.04600
   A12        2.20852   0.00071   0.00000   0.00288   0.00287   2.21139
   A13        2.11925  -0.00015   0.00000  -0.00062  -0.00072   2.11853
   A14        2.08458  -0.00225   0.00000  -0.01369  -0.01385   2.07072
   A15        2.07915   0.00242   0.00000   0.01491   0.01474   2.09389
   A16        2.09869   0.00189   0.00000   0.00793   0.00795   2.10664
   A17        2.08938  -0.00285   0.00000  -0.01554  -0.01558   2.07380
   A18        2.09509   0.00096   0.00000   0.00769   0.00765   2.10274
   A19        2.11261  -0.00164   0.00000  -0.00647  -0.00647   2.10614
   A20        1.98558  -0.00755   0.00000  -0.02967  -0.02968   1.95590
   A21        2.21758   0.00995   0.00000   0.03930   0.03929   2.25688
   A22        2.07909  -0.00240   0.00000  -0.00938  -0.00939   2.06969
   A23        2.12186  -0.00316   0.00000  -0.01559  -0.01566   2.10621
   A24        2.03028  -0.00098   0.00000  -0.01212  -0.01214   2.01815
   A25        2.05169   0.00384   0.00000   0.01951   0.01937   2.07106
   A26        1.93030  -0.00020   0.00000   0.00111   0.00108   1.93138
   A27        1.92464   0.00053   0.00000   0.00708   0.00705   1.93169
   A28        1.90573  -0.00082   0.00000  -0.00983  -0.00982   1.89591
   A29        1.91667   0.00031   0.00000   0.00615   0.00612   1.92279
   A30        1.91653   0.00091   0.00000   0.00531   0.00531   1.92184
   A31        1.86895  -0.00075   0.00000  -0.01022  -0.01021   1.85874
   A32        1.94354   0.00178   0.00000   0.00941   0.00940   1.95294
   A33        1.90633  -0.00068   0.00000  -0.00230  -0.00230   1.90402
   A34        1.90598  -0.00002   0.00000   0.00299   0.00301   1.90899
   A35        1.92005  -0.00031   0.00000  -0.00066  -0.00067   1.91938
   A36        1.91760  -0.00097   0.00000  -0.00595  -0.00598   1.91162
   A37        1.86875   0.00013   0.00000  -0.00399  -0.00400   1.86475
   A38        1.93586  -0.00030   0.00000  -0.00286  -0.00287   1.93299
   A39        1.93941   0.00119   0.00000   0.00899   0.00899   1.94840
   A40        1.93652  -0.00007   0.00000  -0.00110  -0.00111   1.93541
   A41        1.88326  -0.00031   0.00000  -0.00055  -0.00055   1.88272
   A42        1.88308  -0.00020   0.00000  -0.00450  -0.00451   1.87857
   A43        1.88345  -0.00036   0.00000  -0.00028  -0.00029   1.88316
   A44        2.08622  -0.00245   0.00000  -0.00967  -0.00968   2.07654
   A45        2.08537  -0.00295   0.00000  -0.01163  -0.01165   2.07372
   A46        2.11159   0.00541   0.00000   0.02130   0.02129   2.13288
    D1        0.00785  -0.00012   0.00000  -0.00619  -0.00621   0.00164
    D2       -3.13544  -0.00010   0.00000  -0.00536  -0.00536  -3.14079
    D3       -3.14098  -0.00001   0.00000  -0.00054  -0.00057  -3.14155
    D4       -0.00109   0.00001   0.00000   0.00029   0.00028  -0.00080
    D5       -0.01721   0.00013   0.00000   0.00684   0.00687  -0.01034
    D6        3.11689   0.00039   0.00000   0.01828   0.01829   3.13518
    D7        3.13162   0.00002   0.00000   0.00122   0.00124   3.13286
    D8       -0.01747   0.00029   0.00000   0.01266   0.01266  -0.00481
    D9        3.13201   0.00008   0.00000   0.00382   0.00380   3.13581
   D10       -0.01002  -0.00009   0.00000  -0.00511  -0.00513  -0.01516
   D11       -0.01680   0.00017   0.00000   0.00938   0.00940  -0.00740
   D12        3.12435   0.00000   0.00000   0.00044   0.00047   3.12482
   D13        0.01123  -0.00012   0.00000  -0.00596  -0.00599   0.00525
   D14       -3.13690   0.00005   0.00000   0.00267   0.00275  -3.13416
   D15       -3.12865  -0.00014   0.00000  -0.00678  -0.00683  -3.13548
   D16        0.00640   0.00003   0.00000   0.00185   0.00190   0.00830
   D17       -0.02011   0.00034   0.00000   0.01657   0.01661  -0.00349
   D18       -3.10362   0.00014   0.00000   0.00920   0.00928  -3.09433
   D19        3.12791   0.00016   0.00000   0.00803   0.00808   3.13598
   D20        0.04439  -0.00004   0.00000   0.00066   0.00074   0.04514
   D21        0.01047  -0.00033   0.00000  -0.01575  -0.01576  -0.00529
   D22       -3.10920  -0.00112   0.00000  -0.04786  -0.04763   3.12635
   D23        3.08769  -0.00011   0.00000  -0.00764  -0.00768   3.08001
   D24       -0.03198  -0.00090   0.00000  -0.03975  -0.03955  -0.07153
   D25       -2.89493  -0.00290   0.00000  -0.10230  -0.10230  -2.99724
   D26        0.31149  -0.00306   0.00000  -0.11023  -0.11023   0.20126
   D27        0.00757   0.00012   0.00000   0.00464   0.00463   0.01221
   D28       -3.12650  -0.00014   0.00000  -0.00674  -0.00687  -3.13337
   D29        3.12731   0.00085   0.00000   0.03630   0.03657  -3.11930
   D30       -0.00676   0.00059   0.00000   0.02492   0.02507   0.01831
   D31       -2.76846  -0.00235   0.00000  -0.08837  -0.08832  -2.85678
   D32        0.42058  -0.00225   0.00000  -0.09395  -0.09400   0.32658
   D33       -2.88107  -0.00020   0.00000   0.00705   0.00695  -2.87413
   D34       -0.16730   0.00002   0.00000  -0.00907  -0.00890  -0.17620
   D35        0.21718   0.00010   0.00000   0.01366   0.01349   0.23067
   D36        2.93095   0.00031   0.00000  -0.00247  -0.00236   2.92860
   D37        3.08159  -0.00026   0.00000   0.00399   0.00392   3.08551
   D38        0.95817  -0.00088   0.00000  -0.00924  -0.00933   0.94885
   D39       -1.09079   0.00021   0.00000   0.00491   0.00483  -1.08595
   D40        0.37281   0.00067   0.00000   0.02780   0.02788   0.40070
   D41       -1.75061   0.00005   0.00000   0.01457   0.01464  -1.73596
   D42        2.48362   0.00115   0.00000   0.02872   0.02880   2.51242
   D43       -3.13311  -0.00037   0.00000  -0.01304  -0.01306   3.13701
   D44        1.02600  -0.00068   0.00000  -0.01679  -0.01680   1.00920
   D45       -1.01234  -0.00044   0.00000  -0.01240  -0.01239  -1.02473
   D46       -1.00500   0.00038   0.00000   0.00068   0.00068  -1.00432
   D47       -3.12907   0.00007   0.00000  -0.00307  -0.00306  -3.13213
   D48        1.11578   0.00031   0.00000   0.00133   0.00135   1.11712
   D49        1.04570   0.00019   0.00000  -0.00495  -0.00496   1.04074
   D50       -1.07838  -0.00012   0.00000  -0.00870  -0.00870  -1.08708
   D51       -3.11671   0.00012   0.00000  -0.00431  -0.00430  -3.12101
   D52       -1.04271   0.00035   0.00000   0.00437   0.00436  -1.03835
   D53       -3.13760   0.00015   0.00000   0.00099   0.00098  -3.13661
   D54        1.05003  -0.00014   0.00000  -0.00391  -0.00392   1.04611
   D55        1.07338   0.00047   0.00000   0.00726   0.00726   1.08064
   D56       -1.02151   0.00027   0.00000   0.00388   0.00388  -1.01763
   D57       -3.11707  -0.00003   0.00000  -0.00102  -0.00102  -3.11809
   D58        3.12648  -0.00014   0.00000  -0.00157  -0.00156   3.12492
   D59        1.03159  -0.00034   0.00000  -0.00495  -0.00494   1.02665
   D60       -1.06397  -0.00063   0.00000  -0.00986  -0.00985  -1.07381
         Item               Value     Threshold  Converged?
 Maximum Force            0.018673     0.000450     NO 
 RMS     Force            0.002765     0.000300     NO 
 Maximum Displacement     0.423523     0.001800     NO 
 RMS     Displacement     0.101079     0.001200     NO 
 Predicted change in Energy=-1.983104D-03
 GradGradGradGradGradGradGradGradGradGradGradGradGradGradGradGradGradGrad

                          Input orientation:                          
 ---------------------------------------------------------------------
 Center     Atomic      Atomic             Coordinates (Angstroms)
 Number     Number       Type             X           Y           Z
 ---------------------------------------------------------------------
      1          6           0       -4.086424    3.512370   -1.201370
      2          6           0       -4.210916    2.233119   -0.629215
      3          6           0       -3.119225    1.640163   -0.042496
      4          6           0       -1.835833    2.277946    0.021132
      5          6           0       -1.751374    3.582878   -0.572214
      6          6           0       -2.844004    4.171418   -1.168830
      7          7           0       -0.831865    1.580954    0.567731
      8          6           0        0.370666    2.172907    0.817401
      9          7           0        1.369258    1.246437    1.033642
     10          8           0        0.650327    3.383017    0.909842
     11          6           0        2.624935    1.641336    1.631599
     12          6           0        3.527772    0.429530    1.836960
     13          6           0        4.867143    0.816308    2.462472
     14          1           0       -3.200355    0.650176    0.396589
     15          1           0       -0.806110    4.109402   -0.535671
     16          1           0        1.062223    0.288817    1.138265
     17          1           0        2.454457    2.154570    2.590653
     18          1           0        3.113532    2.367984    0.972227
     19          1           0        3.693754   -0.062460    0.870030
     20          1           0        3.018165   -0.299632    2.481842
     21          1           0        5.400678    1.531123    1.826336
     22          1           0        5.514003   -0.056266    2.603409
     23          1           0        4.719966    1.287781    3.440415
     24          1           0       -5.171990    1.731993   -0.659364
     25          1           0       -2.761771    5.154419   -1.619169
     26          7           0       -5.208694    4.130277   -1.808426
     27          8           0       -5.078828    5.258692   -2.300358
     28          8           0       -6.284448    3.517508   -1.837320
 ---------------------------------------------------------------------
                    Distance matrix (angstroms):
                    1          2          3          4          5
     1  C    0.000000
     2  C    1.406892   0.000000
     3  C    2.404916   1.373908   0.000000
     4  C    2.843145   2.462920   1.434542   0.000000
     5  C    2.419352   2.806143   2.434288   1.435981   0.000000
     6  C    1.406773   2.432413   2.784174   2.453091   1.377015
     7  N    4.177587   3.643622   2.368100   1.338850   2.480457
     8  C    5.072992   4.804916   3.633535   2.348131   2.902086
     9  N    6.316186   5.905673   4.632448   3.515935   4.216169
    10  O    5.187558   5.227106   4.260752   2.862164   2.829241
    11  C    7.521225   7.224289   5.983141   4.785116   5.270528
    12  C    8.758500   8.319990   7.012885   5.956688   6.604324
    13  C   10.042851   9.694176   8.410451   7.281925   7.788967
    14  H    3.395696   2.139910   1.086026   2.156971   3.411578
    15  H    3.400009   3.888688   3.419191   2.173613   1.082631
    16  H    6.509512   5.891544   4.550257   3.688272   4.657564
    17  H    7.681548   7.402764   6.185792   5.002425   5.452780
    18  H    7.607464   7.498689   6.356623   5.040725   5.246769
    19  H    8.809159   8.366673   7.081547   6.064195   6.709544
    20  H    8.864119   8.267594   6.913946   6.021653   6.866560
    21  H   10.153691   9.945113   8.723140   7.495572   7.817582
    22  H   10.926102  10.500723   9.187563   8.132453   8.724314
    23  H   10.200365   9.859827   8.585322   7.459921   7.952792
    24  H    2.154523   1.084297   2.145414   3.448344   3.890241
    25  H    2.150717   3.407936   3.868290   3.438321   2.141672
    26  N    1.417680   2.446489   3.699332   4.260822   3.712267
    27  O    2.289602   3.563717   4.693797   4.979074   4.106919
    28  O    2.288180   2.721895   4.094442   4.978005   4.706753
                    6          7          8          9         10
     6  C    0.000000
     7  N    3.711448   0.000000
     8  C    4.274723   1.363387   0.000000
     9  N    5.581933   2.274625   1.379237   0.000000
    10  O    4.141594   2.358255   1.245440   2.257690   0.000000
    11  C    6.644773   3.617310   2.455039   1.445761   2.730103
    12  C    7.977219   4.684352   3.747823   2.443734   4.226384
    13  C    9.159963   6.054208   4.976438   3.802863   5.174959
    14  H    3.869970   2.550565   3.904867   4.652175   4.749695
    15  H    2.134889   2.758841   2.639245   3.923205   2.176775
    16  H    5.971255   2.362773   2.032487   1.011065   3.129842
    17  H    6.802579   3.901431   2.736228   2.103959   2.754831
    18  H    6.582457   4.043414   2.754150   2.074640   2.664876
    19  H    8.051394   4.824254   4.005315   2.672688   4.597319
    20  H    8.226951   4.692884   3.986611   2.684494   4.651855
    21  H    9.160620   6.358551   5.170189   4.118465   5.180281
    22  H   10.097494   6.862545   5.883277   4.619536   6.192914
    23  H    9.315263   6.257882   5.155585   4.125713   5.230275
    24  H    3.410259   4.512788   5.752936   6.774213   6.252012
    25  H    1.084371   4.612669   4.963713   6.274961   4.601758
    26  N    2.450007   5.594801   6.469584   7.724205   6.501961
    27  O    2.730743   6.307803   6.995675   8.294068   6.829843
    28  O    3.565267   6.266193   7.290133   8.484068   7.460301
                   11         12         13         14         15
    11  C    0.000000
    12  C    1.525044   0.000000
    13  C    2.529530   1.527999   0.000000
    14  H    6.036693   6.884115   8.329466   0.000000
    15  H    4.749787   6.160629   7.212429   4.309033   0.000000
    16  H    2.124796   2.566497   4.063151   4.341686   4.570514
    17  H    1.101024   2.166984   2.761961   6.249322   4.922048
    18  H    1.096137   2.162628   2.775551   6.568668   4.546414
    19  H    2.150647   1.097523   2.164474   6.946995   6.295172
    20  H    2.155203   1.098749   2.159727   6.627248   6.570391
    21  H    2.784747   2.172878   1.095577   8.763448   7.123960
    22  H    3.488980   2.183703   1.095297   9.017159   8.194537
    23  H    2.790334   2.174624   1.095591   8.508989   7.369417
    24  H    8.127039   9.144063  10.553129   2.484493   4.972754
    25  H    7.205959   8.592308   9.678809   4.954175   2.467923
    26  N    8.910351  10.164162  11.434398   4.583298   4.582913
    27  O    9.375154  10.701017  11.888721   5.660442   4.763519
    28  O    9.743230  10.923168  12.253273   4.766925   5.661874
                   16         17         18         19         20
    16  H    0.000000
    17  H    2.743863   0.000000
    18  H    2.925470   1.760462   0.000000
    19  H    2.668389   3.067836   2.500832   0.000000
    20  H    2.444827   2.520460   3.066628   1.763691   0.000000
    21  H    4.564971   3.106941   2.580867   2.523414   3.075341
    22  H    4.699370   3.774755   3.781534   2.513553   2.510620
    23  H    4.435866   2.570204   3.136785   3.079470   2.516916
    24  H    6.646776   8.300836   8.468556   9.173904   9.004072
    25  H    6.774988   7.343755   6.999910   8.665203   8.942742
    26  N    7.922386   9.054236   8.949702  10.198370  10.281620
    27  O    8.616049   9.503049   9.283360  10.738911  10.923631
    28  O    8.558746   9.891057   9.876082  10.941226  10.943689
                   21         22         23         24         25
    21  H    0.000000
    22  H    1.771014   0.000000
    23  H    1.768568   1.771309   0.000000
    24  H   10.862797  11.315211  10.717103   0.000000
    25  H    9.572114  10.652222   9.824798   4.294576   0.000000
    26  N   11.511988  12.327516  11.584835   2.659597   2.659345
    27  O   11.863576  12.825903  12.030834   3.890905   2.417363
    28  O   12.406058  13.103258  12.406582   2.411060   3.890542
                   26         27         28
    26  N    0.000000
    27  O    1.237813   0.000000
    28  O    1.238373   2.167866   0.000000
 Symmetry turned off by external request.
 Stoichiometry    C10H12N3O3(1-)
 Framework group  C1[X(C10H12N3O3)]
 Deg. of freedom    78
 Full point group                 C1      NOp   1
 Rotational constants (GHZ):      2.5343499      0.1601322      0.1519086
 Basis read from rwf:  (6D, 7F)
   328 basis functions,   560 primitive gaussians,   328 cartesian basis functions
    59 alpha electrons       59 beta electrons
       nuclear repulsion energy      1010.0736501036 Hartrees.
 NAtoms=   28 NActive=   28 NUniq=   28 SFac= 1.00D+00 NAtFMM=   60 NAOKFM=F Big=F
 Integral buffers will be    131072 words long.
 Raffenetti 2 integral format.
 Two-electron integral symmetry is turned off.
 One-electron integrals computed using PRISM.
 NBasis=   328 RedAO= T EigKep=  1.80D-06  NBF=   328
 NBsUse=   328 1.00D-06 EigRej= -1.00D+00 NBFU=   328
 Initial guess from the checkpoint file:  "aryl_urea_nitro_a1.M062X.chk"
 B after Tr=     0.019471    0.004354   -0.043198
         Rot=    0.999997   -0.001263   -0.001547   -0.001079 Ang=  -0.26 deg.
 ExpMin= 4.38D-02 ExpMax= 5.48D+03 ExpMxC= 8.25D+02 IAcc=2 IRadAn=         4 AccDes= 0.00D+00
 Harris functional with IExCor= 1009 and IRadAn=       4 diagonalized for initial guess.
 HarFok:  IExCor= 1009 AccDes= 0.00D+00 IRadAn=         4 IDoV= 1 UseB2=F ITyADJ=14
 ICtDFT=  3500011 ScaDFX=  1.000000  1.000000  1.000000  1.000000
 FoFCou: FMM=F IPFlag=           0 FMFlag=      100000 FMFlg1=           0
         NFxFlg=           0 DoJE=T BraDBF=F KetDBF=T FulRan=T
         wScrn=  0.000000 ICntrl=     500 IOpCl=  0 I1Cent=   200000004 NGrid=           0
         NMat0=    1 NMatS0=      1 NMatT0=    0 NMatD0=    1 NMtDS0=    0 NMtDT0=    0
 Symmetry not used in FoFCou.
 Requested convergence on RMS density matrix=1.00D-08 within 128 cycles.
 Requested convergence on MAX density matrix=1.00D-06.
 Requested convergence on             energy=1.00D-06.
 No special actions if energy rises.
 SCF Done:  E(RM062X) =  -777.916806142     A.U. after   16 cycles
            NFock= 16  Conv=0.62D-08     -V/T= 2.0084
 Calling FoFJK, ICntrl=      2127 FMM=F ISym2X=0 I1Cent= 0 IOpClX= 0 NMat=1 NMatS=1 NMatT=0.
 -------------------------------------------------------------------
 Center     Atomic                   Forces (Hartrees/Bohr)
 Number     Number              X              Y              Z
 -------------------------------------------------------------------
      1        6           0.002875460   -0.000947796    0.001393652
      2        6           0.000804920   -0.000470135    0.000786404
      3        6          -0.001300417    0.000167575   -0.000470041
      4        6           0.000210541    0.000686280   -0.001554350
      5        6          -0.001134604    0.003379896   -0.001145840
      6        6          -0.000672115   -0.001084906    0.000811446
      7        7           0.000747842   -0.003043336    0.000272918
      8        6          -0.004781604    0.011029503    0.001476698
      9        7           0.007939139   -0.006553398    0.000738848
     10        8           0.001256777   -0.005093439   -0.000712542
     11        6          -0.002294825   -0.001149653   -0.001285725
     12        6           0.000538968    0.000902844    0.000143829
     13        6          -0.000090498   -0.000427740   -0.000140594
     14        1           0.000291798   -0.000152606    0.000125525
     15        1          -0.000906847   -0.000582885   -0.000008923
     16        1          -0.001452040    0.000702454    0.000639970
     17        1           0.000587554    0.000307128    0.000644300
     18        1           0.000537085    0.000588711    0.000384536
     19        1          -0.000229606    0.000029145   -0.000049986
     20        1          -0.000078352   -0.000052034    0.000023422
     21        1           0.000061477    0.000156355   -0.000022296
     22        1          -0.000133506    0.000047206   -0.000020684
     23        1          -0.000019956    0.000131900    0.000070094
     24        1          -0.000239043    0.000039996   -0.000172423
     25        1          -0.000188599    0.000306039   -0.000216878
     26        7          -0.002835997    0.001423791   -0.003142976
     27        8          -0.001330971   -0.002805088    0.001410260
     28        8           0.001837419    0.002464193    0.000021359
 -------------------------------------------------------------------
 Cartesian Forces:  Max     0.011029503 RMS     0.002132134

 GradGradGradGradGradGradGradGradGradGradGradGradGradGradGradGradGradGrad
 Berny optimization.
 Using GEDIIS/GDIIS optimizer.
 FormGI is forming the generalized inverse of G from B-inverse, IUseBI=4.
 GSVD:  received Info=                   1 from GESDD.
 Internal  Forces:  Max     0.007998605 RMS     0.001490676
 Search for a local minimum.
 Step number   2 out of a maximum of  144
 All quantities printed in internal units (Hartrees-Bohrs-Radians)
 Mixed Optimization -- RFO/linear search
 Update second derivatives using D2CorX and points    1    2
 DE= -2.33D-03 DEPred=-1.98D-03 R= 1.17D+00
 TightC=F SS=  1.41D+00  RLast= 2.41D-01 DXNew= 5.0454D-01 7.2322D-01
 Trust test= 1.17D+00 RLast= 2.41D-01 DXMaxT set to 5.05D-01
 ITU=  1  0
 Use linear search instead of GDIIS.
     Eigenvalues ---    0.00430   0.00480   0.00953   0.01498   0.01555
     Eigenvalues ---    0.01691   0.01702   0.01806   0.01887   0.01948
     Eigenvalues ---    0.01996   0.02028   0.02138   0.02144   0.02156
     Eigenvalues ---    0.02167   0.02249   0.02271   0.02410   0.03680
     Eigenvalues ---    0.04411   0.04918   0.05496   0.05512   0.05602
     Eigenvalues ---    0.08256   0.09301   0.12115   0.12688   0.14211
     Eigenvalues ---    0.15666   0.16000   0.16000   0.16000   0.16000
     Eigenvalues ---    0.16000   0.16010   0.19939   0.21890   0.21942
     Eigenvalues ---    0.22041   0.22489   0.22983   0.24080   0.24971
     Eigenvalues ---    0.24995   0.25000   0.25000   0.25000   0.29572
     Eigenvalues ---    0.30002   0.31716   0.33723   0.33970   0.34038
     Eigenvalues ---    0.34161   0.34166   0.34173   0.34364   0.35284
     Eigenvalues ---    0.35443   0.35470   0.35821   0.37407   0.38934
     Eigenvalues ---    0.39433   0.43051   0.43165   0.43530   0.45455
     Eigenvalues ---    0.47783   0.48753   0.50684   0.52330   0.60045
     Eigenvalues ---    0.78836   0.86876   0.86900
 RFO step:  Lambda=-1.67748021D-03 EMin= 4.29631447D-03
 Quartic linear search produced a step of  0.36652.
 Iteration  1 RMS(Cart)=  0.12425642 RMS(Int)=  0.00398465
 Iteration  2 RMS(Cart)=  0.00671211 RMS(Int)=  0.00018498
 Iteration  3 RMS(Cart)=  0.00002265 RMS(Int)=  0.00018465
 Iteration  4 RMS(Cart)=  0.00000001 RMS(Int)=  0.00018465
 Variable       Old X    -DE/DX   Delta X   Delta X   Delta X     New X
                                 (Linear)    (Quad)   (Total)
    R1        2.65864  -0.00030  -0.00134  -0.00143  -0.00279   2.65585
    R2        2.65842  -0.00076   0.00004  -0.00240  -0.00237   2.65604
    R3        2.67903   0.00305   0.00504   0.01024   0.01528   2.69431
    R4        2.59631  -0.00098   0.00182  -0.00241  -0.00060   2.59571
    R5        2.04902   0.00020  -0.00008   0.00073   0.00065   2.04968
    R6        2.71089   0.00077   0.00009   0.00271   0.00281   2.71370
    R7        2.05229   0.00017   0.00005   0.00064   0.00069   2.05299
    R8        2.71361   0.00249   0.00003   0.00864   0.00869   2.72230
    R9        2.53006   0.00409  -0.00376   0.00910   0.00534   2.53540
   R10        2.60218  -0.00006   0.00161   0.00027   0.00189   2.60407
   R11        2.04588  -0.00107   0.00042  -0.00396  -0.00354   2.04233
   R12        2.04916   0.00035  -0.00022   0.00130   0.00108   2.05024
   R13        2.57643   0.00223  -0.00154   0.00549   0.00395   2.58038
   R14        2.60638   0.00764   0.00908   0.02151   0.03059   2.63697
   R15        2.35354  -0.00472  -0.00847  -0.00943  -0.01790   2.33564
   R16        2.73209  -0.00094  -0.00634  -0.00451  -0.01084   2.72125
   R17        1.91064  -0.00016  -0.00149  -0.00074  -0.00222   1.90841
   R18        2.88192  -0.00059   0.00236  -0.00219   0.00017   2.88208
   R19        2.08063   0.00061   0.00111   0.00264   0.00375   2.08439
   R20        2.07140   0.00040   0.00039   0.00163   0.00202   2.07342
   R21        2.88750  -0.00023   0.00178  -0.00073   0.00106   2.88856
   R22        2.07402  -0.00000   0.00046   0.00007   0.00053   2.07455
   R23        2.07634   0.00009   0.00087   0.00049   0.00136   2.07770
   R24        2.07034   0.00014  -0.00010   0.00054   0.00044   2.07078
   R25        2.06981  -0.00012   0.00079  -0.00032   0.00047   2.07028
   R26        2.07037   0.00012  -0.00007   0.00047   0.00040   2.07077
   R27        2.33913  -0.00326  -0.00174  -0.00536  -0.00709   2.33203
   R28        2.34019  -0.00282  -0.00141  -0.00462  -0.00603   2.33415
    A1        2.08831   0.00012  -0.00359  -0.00088  -0.00452   2.08379
    A2        2.09487   0.00008   0.00062   0.00100   0.00163   2.09649
    A3        2.10001  -0.00020   0.00299  -0.00012   0.00288   2.10289
    A4        2.08954   0.00001   0.00200  -0.00064   0.00132   2.09086
    A5        2.07986  -0.00022  -0.00567  -0.00231  -0.00797   2.07189
    A6        2.11379   0.00021   0.00367   0.00295   0.00664   2.12043
    A7        2.13878   0.00088   0.00085   0.00523   0.00607   2.14484
    A8        2.10217  -0.00012   0.00404   0.00081   0.00484   2.10701
    A9        2.04224  -0.00076  -0.00488  -0.00605  -0.01094   2.03130
   A10        2.02451  -0.00122  -0.00184  -0.00595  -0.00788   2.01663
   A11        2.04600  -0.00428   0.00093  -0.02275  -0.02197   2.02403
   A12        2.21139   0.00552   0.00105   0.02989   0.03083   2.24221
   A13        2.11853  -0.00034  -0.00026  -0.00141  -0.00172   2.11681
   A14        2.07072   0.00009  -0.00508  -0.00086  -0.00603   2.06469
   A15        2.09389   0.00024   0.00540   0.00226   0.00756   2.10145
   A16        2.10664   0.00054   0.00291   0.00370   0.00660   2.11324
   A17        2.07380  -0.00050  -0.00571  -0.00453  -0.01024   2.06355
   A18        2.10274  -0.00004   0.00280   0.00084   0.00364   2.10638
   A19        2.10614   0.00800  -0.00237   0.04245   0.04008   2.14622
[...]
 .00380412,-0.00300880,-0.00726485,0.12282236,0.00006766,-0.00003860,0.
 00006063,-0.00001768,0.00003464,-0.00003199,0.00006328,0.00000731,0.00
 002790,-0.00012191,0.00007484,-0.00011690,0.00001516,-0.00005614,0.000
 05524,-0.00004373,0.00000571,-0.00001981,0.00023286,-0.00003146,0.0001
 0588,-0.00033430,-0.00002722,-0.00007181,-0.00017227,0.00059516,-0.000
 11258,0.00014981,0.00004044,0.00008920,-0.00047052,0.00006188,0.000041
 05,-0.00276931,0.00107666,0.00429043,0.05814288,-0.09970362,-0.0882851
 4,-0.00000279,-0.00000057,-0.00000139,-0.00000288,0.00000245,-0.000013
 75,0.00010788,-0.00005146,0.00000362,0.00004939,-0.00007184,-0.0003105
 1,-0.00022810,0.00048687,0.00030794,0.00045668,-0.00015644,-0.00011508
 ,0.00029809,0.00034737,0.00039090,0.01645194,-0.01300734,-0.02511014,-
 0.06340691,0.10392734,0.00011892,-0.00006066,0.00010090,-0.00002568,0.
 00005503,-0.00005078,0.00010435,0.00000671,0.00004875,-0.00018877,0.00
 013467,-0.00018000,0.00003148,-0.00009814,0.00008069,-0.00008129,0.000
 00788,-0.00004135,0.00041036,-0.00006855,0.00023152,-0.00037848,0.0001
 0236,-0.00030196,-0.00020102,-0.00030764,0.00046507,0.00016669,-0.0000
 3090,0.00006368,-0.00048665,0.00014495,0.00038619,-0.00365498,0.003294
 98,0.00458927,0.10015023,-0.08834535,-0.20058564,-0.00000270,0.0000011
 3,-0.00000392,-0.00000853,0.00000980,-0.00001059,-0.00001987,-0.000009
 52,0.00000812,-0.00024166,0.00000944,0.00047926,-0.00011258,0.00004107
 ,-0.00007553,0.00047746,0.00015413,0.00045656,0.00059197,0.00026150,0.
 00000525,-0.00100266,0.00044157,-0.00013563,-0.10943103,0.09753118,0.2
 1537858,-0.00006728,0.00003108,-0.00005682,0.00001330,-0.00002673,0.00
 002749,-0.00005239,0.00000026,-0.00001545,0.00011901,-0.00007113,0.000
 10727,-0.00000960,0.00005170,-0.00003784,0.00004422,-0.00000541,0.0000
 3331,-0.00011280,-0.00005902,0.00002616,0.00055069,0.00052179,-0.00044
 965,0.00020266,-0.00042328,0.00082731,-0.00041712,-0.00010764,0.000378
 45,0.00127752,0.00014130,-0.00228575,-0.01023334,0.01590557,-0.0300513
 2,-0.06972155,0.03255280,-0.06562775,0.00000146,-0.00000318,-0.0000016
 5,0.00000969,-0.00001751,-0.00000003,0.00002023,-0.00002427,-0.0001079
 6,-0.00020629,-0.00012613,0.00116804,-0.00000356,0.00010301,0.00010432
 ,-0.00670208,-0.00133655,0.00019278,0.00143102,-0.00046301,0.00026306,
 0.00156819,-0.00265867,0.00777888,0.00469205,-0.00843541,0.01383360,0.
 07756825,0.00002746,-0.00001097,0.00002221,-0.00000288,0.00000823,-0.0
 0001085,0.00002010,0.00000123,0.00000392,-0.00004029,0.00002467,-0.000
 02937,0.00000235,-0.00002194,0.00000864,-0.00001753,0.00000110,-0.0000
 1316,0.00005343,0.00003457,-0.00000120,-0.00011890,-0.00021815,0.00009
 031,0.00005827,-0.00000603,-0.00037485,0.00011566,0.00012396,-0.000099
 65,0.00008708,-0.00000306,0.00057867,-0.00118947,0.00159691,-0.0041800
 5,0.03253520,-0.09646550,0.09452609,-0.00000084,0.00000227,0.00000112,
 -0.00000824,0.00000481,0.00000323,-0.00003987,0.00002204,0.00004486,0.
 00034262,0.00005343,-0.00017216,-0.00001112,-0.00013320,0.00017254,-0.
 00093411,0.00103082,-0.00020704,0.00044945,0.00038018,-0.00055198,0.00
 976458,-0.01251802,0.02878446,-0.00555196,0.00647027,-0.01330624,-0.03
 552984,0.09961215,-0.00014892,0.00006991,-0.00012205,0.00003001,-0.000
 06159,0.00005906,-0.00012295,-0.00000304,-0.00004800,0.00022637,-0.000
 15100,0.00021877,-0.00003643,0.00011796,-0.00008965,0.00010186,-0.0000
 0948,0.00006031,-0.00043433,0.00001830,-0.00019385,0.00067202,0.000066
 53,0.00002951,-0.00043771,-0.00007411,0.00018396,-0.00030435,0.0000271
 4,0.00012816,0.00117254,-0.00048071,0.00064746,-0.00186949,0.00153410,
 -0.00351376,-0.06509050,0.09478169,-0.24134389,0.00000255,-0.00000494,
 0.00000139,0.00001378,-0.00001813,0.00000369,-0.00001671,0.00001471,-0
 .00008539,-0.00044873,0.00044608,0.00051345,-0.00011381,-0.00005980,-0
 .00002612,-0.00064229,-0.00099413,0.00118003,-0.00031336,-0.00042157,0
 .00011824,0.00120186,-0.00078766,0.00132426,-0.00736932,0.01131163,-0.
 02086286,0.07386760,-0.10527833,0.26175889,-0.00225911,-0.00269923,-0.
 00098811,-0.28455170,-0.12262419,-0.03117528,-0.01297981,-0.01067833,-
 0.00120422,0.00156627,0.00039843,-0.00423253,0.00001846,0.00078421,-0.
 00003417,0.00196384,-0.00125451,-0.00010475,-0.00109207,-0.00021427,-0
 .00028887,0.00002401,0.00032978,0.00019457,-0.00016816,0.00000165,-0.0
 0012120,-0.00009255,-0.00011347,-0.00001450,0.00005521,0.00001296,-0.0
 0002161,-0.00000941,-0.00000998,-0.00000192,-0.00000034,0.00000426,0.0
 0000603,0.00010039,0.00157641,0.00166213,-0.00011969,0.00010671,0.0002
 1156,0.00000272,-0.00001249,0.00001439,-0.00002176,0.00000457,-0.00000
 761,-0.00000211,-0.00000328,0.00000622,0.00000436,-0.00000433,-0.00000
 234,0.00000019,0.00000741,-0.00000190,0.00000175,-0.00000011,-0.000000
 30,-0.00000716,0.00000128,0.00000311,-0.00000091,0.00000023,-0.0000029
 9,0.30073387,-0.02349302,-0.00667433,-0.00389276,-0.12032695,-0.112280
 67,-0.00570962,0.01186511,0.01057874,0.00195391,-0.00024887,0.00184387
 ,0.00551108,0.00080264,-0.00030644,-0.00014488,-0.00022288,-0.00304499
 ,0.00493930,0.00045016,0.00023514,-0.00005814,0.00030203,-0.00037467,-
 0.00022605,0.00004252,0.00004633,0.00000461,-0.00004242,0.00008893,0.0
 0001085,-0.00000663,0.00000695,0.00003323,-0.00000330,0.00000300,0.000
 00051,0.00000043,-0.00000091,-0.00000042,0.00093794,-0.00114080,-0.002
 77201,0.00012294,-0.00013677,-0.00035611,-0.00000845,0.00001074,-0.000
 00018,0.00000942,0.00000328,0.00000081,0.00000157,-0.00000164,0.000001
 90,0.00000005,0.00000062,-0.00000199,0.00000015,-0.00000262,0.00000032
 ,-0.00000045,-0.00000099,0.00000048,0.00000096,-0.00000024,-0.00000023
 ,-0.00000077,0.00000103,-0.00000113,0.13169316,0.11093899,0.01383095,0
 .00613538,0.00611691,-0.03280342,-0.00680815,-0.04984723,-0.01728867,-
 0.00893292,0.00329173,-0.00379378,0.00582580,0.00371161,-0.00005722,-0
 .00012799,-0.00098793,-0.00081782,0.00446038,0.00045024,-0.00076226,-0
 .00040503,-0.00021153,0.00022370,-0.00027347,-0.00063794,-0.00013995,0
 .00001010,-0.00001378,-0.00007085,-0.00000055,0.00010630,0.00000859,0.
 00003772,0.00001054,-0.00000990,-0.00000271,-0.00000592,-0.00000017,0.
 00000265,0.00000379,0.00211117,-0.00248361,-0.00285192,0.00019552,-0.0
 0035719,-0.00036525,-0.00000866,-0.00000014,0.00001739,-0.00000864,0.0
 0000623,-0.00000486,0.00000111,-0.00000585,0.00000505,0.00000186,0.000
 00112,-0.00000296,0.00000015,0.00000008,0.00000057,-0.00000007,-0.0000
 0118,0.00000015,-0.00000160,-0.00000042,0.00000039,-0.00000120,0.00000
 085,-0.00000222,0.03849096,0.00334774,0.04271306,0.00016998,-0.0231003
 3,0.01440858,-0.00467711,-0.00244517,-0.00251296,-0.00072126,0.0006177
 6,-0.00020835,-0.00192877,-0.00081581,-0.00517312,0.00857286,0.0187564
 9,-0.01205438,-0.06534306,-0.04900776,0.02252143,0.00013386,0.00137878
 ,-0.00011313,0.00051005,0.00015777,-0.00009759,-0.00010103,-0.00003867
 ,0.00002837,-0.00014599,-0.00029255,0.00015476,0.00002924,-0.00000927,
 -0.00002915,-0.00000441,0.00000639,-0.00000989,-0.00000011,0.00000351,
 0.00000318,0.00001324,0.00011977,0.00020021,-0.00001067,0.00102381,0.0
 0206994,0.00001170,-0.00002402,0.00004048,-0.00001072,0.00000140,0.000
 00069,-0.00000967,-0.00000622,-0.00000069,0.00000292,0.00000109,0.0000
 0094,0.00000038,-0.00000338,0.00000186,-0.00000209,-0.00000251,-0.0000
 0325,-0.00000370,0.00000197,0.00000028,0.00000068,-0.00000235,0.000002
 72,0.00000479,-0.00151158,0.00062382,0.06336759,-0.00211800,-0.0084222
 0,0.00810012,-0.00337140,0.00136431,0.00030426,0.00057639,0.00017874,-
 0.00070312,-0.00049034,0.00375637,0.00417533,-0.00303699,-0.00374688,0
 .00539237,-0.05149951,-0.25913305,0.13144918,0.00034573,-0.00094746,-0
 .00033453,-0.00046652,-0.00004167,0.00010618,0.00010147,-0.00002576,0.
 00004244,0.00017233,0.00016193,-0.00005286,-0.00005430,0.00001067,0.00
 002700,0.00000750,-0.00000503,0.00000842,0.00000006,-0.00000202,-0.000
 00412,0.00013654,-0.00022065,-0.00018638,0.00139807,-0.00101518,-0.002
 72668,0.00000970,0.00000877,-0.00004355,0.00001222,-0.00000642,0.00000
 185,0.00000782,0.00000839,-0.00000543,-0.00000447,0.00000353,0.0000019
 5,-0.00000065,-0.00000027,-0.00000038,0.00000050,0.00000216,0.00000260
 ,0.00000683,-0.00000319,-0.00000214,-0.00000014,0.00000114,-0.00000087
 ,-0.00020788,-0.00022089,0.00073700,0.05434329,0.27032198,-0.00050562,
 -0.00207515,0.00560410,-0.00185789,0.00078376,0.00264500,-0.00016582,-
 0.00068138,-0.00080219,-0.00544235,0.00404873,0.00443756,0.00357337,0.
 01595737,-0.00377111,0.02421266,0.13264227,-0.12246739,0.00064465,0.00
 019436,-0.00146196,0.00038952,0.00037775,0.00028149,-0.00013699,-0.000
 06561,-0.00003077,-0.00015160,-0.00027441,0.00014030,0.00001844,0.0000
 2924,0.00002839,-0.00001341,-0.00000312,-0.00000373,0.00000025,0.00000
 641,0.00000657,0.00018776,-0.00019826,-0.00034472,0.00173211,-0.002927
 06,-0.00287135,0.00006485,-0.00003748,-0.00001848,-0.00000923,0.000001
 99,-0.00000444,-0.00000618,0.00000099,-0.00000169,0.00000204,0.0000032
 7,0.00000065,0.00000048,-0.00000381,0.00000029,-0.00000183,-0.00000317
 ,-0.00000059,-0.00000313,-0.00000034,0.00000036,-0.00000058,0.,-0.0000
 0161,-0.00031112,0.00010346,0.00073040,-0.02097499,-0.14732808,0.12149
 911,-0.12882558,-0.00193474,-0.02744448,0.00033269,0.03342557,-0.01889
 306,0.01988904,-0.00468491,0.00968970,-0.01743883,0.00898874,-0.014258
 01,0.00173223,-0.02037878,0.01176231,-0.04952130,0.01573911,-0.0301899
 0,0.02505945,-0.00481854,0.01546590,-0.02363621,-0.00829730,-0.0053919
 3,0.00584702,-0.00156075,0.00682337,0.00600321,0.00654833,-0.00197709,
 -0.00262780,-0.00081013,-0.00126721,0.00079378,0.00030034,0.00027372,-
 0.00000779,-0.00024931,-0.00035311,0.00096947,-0.00112078,0.00019343,0
 .00013284,0.00014972,-0.00124325,0.00017927,0.00025920,-0.00080481,0.0
 0054319,-0.00036339,0.00036939,0.00015558,0.00020974,-0.00025156,-0.00
 025341,0.00013290,0.00018411,-0.00002115,-0.00015427,0.00002368,-0.000
 01905,0.00011868,0.00003645,0.00037242,-0.00008131,-0.00015336,0.00008
 974,-0.00004247,0.00019847,-0.00308715,-0.00406589,0.00295167,-0.00011
 371,0.00073299,0.00105081,0.73710901,-0.00377557,-0.11236367,0.0287465
 2,0.03163631,-0.01972678,0.02229247,-0.01449718,-0.00543692,0.00165323
 ,0.00777754,-0.00841662,0.00868652,-0.01151264,0.00737198,-0.00564160,
 0.01921363,0.01343661,-0.00761582,-0.01410837,0.00244567,-0.00882751,0
 .01346030,0.00485006,0.00274870,-0.00337561,0.00087356,-0.00374838,-0.
 00363854,-0.00386872,0.00107277,0.00152708,0.00049452,0.00070124,-0.00
 045569,-0.00014377,-0.00016945,0.00000840,0.00015734,0.00019829,0.0007
 0074,0.00044051,0.00164629,-0.00122751,0.00139255,0.00014671,-0.000084
 98,-0.00012149,0.00043393,-0.00030227,0.00020692,-0.00019167,-0.000098
 30,-0.00013551,0.00013727,0.00015257,-0.00006571,-0.00009812,0.0000072
 7,0.00005476,-0.00000847,0.00000070,-0.00008682,-0.00003230,-0.0002147
 4,0.00005454,0.00008368,-0.00004949,0.00001692,-0.00009756,-0.00030872
 ,-0.00212355,-0.00085909,-0.00296822,-0.00425128,-0.00077933,0.2098207
 5,0.71351149,-0.02603375,0.02966949,-0.10320666,-0.01763904,0.02315483
 ,-0.03502773,0.01672201,0.00640556,0.01018449,-0.01318431,0.00915564,-
 0.01475768,0.00551762,-0.00994326,0.01699423,-0.03267092,-0.00925258,-
 0.01946318,0.02258018,-0.00463426,0.01306001,-0.02082076,-0.00787369,-
 0.00504324,0.00515087,-0.00122930,0.00618847,0.00550815,0.00584669,-0.
 00193637,-0.00238071,-0.00071654,-0.00108160,0.00070090,0.00023683,0.0
 0023944,-0.00000914,-0.00022909,-0.00031960,-0.00112826,0.00077653,0.0
 0119567,-0.00017997,0.00080962,0.00171789,0.00011858,0.00026613,-0.000
 67613,0.00049150,-0.00030387,0.00031869,0.00015466,0.00016877,-0.00020
 126,-0.00023211,0.00011333,0.00015233,-0.00001487,-0.00011873,0.000018
 19,-0.00000917,0.00011606,0.00004189,0.00033894,-0.00008172,-0.0001355
 9,0.00007581,-0.00003025,0.00016279,0.00023414,-0.00269268,-0.00107961
 ,0.00369869,0.00098102,-0.00231492,0.08975211,-0.23289619,0.45330249,0
 .01982912,0.01972341,-0.01315216,-0.00335875,-0.00213236,-0.00302217,0
 .00071115,0.00234249,-0.00100201,0.00051047,0.00072727,-0.00040958,0.0
 0194791,0.00067513,0.00074712,-0.00778865,-0.00009959,-0.00442798,0.00
 001958,0.00024423,-0.00023302,-0.00004793,-0.00042971,0.00029949,-0.00
 013345,0.00013608,-0.00016995,-0.00019117,0.00023642,-0.00026134,0.000
 08034,-0.00000114,0.00000270,-0.00000698,-0.00001411,0.00001971,0.0000
 0296,0.00000050,0.00000222,-0.00047361,0.00040961,-0.00002000,0.000054
 65,-0.00006107,0.00010371,0.00000559,0.00000238,0.00001755,-0.00001776
 ,0.00002095,-0.00001839,0.00000544,-0.00000842,0.00001759,0.00000758,-
 0.00000471,-0.00001231,0.00000124,0.00000789,-0.00000217,0.00000326,-0
 .00000173,0.00000274,-0.00000750,0.00000116,0.00000781,-0.00000601,0.0
 0000533,-0.00001412,0.00040820,0.00087802,-0.00045334,-0.00057421,0.00
 351438,-0.00277173,-0.14065143,-0.06084296,0.01476382,0.14910236,0.021
 21593,-0.03800855,0.05026568,0.00006863,0.01096435,-0.00347569,0.00887
 937,0.00051725,0.00342735,-0.00890345,0.00345742,-0.00665302,0.0036717
 8,-0.00529544,0.00514380,-0.01656031,-0.00335591,-0.00457621,0.0129368
 6,-0.00161779,0.00724667,-0.01212333,-0.00463970,-0.00256941,0.0029989
 6,-0.00062519,0.00333279,0.00335855,0.00369574,-0.00115723,-0.00135756
 ,-0.00043200,-0.00062290,0.00040364,0.00012509,0.00015788,-0.00000840,
 -0.00013957,-0.00018290,0.00049843,-0.00046560,-0.00016308,0.00031274,
 -0.00008085,0.00012592,0.00003427,0.00013958,-0.00040052,0.00028008,-0
 .00017750,0.00017636,0.00009676,0.00011242,-0.00011639,-0.00013479,0.0
 0005839,0.00008705,-0.00000790,-0.00004899,0.00000644,0.00000028,0.000
 07715,0.00002828,0.00019372,-0.00004856,-0.00007540,0.00004388,-0.0000
 1579,0.00008906,-0.00025582,0.00079176,-0.00066209,0.00280058,0.001694
 60,0.00009000,-0.07264291,-0.39365474,0.18698296,0.11885324,0.47933074
 ,-0.01427690,0.04951139,-0.02421844,-0.00458217,-0.00453793,0.00704305
 ,-0.00565853,0.00028086,-0.00359302,0.00644900,-0.00187880,0.00484389,
 -0.00137714,0.00367927,-0.00389683,0.00728651,0.00341127,0.00260607,-0
 .00927932,0.00134917,-0.00516436,0.00863647,0.00309801,0.00196897,-0.0
 0220782,0.00050918,-0.00245728,-0.00251291,-0.00249597,0.00075354,0.00
 102592,0.00029969,0.00043559,-0.00029499,-0.00008944,-0.00010449,0.000
 00560,0.00009836,0.00013310,-0.00008141,-0.00021865,-0.00093577,-0.000
 15311,-0.00003804,-0.00013425,-0.00001849,-0.00010736,0.00028241,-0.00
 021008,0.00013260,-0.00013216,-0.00006574,-0.00007942,0.00008922,0.000
 10308,-0.00004958,-0.00006663,0.00000492,0.00004376,-0.00000737,0.0000
 0229,-0.00005400,-0.00002108,-0.00014796,0.00003907,0.00005992,-0.0000
 3254,0.00001151,-0.00006643,0.00035996,-0.00010649,0.00029389,-0.00224
 211,0.00046561,-0.00144892,0.02320730,0.19271440,-0.20779742,-0.027247
 28,-0.26200068,0.20425155,-0.07196194,-0.00940312,-0.03700588,0.000986
 49,-0.01292150,0.00898212,-0.00817959,0.00003792,-0.00368856,0.0067248
 8,-0.00761029,0.00863693,-0.00433272,0.00745371,-0.00698178,0.01291378
 ,0.00527059,-0.00052568,-0.01291058,0.00327946,-0.00832697,0.01277734,
 0.00378851,0.00352723,-0.00334738,0.00101910,-0.00407208,-0.00344295,-
 0.00295405,0.00057939,0.00154098,0.00045803,0.00073848,-0.00045518,-0.
 00019143,-0.00015222,0.00000677,0.00014325,0.00020716,-0.00001983,0.00
 032580,-0.00021159,-0.00032817,0.00062174,-0.00005537,-0.00012276,-0.0
 0014286,0.00046925,-0.00032340,0.00022030,-0.00022661,-0.00008202,-0.0
 0012058,0.00015488,0.00015116,-0.00008276,-0.00011478,0.00001075,0.000
 10102,-0.00001644,0.00001525,-0.00006645,-0.00001816,-0.00021963,0.000
 04707,0.00009299,-0.00005579,0.00002813,-0.00012377,-0.00049215,0.0028
 2411,-0.00222197,0.00082922,-0.00011562,0.00047553,-0.43300553,-0.1668
 4449,-0.05150497,-0.01943238,-0.06465323,0.02330745,0.52275538,-0.0099
 6698,0.02252220,-0.00788796,0.00287612,-0.00894156,0.00883506,-0.00259
 879,0.00145081,-0.00267676,0.00263946,-0.00166938,0.00272308,0.0007925
 0,0.00330057,-0.00256467,0.00305106,0.00076002,0.00533192,-0.00394629,
 0.00107021,-0.00255211,0.00408916,0.00145522,0.00108828,-0.00092932,0.
 00022988,-0.00121852,-0.00090446,-0.00099714,0.00036294,0.00041293,0.0
 0013159,0.00024381,-0.00013873,-0.00006156,-0.00006027,-0.00000182,0.0
 0004049,0.00006557,-0.00003956,-0.00002145,-0.00007089,0.00029061,-0.0
 0039104,-0.00037983,-0.00004679,-0.00006134,0.00013352,-0.00009022,0.0
 0005258,-0.00006334,-0.00002616,-0.00002317,0.00003671,0.00003837,-0.0
 0002760,-0.00002883,0.00000391,0.00003983,-0.00000618,0.00000672,-0.00
 001256,-0.00000385,-0.00006367,0.00001117,0.00002470,-0.00001322,0.000
 00693,-0.00003307,0.00346556,0.00176012,0.00035535,0.00101522,0.000529
 37,0.00013760,-0.15522058,-0.19491187,0.00531868,-0.08418267,-0.052358
 34,0.01601221,0.23948763,0.22611601,-0.03663524,-0.00764532,0.00588137
 ,-0.00227719,0.00117731,-0.00046071,-0.00183980,-0.00141697,-0.0004333
 0,0.00122252,-0.00228097,0.00256001,-0.00226410,0.00065096,-0.00239811
 ,0.00107238,0.00640563,0.00208639,-0.00346630,0.00086707,-0.00218355,0
 .00321657,0.00092624,0.00107132,-0.00095046,0.00029082,-0.00114633,-0.
 00103779,-0.00068157,0.00011602,0.00046546,0.00011963,0.00017578,-0.00
 012373,-0.00004735,-0.00002999,0.00000313,0.00003967,0.00005721,0.0000
 5988,0.00011058,-0.00014099,0.00015974,-0.00022607,-0.00088279,-0.0000
 0472,-0.00004863,0.00010623,-0.00009611,0.00006200,-0.00006332,-0.0000
 2210,-0.00003089,0.00004297,0.00004554,-0.00002427,-0.00003193,0.00000
 245,0.00002659,-0.00000529,0.00000386,-0.00002094,-0.00000717,-0.00006
 630,0.00001691,0.00002933,-0.00001555,0.00000674,-0.00003416,-0.002669
 67,0.00005445,-0.00144085,-0.00033636,-0.00040718,0.00016963,-0.059754
 65,-0.00029654,-0.11053559,0.03723310,0.02549526,0.02728325,0.06807544
 ,-0.02312315,0.08021457\\-0.00000169,0.00001306,-0.00000173,-0.0000008
 6,-0.00002030,0.00002818,-0.00001584,-0.00001392,0.00000204,0.00002162
 ,-0.00001897,0.00002715,-0.00001165,0.00003055,-0.00003979,0.00000442,
 -0.00000302,-0.00000971,-0.00000565,0.00000518,-0.00002143,0.00002055,
 0.00001565,0.00003251,-0.00001089,0.00001228,-0.00004137,-0.00000873,-
 0.00000328,-0.00000771,0.00000620,0.00000888,-0.00000840,0.00000025,-0
 .00000622,-0.00000403,0.00000259,0.00001058,-0.00000304,-0.00000743,0.
 00000220,-0.00000626,0.00000306,0.00000217,-0.00000630,-0.00000537,-0.
 00001451,0.00001470,0.00000543,-0.00001374,0.00000249,-0.00000378,-0.0
 0000113,0.00001226,0.00000644,0.00000331,0.00000823,0.00000039,-0.0000
 0367,-0.00000409,-0.00000822,-0.00000131,0.00000654,0.00000145,0.00000
 254,0.00000520,-0.00000555,-0.00000680,-0.00000490,0.00000454,-0.00000
 371,0.00000628,0.00000770,-0.00000051,0.00000660,-0.00000546,0.0000042
 7,0.00000061,-0.00000495,0.00001392,-0.00000603,0.00001143,-0.00001349
 ,0.00001201\\\@


 ART, GLORY, FREEDOM FAIL, BUT NATURE STILL IS FAIR.

                                           -- BYRON
 Job cpu time:       0 days  2 hours 13 minutes 51.5 seconds.
 File lengths (MBytes):  RWF=    323 Int=      0 D2E=      0 Chk=      9 Scr=      1
 Normal termination of Gaussian 09 at Thu Aug 30 12:34:07 2018.
WARNING: pbs_rusage is deprecated and values produced may not be accurate


=============================================================================
                                     Resource usage:
                                       CPU time:              14:01:32
   JobId:    9657138.r-man2            Elapsed time:          03:30:51
   Project:             q95            Requested time:        32:00:00
   Service Units:     14.06 
                                       Max physical memory:      551MB
                                       Max virtual memory:      1141MB
                                       Requested memory:           0MB

                                       Number of cpus:               4

                                       Max jobfs disk use:       0.3GB
                                       Requested jobfs:         16.0GB
=============================================================================

