 Entering Gaussian System, Link 0=/apps/gaussian/g09e01/g09/g09
 AtFile(1): /home/507/hio507/Basis/6-31pGd.gbs
 Initial command:
 /apps/gaussian/g09e01/g09/l1.exe "/jobfs/local/1827667.r-man2/Gau-47743.inp" -scrdir="/jobfs/local/1827667.r-man2/"
 Entering Link 1 = /apps/gaussian/g09e01/g09/l1.exe PID=     47744.
  
 Copyright (c) 1988,1990,1992,1993,1995,1998,2003,2009,2015,
            Gaussian, Inc.  All Rights Reserved.
  
 This is part of the Gaussian(R) 09 program.  It is based on
 the Gaussian(R) 03 system (copyright 2003, Gaussian, Inc.),
 the Gaussian(R) 98 system (copyright 1998, Gaussian, Inc.),
 the Gaussian(R) 94 system (copyright 1995, Gaussian, Inc.),
 the Gaussian 92(TM) system (copyright 1992, Gaussian, Inc.),
 the Gaussian 90(TM) system (copyright 1990, Gaussian, Inc.),
 the Gaussian 88(TM) system (copyright 1988, Gaussian, Inc.),
 the Gaussian 86(TM) system (copyright 1986, Carnegie Mellon
 University), and the Gaussian 82(TM) system (copyright 1983,
 Carnegie Mellon University). Gaussian is a federally registered
 trademark of Gaussian, Inc.
  
 This software contains proprietary and confidential information,
 including trade secrets, belonging to Gaussian, Inc.
  
 This software is provided under written license and may be
 used, copied, transmitted, or stored only in accord with that
 written license.
  
 The following legend is applicable only to US Government
 contracts under FAR:
  
                    RESTRICTED RIGHTS LEGEND
  
 Use, reproduction and disclosure by the US Government is
 subject to restrictions as set forth in subparagraphs (a)
 and (c) of the Commercial Computer Software - Restricted
 Rights clause in FAR 52.227-19.
  
 Gaussian, Inc.
 340 Quinnipiac St., Bldg. 40, Wallingford CT 06492
  
  
 ---------------------------------------------------------------
 Warning -- This program may not be used in any manner that
 competes with the business of Gaussian, Inc. or will provide
 assistance to any competitor of Gaussian, Inc.  The licensee
 of this program is prohibited from giving any competitor of
 Gaussian, Inc. access to this program.  By using this program,
 the user acknowledges that Gaussian, Inc. is engaged in the
 business of creating and licensing software in the field of
 computational chemistry and represents and warrants to the
 licensee that it is not a competitor of Gaussian, Inc. and that
 it will not use this program in any manner prohibited above.
 ---------------------------------------------------------------
  

 Cite this work as:
 Gaussian 09, Revision E.01,
 M. J. Frisch, G. W. Trucks, H. B. Schlegel, G. E. Scuseria, 
 M. A. Robb, J. R. Cheeseman, G. Scalmani, V. Barone, B. Mennucci, 
 G. A. Petersson, H. Nakatsuji, M. Caricato, X. Li, H. P. Hratchian, 
 A. F. Izmaylov, J. Bloino, G. Zheng, J. L. Sonnenberg, M. Hada, 
 M. Ehara, K. Toyota, R. Fukuda, J. Hasegawa, M. Ishida, T. Nakajima, 
 Y. Honda, O. Kitao, H. Nakai, T. Vreven, J. A. Montgomery, Jr., 
 J. E. Peralta, F. Ogliaro, M. Bearpark, J. J. Heyd, E. Brothers, 
 K. N. Kudin, V. N. Staroverov, T. Keith, R. Kobayashi, J. Normand, 
 K. Raghavachari, A. Rendell, J. C. Burant, S. S. Iyengar, J. Tomasi, 
 M. Cossi, N. Rega, J. M. Millam, M. Klene, J. E. Knox, J. B. Cross, 
 V. Bakken, C. Adamo, J. Jaramillo, R. Gomperts, R. E. Stratmann, 
 O. Yazyev, A. J. Austin, R. Cammi, C. Pomelli, J. W. Ochterski, 
 R. L. Martin, K. Morokuma, V. G. Zakrzewski, G. A. Voth, 
 P. Salvador, J. J. Dannenberg, S. Dapprich, A. D. Daniels, 
 O. Farkas, J. B. Foresman, J. V. Ortiz, J. Cioslowski, 
 and D. J. Fox, Gaussian, Inc., Wallingford CT, 2013.
 
 ******************************************
 Gaussian 09:  ES64L-G09RevE.01 30-Nov-2015
                30-Oct-2018 
 ******************************************
 %chk=4SF5.M062X_6-31pGd_opt_water.chk
 %mem=196608000
 %nproc=4
 Will use up to    4 processors via shared memory.
 ----------------------------------------------------------------------
 # M062X/Gen 6D SCF=Tight INT(grid=ultrafine) OPT IOP(2/17=4) SCRF=(SMD
 ,Solvent=h2o) maxdisk=2147483648
 ----------------------------------------------------------------------
 1/14=-1,18=20,19=15,26=4,38=1/1,3;
 2/9=110,12=2,17=4,18=5,40=1/2;
 3/5=7,8=2,11=2,16=1,25=1,30=1,70=32201,71=1,72=1,74=-55,75=-5/1,2,3;
 4//1;
 5/5=2,32=2,38=5,53=1/2;
 6/7=2,8=2,9=2,10=2,28=1/1;
 7//1,2,3,16;
 1/14=-1,18=20,19=15,26=4/3(2);
 2/9=110,17=4/2;
 99//99;
 2/9=110,17=4/2;
 3/5=7,6=1,8=2,11=2,16=1,25=1,30=1,70=32205,71=1,72=1,74=-55,75=-5,82=7/1,2,3;
 4/5=5,16=3,69=1/1;
 5/5=2,32=2,38=5,53=1/2;
 7//1,2,3,16;
 1/14=-1,18=20,19=15,26=4/3(-5);
 2/9=110,17=4/2;
 6/7=2,8=2,9=2,10=2,19=2,28=1/1;
 99/9=1/99;
 ----------------------------
 4SF5.M062X_6-31pGd_opt_water
 ----------------------------
 Symbolic Z-matrix:
 Charge =  0 Multiplicity = 1
 C                    -2.14249   1.96008  -0.02364 
 C                    -0.81352   1.22332   0.1076 
 C                     0.37179   2.18969  -0.0055 
 N                     1.6313    1.47612   0.10396 
 C                     2.83457   2.10889   0.00358 
 O                     2.8647    3.31645  -0.17375 
 N                     3.98456   1.37414   0.09556 
 C                     5.34437   1.83447   0.00729 
 C                     5.73042   3.18273  -0.18436 
 C                     6.36063   0.86999   0.12274 
 C                     7.70728   1.22287   0.06085 
 C                     8.08984   2.55885  -0.11802 
 C                     7.08548   3.53406  -0.24507 
 H                    -2.97929   1.23454   0.05604 
 H                    -2.20543   2.46826  -1.00955 
 H                    -2.24613   2.71489   0.78447 
 H                    -0.74528   0.46037  -0.69871 
 H                    -0.78093   0.70638   1.09147 
 H                     0.3079    2.9521    0.80203 
 H                     0.32831   2.70094  -0.99232 
 H                     1.61436   0.45457   0.25234 
 H                     3.86338   0.36015   0.24488 
 H                     5.02621   3.989    -0.28537 
 H                     6.10842  -0.17309   0.26724 
 H                     8.4523    0.44455   0.15963 
 S                     9.85392   3.00786  -0.16637 
 H                     7.34842   4.57494  -0.38661 
 F                     10.17725   1.70599  -1.23172 
 F                     11.51069   3.43031  -0.20596 
 F                     9.58191   4.01789  -1.52219 
 F                     9.5635    4.31737   0.89809 
 F                     10.16035   2.00657   1.18938 
 

 GradGradGradGradGradGradGradGradGradGradGradGradGradGradGradGradGradGrad
 Berny optimization.
 Initialization pass.
                           ----------------------------
                           !    Initial Parameters    !
                           ! (Angstroms and Degrees)  !
 --------------------------                            --------------------------
 ! Name  Definition              Value          Derivative Info.                !
 --------------------------------------------------------------------------------
 ! R1    R(1,2)                  1.5252         estimate D2E/DX2                !
 ! R2    R(1,14)                 1.1104         estimate D2E/DX2                !
 ! R3    R(1,15)                 1.111          estimate D2E/DX2                !
 ! R4    R(1,16)                 1.1106         estimate D2E/DX2                !
 ! R5    R(2,3)                  1.5335         estimate D2E/DX2                !
 ! R6    R(2,17)                 1.1122         estimate D2E/DX2                !
 ! R7    R(2,18)                 1.1119         estimate D2E/DX2                !
 ! R8    R(3,4)                  1.4517         estimate D2E/DX2                !
 ! R9    R(3,19)                 1.1124         estimate D2E/DX2                !
 ! R10   R(3,20)                 1.1122         estimate D2E/DX2                !
 ! R11   R(4,5)                  1.3632         estimate D2E/DX2                !
 ! R12   R(4,21)                 1.0324         estimate D2E/DX2                !
 ! R13   R(5,6)                  1.2209         estimate D2E/DX2                !
 ! R14   R(5,7)                  1.3678         estimate D2E/DX2                !
 ! R15   R(7,8)                  1.4383         estimate D2E/DX2                !
 ! R16   R(7,22)                 1.0321         estimate D2E/DX2                !
 ! R17   R(8,9)                  1.4155         estimate D2E/DX2                !
 ! R18   R(8,10)                 1.4058         estimate D2E/DX2                !
 ! R19   R(9,13)                 1.4012         estimate D2E/DX2                !
 ! R20   R(9,23)                 1.0753         estimate D2E/DX2                !
 ! R21   R(10,11)                1.3935         estimate D2E/DX2                !
 ! R22   R(10,24)                1.0828         estimate D2E/DX2                !
 ! R23   R(11,12)                1.4011         estimate D2E/DX2                !
 ! R24   R(11,25)                1.0819         estimate D2E/DX2                !
 ! R25   R(12,13)                1.4057         estimate D2E/DX2                !
 ! R26   R(12,26)                1.821          estimate D2E/DX2                !
 ! R27   R(13,27)                1.0829         estimate D2E/DX2                !
 ! R28   R(26,28)                1.713          estimate D2E/DX2                !
 ! R29   R(26,29)                1.7102         estimate D2E/DX2                !
 ! R30   R(26,30)                1.7124         estimate D2E/DX2                !
 ! R31   R(26,31)                1.7124         estimate D2E/DX2                !
 ! R32   R(26,32)                1.713          estimate D2E/DX2                !
 ! A1    A(2,1,14)             109.5628         estimate D2E/DX2                !
 ! A2    A(2,1,15)             110.2852         estimate D2E/DX2                !
 ! A3    A(2,1,16)             110.3038         estimate D2E/DX2                !
 ! A4    A(14,1,15)            108.655          estimate D2E/DX2                !
 ! A5    A(14,1,16)            108.7555         estimate D2E/DX2                !
 ! A6    A(15,1,16)            109.2414         estimate D2E/DX2                !
 ! A7    A(1,2,3)              111.2689         estimate D2E/DX2                !
 ! A8    A(1,2,17)             108.8121         estimate D2E/DX2                !
 ! A9    A(1,2,18)             109.0424         estimate D2E/DX2                !
 ! A10   A(3,2,17)             109.3543         estimate D2E/DX2                !
 ! A11   A(3,2,18)             109.6082         estimate D2E/DX2                !
 ! A12   A(17,2,18)            108.7105         estimate D2E/DX2                !
 ! A13   A(2,3,4)              110.8112         estimate D2E/DX2                !
 ! A14   A(2,3,19)             109.5098         estimate D2E/DX2                !
 ! A15   A(2,3,20)             108.9585         estimate D2E/DX2                !
 ! A16   A(4,3,19)             109.3886         estimate D2E/DX2                !
 ! A17   A(4,3,20)             109.0715         estimate D2E/DX2                !
 ! A18   A(19,3,20)            109.074          estimate D2E/DX2                !
 ! A19   A(3,4,5)              122.1469         estimate D2E/DX2                !
 ! A20   A(3,4,21)             118.879          estimate D2E/DX2                !
 ! A21   A(5,4,21)             118.9706         estimate D2E/DX2                !
 ! A22   A(4,5,6)              119.4452         estimate D2E/DX2                !
 ! A23   A(4,5,7)              119.1981         estimate D2E/DX2                !
 ! A24   A(6,5,7)              121.3554         estimate D2E/DX2                !
 ! A25   A(5,7,8)              128.2307         estimate D2E/DX2                !
 ! A26   A(5,7,22)             116.0267         estimate D2E/DX2                !
 ! A27   A(8,7,22)             115.7424         estimate D2E/DX2                !
 ! A28   A(7,8,9)              124.8203         estimate D2E/DX2                !
 ! A29   A(7,8,10)             117.3111         estimate D2E/DX2                !
 ! A30   A(9,8,10)             117.8685         estimate D2E/DX2                !
 ! A31   A(8,9,13)             120.5611         estimate D2E/DX2                !
 ! A32   A(8,9,23)             123.2525         estimate D2E/DX2                !
 ! A33   A(13,9,23)            116.1856         estimate D2E/DX2                !
 ! A34   A(8,10,11)            121.4136         estimate D2E/DX2                !
 ! A35   A(8,10,24)            120.2294         estimate D2E/DX2                !
 ! A36   A(11,10,24)           118.3565         estimate D2E/DX2                !
 ! A37   A(10,11,12)           120.7294         estimate D2E/DX2                !
 ! A38   A(10,11,25)           118.6347         estimate D2E/DX2                !
 ! A39   A(12,11,25)           120.6349         estimate D2E/DX2                !
 ! A40   A(11,12,13)           118.5521         estimate D2E/DX2                !
 ! A41   A(11,12,26)           120.1991         estimate D2E/DX2                !
 ! A42   A(13,12,26)           121.2462         estimate D2E/DX2                !
 ! A43   A(9,13,12)            120.8716         estimate D2E/DX2                !
 ! A44   A(9,13,27)            118.7838         estimate D2E/DX2                !
 ! A45   A(12,13,27)           120.3437         estimate D2E/DX2                !
 ! A46   A(12,26,28)            90.6858         estimate D2E/DX2                !
 ! A47   A(12,26,30)            90.7207         estimate D2E/DX2                !
 ! A48   A(12,26,31)            90.4445         estimate D2E/DX2                !
 ! A49   A(12,26,32)            90.467          estimate D2E/DX2                !
 ! A50   A(28,26,29)            89.4546         estimate D2E/DX2                !
 ! A51   A(28,26,30)            89.1885         estimate D2E/DX2                !
 ! A52   A(28,26,32)            90.8146         estimate D2E/DX2                !
 ! A53   A(29,26,30)            89.4188         estimate D2E/DX2                !
 ! A54   A(29,26,31)            89.415          estimate D2E/DX2                !
 ! A55   A(29,26,32)            89.3934         estimate D2E/DX2                !
 ! A56   A(30,26,31)            90.8124         estimate D2E/DX2                !
 ! A57   A(31,26,32)            89.1611         estimate D2E/DX2                !
 ! A58   L(12,26,29,28,-1)     180.1404         estimate D2E/DX2                !
 ! A59   L(28,26,31,12,-1)     181.1304         estimate D2E/DX2                !
 ! A60   L(30,26,32,12,-1)     181.1877         estimate D2E/DX2                !
 ! A61   L(12,26,29,28,-2)     180.1375         estimate D2E/DX2                !
 ! A62   L(28,26,31,12,-2)     179.985          estimate D2E/DX2                !
 ! A63   L(30,26,32,12,-2)     180.0173         estimate D2E/DX2                !
 ! D1    D(14,1,2,3)           179.6582         estimate D2E/DX2                !
 ! D2    D(14,1,2,17)           59.1071         estimate D2E/DX2                !
 ! D3    D(14,1,2,18)          -59.3232         estimate D2E/DX2                !
 ! D4    D(15,1,2,3)            60.1034         estimate D2E/DX2                !
 ! D5    D(15,1,2,17)          -60.4477         estimate D2E/DX2                !
 ! D6    D(15,1,2,18)         -178.878          estimate D2E/DX2                !
 ! D7    D(16,1,2,3)           -60.6516         estimate D2E/DX2                !
 ! D8    D(16,1,2,17)          178.7973         estimate D2E/DX2                !
 ! D9    D(16,1,2,18)           60.367          estimate D2E/DX2                !
 ! D10   D(1,2,3,4)           -179.2856         estimate D2E/DX2                !
 ! D11   D(1,2,3,19)            59.9542         estimate D2E/DX2                !
 ! D12   D(1,2,3,20)           -59.2743         estimate D2E/DX2                !
 ! D13   D(17,2,3,4)           -59.0544         estimate D2E/DX2                !
 ! D14   D(17,2,3,19)         -179.8146         estimate D2E/DX2                !
 ! D15   D(17,2,3,20)           60.957          estimate D2E/DX2                !
 ! D16   D(18,2,3,4)            60.028          estimate D2E/DX2                !
 ! D17   D(18,2,3,19)          -60.7322         estimate D2E/DX2                !
 ! D18   D(18,2,3,20)         -179.9607         estimate D2E/DX2                !
 ! D19   D(2,3,4,5)            178.4489         estimate D2E/DX2                !
 ! D20   D(2,3,4,21)            -0.867          estimate D2E/DX2                !
 ! D21   D(19,3,4,5)           -60.7191         estimate D2E/DX2                !
 ! D22   D(19,3,4,21)          119.965          estimate D2E/DX2                !
 ! D23   D(20,3,4,5)            58.5051         estimate D2E/DX2                !
 ! D24   D(20,3,4,21)         -120.8108         estimate D2E/DX2                !
 ! D25   D(3,4,5,6)              0.5855         estimate D2E/DX2                !
 ! D26   D(3,4,5,7)           -179.0071         estimate D2E/DX2                !
 ! D27   D(21,4,5,6)           179.9008         estimate D2E/DX2                !
 ! D28   D(21,4,5,7)             0.3082         estimate D2E/DX2                !
 ! D29   D(4,5,7,8)            179.4692         estimate D2E/DX2                !
 ! D30   D(4,5,7,22)            -0.361          estimate D2E/DX2                !
 ! D31   D(6,5,7,8)             -0.1154         estimate D2E/DX2                !
 ! D32   D(6,5,7,22)          -179.9456         estimate D2E/DX2                !
 ! D33   D(5,7,8,9)              0.6781         estimate D2E/DX2                !
 ! D34   D(5,7,8,10)          -179.4304         estimate D2E/DX2                !
 ! D35   D(22,7,8,9)          -179.4914         estimate D2E/DX2                !
 ! D36   D(22,7,8,10)            0.4002         estimate D2E/DX2                !
 ! D37   D(7,8,9,13)           179.4092         estimate D2E/DX2                !
 ! D38   D(7,8,9,23)            -0.2392         estimate D2E/DX2                !
 ! D39   D(10,8,9,13)           -0.4818         estimate D2E/DX2                !
 ! D40   D(10,8,9,23)          179.8698         estimate D2E/DX2                !
 ! D41   D(7,8,10,11)         -179.4634         estimate D2E/DX2                !
 ! D42   D(7,8,10,24)            0.2822         estimate D2E/DX2                !
 ! D43   D(9,8,10,11)            0.4359         estimate D2E/DX2                !
 ! D44   D(9,8,10,24)         -179.8185         estimate D2E/DX2                !
 ! D45   D(8,9,13,12)            0.026          estimate D2E/DX2                !
 ! D46   D(8,9,13,27)         -179.6343         estimate D2E/DX2                !
 ! D47   D(23,9,13,12)         179.6984         estimate D2E/DX2                !
 ! D48   D(23,9,13,27)           0.0381         estimate D2E/DX2                !
 ! D49   D(8,10,11,12)           0.0717         estimate D2E/DX2                !
 ! D50   D(8,10,11,25)         179.7156         estimate D2E/DX2                !
 ! D51   D(24,10,11,12)       -179.6785         estimate D2E/DX2                !
 ! D52   D(24,10,11,25)         -0.0346         estimate D2E/DX2                !
 ! D53   D(10,11,12,13)         -0.5325         estimate D2E/DX2                !
 ! D54   D(10,11,12,26)        178.8811         estimate D2E/DX2                !
 ! D55   D(25,11,12,13)        179.8307         estimate D2E/DX2                !
 ! D56   D(25,11,12,26)         -0.7556         estimate D2E/DX2                !
 ! D57   D(11,12,13,9)           0.4833         estimate D2E/DX2                !
 ! D58   D(11,12,13,27)       -179.8617         estimate D2E/DX2                !
 ! D59   D(26,12,13,9)        -178.9239         estimate D2E/DX2                !
 ! D60   D(26,12,13,27)          0.7311         estimate D2E/DX2                !
 ! D61   D(11,12,26,28)         46.055          estimate D2E/DX2                !
 ! D62   D(11,12,26,30)        135.252          estimate D2E/DX2                !
 ! D63   D(11,12,26,31)       -133.9299         estimate D2E/DX2                !
 ! D64   D(11,12,26,32)        -44.7653         estimate D2E/DX2                !
 ! D65   D(13,12,26,28)       -134.5474         estimate D2E/DX2                !
 ! D66   D(13,12,26,30)        -45.3504         estimate D2E/DX2                !
 ! D67   D(13,12,26,31)         45.4676         estimate D2E/DX2                !
 ! D68   D(13,12,26,32)        134.6323         estimate D2E/DX2                !
 --------------------------------------------------------------------------------
 Trust Radius=3.00D-01 FncErr=1.00D-07 GrdErr=1.00D-06
 Number of steps in this run=    173 maximum allowed number of steps=    192.
 GradGradGradGradGradGradGradGradGradGradGradGradGradGradGradGradGradGrad

                          Input orientation:                          
 ---------------------------------------------------------------------
 Center     Atomic      Atomic             Coordinates (Angstroms)
 Number     Number       Type             X           Y           Z
 ---------------------------------------------------------------------
      1          6           0       -2.142490    1.960080   -0.023640
      2          6           0       -0.813520    1.223320    0.107600
      3          6           0        0.371790    2.189690   -0.005500
      4          7           0        1.631300    1.476120    0.103960
      5          6           0        2.834570    2.108890    0.003580
      6          8           0        2.864700    3.316450   -0.173750
      7          7           0        3.984560    1.374140    0.095560
      8          6           0        5.344370    1.834470    0.007290
      9          6           0        5.730420    3.182730   -0.184360
     10          6           0        6.360630    0.869990    0.122740
     11          6           0        7.707280    1.222870    0.060850
     12          6           0        8.089840    2.558850   -0.118020
     13          6           0        7.085480    3.534060   -0.245070
     14          1           0       -2.979290    1.234540    0.056040
     15          1           0       -2.205430    2.468260   -1.009550
     16          1           0       -2.246130    2.714890    0.784470
     17          1           0       -0.745280    0.460370   -0.698710
     18          1           0       -0.780930    0.706380    1.091470
     19          1           0        0.307900    2.952100    0.802030
     20          1           0        0.328310    2.700940   -0.992320
     21          1           0        1.614360    0.454570    0.252340
     22          1           0        3.863380    0.360150    0.244880
     23          1           0        5.026210    3.989000   -0.285370
     24          1           0        6.108420   -0.173090    0.267240
     25          1           0        8.452300    0.444550    0.159630
     26         16           0        9.853920    3.007860   -0.166370
     27          1           0        7.348420    4.574940   -0.386610
     28          9           0       10.177250    1.705990   -1.231720
     29          9           0       11.510690    3.430310   -0.205960
     30          9           0        9.581910    4.017890   -1.522190
     31          9           0        9.563500    4.317370    0.898090
     32          9           0       10.160350    2.006570    1.189380
 ---------------------------------------------------------------------
                    Distance matrix (angstroms):
                    1          2          3          4          5
     1  C    0.000000
     2  C    1.525189   0.000000
     3  C    2.524808   1.533500   0.000000
     4  N    3.806835   2.457858   1.451733   0.000000
     5  C    4.979359   3.755478   2.464122   1.363207   0.000000
     6  O    5.189819   4.241421   2.740893   2.232759   1.220883
     7  N    6.156158   4.800465   3.705056   2.355484   1.367770
     8  C    7.487978   6.188956   4.985268   3.731575   2.524761
     9  C    7.968903   6.837227   5.452801   4.449543   3.094253
    10  C    8.573959   7.182862   6.133862   4.768051   3.739274
    11  C    9.877681   8.520928   7.399227   6.081408   4.952940
    12  C   10.250269   9.005796   7.727693   6.552428   5.275899
    13  C    9.363860   8.237603   6.851157   5.839950   4.490342
    14  H    1.110401   2.166413   3.485088   4.617163   5.879473
    15  H    1.110958   2.176077   2.779889   4.116399   5.153366
    16  H    1.110640   2.176076   2.784491   4.126998   5.175958
    17  H    2.158019   1.112153   2.172311   2.706318   4.003268
    18  H    2.160805   1.111885   2.175389   2.717817   4.027701
    19  H    2.769521   2.174511   1.112410   2.101715   2.780753
    20  H    2.755371   2.167247   1.112241   2.097569   2.761101
    21  H    4.056679   2.550790   2.149675   1.032409   2.070644
    22  H    6.221122   4.757867   3.949824   2.499486   2.043225
    23  H    7.454883   6.473473   4.997947   4.241646   2.901998
    24  H    8.527165   7.063193   6.210156   4.774009   3.999380
    25  H   10.704205   9.298635   8.268460   6.898788   5.861166
    26  S   12.042926  10.819146   9.518722   8.368440   7.078722
    27  H    9.851224   8.837130   7.382955   6.521411   5.158342
    28  F   12.381438  11.082589   9.893666   8.652753   7.456758
    29  F   13.733322  12.524188  11.209568  10.075577   8.778674
    30  F   11.997574  10.887185   9.511518   8.503950   7.176270
    31  F   11.976502  10.857282   9.477923   8.463046   7.138349
    32  F   12.362583  11.054843   9.862919   8.614186   7.421836
                    6          7          8          9         10
     6  O    0.000000
     7  N    2.258137   0.000000
     8  C    2.894444   1.438325   0.000000
     9  C    2.868858   2.529304   1.415475   0.000000
    10  C    4.277219   2.429118   1.405822   2.416659   0.000000
    11  C    5.280975   3.725954   2.441366   2.794486   1.393492
    12  C    5.280071   4.278140   2.842188   2.441411   2.429070
    13  C    4.226988   3.794336   2.446172   1.401180   2.785312
    14  H    6.208009   6.965361   8.345394   8.928174   9.347270
    15  H    5.208090   6.382346   7.644288   8.010563   8.787146
    16  H    5.234562   6.410437   7.680810   8.048780   8.827109
    17  H    4.633005   4.882338   6.282549   7.043471   7.164951
    18  H    4.658741   4.914024   6.321972   7.082212   7.208820
    19  H    2.760819   4.062867   5.219841   5.516328   6.436782
    20  H    2.735358   4.038817   5.187567   5.483403   6.401923
    21  H    3.152025   2.547163   3.984614   4.957370   4.766178
    22  H    3.148384   1.032064   2.103188   3.411311   2.551688
    23  H    2.266475   2.840358   2.197470   1.075261   3.416936
    24  H    4.784671   2.633282   2.163711   3.407104   1.082823
    25  H    6.291282   4.563874   3.407978   3.876157   2.134817
    26  S    6.996033   6.098117   4.662944   4.127245   4.105746
    27  H    4.661851   4.668315   3.417828   2.144080   3.868051
    28  F    7.562160   6.342019   4.990830   4.801252   4.135220
    29  F    8.646800   7.807777   6.373043   5.785610   5.760764
    30  F    6.887033   6.398192   5.006334   4.161881   4.794968
    31  F    6.857449   6.358556   4.975879   4.141450   4.769064
    32  F    7.536605   6.303713   4.961917   4.784850   4.106995
                   11         12         13         14         15
    11  C    0.000000
    12  C    1.401139   0.000000
    13  C    2.412845   1.405673   0.000000
    14  H   10.686577  11.149427  10.328507   0.000000
    15  H   10.047814  10.334196   9.383036   1.804552   0.000000
    16  H   10.090596  10.376469   9.423902   1.805428   1.811350
    17  H    8.520804   9.099460   8.424616   2.481892   2.502056
    18  H    8.566134   9.142487   8.465372   2.486736   3.089936
    19  H    7.634816   7.846001   6.882637   3.783138   3.135722
    20  H    7.598885   7.811910   6.849220   3.766909   2.544460
    21  H    6.144154   6.818871   6.297923   4.663529   4.498679
    22  H    3.943820   4.777964   4.549251   6.900895   6.545852
    23  H    3.867749   3.385139   2.109310   8.472995   7.425207
    24  H    2.132523   3.396755   3.867825   9.198505   8.816293
    25  H    1.081940   2.163038   3.402507  11.459322  10.910985
    26  S    2.801050   1.820968   2.819103  12.957060  12.100828
    27  H    3.400790   2.164824   1.082868  10.863508   9.803173
    28  F    2.829292   2.514951   3.724830  13.227817  12.408109
    29  F    4.405668   3.531202   4.426599  14.657748  13.773280
    30  F    3.719192   2.515306   2.845574  12.962314  11.899812
    31  F    3.704383   2.509292   2.839185  12.943511  12.065074
    32  F    2.811640   2.510243   3.720981  13.211004  12.568252
                   16         17         18         19         20
    16  H    0.000000
    17  H    3.087917   0.000000
    18  H    2.505029   1.807356   0.000000
    19  H    2.565082   3.093562   2.512486   0.000000
    20  H    3.128085   2.501791   3.090447   1.811957   0.000000
    21  H    4.505063   2.544097   2.550483   2.871699   2.872156
    22  H    6.569785   4.705332   4.733519   4.435094   4.416637
    23  H    7.460217   6.777328   6.811326   4.951772   4.922311
    24  H    8.854742   6.950362   6.993995   6.610510   6.576945
    25  H   10.954509   9.237558   9.283826   8.545861   8.509847
    26  S   12.140887  10.914034  10.953493   9.595176   9.566276
    27  H    9.843099   9.084882   9.123421   7.322254   7.291139
    28  F   12.626293  11.006241  11.246250  10.153472   9.901962
    29  F   13.810969  12.620307  12.656502  11.258207  11.233698
    30  F   12.121098  10.953763  11.188645   9.620040   9.361850
    31  F   11.918398  11.121923  10.958279   9.356245   9.564268
    32  F   12.433279  11.175347  11.018697   9.905293  10.095097
                   21         22         23         24         25
    21  H    0.000000
    22  H    2.251013   0.000000
    23  H    4.941867   3.847323   0.000000
    24  H    4.537704   2.307607   4.335845   0.000000
    25  H    6.838576   4.590488   4.949671   2.426280   0.000000
    26  S    8.636258   6.562474   4.927837   4.933075   2.939621
    27  H    7.089792   5.505337   2.397130   4.950647   4.310110
    28  F    8.780181   6.622431   5.713224   4.725802   2.550007
    29  F   10.344197   8.252908   6.508988   6.510985   4.289775
    30  F    8.906630   7.014498   4.720695   5.729878   4.107712
    31  F    8.861549   6.969766   4.700575   5.700858   4.096196
    32  F    8.736172   6.576824   5.697746   4.692483   2.533323
                   26         27         28         29         30
    26  S    0.000000
    27  H    2.963406   0.000000
    28  F    1.713003   4.116718   0.000000
    29  F    1.710239   4.320568   2.409051   0.000000
    30  F    1.712425   2.566773   2.404929   2.407884   0.000000
    31  F    1.712377   2.573592   3.425213   2.407769   2.438808
    32  F    1.713050   4.121555   2.439746   2.407785   3.425290
                   31         32
    31  F    0.000000
    32  F    2.404345   0.000000
 Stoichiometry    C10H13F5N2OS
 Framework group  C1[X(C10H13F5N2OS)]
 Deg. of freedom    90
 Full point group                 C1      NOp   1
 Largest Abelian subgroup         C1      NOp   1
 Largest concise Abelian subgroup C1      NOp   1
                         Standard orientation:                         
 ---------------------------------------------------------------------
 Center     Atomic      Atomic             Coordinates (Angstroms)
 Number     Number       Type             X           Y           Z
 ---------------------------------------------------------------------
      1          6           0       -8.209047   -0.477857    0.039501
      2          6           0       -6.976621    0.420005    0.005290
      3          6           0       -5.685862   -0.407666   -0.017628
      4          7           0       -4.519333    0.456335   -0.033189
      5          6           0       -3.249443   -0.039262   -0.023472
      6          8           0       -3.076921   -1.247838   -0.011834
      7          7           0       -2.193793    0.830436   -0.018492
      8          6           0       -0.788547    0.524435    0.002143
      9          6           0       -0.246050   -0.782942    0.007735
     10          6           0        0.107355    1.607725    0.015486
     11          6           0        1.486641    1.409466    0.024616
     12          6           0        2.024014    0.115483    0.019225
     13          6           0        1.141388   -0.978535    0.015880
     14          1           0       -9.125282    0.149049    0.061724
     15          1           0       -8.194247   -1.117844    0.947479
     16          1           0       -8.240289   -1.124031   -0.863275
     17          1           0       -6.981510    1.070295    0.907500
     18          1           0       -7.022535    1.064792   -0.899382
     19          1           0       -5.676739   -1.056752   -0.920988
     20          1           0       -5.651364   -1.048523    0.890773
     21          1           0       -4.656758    1.479523   -0.041442
     22          1           0       -2.433891    1.834135   -0.028371
     23          1           0       -0.850555   -1.672160    0.000575
     24          1           0       -0.266137    2.624095    0.014748
     25          1           0        2.134942    2.275647    0.030061
     26         16           0        3.828697   -0.126788    0.000563
     27          1           0        1.525227   -1.991089    0.013950
     28          9           0        4.019931    1.048766    1.231775
     29          9           0        5.523577   -0.354280   -0.022831
     30          9           0        3.700745   -1.334765    1.207551
     31          9           0        3.671046   -1.306135   -1.230908
     32          9           0        3.991843    1.076600   -1.207651
 ---------------------------------------------------------------------
 Rotational constants (GHZ):      1.3186432      0.0971055      0.0944359
 General basis read from cards:  (6D, 7F)
 There are   391 symmetry adapted cartesian basis functions of A   symmetry.
 There are   391 symmetry adapted basis functions of A   symmetry.
   391 basis functions,   684 primitive gaussians,   391 cartesian basis functions
    78 alpha electrons       78 beta electrons
       nuclear repulsion energy      1674.8032693248 Hartrees.
 NAtoms=   32 NActive=   32 NUniq=   32 SFac= 1.00D+00 NAtFMM=   60 NAOKFM=F Big=F
 Integral buffers will be    131072 words long.
 Raffenetti 2 integral format.
 Two-electron integral symmetry is turned on.
 ------------------------------------------------------------------------------
 Polarizable Continuum Model (PCM)
 =================================
 Model                : PCM (using non-symmetric T matrix).
 Atomic radii         : SMD-Coulomb.
 Polarization charges : Total charges.
 Charge compensation  : None.
 Solution method      : On-the-fly selection.
 Cavity type          : VdW (van der Waals Surface) (Alpha=1.000).
 Cavity algorithm     : GePol (No added spheres)
                        Default sphere list used, NSphG=   32.
                        Lebedev-Laikov grids with approx.  5.0 points / Ang**2.
                        Smoothing algorithm: York/Karplus (Gamma=1.0000).
                        Polarization charges: spherical gaussians, with
                                              point-specific exponents (IZeta= 3).
                        Self-potential: point-specific (ISelfS= 7).
                        Self-field    : sphere-specific E.n sum rule (ISelfD= 2).
 1st derivatives      : Analytical E(r).r(x)/FMM algorithm (CHGder, D1EAlg=3).
                        Cavity 1st derivative terms included.
 Solvent              : Water, Eps=  78.355300 Eps(inf)=   1.777849
 ------------------------------------------------------------------------------
 ------------------------------------------------------------------------------
 Atomic radii for non-electrostatic terms: SMD-CDS.
 ------------------------------------------------------------------------------
 Nuclear repulsion after PCM non-electrostatic terms =     1674.8163419276 Hartrees.
 One-electron integrals computed using PRISM.
 NBasis=   391 RedAO= T EigKep=  1.04D-06  NBF=   391
 NBsUse=   391 1.00D-06 EigRej= -1.00D+00 NBFU=   391
 ExpMin= 4.05D-02 ExpMax= 2.19D+04 ExpMxC= 3.30D+03 IAcc=3 IRadAn=         5 AccDes= 0.00D+00
 Harris functional with IExCor= 1009 and IRadAn=       5 diagonalized for initial guess.
 HarFok:  IExCor= 1009 AccDes= 0.00D+00 IRadAn=         5 IDoV= 1 UseB2=F ITyADJ=14
 ICtDFT=  3500011 ScaDFX=  1.000000  1.000000  1.000000  1.000000
 FoFCou: FMM=F IPFlag=           0 FMFlag=      100000 FMFlg1=           0
         NFxFlg=           0 DoJE=T BraDBF=F KetDBF=T FulRan=T
         wScrn=  0.000000 ICntrl=     500 IOpCl=  0 I1Cent=   200000004 NGrid=           0
         NMat0=    1 NMatS0=      1 NMatT0=    0 NMatD0=    1 NMtDS0=    0 NMtDT0=    0
 Petite list used in FoFCou.
 Requested convergence on RMS density matrix=1.00D-08 within 128 cycles.
 Requested convergence on MAX density matrix=1.00D-06.
 Requested convergence on             energy=1.00D-06.
 No special actions if energy rises.
 Inv3:  Mode=1 IEnd=    18600300.
 Iteration    1 A*A^-1 deviation from unit magnitude is 6.00D-15 for    617.
 Iteration    1 A*A^-1 deviation from orthogonality  is 2.53D-15 for   2401   1145.
 Iteration    1 A^-1*A deviation from unit magnitude is 5.55D-15 for    609.
 Iteration    1 A^-1*A deviation from orthogonality  is 1.64D-12 for   1498   1324.
 Error on total polarization charges =  0.04898
 SCF Done:  E(RM062X) =  -1470.51168595     A.U. after   15 cycles
            NFock= 15  Conv=0.42D-08     -V/T= 2.0076
 SMD-CDS (non-electrostatic) energy       (kcal/mol) =       8.20
 (included in total energy above)

 **********************************************************************

            Population analysis using the SCF density.

 **********************************************************************

 Orbital symmetries:
       Occupied  (A) (A) (A) (A) (A) (A) (A) (A) (A) (A) (A) (A)
                 (A) (A) (A) (A) (A) (A) (A) (A) (A) (A) (A) (A)
                 (A) (A) (A) (A) (A) (A) (A) (A) (A) (A) (A) (A)
                 (A) (A) (A) (A) (A) (A) (A) (A) (A) (A) (A) (A)
                 (A) (A) (A) (A) (A) (A) (A) (A) (A) (A) (A) (A)
                 (A) (A) (A) (A) (A) (A) (A) (A) (A) (A) (A) (A)
                 (A) (A) (A) (A) (A) (A)
       Virtual   (A) (A) (A) (A) (A) (A) (A) (A) (A) (A) (A) (A)
                 (A) (A) (A) (A) (A) (A) (A) (A) (A) (A) (A) (A)
                 (A) (A) (A) (A) (A) (A) (A) (A) (A) (A) (A) (A)
                 (A) (A) (A) (A) (A) (A) (A) (A) (A) (A) (A) (A)
                 (A) (A) (A) (A) (A) (A) (A) (A) (A) (A) (A) (A)
                 (A) (A) (A) (A) (A) (A) (A) (A) (A) (A) (A) (A)
                 (A) (A) (A) (A) (A) (A) (A) (A) (A) (A) (A) (A)
                 (A) (A) (A) (A) (A) (A) (A) (A) (A) (A) (A) (A)
                 (A) (A) (A) (A) (A) (A) (A) (A) (A) (A) (A) (A)
                 (A) (A) (A) (A) (A) (A) (A) (A) (A) (A) (A) (A)
                 (A) (A) (A) (A) (A) (A) (A) (A) (A) (A) (A) (A)
                 (A) (A) (A) (A) (A) (A) (A) (A) (A) (A) (A) (A)
                 (A) (A) (A) (A) (A) (A) (A) (A) (A) (A) (A) (A)
                 (A) (A) (A) (A) (A) (A) (A) (A) (A) (A) (A) (A)
                 (A) (A) (A) (A) (A) (A) (A) (A) (A) (A) (A) (A)
                 (A) (A) (A) (A) (A) (A) (A) (A) (A) (A) (A) (A)
                 (A) (A) (A) (A) (A) (A) (A) (A) (A) (A) (A) (A)
                 (A) (A) (A) (A) (A) (A) (A) (A) (A) (A) (A) (A)
                 (A) (A) (A) (A) (A) (A) (A) (A) (A) (A) (A) (A)
                 (A) (A) (A) (A) (A) (A) (A) (A) (A) (A) (A) (A)
                 (A) (A) (A) (A) (A) (A) (A) (A) (A) (A) (A) (A)
                 (A) (A) (A) (A) (A) (A) (A) (A) (A) (A) (A) (A)
                 (A) (A) (A) (A) (A) (A) (A) (A) (A) (A) (A) (A)
                 (A) (A) (A) (A) (A) (A) (A) (A) (A) (A) (A) (A)
                 (A) (A) (A) (A) (A) (A) (A) (A) (A) (A) (A) (A)
                 (A) (A) (A) (A) (A) (A) (A) (A) (A) (A) (A) (A)
                 (A)
 The electronic state is 1-A.
 Alpha  occ. eigenvalues --  -90.34071 -25.33553 -25.31413 -25.31409 -25.31393
 Alpha  occ. eigenvalues --  -25.31383 -19.61998 -14.81249 -14.78746 -10.69294
 Alpha  occ. eigenvalues --  -10.63435 -10.61995 -10.58890 -10.58844 -10.58129
 Alpha  occ. eigenvalues --  -10.57483 -10.57301 -10.54590 -10.53456  -8.62751
 Alpha  occ. eigenvalues --   -6.55088  -6.55070  -6.54672  -1.44708  -1.37344
 Alpha  occ. eigenvalues --   -1.37187  -1.36615  -1.34313  -1.19280  -1.05834
 Alpha  occ. eigenvalues --   -1.02803  -0.99296  -0.94414  -0.87979  -0.86848
 Alpha  occ. eigenvalues --   -0.85548  -0.77937  -0.74053  -0.73102  -0.71321
 Alpha  occ. eigenvalues --   -0.70730  -0.68397  -0.67595  -0.66754  -0.63624
 Alpha  occ. eigenvalues --   -0.61971  -0.60775  -0.60487  -0.59894  -0.56512
 Alpha  occ. eigenvalues --   -0.56253  -0.55826  -0.54809  -0.54626  -0.54575
 Alpha  occ. eigenvalues --   -0.54487  -0.54310  -0.53911  -0.53710  -0.52725
 Alpha  occ. eigenvalues --   -0.52376  -0.51736  -0.51295  -0.50601  -0.49474
 Alpha  occ. eigenvalues --   -0.47309  -0.46191  -0.45215  -0.45091  -0.42911
 Alpha  occ. eigenvalues --   -0.41705  -0.39637  -0.39486  -0.38793  -0.35845
 Alpha  occ. eigenvalues --   -0.32991  -0.32539  -0.29011
 Alpha virt. eigenvalues --   -0.10243  -0.01761   0.00327   0.01476   0.02440
 Alpha virt. eigenvalues --    0.02671   0.03331   0.03655   0.03890   0.04434
 Alpha virt. eigenvalues --    0.04697   0.05033   0.05628   0.05987   0.06971
 Alpha virt. eigenvalues --    0.07096   0.07517   0.07588   0.07769   0.09224
 Alpha virt. eigenvalues --    0.09320   0.09770   0.09803   0.10042   0.10167
 Alpha virt. eigenvalues --    0.10690   0.12068   0.12093   0.12691   0.13685
 Alpha virt. eigenvalues --    0.14146   0.14414   0.14836   0.15312   0.15802
 Alpha virt. eigenvalues --    0.16030   0.16598   0.17592   0.18482   0.19190
 Alpha virt. eigenvalues --    0.19271   0.19788   0.20213   0.20791   0.21455
 Alpha virt. eigenvalues --    0.22060   0.22339   0.22761   0.23046   0.23353
 Alpha virt. eigenvalues --    0.23838   0.24067   0.24719   0.24793   0.25103
 Alpha virt. eigenvalues --    0.25714   0.26523   0.26575   0.26758   0.26993
 Alpha virt. eigenvalues --    0.27399   0.28509   0.29097   0.29151   0.29735
 Alpha virt. eigenvalues --    0.30031   0.30378   0.30899   0.31649   0.31929
 Alpha virt. eigenvalues --    0.32055   0.32160   0.32553   0.32733   0.32896
 Alpha virt. eigenvalues --    0.33427   0.34125   0.34623   0.34759   0.35348
 Alpha virt. eigenvalues --    0.36009   0.36157   0.36680   0.37556   0.38095
 Alpha virt. eigenvalues --    0.38248   0.38955   0.39080   0.39537   0.39766
 Alpha virt. eigenvalues --    0.40422   0.40934   0.41713   0.42832   0.45252
 Alpha virt. eigenvalues --    0.46339   0.46576   0.47237   0.47591   0.48363
 Alpha virt. eigenvalues --    0.49215   0.51447   0.51632   0.53010   0.55477
 Alpha virt. eigenvalues --    0.56532   0.57251   0.57980   0.58947   0.59378
 Alpha virt. eigenvalues --    0.59907   0.65664   0.66741   0.69264   0.70043
 Alpha virt. eigenvalues --    0.70218   0.70985   0.72269   0.73519   0.75197
 Alpha virt. eigenvalues --    0.75373   0.76388   0.77495   0.78230   0.78981
 Alpha virt. eigenvalues --    0.79863   0.80222   0.81274   0.82460   0.84543
 Alpha virt. eigenvalues --    0.84778   0.84963   0.87933   0.87984   0.88098
 Alpha virt. eigenvalues --    0.89107   0.89464   0.90397   0.90867   0.93594
 Alpha virt. eigenvalues --    0.94259   0.98185   0.98356   0.99456   1.00544
 Alpha virt. eigenvalues --    1.01784   1.02572   1.03394   1.04140   1.05539
 Alpha virt. eigenvalues --    1.05623   1.05864   1.10768   1.11048   1.11410
 Alpha virt. eigenvalues --    1.12396   1.13111   1.14074   1.15079   1.16023
 Alpha virt. eigenvalues --    1.17430   1.19053   1.20789   1.22954   1.24608
 Alpha virt. eigenvalues --    1.27035   1.28868   1.30353   1.31284   1.33909
 Alpha virt. eigenvalues --    1.34925   1.36768   1.38740   1.39066   1.39441
 Alpha virt. eigenvalues --    1.43321   1.45132   1.45466   1.47359   1.48097
 Alpha virt. eigenvalues --    1.48247   1.48730   1.49677   1.50915   1.53109
 Alpha virt. eigenvalues --    1.54087   1.55726   1.56649   1.57106   1.59554
 Alpha virt. eigenvalues --    1.60916   1.61305   1.63383   1.65666   1.65993
 Alpha virt. eigenvalues --    1.68955   1.69568   1.70577   1.73576   1.74059
 Alpha virt. eigenvalues --    1.75690   1.76844   1.77530   1.79108   1.80360
 Alpha virt. eigenvalues --    1.82243   1.83290   1.83623   1.83655   1.84733
 Alpha virt. eigenvalues --    1.85557   1.85730   1.86353   1.87608   1.87736
 Alpha virt. eigenvalues --    1.88696   1.88864   1.89984   1.90805   1.90977
 Alpha virt. eigenvalues --    1.91901   1.92066   1.92286   1.93353   1.94758
 Alpha virt. eigenvalues --    1.95638   1.96878   1.96979   1.97385   1.98130
 Alpha virt. eigenvalues --    1.98452   1.98726   1.99017   2.01371   2.02129
 Alpha virt. eigenvalues --    2.03216   2.03364   2.04134   2.05079   2.06268
 Alpha virt. eigenvalues --    2.06315   2.07684   2.12778   2.13722   2.14194
 Alpha virt. eigenvalues --    2.14926   2.15023   2.17208   2.20177   2.20528
 Alpha virt. eigenvalues --    2.20642   2.23071   2.23816   2.24783   2.24908
 Alpha virt. eigenvalues --    2.26229   2.28238   2.28323   2.28730   2.29924
 Alpha virt. eigenvalues --    2.32184   2.36463   2.38307   2.38718   2.40664
 Alpha virt. eigenvalues --    2.41974   2.42301   2.48186   2.50950   2.55871
 Alpha virt. eigenvalues --    2.58770   2.63891   2.65758   2.66490   2.69464
 Alpha virt. eigenvalues --    2.72887   2.73201   2.75113   2.76832   2.77760
 Alpha virt. eigenvalues --    2.78631   2.80491   2.80654   2.81720   2.84759
 Alpha virt. eigenvalues --    2.87808   2.93350   2.97784   3.08626   3.11633
 Alpha virt. eigenvalues --    3.18071   3.26899   3.32299   3.40240   4.14928
 Alpha virt. eigenvalues --    4.19800   4.26333   4.26857   4.31199   4.35293
 Alpha virt. eigenvalues --    4.41871   4.42288   4.43267   4.49267   4.51450
 Alpha virt. eigenvalues --    4.59063   4.66832   4.75834   5.73063   5.76927
 Alpha virt. eigenvalues --    5.88874   7.10236   8.04220
          Condensed to atoms (all electrons):
               1          2          3          4          5          6
     1  C    5.653345  -0.052434   0.026285  -0.002773  -0.049073  -0.003824
     2  C   -0.052434   6.118754  -0.312892  -0.077855   0.101368   0.017596
     3  C    0.026285  -0.312892   6.744864   0.279326  -0.443375  -0.088964
     4  N   -0.002773  -0.077855   0.279326   7.549861   0.473274  -0.213467
     5  C   -0.049073   0.101368  -0.443375   0.473274   6.539560   0.569467
     6  O   -0.003824   0.017596  -0.088964  -0.213467   0.569467   8.520040
     7  N   -0.003103   0.007409  -0.101542  -0.315935   0.184761  -0.098778
     8  C   -0.008968   0.003961  -0.388277  -0.150040  -0.787581  -0.338270
     9  C   -0.001951   0.001876  -0.079613   0.001641   0.690119   0.270631
    10  C   -0.000711   0.000757  -0.061710  -0.066482  -1.630858  -0.137512
    11  C    0.000275   0.000005   0.032016   0.015370   0.369381   0.011174
    12  C   -0.000233   0.000638  -0.039335  -0.000542  -0.613129   0.000745
    13  C   -0.000660   0.002274  -0.030960   0.021969  -0.208715   0.223982
    14  H    0.412973  -0.087469   0.027112   0.000535  -0.002068   0.000007
    15  H    0.420648  -0.065918  -0.009304   0.000420  -0.001754  -0.000056
    16  H    0.413749  -0.063733  -0.006905   0.000391   0.000486  -0.000050
    17  H   -0.039966   0.431626  -0.082280   0.006098  -0.000199  -0.000199
    18  H   -0.031133   0.420992  -0.067374   0.006104  -0.012181  -0.000172
    19  H   -0.000148  -0.036158   0.405528  -0.051834  -0.010802   0.003655
    20  H    0.006085  -0.047852   0.444761  -0.055802  -0.036904   0.004415
    21  H   -0.003576   0.000654  -0.060596   0.248110   0.018081   0.009020
    22  H   -0.000116   0.000760  -0.005193   0.008979  -0.031765   0.007307
    23  H   -0.000002   0.000132   0.000907  -0.000127  -0.011831  -0.000969
    24  H   -0.000001   0.000008  -0.000244   0.000938  -0.006495   0.000002
    25  H    0.000000   0.000000   0.000028   0.000014   0.003707  -0.000001
    26  S   -0.000004   0.000012  -0.001296   0.000405  -0.058464   0.000001
    27  H    0.000000   0.000001   0.000026   0.000013   0.001184   0.000196
    28  F   -0.000000   0.000000  -0.000004   0.000001  -0.000939  -0.000001
    29  F   -0.000000  -0.000000  -0.000000  -0.000000  -0.000056   0.000000
    30  F   -0.000000   0.000000  -0.000009  -0.000000  -0.001484   0.000000
    31  F   -0.000000   0.000000  -0.000009   0.000000  -0.001516   0.000000
    32  F   -0.000000   0.000000  -0.000004   0.000001  -0.001015  -0.000001
               7          8          9         10         11         12
     1  C   -0.003103  -0.008968  -0.001951  -0.000711   0.000275  -0.000233
     2  C    0.007409   0.003961   0.001876   0.000757   0.000005   0.000638
     3  C   -0.101542  -0.388277  -0.079613  -0.061710   0.032016  -0.039335
     4  N   -0.315935  -0.150040   0.001641  -0.066482   0.015370  -0.000542
     5  C    0.184761  -0.787581   0.690119  -1.630858   0.369381  -0.613129
     6  O   -0.098778  -0.338270   0.270631  -0.137512   0.011174   0.000745
     7  N    7.701947  -0.017724  -0.312445   0.319276   0.099804   0.025227
     8  C   -0.017724  14.835703  -1.318093  -0.958806   1.226590  -5.048989
     9  C   -0.312445  -1.318093  19.051010  -4.640431  -0.370074  -1.030312
    10  C    0.319276  -0.958806  -4.640431  17.936779  -3.629493   1.360949
    11  C    0.099804   1.226590  -0.370074  -3.629493  22.908143  -4.061055
    12  C    0.025227  -5.048989  -1.030312   1.360949  -4.061055  20.425304
    13  C   -0.082355  -0.751269  -7.131717  -1.585405 -10.708625  -3.926671
    14  H    0.000009  -0.000044   0.000004  -0.000002   0.000000  -0.000000
    15  H    0.000016  -0.000016  -0.000045   0.000003   0.000000  -0.000000
    16  H    0.000010   0.000024  -0.000037   0.000002   0.000000  -0.000000
    17  H    0.000011  -0.000112  -0.000180   0.000155   0.000002  -0.000000
    18  H    0.000074  -0.001056  -0.000195   0.000118   0.000007  -0.000003
    19  H   -0.000435  -0.002437   0.003025  -0.000758  -0.000033   0.000013
    20  H    0.000096  -0.007383   0.002776  -0.000950   0.000006  -0.000046
    21  H    0.018950   0.014113   0.001273  -0.001942  -0.000013  -0.000071
    22  H    0.244357   0.017743   0.023943  -0.065948   0.018603  -0.000904
    23  H   -0.012855   0.043958   0.213945   0.045950  -0.003048   0.066054
    24  H   -0.010051  -0.020171   0.064685   0.310995  -0.110502   0.089653
    25  H    0.000775   0.029102  -0.026904  -0.128329   0.417255  -0.027885
    26  S    0.000923  -0.543407  -0.791837   0.260318  -0.259146  -0.385297
    27  H   -0.000417  -0.007390  -0.085229  -0.038449   0.036642  -0.004892
    28  F    0.000002  -0.022807   0.011369  -0.001521  -0.117029   0.113410
    29  F   -0.000007   0.004190  -0.011514   0.002738   0.064691  -0.179926
    30  F   -0.000049  -0.016712  -0.037862   0.034411  -0.032714   0.119840
    31  F   -0.000047  -0.018509  -0.035657   0.036401  -0.033531   0.109194
    32  F    0.000005  -0.025454   0.008632   0.003412  -0.121022   0.102822
              13         14         15         16         17         18
     1  C   -0.000660   0.412973   0.420648   0.413749  -0.039966  -0.031133
     2  C    0.002274  -0.087469  -0.065918  -0.063733   0.431626   0.420992
     3  C   -0.030960   0.027112  -0.009304  -0.006905  -0.082280  -0.067374
     4  N    0.021969   0.000535   0.000420   0.000391   0.006098   0.006104
     5  C   -0.208715  -0.002068  -0.001754   0.000486  -0.000199  -0.012181
     6  O    0.223982   0.000007  -0.000056  -0.000050  -0.000199  -0.000172
     7  N   -0.082355   0.000009   0.000016   0.000010   0.000011   0.000074
     8  C   -0.751269  -0.000044  -0.000016   0.000024  -0.000112  -0.001056
     9  C   -7.131717   0.000004  -0.000045  -0.000037  -0.000180  -0.000195
    10  C   -1.585405  -0.000002   0.000003   0.000002   0.000155   0.000118
    11  C  -10.708625   0.000000   0.000000   0.000000   0.000002   0.000007
    12  C   -3.926671  -0.000000  -0.000000  -0.000000  -0.000000  -0.000003
    13  C   30.187686   0.000000  -0.000003  -0.000003  -0.000010  -0.000015
    14  H    0.000000   0.480774  -0.023830  -0.023689  -0.003046  -0.002971
    15  H   -0.000003  -0.023830   0.486782  -0.028293  -0.004578   0.003762
    16  H   -0.000003  -0.023689  -0.028293   0.486484   0.003783  -0.004566
    17  H   -0.000010  -0.003046  -0.004578   0.003783   0.489238  -0.030670
    18  H   -0.000015  -0.002971   0.003762  -0.004566  -0.030670   0.488659
    19  H    0.000579  -0.000060  -0.000321   0.002553   0.003615  -0.005250
    20  H    0.000447  -0.000053   0.002647  -0.000324  -0.005301   0.003648
    21  H    0.000654  -0.000003   0.000000  -0.000000   0.000577   0.000606
    22  H    0.016408  -0.000000  -0.000000  -0.000000   0.000001   0.000001
    23  H   -0.039663   0.000000  -0.000000  -0.000000  -0.000000  -0.000000
    24  H   -0.019058   0.000000  -0.000000  -0.000000  -0.000000   0.000000
    25  H    0.031566  -0.000000   0.000000   0.000000   0.000000   0.000000
    26  S    0.492499  -0.000000  -0.000000  -0.000000  -0.000000  -0.000000
    27  H    0.395709  -0.000000   0.000000   0.000000   0.000000   0.000000
    28  F   -0.028025  -0.000000  -0.000000  -0.000000   0.000000  -0.000000
    29  F    0.079171  -0.000000   0.000000   0.000000   0.000000   0.000000
    30  F   -0.092113  -0.000000  -0.000000   0.000000   0.000000  -0.000000
    31  F   -0.094210  -0.000000   0.000000  -0.000000  -0.000000   0.000000
    32  F   -0.024924  -0.000000   0.000000  -0.000000  -0.000000  -0.000000
              19         20         21         22         23         24
     1  C   -0.000148   0.006085  -0.003576  -0.000116  -0.000002  -0.000001
     2  C   -0.036158  -0.047852   0.000654   0.000760   0.000132   0.000008
     3  C    0.405528   0.444761  -0.060596  -0.005193   0.000907  -0.000244
     4  N   -0.051834  -0.055802   0.248110   0.008979  -0.000127   0.000938
     5  C   -0.010802  -0.036904   0.018081  -0.031765  -0.011831  -0.006495
     6  O    0.003655   0.004415   0.009020   0.007307  -0.000969   0.000002
     7  N   -0.000435   0.000096   0.018950   0.244357  -0.012855  -0.010051
     8  C   -0.002437  -0.007383   0.014113   0.017743   0.043958  -0.020171
     9  C    0.003025   0.002776   0.001273   0.023943   0.213945   0.064685
    10  C   -0.000758  -0.000950  -0.001942  -0.065948   0.045950   0.310995
    11  C   -0.000033   0.000006  -0.000013   0.018603  -0.003048  -0.110502
    12  C    0.000013  -0.000046  -0.000071  -0.000904   0.066054   0.089653
    13  C    0.000579   0.000447   0.000654   0.016408  -0.039663  -0.019058
    14  H   -0.000060  -0.000053  -0.000003  -0.000000   0.000000   0.000000
    15  H   -0.000321   0.002647   0.000000  -0.000000  -0.000000  -0.000000
    16  H    0.002553  -0.000324  -0.000000  -0.000000  -0.000000  -0.000000
    17  H    0.003615  -0.005301   0.000577   0.000001  -0.000000  -0.000000
    18  H   -0.005250   0.003648   0.000606   0.000001  -0.000000   0.000000
    19  H    0.492136  -0.038231   0.002066   0.000004  -0.000000   0.000000
    20  H   -0.038231   0.492927   0.002088   0.000005   0.000000   0.000000
    21  H    0.002066   0.002088   0.266248   0.002152   0.000001   0.000003
    22  H    0.000004   0.000005   0.002152   0.254716  -0.000104   0.004545
    23  H   -0.000000   0.000000   0.000001  -0.000104   0.413487  -0.000094
    24  H    0.000000   0.000000   0.000003   0.004545  -0.000094   0.420132
    25  H   -0.000000  -0.000000  -0.000000  -0.000009   0.000011  -0.003496
    26  S    0.000000  -0.000001  -0.000000   0.000328   0.001332   0.003281
    27  H   -0.000000  -0.000000  -0.000000   0.000001  -0.004162   0.000011
    28  F   -0.000000   0.000000   0.000000   0.000000   0.000013   0.000039
    29  F   -0.000000  -0.000000  -0.000000   0.000000  -0.000000  -0.000000
    30  F   -0.000000  -0.000000  -0.000000   0.000000   0.000019   0.000013
    31  F    0.000000  -0.000000  -0.000000   0.000000   0.000019   0.000013
    32  F    0.000000  -0.000000   0.000000   0.000000   0.000013   0.000040
              25         26         27         28         29         30
     1  C    0.000000  -0.000004   0.000000  -0.000000  -0.000000  -0.000000
     2  C    0.000000   0.000012   0.000001   0.000000  -0.000000   0.000000
     3  C    0.000028  -0.001296   0.000026  -0.000004  -0.000000  -0.000009
     4  N    0.000014   0.000405   0.000013   0.000001  -0.000000  -0.000000
     5  C    0.003707  -0.058464   0.001184  -0.000939  -0.000056  -0.001484
     6  O   -0.000001   0.000001   0.000196  -0.000001   0.000000   0.000000
     7  N    0.000775   0.000923  -0.000417   0.000002  -0.000007  -0.000049
     8  C    0.029102  -0.543407  -0.007390  -0.022807   0.004190  -0.016712
     9  C   -0.026904  -0.791837  -0.085229   0.011369  -0.011514  -0.037862
    10  C   -0.128329   0.260318  -0.038449  -0.001521   0.002738   0.034411
    11  C    0.417255  -0.259146   0.036642  -0.117029   0.064691  -0.032714
    12  C   -0.027885  -0.385297  -0.004892   0.113410  -0.179926   0.119840
    13  C    0.031566   0.492499   0.395709  -0.028025   0.079171  -0.092113
    14  H   -0.000000  -0.000000  -0.000000  -0.000000  -0.000000  -0.000000
    15  H    0.000000  -0.000000   0.000000  -0.000000   0.000000  -0.000000
    16  H    0.000000  -0.000000   0.000000  -0.000000   0.000000   0.000000
    17  H    0.000000  -0.000000   0.000000   0.000000   0.000000   0.000000
    18  H    0.000000  -0.000000   0.000000  -0.000000   0.000000  -0.000000
    19  H   -0.000000   0.000000  -0.000000  -0.000000  -0.000000  -0.000000
    20  H   -0.000000  -0.000001  -0.000000   0.000000  -0.000000  -0.000000
    21  H   -0.000000  -0.000000  -0.000000   0.000000  -0.000000  -0.000000
    22  H   -0.000009   0.000328   0.000001   0.000000   0.000000   0.000000
    23  H    0.000011   0.001332  -0.004162   0.000013  -0.000000   0.000019
    24  H   -0.003496   0.003281   0.000011   0.000039  -0.000000   0.000013
    25  H    0.408793   0.006575  -0.000113   0.000698  -0.000006   0.000101
    26  S    0.006575  14.843738   0.008265   0.058882   0.128858   0.047863
    27  H   -0.000113   0.008265   0.410191   0.000076  -0.000005   0.001044
    28  F    0.000698   0.058882   0.000076   9.509873  -0.025726  -0.005930
    29  F   -0.000006   0.128858  -0.000005  -0.025726   9.435233  -0.025073
    30  F    0.000101   0.047863   0.001044  -0.005930  -0.025073   9.503332
    31  F    0.000104   0.054206   0.000928  -0.017927  -0.024684  -0.027255
    32  F    0.000537   0.066961   0.000074  -0.025244  -0.025530  -0.018107
              31         32
     1  C   -0.000000  -0.000000
     2  C    0.000000   0.000000
     3  C   -0.000009  -0.000004
     4  N    0.000000   0.000001
     5  C   -0.001516  -0.001015
     6  O    0.000000  -0.000001
     7  N   -0.000047   0.000005
     8  C   -0.018509  -0.025454
     9  C   -0.035657   0.008632
    10  C    0.036401   0.003412
    11  C   -0.033531  -0.121022
    12  C    0.109194   0.102822
    13  C   -0.094210  -0.024924
    14  H   -0.000000  -0.000000
    15  H    0.000000   0.000000
    16  H   -0.000000  -0.000000
    17  H   -0.000000  -0.000000
    18  H    0.000000  -0.000000
    19  H    0.000000   0.000000
    20  H   -0.000000  -0.000000
    21  H   -0.000000   0.000000
    22  H    0.000000   0.000000
    23  H    0.000019   0.000013
    24  H    0.000013   0.000040
    25  H    0.000104   0.000537
    26  S    0.054206   0.066961
    27  H    0.000928   0.000074
    28  F   -0.017927  -0.025244
    29  F   -0.024684  -0.025530
    30  F   -0.027255  -0.018107
    31  F    9.508139  -0.005411
    32  F   -0.005411   9.515218
 Mulliken charges:
               1
     1  C   -0.734683
     2  C   -0.364516
     3  C   -0.180969
     4  N   -0.678593
     5  C    0.958819
     6  O   -0.755976
     7  N   -0.647910
     8  C    0.258129
     9  C    1.529165
    10  C   -1.362955
    11  C    0.246320
    12  C   -1.094559
    13  C   -0.728542
    14  H    0.221824
    15  H    0.219840
    16  H    0.220118
    17  H    0.231437
    18  H    0.231617
    19  H    0.233291
    20  H    0.232945
    21  H    0.481605
    22  H    0.504185
    23  H    0.287014
    24  H    0.275751
    25  H    0.287475
    26  S    2.065005
    27  H    0.286294
    28  F   -0.449210
    29  F   -0.422353
    30  F   -0.449315
    31  F   -0.450250
    32  F   -0.451002
 Sum of Mulliken charges =  -0.00000
 Mulliken charges with hydrogens summed into heavy atoms:
               1
     1  C   -0.072901
     2  C    0.098538
     3  C    0.285267
     4  N   -0.196988
     5  C    0.958819
     6  O   -0.755976
     7  N   -0.143725
     8  C    0.258129
     9  C    1.816179
    10  C   -1.087204
    11  C    0.533795
    12  C   -1.094559
    13  C   -0.442248
    26  S    2.065005
    28  F   -0.449210
    29  F   -0.422353
    30  F   -0.449315
    31  F   -0.450250
    32  F   -0.451002
 Electronic spatial extent (au):  <R**2>=          10677.6147
 Charge=             -0.0000 electrons
 Dipole moment (field-independent basis, Debye):
    X=             -9.0021    Y=              7.0628    Z=             -0.0075  Tot=             11.4421
 Quadrupole moment (field-independent basis, Debye-Ang):
   XX=           -112.6109   YY=           -108.7633   ZZ=           -124.3643
   XY=            -18.5253   XZ=              0.1920   YZ=             -0.0974
 Traceless Quadrupole moment (field-independent basis, Debye-Ang):
   XX=              2.6353   YY=              6.4829   ZZ=             -9.1181
   XY=            -18.5253   XZ=              0.1920   YZ=             -0.0974
 Octapole moment (field-independent basis, Debye-Ang**2):
  XXX=           -198.8089  YYY=             28.1716  ZZZ=             -0.4133  XYY=             28.3511
  XXY=             76.1325  XXZ=             -0.6974  XZZ=             24.3425  YZZ=             -3.8719
  YYZ=             -0.1930  XYZ=              0.5104
 Hexadecapole moment (field-independent basis, Debye-Ang**3):
 XXXX=         -11481.8636 YYYY=           -644.3295 ZZZZ=           -328.2881 XXXY=           -319.5749
 XXXZ=              3.0194 YYYX=            -92.5576 YYYZ=             -0.2603 ZZZX=             -0.3692
 ZZZY=             -0.2293 XXYY=          -2154.8336 XXZZ=          -2139.0139 YYZZ=           -184.6550
 XXYZ=             -0.6068 YYXZ=              1.3635 ZZXY=             -1.5314
 N-N= 1.674816341928D+03 E-N=-6.811957930004D+03  KE= 1.459349519154D+03
 D1PCM: PCM CHGder 1st derivatives, ID1Alg=3 FixD1E=F DoIter=F DoCFld=F I1PDM=0.
 Calling FoFJK, ICntrl=      2127 FMM=F ISym2X=0 I1Cent= 0 IOpClX= 0 NMat=1 NMatS=1 NMatT=0.
 ***** Axes restored to original set *****
 -------------------------------------------------------------------
 Center     Atomic                   Forces (Hartrees/Bohr)
 Number     Number              X              Y              Z
 -------------------------------------------------------------------
      1        6          -0.004997465    0.001925570   -0.000375219
      2        6           0.004449776   -0.005658552    0.000650953
      3        6          -0.006268371    0.006800923   -0.001767996
      4        7           0.018828056   -0.029598876    0.004766090
      5        6          -0.017518898   -0.004962941   -0.000140685
      6        8           0.002985696    0.034830857   -0.004845786
      7        7           0.024681116   -0.020041495    0.002738006
      8        6          -0.018813303    0.002075157    0.000088735
      9        6           0.009024634   -0.006157434    0.000904763
     10        6           0.001763489    0.005703382   -0.000746599
     11        6           0.005434509    0.002879582   -0.000001854
     12        6          -0.026199731   -0.004010754    0.000320459
     13        6           0.008948412   -0.006717994    0.001237667
     14        1           0.006351322    0.008858136   -0.000939020
     15        1          -0.001231389   -0.003398759    0.009700111
     16        1          -0.000954286   -0.005779466   -0.008327728
     17        1           0.001352652    0.005086659    0.008772820
     18        1           0.001609137    0.002658266   -0.009559681
     19        1           0.000300894   -0.005138391   -0.009174526
     20        1           0.000278650   -0.001863020    0.010303800
     21        1          -0.001725509    0.014371965   -0.002118561
     22        1           0.006024008    0.012098914   -0.001976134
     23        1          -0.005863703   -0.000667394    0.000079704
     24        1          -0.001217884   -0.002053856    0.000225629
     25        1           0.001042612   -0.002167848    0.000254412
     26       16          -0.004251181   -0.000357175    0.000106708
     27        1          -0.001031162    0.001853982   -0.000265011
     28        9           0.005990248    0.039112433    0.031949751
     29        9          -0.060174394   -0.015433534    0.001356927
     30        9           0.021748663   -0.022878042    0.039751832
     31        9           0.022607422   -0.031496168   -0.032560031
     32        9           0.006825980    0.030125874   -0.040409532
 -------------------------------------------------------------------
 Cartesian Forces:  Max     0.060174394 RMS     0.014720007

 GradGradGradGradGradGradGradGradGradGradGradGradGradGradGradGradGradGrad
 Berny optimization.
 FormGI is forming the generalized inverse of G from B-inverse, IUseBI=4.
 GSVD:  received Info=                   1 from GESDD.
 Internal  Forces:  Max     0.062136690 RMS     0.011634645
 Search for a local minimum.
 Step number   1 out of a maximum of  173
 All quantities printed in internal units (Hartrees-Bohrs-Radians)
 Mixed Optimization -- RFO/linear search
 Second derivative matrix not updated -- first step.
 ITU=  0
     Eigenvalues ---    0.00230   0.00323   0.00433   0.01007   0.01173
     Eigenvalues ---    0.01185   0.01477   0.01653   0.01714   0.01950
     Eigenvalues ---    0.01980   0.02040   0.02046   0.02085   0.02101
     Eigenvalues ---    0.02118   0.02129   0.02148   0.02178   0.03751
     Eigenvalues ---    0.04457   0.04932   0.05555   0.05687   0.05795
     Eigenvalues ---    0.08042   0.08693   0.08696   0.09155   0.11982
     Eigenvalues ---    0.12648   0.12862   0.12930   0.12935   0.13034
     Eigenvalues ---    0.15999   0.16000   0.16000   0.16000   0.16000
     Eigenvalues ---    0.16000   0.16000   0.16000   0.16000   0.16742
     Eigenvalues ---    0.21962   0.22000   0.22000   0.22000   0.22002
     Eigenvalues ---    0.22958   0.24000   0.24532   0.24999   0.25000
     Eigenvalues ---    0.25000   0.25000   0.25000   0.25000   0.29103
     Eigenvalues ---    0.29872   0.32346   0.32364   0.32373   0.32401
     Eigenvalues ---    0.32499   0.32532   0.32558   0.34364   0.34370
     Eigenvalues ---    0.34436   0.34441   0.34686   0.35650   0.35655
     Eigenvalues ---    0.35761   0.36573   0.38019   0.39816   0.40701
     Eigenvalues ---    0.41183   0.42416   0.42468   0.44189   0.44681
     Eigenvalues ---    0.45301   0.46303   0.51408   0.52305   0.94993
 RFO step:  Lambda=-6.04546937D-02 EMin= 2.30000000D-03
 Linear search not attempted -- first point.
 Maximum step size (   0.300) exceeded in Quadratic search.
    -- Step size scaled by   0.692
 Iteration  1 RMS(Cart)=  0.05139056 RMS(Int)=  0.00080378
 Iteration  2 RMS(Cart)=  0.00131153 RMS(Int)=  0.00031742
 Iteration  3 RMS(Cart)=  0.00000123 RMS(Int)=  0.00031741
 Iteration  4 RMS(Cart)=  0.00000000 RMS(Int)=  0.00031741
 Variable       Old X    -DE/DX   Delta X   Delta X   Delta X     New X
                                 (Linear)    (Quad)   (Total)
    R1        2.88219   0.00149   0.00000   0.00288   0.00288   2.88507
    R2        2.09835  -0.01064   0.00000  -0.01909  -0.01909   2.07927
    R3        2.09941  -0.01009   0.00000  -0.01813  -0.01813   2.08127
    R4        2.09881  -0.00990   0.00000  -0.01777  -0.01777   2.08104
    R5        2.89790  -0.00741   0.00000  -0.01461  -0.01461   2.88329
    R6        2.10167  -0.00977   0.00000  -0.01760  -0.01760   2.08406
    R7        2.10116  -0.00965   0.00000  -0.01738  -0.01738   2.08378
    R8        2.74338   0.00099   0.00000   0.00156   0.00156   2.74494
    R9        2.10215  -0.01020   0.00000  -0.01840  -0.01840   2.08375
   R10        2.10183  -0.01001   0.00000  -0.01804  -0.01804   2.08379
   R11        2.57609  -0.01029   0.00000  -0.01221  -0.01221   2.56388
   R12        1.95097  -0.01450   0.00000  -0.02071  -0.02071   1.93026
   R13        2.30713   0.03523   0.00000   0.02414   0.02414   2.33128
   R14        2.58471   0.00703   0.00000   0.00847   0.00847   2.59319
   R15        2.71804  -0.03570   0.00000  -0.05390  -0.05390   2.66414
   R16        1.95032  -0.01288   0.00000  -0.01838  -0.01838   1.93193
   R17        2.67486  -0.01258   0.00000  -0.01776  -0.01779   2.65707
   R18        2.65662  -0.00472   0.00000  -0.00620  -0.00622   2.65040
   R19        2.64785  -0.01127   0.00000  -0.01544  -0.01546   2.63239
   R20        2.03195   0.00333   0.00000   0.00541   0.00541   2.03736
   R21        2.63332  -0.00952   0.00000  -0.01222  -0.01221   2.62111
   R22        2.04624   0.00229   0.00000   0.00381   0.00381   2.05004
   R23        2.64777  -0.00970   0.00000  -0.01299  -0.01296   2.63481
   R24        2.04457   0.00230   0.00000   0.00381   0.00381   2.04838
   R25        2.65634  -0.01383   0.00000  -0.01911  -0.01909   2.63724
   R26        3.44113  -0.00726   0.00000  -0.01644  -0.01644   3.42469
   R27        2.04632   0.00157   0.00000   0.00260   0.00260   2.04892
   R28        3.23711  -0.04847   0.00000  -0.08304  -0.08304   3.15407
   R29        3.23188  -0.06214   0.00000  -0.10563  -0.10563   3.12625
   R30        3.23601  -0.04842   0.00000  -0.08283  -0.08283   3.15319
   R31        3.23592  -0.04816   0.00000  -0.08237  -0.08237   3.15356
   R32        3.23719  -0.04837   0.00000  -0.08288  -0.08288   3.15431
    A1        1.91223   0.00290   0.00000   0.00958   0.00954   1.92178
    A2        1.92484   0.00213   0.00000   0.00649   0.00646   1.93130
    A3        1.92516   0.00227   0.00000   0.00685   0.00683   1.93199
    A4        1.89639  -0.00230   0.00000  -0.00670  -0.00673   1.88965
    A5        1.89814  -0.00244   0.00000  -0.00729  -0.00733   1.89081
    A6        1.90662  -0.00270   0.00000  -0.00938  -0.00939   1.89723
    A7        1.94201  -0.00182   0.00000  -0.00328  -0.00328   1.93873
    A8        1.89913   0.00201   0.00000   0.00860   0.00859   1.90772
    A9        1.90315   0.00177   0.00000   0.00718   0.00717   1.91032
   A10        1.90859  -0.00018   0.00000  -0.00209  -0.00209   1.90650
   A11        1.91302  -0.00022   0.00000  -0.00271  -0.00271   1.91032
   A12        1.89736  -0.00156   0.00000  -0.00776  -0.00780   1.88956
   A13        1.93402  -0.00353   0.00000  -0.00747  -0.00746   1.92656
   A14        1.91131   0.00122   0.00000   0.00291   0.00292   1.91422
   A15        1.90169   0.00182   0.00000   0.00599   0.00600   1.90769
   A16        1.90919   0.00133   0.00000   0.00348   0.00348   1.91267
   A17        1.90366   0.00140   0.00000   0.00477   0.00478   1.90844
   A18        1.90370  -0.00225   0.00000  -0.00978  -0.00979   1.89391
   A19        2.13187  -0.00488   0.00000  -0.01204  -0.01204   2.11982
   A20        2.07483   0.00052   0.00000   0.00001   0.00001   2.07484
   A21        2.07643   0.00435   0.00000   0.01204   0.01204   2.08847
   A22        2.08471   0.01483   0.00000   0.03307   0.03307   2.11778
   A23        2.08040  -0.02477   0.00000  -0.05525  -0.05525   2.02515
   A24        2.11805   0.00995   0.00000   0.02219   0.02219   2.14024
   A25        2.23805  -0.00375   0.00000  -0.00926  -0.00926   2.22879
   A26        2.02505   0.00631   0.00000   0.01855   0.01855   2.04360
   A27        2.02009  -0.00256   0.00000  -0.00929  -0.00929   2.01079
   A28        2.17853  -0.00281   0.00000  -0.00682  -0.00679   2.17173
   A29        2.04747  -0.00511   0.00000  -0.01197  -0.01194   2.03552
   A30        2.05719   0.00792   0.00000   0.01879   0.01874   2.07593
   A31        2.10419  -0.00355   0.00000  -0.00848  -0.00852   2.09566
   A32        2.15116  -0.00317   0.00000  -0.01130  -0.01128   2.13988
   A33        2.02782   0.00672   0.00000   0.01979   0.01981   2.04763
   A34        2.11907  -0.00339   0.00000  -0.00652  -0.00652   2.11255
   A35        2.09840   0.00098   0.00000   0.00100   0.00100   2.09940
   A36        2.06571   0.00241   0.00000   0.00552   0.00552   2.07123
   A37        2.10713  -0.00931   0.00000  -0.02146  -0.02141   2.08571
   A38        2.07057   0.00389   0.00000   0.00834   0.00832   2.07888
   A39        2.10548   0.00542   0.00000   0.01313   0.01311   2.11858
   A40        2.06912   0.01396   0.00000   0.03166   0.03171   2.10083
   A41        2.09787  -0.00518   0.00000  -0.01180  -0.01182   2.08605
   A42        2.11614  -0.00879   0.00000  -0.01985  -0.01988   2.09627
   A43        2.10961  -0.00564   0.00000  -0.01397  -0.01397   2.09564
   A44        2.07317   0.00133   0.00000   0.00231   0.00231   2.07548
   A45        2.10039   0.00431   0.00000   0.01166   0.01166   2.11206
   A46        1.58277   0.01204   0.00000   0.04416   0.04410   1.62687
   A47        1.58337   0.01169   0.00000   0.04326   0.04321   1.62659
   A48        1.57855   0.01267   0.00000   0.04602   0.04596   1.62452
   A49        1.57895   0.01298   0.00000   0.04676   0.04670   1.62564
   A50        1.56128  -0.01238   0.00000  -0.04538  -0.04533   1.51595
   A51        1.55663   0.00263   0.00000   0.00783   0.00589   1.56252
   A52        1.58501  -0.00313   0.00000  -0.00960  -0.01164   1.57337
   A53        1.56065  -0.01213   0.00000  -0.04487  -0.04482   1.51584
   A54        1.56059  -0.01233   0.00000  -0.04479  -0.04474   1.51585
   A55        1.56021  -0.01254   0.00000  -0.04515  -0.04509   1.51512
   A56        1.58497  -0.00319   0.00000  -0.00991  -0.01191   1.57307
   A57        1.55615   0.00269   0.00000   0.00803   0.00593   1.56209
   A58        3.14404  -0.00034   0.00000  -0.00123  -0.00122   3.14282
   A59        3.16132   0.02472   0.00000   0.09018   0.09007   3.25139
   A60        3.16232   0.02467   0.00000   0.09002   0.08991   3.25223
   A61        3.14399  -0.00044   0.00000  -0.00157  -0.00158   3.14242
   A62        3.14133   0.00002   0.00000   0.00009   0.00015   3.14148
   A63        3.14189   0.00004   0.00000   0.00023   0.00020   3.14209
    D1        3.13563   0.00011   0.00000   0.00087   0.00087   3.13650
    D2        1.03161   0.00016   0.00000  -0.00010  -0.00009   1.03153
    D3       -1.03538  -0.00015   0.00000   0.00015   0.00014  -1.03524
    D4        1.04900  -0.00019   0.00000  -0.00089  -0.00090   1.04811
    D5       -1.05501  -0.00014   0.00000  -0.00186  -0.00186  -1.05687
    D6       -3.12201  -0.00045   0.00000  -0.00161  -0.00162  -3.12363
    D7       -1.05857   0.00033   0.00000   0.00215   0.00215  -1.05642
    D8        3.12060   0.00037   0.00000   0.00118   0.00119   3.12180
    D9        1.05360   0.00007   0.00000   0.00143   0.00143   1.05503
   D10       -3.12912  -0.00031   0.00000  -0.00222  -0.00222  -3.13134
   D11        1.04640  -0.00051   0.00000  -0.00368  -0.00368   1.04272
   D12       -1.03453   0.00041   0.00000   0.00289   0.00289  -1.03164
   D13       -1.03069   0.00093   0.00000   0.00505   0.00505  -1.02565
   D14       -3.13836   0.00073   0.00000   0.00359   0.00358  -3.13477
   D15        1.06390   0.00164   0.00000   0.01016   0.01016   1.07406
   D16        1.04769  -0.00121   0.00000  -0.00729  -0.00729   1.04040
   D17       -1.05998  -0.00141   0.00000  -0.00876  -0.00875  -1.06873
   D18       -3.14091  -0.00049   0.00000  -0.00218  -0.00218   3.14010
   D19        3.11452   0.00033   0.00000   0.00208   0.00208   3.11661
   D20       -0.01513   0.00026   0.00000   0.00148   0.00148  -0.01365
   D21       -1.05975   0.00047   0.00000   0.00322   0.00322  -1.05653
   D22        2.09378   0.00040   0.00000   0.00262   0.00262   2.09640
   D23        1.02111  -0.00063   0.00000  -0.00375  -0.00375   1.01736
   D24       -2.10855  -0.00070   0.00000  -0.00436  -0.00435  -2.11290
   D25        0.01022   0.00010   0.00000   0.00083   0.00084   0.01105
   D26       -3.12426  -0.00031   0.00000  -0.00275  -0.00275  -3.12702
   D27        3.13986   0.00015   0.00000   0.00136   0.00136   3.14122
   D28        0.00538  -0.00027   0.00000  -0.00222  -0.00222   0.00315
   D29        3.13233   0.00032   0.00000   0.00267   0.00267   3.13500
   D30       -0.00630   0.00033   0.00000   0.00272   0.00271  -0.00359
   D31       -0.00201  -0.00013   0.00000  -0.00101  -0.00101  -0.00302
   D32       -3.14064  -0.00012   0.00000  -0.00097  -0.00096   3.14158
   D33        0.01183  -0.00003   0.00000  -0.00025  -0.00025   0.01159
   D34       -3.13165   0.00000   0.00000   0.00007   0.00007  -3.13158
   D35       -3.13272  -0.00002   0.00000  -0.00025  -0.00025  -3.13297
   D36        0.00698   0.00001   0.00000   0.00006   0.00006   0.00705
   D37        3.13128   0.00018   0.00000   0.00161   0.00161   3.13289
   D38       -0.00418   0.00001   0.00000   0.00014   0.00015  -0.00403
   D39       -0.00841   0.00016   0.00000   0.00132   0.00132  -0.00709
   D40        3.13932  -0.00001   0.00000  -0.00015  -0.00015   3.13917
   D41       -3.13223  -0.00016   0.00000  -0.00136  -0.00136  -3.13359
   D42        0.00493  -0.00005   0.00000  -0.00033  -0.00033   0.00460
   D43        0.00761  -0.00014   0.00000  -0.00110  -0.00109   0.00652
   D44       -3.13843  -0.00003   0.00000  -0.00007  -0.00006  -3.13848
   D45        0.00045   0.00005   0.00000   0.00020   0.00018   0.00064
   D46       -3.13521  -0.00016   0.00000  -0.00153  -0.00154  -3.13675
   D47        3.13633   0.00018   0.00000   0.00147   0.00147   3.13780
   D48        0.00066  -0.00003   0.00000  -0.00026  -0.00025   0.00041
   D49        0.00125  -0.00011   0.00000  -0.00069  -0.00068   0.00057
   D50        3.13663   0.00014   0.00000   0.00132   0.00133   3.13796
   D51       -3.13598  -0.00022   0.00000  -0.00170  -0.00169  -3.13767
   D52       -0.00060   0.00003   0.00000   0.00032   0.00032  -0.00028
   D53       -0.00929   0.00028   0.00000   0.00212   0.00211  -0.00718
   D54        3.12206   0.00035   0.00000   0.00333   0.00334   3.12540
   D55        3.13864   0.00003   0.00000   0.00008   0.00008   3.13872
   D56       -0.01319   0.00011   0.00000   0.00129   0.00130  -0.01189
   D57        0.00843  -0.00023   0.00000  -0.00185  -0.00185   0.00659
   D58       -3.13918  -0.00003   0.00000  -0.00012  -0.00012  -3.13930
   D59       -3.12281  -0.00033   0.00000  -0.00312  -0.00313  -3.12594
   D60        0.01276  -0.00013   0.00000  -0.00140  -0.00140   0.01136
   D61        0.80381  -0.00156   0.00000  -0.00533  -0.00530   0.79851
   D62        2.36059   0.00135   0.00000   0.00356   0.00355   2.36414
   D63       -2.33752  -0.00159   0.00000  -0.00543  -0.00544  -2.34296
   D64       -0.78130   0.00131   0.00000   0.00333   0.00335  -0.77795
   D65       -2.34830  -0.00135   0.00000  -0.00378  -0.00377  -2.35206
   D66       -0.79151   0.00156   0.00000   0.00510   0.00508  -0.78643
   D67        0.79356  -0.00138   0.00000  -0.00388  -0.00391   0.78965
   D68        2.34978   0.00152   0.00000   0.00488   0.00488   2.35466
[...]
 0011407,0.00150942,0.00056792,-0.00024132,-0.00084762,0.00063006,0.000
 08459,0.00067924,-0.00016863,0.00372443,-0.00085277,0.00052225,-0.0065
 3443,-0.01484838,0.00183286,-0.07538764,-0.33233181,0.02844149,-0.0000
 0153,0.00000036,-0.00000006,-0.00000008,0.00000032,-0.00000038,-0.0000
 0013,0.00000039,0.00000022,0.00000028,-0.00000068,-0.00000030,0.000000
 03,-0.00000053,0.00000047,-0.00000611,0.00000311,0.00000052,-0.0000054
 5,0.00000175,-0.00000101,0.00000180,0.00000772,-0.00000219,-0.00002277
 ,0.00004461,-0.00003382,0.00016855,0.00070572,-0.00052419,-0.00005780,
 -0.00005058,-0.00004902,-0.00046241,-0.00053672,0.00012175,0.00055562,
 -0.00283386,0.00009987,0.08105157,0.34712605,-0.00000026,-0.00000036,0
 .00000023,0.00000016,0.00000045,0.00000107,0.00000279,0.00000197,0.000
 01061,-0.00000641,-0.00001558,-0.00001456,-0.00000401,0.00002174,0.000
 06448,-0.00006822,-0.00001311,0.00006179,-0.00009110,-0.00006488,-0.00
 008494,0.00026663,0.00077045,0.00758278,-0.00005923,0.00086741,0.00519
 204,0.00001644,-0.00013631,-0.00111259,-0.00024963,0.00048254,0.005402
 73,0.00044034,0.00167615,0.00335569,0.00764474,0.02840737,-0.04167361,
 -0.00000009,0.00000007,-0.00000005,-0.00000016,0.00000013,-0.00000016,
 0.00000009,-0.00000016,-0.00000011,-0.00000014,-0.00000038,-0.00000018
 ,0.,0.00000010,-0.00000027,-0.00000075,0.00000173,-0.00000017,-0.00000
 007,-0.00000167,0.00000033,-0.00000212,-0.00000353,-0.00001201,-0.0000
 0352,-0.00003668,-0.00024672,-0.00002693,-0.00053874,-0.00478885,0.000
 00060,-0.00005802,-0.00057489,0.00004184,0.00009996,0.00059988,-0.0000
 2460,-0.00001457,-0.00150518,-0.00804506,-0.03118330,0.02940084,-0.000
 01565,-0.00003371,0.00000627,-0.00001823,0.00008194,-0.00001386,0.0001
 9616,-0.00014035,0.00005945,-0.00108163,-0.00024534,-0.00004033,0.0024
 9136,-0.00176411,0.00030278,-0.00058356,0.00081614,-0.00019948,-0.0042
 9080,-0.00019999,0.00015732,0.00291382,0.00253242,-0.00019660,-0.00336
 036,-0.00069815,-0.00127639,-0.00058613,0.00051860,-0.00033356,-0.0032
 3385,0.00105660,0.00187632,-0.01085329,0.02358077,0.01726053,-0.000347
 01,-0.00585148,0.00402645,-0.00001770,0.00000483,-0.00000059,-0.000000
 79,0.00000198,-0.00000175,-0.00000117,0.00000205,0.00000065,0.00000054
 ,-0.00000753,-0.00000178,0.00000141,-0.00000617,0.00000348,-0.00007401
 ,0.00003264,0.00000731,-0.00006652,0.00001863,-0.00000922,0.00001713,0
 .00011116,-0.00001138,-0.00011806,0.00025253,0.00003233,-0.00042970,-0
 .00036122,-0.00033433,-0.00028329,-0.00017747,-0.00003354,-0.00124730,
 0.00019664,0.00041283,-0.07483779,0.02805097,0.02841859,0.00038307,0.0
 0003545,0.00036461,0.09420392,0.00000825,0.00001764,-0.00000341,0.0000
 0882,-0.00004359,0.00000640,-0.00010412,0.00007229,-0.00002459,0.00058
 007,0.00014313,0.00001720,-0.00137192,0.00091303,-0.00021149,0.0003492
 5,-0.00043355,0.00012238,0.00237794,0.00013876,-0.00016911,-0.00206086
 ,-0.00034273,-0.00003485,0.00075740,-0.00048392,0.00067216,0.00111145,
 0.00088536,0.00089528,0.00004030,-0.00285945,0.00081977,-0.00446562,-0
 .00781902,-0.00676151,0.00219540,0.00335545,-0.00179381,0.00000960,-0.
 00000256,0.00000030,0.00000041,-0.00000118,0.00000080,0.00000054,-0.00
 000077,0.00000004,-0.00000061,0.00000419,0.00000129,0.00000014,0.00000
 334,-0.00000239,0.00004029,-0.00001630,-0.00000291,0.00003577,-0.00001
 031,0.00000420,-0.00000738,-0.00006038,0.00000466,0.00006508,-0.000136
 66,-0.00001012,0.00030654,0.00027558,0.00014365,0.00033591,0.00005901,
 0.00008358,-0.00094498,0.00121769,-0.00029953,0.02929392,-0.12129442,-
 0.05928497,-0.00058808,0.00023426,-0.00022222,-0.02299890,0.19322307,0
 .00000883,0.00001913,-0.00000386,0.00001029,-0.00004601,0.00000688,-0.
 00010896,0.00008149,-0.00003715,0.00060632,0.00014346,0.00002397,-0.00
 136954,0.00092554,-0.00015688,0.00040524,-0.00042190,0.00012722,0.0023
 2323,0.00005976,-0.00008903,-0.00173597,-0.00066229,-0.00005275,0.0012
 3524,-0.00112053,0.00059905,0.00071859,-0.00003579,0.00033614,0.001970
 79,-0.00019478,-0.00022036,-0.00201359,-0.01654024,-0.00307676,0.00317
 594,0.00461667,-0.00213344,0.00000998,-0.00000280,0.00000023,0.0000007
 7,-0.00000135,0.00000120,0.00000041,-0.00000077,-0.00000015,-0.0000003
 0,0.00000482,0.00000141,-0.00000056,0.00000313,-0.00000158,0.00004022,
 -0.00001771,-0.00000344,0.00003751,-0.00001127,0.00000563,-0.00000896,
 -0.00006166,0.00000177,0.00005541,-0.00013477,-0.00001566,0.00038343,0
 .00035065,0.00016478,0.00027959,0.00009156,0.00000786,0.00063114,-0.00
 014365,-0.00031593,0.03033918,-0.05726782,-0.11018263,-0.00036149,0.00
 004554,-0.00018228,-0.02506753,0.09914260,0.16429911,-0.00000615,-0.00
 001325,0.00000224,-0.00000718,0.00003181,-0.00000600,0.00007685,-0.000
 05565,0.00002576,-0.00042453,-0.00009049,-0.00000839,0.00096828,-0.000
 69014,0.00012271,-0.00021165,0.00032852,-0.00008453,-0.00166150,-0.000
 03393,0.00001436,0.00114917,0.00028698,-0.00004733,-0.00060417,-0.0003
 7969,0.00005080,-0.00081556,0.00000662,-0.00002515,-0.00011534,0.00085
 530,-0.00008157,-0.00234343,-0.00130622,0.00017783,0.00045529,-0.00055
 643,0.00008226,-0.00000717,0.00000175,-0.00000020,-0.00000030,0.000000
 86,-0.00000074,-0.00000048,0.00000089,0.00000032,0.00000062,-0.0000028
 5,-0.00000074,0.00000031,-0.00000254,0.00000165,-0.00002980,0.00001182
 ,0.00000231,-0.00002382,0.00000826,-0.00000441,0.00000700,0.00004388,-
 0.00000199,-0.00003448,0.00009609,0.00000539,-0.00008497,-0.00004860,0
 .00001086,-0.00019024,-0.00006612,0.00000741,0.00017416,0.00031985,-0.
 00002113,-0.16574540,-0.02622477,0.00414273,0.00039321,-0.00030830,0.0
 0000558,-0.01671054,-0.02102573,-0.01139814,0.28072639,-0.00000144,-0.
 00000333,0.00000060,-0.00000204,0.00000744,-0.00000126,0.00001841,-0.0
 0001385,0.00000507,-0.00010182,-0.00002173,-0.00000454,0.00022466,-0.0
 0017202,0.00003488,-0.00005137,0.00008025,-0.00002139,-0.00038283,-0.0
 0000656,0.00000272,0.00020652,0.00034327,-0.00003862,-0.00048807,0.000
 00781,0.00000636,0.00006924,0.00023863,-0.00004318,0.00054666,-0.00016
 478,0.00003068,-0.00137645,0.00289069,-0.00004534,-0.00022481,-0.00073
 296,0.00009230,-0.00000160,0.00000050,-0.00000008,-0.00000017,0.000000
 14,-0.00000033,-0.00000027,0.00000029,0.00000028,0.00000009,-0.0000004
 8,-0.00000003,0.00000015,-0.00000054,0.00000028,-0.00000705,0.00000323
 ,0.00000073,-0.00000579,0.00000200,-0.00000105,0.00000179,0.00000939,-
 0.00000064,-0.00000784,0.00002042,0.00000104,-0.00004763,-0.00002859,0
 .00000232,-0.00001030,-0.00001496,-0.00000133,0.00007724,0.00032870,-0
 .00002499,-0.02611911,-0.06266164,0.00109803,-0.00006139,0.00014029,-0
 .00001292,-0.03658557,-0.02837304,-0.02206444,0.04347463,0.10884099,0.
 00000029,0.00000060,0.00000011,0.00000029,-0.00000128,-0.00000058,-0.0
 0000274,0.00000188,-0.00000463,0.00001540,0.00000296,0.00000127,-0.000
 03395,0.00002836,-0.00000603,0.00000441,-0.00001331,0.00000742,0.00005
 969,0.00000613,0.00001759,-0.00003275,-0.00003565,-0.00003539,0.000046
 20,-0.00001133,-0.00006361,0.00001299,-0.00003251,-0.00004430,-0.00005
 245,0.00002466,0.00016731,0.00020203,-0.00004273,0.00227708,0.00003014
 ,0.00009860,0.00017490,0.00000024,-0.00000008,-0.00000005,0.00000017,-
 0.00000017,0.00000025,-0.00000009,0.00000019,0.00000006,0.00000011,0.0
 0000051,0.00000026,-0.00000005,-0.00000019,0.00000038,0.00000108,0.000
 00016,0.00000018,0.00000089,-0.00000075,0.00000087,-0.00000022,-0.0000
 0239,-0.00000262,0.00000128,-0.00000481,-0.00000574,0.00000650,0.00000
 059,-0.00002801,0.00000277,0.00000022,-0.00002675,-0.00001478,-0.00003
 053,-0.00001205,0.00405826,0.00106460,-0.05582657,-0.00000271,-0.00001
 256,-0.00003052,-0.02382695,-0.02555020,-0.00617818,-0.00683507,-0.001
 65202,0.09833546,-0.00001004,-0.00002195,0.00000429,-0.00001190,0.0000
 5333,-0.00000857,0.00012659,-0.00009282,0.00003595,-0.00071654,-0.0001
 4481,-0.00003675,0.00166668,-0.00124490,0.00029529,-0.00032036,0.00061
 048,-0.00016357,-0.00293089,0.00000857,0.00001738,0.00240423,-0.000801
 08,0.00005277,0.00035274,-0.00075087,0.00038017,-0.00263350,-0.0006664
 7,-0.00091606,-0.00157451,0.00396322,0.00212416,-0.00232208,-0.0188171
 8,0.01546729,-0.00305678,-0.00072442,0.00210741,-0.00001174,0.00000321
 ,-0.00000036,-0.00000072,0.00000126,-0.00000112,-0.00000067,0.00000142
 ,0.00000056,0.00000044,-0.00000506,-0.00000149,0.00000099,-0.00000393,
 0.00000231,-0.00004933,0.00002038,0.00000384,-0.00004365,0.00001338,-0
 .00000713,0.00001477,0.00007670,-0.00000037,-0.00005656,0.00016518,-0.
 00001702,-0.00004161,0.00003065,0.00000599,-0.00046397,-0.00010631,-0.
 00025881,0.00012030,-0.00004956,0.00024255,-0.06130782,-0.00048588,-0.
 00028421,-0.00118616,-0.00124170,0.00049862,0.00375204,0.01496701,-0.0
 0384489,-0.04044772,0.02297683,-0.03843550,0.09463635,-0.00001193,-0.0
 0002708,0.00000482,-0.00001546,0.00006619,-0.00001160,0.00015731,-0.00
 011426,0.00004432,-0.00088110,-0.00017717,-0.00003684,0.00206512,-0.00
 155905,0.00035115,-0.00039926,0.00075360,-0.00019837,-0.00372750,0.000
 07610,0.00015570,0.00302414,0.00041780,0.00002531,-0.00124283,-0.00003
 872,-0.00075744,-0.00169981,-0.00095066,-0.00110507,-0.00385745,0.0038
 8370,0.00226463,0.00526281,-0.01137713,0.01547481,0.00032961,-0.003276
 93,0.00068156,-0.00001404,0.00000423,-0.00000052,-0.00000099,0.0000015
 3,-0.00000184,-0.00000137,0.00000159,0.00000092,0.00000113,-0.00000570
 ,-0.00000106,0.00000112,-0.00000476,0.00000256,-0.00006221,0.00002534,
 0.00000588,-0.00005397,0.00001586,-0.00000861,0.00001534,0.00009091,-0
 .00000550,-0.00003985,0.00020578,0.00000597,-0.00022046,-0.00013432,-0
 .00007542,-0.00069469,-0.00009853,-0.00027838,0.00044390,0.00049598,0.
 00028692,-0.00134181,-0.11438626,0.06646056,-0.00008319,0.00095811,0.0
 0033992,0.00812490,-0.04150341,0.01410068,0.00976081,0.00176242,0.0107
 3246,-0.01866148,0.15974505,0.00000976,0.00002222,-0.00000337,0.000012
 52,-0.00005220,0.00000715,-0.00012359,0.00009023,-0.00004545,0.0007054
 5,0.00014478,0.00003860,-0.00161677,0.00120006,-0.00025948,0.00035740,
 -0.00057851,0.00016489,0.00283578,-0.00004200,-0.00008349,-0.00213342,
 -0.00054046,-0.00007347,0.00091018,0.00031505,0.00035053,0.00068312,0.
 00170670,0.00054410,0.00567904,-0.00333247,-0.00170050,-0.01050523,0.0
 1413936,-0.00754003,0.00155615,0.00166609,-0.00037174,0.00001133,-0.00
 000345,0.00000033,0.00000101,-0.00000140,0.00000166,0.00000081,-0.0000
 0094,-0.00000054,-0.00000085,0.00000517,0.00000152,-0.00000078,0.00000
 343,-0.00000157,0.00004799,-0.00002034,-0.00000405,0.00004299,-0.00001
 357,0.00000755,-0.00001346,-0.00007228,0.00000073,0.00002816,-0.000158
 61,0.00000059,0.00018664,0.00011291,0.00001312,0.00076358,0.00006996,0
 .00023338,-0.00035119,-0.00031965,-0.00019297,0.00261108,0.06602355,-0
 .13190256,0.00060919,0.00012609,-0.00074236,0.00158237,-0.00608009,0.0
 0597568,-0.02340860,0.01391936,-0.01258422,0.02393507,-0.09983269,0.19
 930803,-0.00001048,-0.00002267,0.00000561,-0.00001186,0.00005454,-0.00
 001099,0.00012797,-0.00009315,0.00003274,-0.00072991,-0.00013780,-0.00
 000624,0.00170812,-0.00128742,0.00022623,-0.00032162,0.00062835,-0.000
 16142,-0.00300803,-0.00002570,0.00003707,0.00249727,-0.00082234,-0.000
 11857,0.00031550,-0.00075314,-0.00009361,-0.00271905,-0.00047301,0.001
 00924,-0.00167273,0.00362440,-0.00285125,-0.00260230,-0.02181749,-0.01
 194508,-0.00298405,-0.00116662,-0.00178313,-0.00001196,0.00000317,-0.0
 0000046,-0.00000059,0.00000131,-0.00000135,-0.00000090,0.00000140,0.00
 000054,0.00000162,-0.00000450,-0.00000114,-0.00000003,-0.00000442,0.00
 000319,-0.00005358,0.00001944,0.00000303,-0.00004168,0.00001451,-0.000
 00756,0.00001387,0.00007505,-0.00000370,-0.00006184,0.00018742,0.00003
 960,-0.00004583,0.00002976,0.00001377,-0.00047304,-0.00005792,0.000289
 36,0.00011784,-0.00008460,-0.00023527,-0.06124958,-0.00232248,-0.00187
 625,-0.00099961,-0.00131266,-0.00026980,0.00686325,0.00040822,-0.00038
 274,-0.03878500,0.02904223,0.03466723,0.00729148,0.00002971,-0.0006246
 3,0.09309635,-0.00001374,-0.00003083,0.00000739,-0.00001739,0.00007557
 ,-0.00001397,0.00017994,-0.00013075,0.00005010,-0.00101104,-0.00019724
 ,-0.00001050,0.00234647,-0.00179517,0.00028666,-0.00043846,0.00085775,
 -0.00020831,-0.00422932,-0.00000402,-0.00013349,0.00338692,0.00050181,
 -0.00032322,-0.00133724,0.00000938,0.00102222,-0.00188074,-0.00097477,
 0.00128841,-0.00472021,0.00389416,-0.00319477,0.00638349,-0.01628292,-
 0.01404150,0.00004468,-0.00348600,-0.00004953,-0.00001603,0.00000484,-
 0.00000072,-0.00000104,0.00000148,-0.00000169,-0.00000140,0.00000221,0
 .00000112,0.00000152,-0.00000604,-0.00000098,0.00000071,-0.00000613,0.
 00000353,-0.00007421,0.00002804,0.00000570,-0.00005812,0.00001954,-0.0
 0001202,0.00001653,0.00010506,-0.00000210,-0.00004512,0.00024481,0.000
 02973,-0.00025977,-0.00013656,0.00014042,-0.00080618,-0.00005293,0.000
 34674,0.00049210,0.00045822,-0.00039495,-0.00347418,-0.13746847,-0.065
 39313,-0.00035517,0.00081028,-0.00055871,0.00413262,-0.00312362,-0.006
 84629,0.01358110,-0.00314966,-0.01299688,0.00032541,0.00598405,0.00573
 478,-0.01961130,0.19542094,-0.00000731,-0.00001668,0.00000264,-0.00000
 912,0.00003796,-0.00000756,0.00009030,-0.00006656,0.00003141,-0.000521
 62,-0.00010026,0.00000775,0.00118066,-0.00088284,0.00011671,-0.0002643
 6,0.00041967,-0.00010153,-0.00205301,-0.00000473,-0.00002529,0.0015171
 9,0.00043918,-0.00021677,-0.00064988,-0.00021905,0.00033135,-0.0003571
 5,-0.00139999,0.00054888,-0.00482094,0.00224278,-0.00158632,0.00924555
 ,-0.01197039,-0.00233344,-0.00145679,-0.00103260,0.00010314,-0.0000084
 3,0.00000252,-0.00000046,-0.00000027,0.00000059,-0.00000054,-0.0000010
 3,0.00000136,0.00000068,0.00000121,-0.00000236,-0.00000046,-0.00000008
 ,-0.00000357,0.00000256,-0.00003858,0.00001527,0.00000299,-0.00002789,
 0.00001047,-0.00000508,0.00000823,0.00005137,-0.00000566,-0.00001905,0
 .00012006,0.00000850,-0.00014703,-0.00008645,0.00003632,-0.00060890,-0
 .00001513,0.00019702,0.00025286,0.00019469,-0.00017294,-0.00443573,-0.
 06490014,-0.10824595,-0.00054461,-0.00030199,-0.00047372,0.00275675,-0
 .00591973,-0.00159392,0.02217691,-0.01654476,-0.00948326,-0.00121685,-
 0.01520997,-0.04737068,-0.01717018,0.10107625,0.16425104,-0.00001541,-
 0.00003379,0.00000581,-0.00001882,0.00008214,-0.00001462,0.00019835,-0
 .00014181,0.00006676,-0.00110693,-0.00024799,-0.00000232,0.00253354,-0
 .00180895,0.00033915,-0.00052737,0.00082928,-0.00024423,-0.00434955,-0
 .00024708,-0.00007855,0.00287537,0.00248739,-0.00040510,-0.00325946,-0
 .00025620,0.00160009,-0.00061895,0.00059006,0.00003505,-0.00351881,0.0
 0050225,-0.00195765,-0.01115167,0.02069017,-0.02107929,-0.00077152,-0.
 00664292,-0.00279984,-0.00001792,0.00000484,-0.00000070,-0.00000097,0.
 00000189,-0.00000164,-0.00000143,0.00000202,0.00000074,0.00000205,-0.0
 0000691,-0.00000151,0.00000059,-0.00000643,0.00000422,-0.00008075,0.00
 002911,0.00000447,-0.00006047,0.00002287,-0.00001300,0.00001563,0.0001
 1788,-0.00000018,-0.00011303,0.00024978,-0.00000103,-0.00046069,-0.000
 30022,0.00045747,-0.00028987,-0.00017142,0.00006983,-0.00142389,0.0001
 5485,-0.00050771,-0.07724958,0.02464127,-0.03395648,0.00039642,-0.0000
 4573,-0.00043031,0.00733468,0.00067589,0.00406057,-0.01570184,-0.03116
 290,0.03012732,0.00681994,0.00379352,-0.00379110,0.00375040,0.00745917
 ,-0.00287084,0.09681196,0.00000659,0.00001373,-0.00000323,0.00000633,-
 0.00003474,0.00000554,-0.00008322,0.00005401,-0.00002364,0.00046279,0.
 00011172,0.00000130,-0.00109657,0.00075282,-0.00010889,0.00023885,-0.0
 0034787,0.00010004,0.00190267,0.00017524,0.00008903,-0.00168505,-0.000
 23648,0.00019551,0.00048878,-0.00040614,-0.00061316,0.00091569,0.00078
 124,-0.00090540,-0.00048134,-0.00304187,-0.00034513,-0.00386608,-0.003
 73258,0.00708553,0.00169327,0.00271149,0.00086610,0.00000760,-0.000002
 01,0.00000031,0.00000023,-0.00000071,0.00000029,0.00000021,-0.00000088
 ,-0.00000001,0.00000008,0.00000344,0.00000113,-0.00000008,0.00000281,-
 0.00000189,0.00003421,-0.00001194,-0.00000121,0.00002641,-0.00000893,0
 .00000539,-0.00000500,-0.00005001,-0.00000129,0.00005451,-0.00011316,-
 0.00001448,0.00024394,0.00018424,-0.00017722,0.00027777,0.00002586,-0.
 00009606,-0.00093109,0.00093922,0.00001886,0.02557532,-0.10088174,0.05
 700992,-0.00051856,0.00026079,0.00019114,-0.00048088,0.00596208,-0.014
 01099,-0.01800447,-0.01933230,0.02842548,0.00060139,-0.00083425,0.0057
 6891,0.01587773,-0.04157302,0.01406504,-0.02126203,0.15862993,-0.00000
 934,-0.00002080,0.00000253,-0.00001093,0.00004895,-0.00000987,0.000118
 15,-0.00008625,0.00004451,-0.00066313,-0.00015391,0.00000922,0.0014968
 0,-0.00102151,0.00015044,-0.00040087,0.00046081,-0.00014786,-0.0025431
 3,-0.00010878,-0.00004382,0.00193945,0.00056947,-0.00024689,-0.0011628
 5,0.00138092,0.00057900,-0.00089963,-0.00007358,0.00038615,-0.00178625
 ,0.00066376,-0.00001804,0.00309683,0.01595128,-0.00681315,-0.00365321,
 -0.00524654,-0.00115252,-0.00001084,0.00000297,-0.00000053,-0.00000028
 ,0.00000091,-0.00000051,-0.00000118,0.00000156,0.00000052,0.00000111,-
 0.00000369,-0.00000090,0.00000005,-0.00000427,0.00000322,-0.00004899,0
 .00001833,0.00000254,-0.00003470,0.00001335,-0.00000694,0.00000699,0.0
 0006793,-0.00000296,-0.00005973,0.00014490,-0.00000369,-0.00042757,-0.
 00033744,0.00028608,-0.00032181,-0.00008921,0.00004432,-0.00053955,-0.
 00013788,-0.00052571,-0.03632735,0.05512575,-0.12887962,0.00044846,-0.
 00013383,-0.00022933,-0.00592077,0.00445664,-0.04730693,0.01509486,0.0
 2526225,-0.01665064,0.00001907,0.00658512,-0.00377137,0.00121574,-0.00
 581028,0.00598258,0.03138461,-0.09752695,0.19832016\\0.00000948,-0.000
 00020,0.00000380,-0.00001270,0.00001487,-0.00000566,-0.00000317,0.0000
 0214,0.00000146,0.00000428,0.00001213,0.00000249,0.00000094,-0.0000230
 8,0.00000576,-0.00000011,0.00001672,0.00000306,-0.00001413,-0.00000432
 ,-0.00000957,0.00001223,0.00001194,-0.00000157,-0.00000456,-0.00000754
 ,0.00000598,0.00000365,-0.00000652,-0.00000807,-0.00000057,-0.00000688
 ,-0.00000583,-0.00002460,-0.00000216,0.00000325,0.00002218,-0.00000664
 ,0.00000104,-0.00000421,0.00000748,0.00000075,-0.00000042,0.00001433,0
 .00000408,0.00000041,0.00000643,0.00000802,-0.00000169,0.00000412,-0.0
 0000405,0.00000004,-0.00000108,-0.00000113,0.00000404,0.00000637,0.000
 00696,0.00000155,0.00001083,0.00000455,-0.00000222,0.00000188,-0.00000
 637,0.00000106,-0.00000082,-0.00000398,0.00000088,-0.00000143,0.000007
 84,-0.00000472,-0.00000223,-0.00001018,-0.00000132,-0.00000743,-0.0000
 0891,0.00000697,-0.00000093,-0.00000114,-0.00000002,-0.00000128,0.0000
 1020,-0.00000037,-0.00000929,-0.00000635,0.00001096,-0.00001057,0.0000
 0719,-0.00000482,0.00000125,0.00000187,0.00000337,-0.00001300,0.000007
 05,-0.00000241,-0.00000510,-0.00001256\\\@


 I am not a vegetarian because I love animals;
 I am a vegetarian because I hate plants.
                               -- A. Whitney Brown
 Job cpu time:       0 days  3 hours 50 minutes 40.8 seconds.
 File lengths (MBytes):  RWF=    664 Int=      0 D2E=      0 Chk=     23 Scr=      1
 Normal termination of Gaussian 09 at Tue Oct 30 14:53:42 2018.
WARNING: pbs_rusage is deprecated and values produced may not be accurate


=============================================================================
                                     Resource usage:
                                       CPU time:              14:01:30
   JobId:    1827667.r-man2            Elapsed time:          03:30:55
   Project:             q95            Requested time:        38:00:00
   Service Units:     14.06 
                                       Max physical memory:      767MB
                                       Max virtual memory:      1846MB
                                       Requested memory:           0MB

                                       Number of cpus:               4

                                       Max jobfs disk use:       0.6GB
                                       Requested jobfs:         16.0GB
=============================================================================

