 Entering Gaussian System, Link 0=/apps/gaussian/g09e01/g09/g09
 AtFile(1): /home/507/hio507/Basis/6-31pGd.gbs
 Initial command:
 /apps/gaussian/g09e01/g09/l1.exe "/jobfs/local/1827663.r-man2/Gau-48902.inp" -scrdir="/jobfs/local/1827663.r-man2/"
 Entering Link 1 = /apps/gaussian/g09e01/g09/l1.exe PID=     48903.
  
 Copyright (c) 1988,1990,1992,1993,1995,1998,2003,2009,2015,
            Gaussian, Inc.  All Rights Reserved.
  
 This is part of the Gaussian(R) 09 program.  It is based on
 the Gaussian(R) 03 system (copyright 2003, Gaussian, Inc.),
 the Gaussian(R) 98 system (copyright 1998, Gaussian, Inc.),
 the Gaussian(R) 94 system (copyright 1995, Gaussian, Inc.),
 the Gaussian 92(TM) system (copyright 1992, Gaussian, Inc.),
 the Gaussian 90(TM) system (copyright 1990, Gaussian, Inc.),
 the Gaussian 88(TM) system (copyright 1988, Gaussian, Inc.),
 the Gaussian 86(TM) system (copyright 1986, Carnegie Mellon
 University), and the Gaussian 82(TM) system (copyright 1983,
 Carnegie Mellon University). Gaussian is a federally registered
 trademark of Gaussian, Inc.
  
 This software contains proprietary and confidential information,
 including trade secrets, belonging to Gaussian, Inc.
  
 This software is provided under written license and may be
 used, copied, transmitted, or stored only in accord with that
 written license.
  
 The following legend is applicable only to US Government
 contracts under FAR:
  
                    RESTRICTED RIGHTS LEGEND
  
 Use, reproduction and disclosure by the US Government is
 subject to restrictions as set forth in subparagraphs (a)
 and (c) of the Commercial Computer Software - Restricted
 Rights clause in FAR 52.227-19.
  
 Gaussian, Inc.
 340 Quinnipiac St., Bldg. 40, Wallingford CT 06492
  
  
 ---------------------------------------------------------------
 Warning -- This program may not be used in any manner that
 competes with the business of Gaussian, Inc. or will provide
 assistance to any competitor of Gaussian, Inc.  The licensee
 of this program is prohibited from giving any competitor of
 Gaussian, Inc. access to this program.  By using this program,
 the user acknowledges that Gaussian, Inc. is engaged in the
 business of creating and licensing software in the field of
 computational chemistry and represents and warrants to the
 licensee that it is not a competitor of Gaussian, Inc. and that
 it will not use this program in any manner prohibited above.
 ---------------------------------------------------------------
  

 Cite this work as:
 Gaussian 09, Revision E.01,
 M. J. Frisch, G. W. Trucks, H. B. Schlegel, G. E. Scuseria, 
 M. A. Robb, J. R. Cheeseman, G. Scalmani, V. Barone, B. Mennucci, 
 G. A. Petersson, H. Nakatsuji, M. Caricato, X. Li, H. P. Hratchian, 
 A. F. Izmaylov, J. Bloino, G. Zheng, J. L. Sonnenberg, M. Hada, 
 M. Ehara, K. Toyota, R. Fukuda, J. Hasegawa, M. Ishida, T. Nakajima, 
 Y. Honda, O. Kitao, H. Nakai, T. Vreven, J. A. Montgomery, Jr., 
 J. E. Peralta, F. Ogliaro, M. Bearpark, J. J. Heyd, E. Brothers, 
 K. N. Kudin, V. N. Staroverov, T. Keith, R. Kobayashi, J. Normand, 
 K. Raghavachari, A. Rendell, J. C. Burant, S. S. Iyengar, J. Tomasi, 
 M. Cossi, N. Rega, J. M. Millam, M. Klene, J. E. Knox, J. B. Cross, 
 V. Bakken, C. Adamo, J. Jaramillo, R. Gomperts, R. E. Stratmann, 
 O. Yazyev, A. J. Austin, R. Cammi, C. Pomelli, J. W. Ochterski, 
 R. L. Martin, K. Morokuma, V. G. Zakrzewski, G. A. Voth, 
 P. Salvador, J. J. Dannenberg, S. Dapprich, A. D. Daniels, 
 O. Farkas, J. B. Foresman, J. V. Ortiz, J. Cioslowski, 
 and D. J. Fox, Gaussian, Inc., Wallingford CT, 2013.
 
 ******************************************
 Gaussian 09:  ES64L-G09RevE.01 30-Nov-2015
                30-Oct-2018 
 ******************************************
 %chk=4SF5.M062X_6-31pGd_opt.chk
 %mem=196608000
 %nproc=4
 Will use up to    4 processors via shared memory.
 ----------------------------------------------------------------------
 # M062X/Gen 6D SCF=Tight INT(grid=ultrafine) OPT IOP(2/17=4) maxdisk=2
 147483648
 ----------------------------------------------------------------------
 1/14=-1,18=20,19=15,26=4,38=1/1,3;
 2/9=110,12=2,17=4,18=5,40=1/2;
 3/5=7,8=2,11=2,16=1,25=1,30=1,71=1,74=-55,75=-5/1,2,3;
 4//1;
 5/5=2,32=2,38=5/2;
 6/7=2,8=2,9=2,10=2,28=1/1;
 7//1,2,3,16;
 1/14=-1,18=20,19=15,26=4/3(2);
 2/9=110,17=4/2;
 99//99;
 2/9=110,17=4/2;
 3/5=7,6=1,8=2,11=2,16=1,25=1,30=1,71=1,74=-55,75=-5,82=7/1,2,3;
 4/5=5,16=3,69=1/1;
 5/5=2,32=2,38=5/2;
 7//1,2,3,16;
 1/14=-1,18=20,19=15,26=4/3(-5);
 2/9=110,17=4/2;
 6/7=2,8=2,9=2,10=2,19=2,28=1/1;
 99/9=1/99;
 ----------------------
 4SF5.M062X_6-31pGd_opt
 ----------------------
 Symbolic Z-matrix:
 Charge =  0 Multiplicity = 1
 C                    -2.14249   1.96008  -0.02364 
 C                    -0.81352   1.22332   0.1076 
 C                     0.37179   2.18969  -0.0055 
 N                     1.6313    1.47612   0.10396 
 C                     2.83457   2.10889   0.00358 
 O                     2.8647    3.31645  -0.17375 
 N                     3.98456   1.37414   0.09556 
 C                     5.34437   1.83447   0.00729 
 C                     5.73042   3.18273  -0.18436 
 C                     6.36063   0.86999   0.12274 
 C                     7.70728   1.22287   0.06085 
 C                     8.08984   2.55885  -0.11802 
 C                     7.08548   3.53406  -0.24507 
 H                    -2.97929   1.23454   0.05604 
 H                    -2.20543   2.46826  -1.00955 
 H                    -2.24613   2.71489   0.78447 
 H                    -0.74528   0.46037  -0.69871 
 H                    -0.78093   0.70638   1.09147 
 H                     0.3079    2.9521    0.80203 
 H                     0.32831   2.70094  -0.99232 
 H                     1.61436   0.45457   0.25234 
 H                     3.86338   0.36015   0.24488 
 H                     5.02621   3.989    -0.28537 
 H                     6.10842  -0.17309   0.26724 
 H                     8.4523    0.44455   0.15963 
 S                     9.85392   3.00786  -0.16637 
 H                     7.34842   4.57494  -0.38661 
 F                     10.17725   1.70599  -1.23172 
 F                     11.51069   3.43031  -0.20596 
 F                     9.58191   4.01789  -1.52219 
 F                     9.5635    4.31737   0.89809 
 F                     10.16035   2.00657   1.18938 
 

 GradGradGradGradGradGradGradGradGradGradGradGradGradGradGradGradGradGrad
 Berny optimization.
 Initialization pass.
                           ----------------------------
                           !    Initial Parameters    !
                           ! (Angstroms and Degrees)  !
 --------------------------                            --------------------------
 ! Name  Definition              Value          Derivative Info.                !
 --------------------------------------------------------------------------------
 ! R1    R(1,2)                  1.5252         estimate D2E/DX2                !
 ! R2    R(1,14)                 1.1104         estimate D2E/DX2                !
 ! R3    R(1,15)                 1.111          estimate D2E/DX2                !
 ! R4    R(1,16)                 1.1106         estimate D2E/DX2                !
 ! R5    R(2,3)                  1.5335         estimate D2E/DX2                !
 ! R6    R(2,17)                 1.1122         estimate D2E/DX2                !
 ! R7    R(2,18)                 1.1119         estimate D2E/DX2                !
 ! R8    R(3,4)                  1.4517         estimate D2E/DX2                !
 ! R9    R(3,19)                 1.1124         estimate D2E/DX2                !
 ! R10   R(3,20)                 1.1122         estimate D2E/DX2                !
 ! R11   R(4,5)                  1.3632         estimate D2E/DX2                !
 ! R12   R(4,21)                 1.0324         estimate D2E/DX2                !
 ! R13   R(5,6)                  1.2209         estimate D2E/DX2                !
 ! R14   R(5,7)                  1.3678         estimate D2E/DX2                !
 ! R15   R(7,8)                  1.4383         estimate D2E/DX2                !
 ! R16   R(7,22)                 1.0321         estimate D2E/DX2                !
 ! R17   R(8,9)                  1.4155         estimate D2E/DX2                !
 ! R18   R(8,10)                 1.4058         estimate D2E/DX2                !
 ! R19   R(9,13)                 1.4012         estimate D2E/DX2                !
 ! R20   R(9,23)                 1.0753         estimate D2E/DX2                !
 ! R21   R(10,11)                1.3935         estimate D2E/DX2                !
 ! R22   R(10,24)                1.0828         estimate D2E/DX2                !
 ! R23   R(11,12)                1.4011         estimate D2E/DX2                !
 ! R24   R(11,25)                1.0819         estimate D2E/DX2                !
 ! R25   R(12,13)                1.4057         estimate D2E/DX2                !
 ! R26   R(12,26)                1.821          estimate D2E/DX2                !
 ! R27   R(13,27)                1.0829         estimate D2E/DX2                !
 ! R28   R(26,28)                1.713          estimate D2E/DX2                !
 ! R29   R(26,29)                1.7102         estimate D2E/DX2                !
 ! R30   R(26,30)                1.7124         estimate D2E/DX2                !
 ! R31   R(26,31)                1.7124         estimate D2E/DX2                !
 ! R32   R(26,32)                1.713          estimate D2E/DX2                !
 ! A1    A(2,1,14)             109.5628         estimate D2E/DX2                !
 ! A2    A(2,1,15)             110.2852         estimate D2E/DX2                !
 ! A3    A(2,1,16)             110.3038         estimate D2E/DX2                !
 ! A4    A(14,1,15)            108.655          estimate D2E/DX2                !
 ! A5    A(14,1,16)            108.7555         estimate D2E/DX2                !
 ! A6    A(15,1,16)            109.2414         estimate D2E/DX2                !
 ! A7    A(1,2,3)              111.2689         estimate D2E/DX2                !
 ! A8    A(1,2,17)             108.8121         estimate D2E/DX2                !
 ! A9    A(1,2,18)             109.0424         estimate D2E/DX2                !
 ! A10   A(3,2,17)             109.3543         estimate D2E/DX2                !
 ! A11   A(3,2,18)             109.6082         estimate D2E/DX2                !
 ! A12   A(17,2,18)            108.7105         estimate D2E/DX2                !
 ! A13   A(2,3,4)              110.8112         estimate D2E/DX2                !
 ! A14   A(2,3,19)             109.5098         estimate D2E/DX2                !
 ! A15   A(2,3,20)             108.9585         estimate D2E/DX2                !
 ! A16   A(4,3,19)             109.3886         estimate D2E/DX2                !
 ! A17   A(4,3,20)             109.0715         estimate D2E/DX2                !
 ! A18   A(19,3,20)            109.074          estimate D2E/DX2                !
 ! A19   A(3,4,5)              122.1469         estimate D2E/DX2                !
 ! A20   A(3,4,21)             118.879          estimate D2E/DX2                !
 ! A21   A(5,4,21)             118.9706         estimate D2E/DX2                !
 ! A22   A(4,5,6)              119.4452         estimate D2E/DX2                !
 ! A23   A(4,5,7)              119.1981         estimate D2E/DX2                !
 ! A24   A(6,5,7)              121.3554         estimate D2E/DX2                !
 ! A25   A(5,7,8)              128.2307         estimate D2E/DX2                !
 ! A26   A(5,7,22)             116.0267         estimate D2E/DX2                !
 ! A27   A(8,7,22)             115.7424         estimate D2E/DX2                !
 ! A28   A(7,8,9)              124.8203         estimate D2E/DX2                !
 ! A29   A(7,8,10)             117.3111         estimate D2E/DX2                !
 ! A30   A(9,8,10)             117.8685         estimate D2E/DX2                !
 ! A31   A(8,9,13)             120.5611         estimate D2E/DX2                !
 ! A32   A(8,9,23)             123.2525         estimate D2E/DX2                !
 ! A33   A(13,9,23)            116.1856         estimate D2E/DX2                !
 ! A34   A(8,10,11)            121.4136         estimate D2E/DX2                !
 ! A35   A(8,10,24)            120.2294         estimate D2E/DX2                !
 ! A36   A(11,10,24)           118.3565         estimate D2E/DX2                !
 ! A37   A(10,11,12)           120.7294         estimate D2E/DX2                !
 ! A38   A(10,11,25)           118.6347         estimate D2E/DX2                !
 ! A39   A(12,11,25)           120.6349         estimate D2E/DX2                !
 ! A40   A(11,12,13)           118.5521         estimate D2E/DX2                !
 ! A41   A(11,12,26)           120.1991         estimate D2E/DX2                !
 ! A42   A(13,12,26)           121.2462         estimate D2E/DX2                !
 ! A43   A(9,13,12)            120.8716         estimate D2E/DX2                !
 ! A44   A(9,13,27)            118.7838         estimate D2E/DX2                !
 ! A45   A(12,13,27)           120.3437         estimate D2E/DX2                !
 ! A46   A(12,26,28)            90.6858         estimate D2E/DX2                !
 ! A47   A(12,26,30)            90.7207         estimate D2E/DX2                !
 ! A48   A(12,26,31)            90.4445         estimate D2E/DX2                !
 ! A49   A(12,26,32)            90.467          estimate D2E/DX2                !
 ! A50   A(28,26,29)            89.4546         estimate D2E/DX2                !
 ! A51   A(28,26,30)            89.1885         estimate D2E/DX2                !
 ! A52   A(28,26,32)            90.8146         estimate D2E/DX2                !
 ! A53   A(29,26,30)            89.4188         estimate D2E/DX2                !
 ! A54   A(29,26,31)            89.415          estimate D2E/DX2                !
 ! A55   A(29,26,32)            89.3934         estimate D2E/DX2                !
 ! A56   A(30,26,31)            90.8124         estimate D2E/DX2                !
 ! A57   A(31,26,32)            89.1611         estimate D2E/DX2                !
 ! A58   L(12,26,29,28,-1)     180.1404         estimate D2E/DX2                !
 ! A59   L(28,26,31,12,-1)     181.1304         estimate D2E/DX2                !
 ! A60   L(30,26,32,12,-1)     181.1877         estimate D2E/DX2                !
 ! A61   L(12,26,29,28,-2)     180.1375         estimate D2E/DX2                !
 ! A62   L(28,26,31,12,-2)     179.985          estimate D2E/DX2                !
 ! A63   L(30,26,32,12,-2)     180.0173         estimate D2E/DX2                !
 ! D1    D(14,1,2,3)           179.6582         estimate D2E/DX2                !
 ! D2    D(14,1,2,17)           59.1071         estimate D2E/DX2                !
 ! D3    D(14,1,2,18)          -59.3232         estimate D2E/DX2                !
 ! D4    D(15,1,2,3)            60.1034         estimate D2E/DX2                !
 ! D5    D(15,1,2,17)          -60.4477         estimate D2E/DX2                !
 ! D6    D(15,1,2,18)         -178.878          estimate D2E/DX2                !
 ! D7    D(16,1,2,3)           -60.6516         estimate D2E/DX2                !
 ! D8    D(16,1,2,17)          178.7973         estimate D2E/DX2                !
 ! D9    D(16,1,2,18)           60.367          estimate D2E/DX2                !
 ! D10   D(1,2,3,4)           -179.2856         estimate D2E/DX2                !
 ! D11   D(1,2,3,19)            59.9542         estimate D2E/DX2                !
 ! D12   D(1,2,3,20)           -59.2743         estimate D2E/DX2                !
 ! D13   D(17,2,3,4)           -59.0544         estimate D2E/DX2                !
 ! D14   D(17,2,3,19)         -179.8146         estimate D2E/DX2                !
 ! D15   D(17,2,3,20)           60.957          estimate D2E/DX2                !
 ! D16   D(18,2,3,4)            60.028          estimate D2E/DX2                !
 ! D17   D(18,2,3,19)          -60.7322         estimate D2E/DX2                !
 ! D18   D(18,2,3,20)         -179.9607         estimate D2E/DX2                !
 ! D19   D(2,3,4,5)            178.4489         estimate D2E/DX2                !
 ! D20   D(2,3,4,21)            -0.867          estimate D2E/DX2                !
 ! D21   D(19,3,4,5)           -60.7191         estimate D2E/DX2                !
 ! D22   D(19,3,4,21)          119.965          estimate D2E/DX2                !
 ! D23   D(20,3,4,5)            58.5051         estimate D2E/DX2                !
 ! D24   D(20,3,4,21)         -120.8108         estimate D2E/DX2                !
 ! D25   D(3,4,5,6)              0.5855         estimate D2E/DX2                !
 ! D26   D(3,4,5,7)           -179.0071         estimate D2E/DX2                !
 ! D27   D(21,4,5,6)           179.9008         estimate D2E/DX2                !
 ! D28   D(21,4,5,7)             0.3082         estimate D2E/DX2                !
 ! D29   D(4,5,7,8)            179.4692         estimate D2E/DX2                !
 ! D30   D(4,5,7,22)            -0.361          estimate D2E/DX2                !
 ! D31   D(6,5,7,8)             -0.1154         estimate D2E/DX2                !
 ! D32   D(6,5,7,22)          -179.9456         estimate D2E/DX2                !
 ! D33   D(5,7,8,9)              0.6781         estimate D2E/DX2                !
 ! D34   D(5,7,8,10)          -179.4304         estimate D2E/DX2                !
 ! D35   D(22,7,8,9)          -179.4914         estimate D2E/DX2                !
 ! D36   D(22,7,8,10)            0.4002         estimate D2E/DX2                !
 ! D37   D(7,8,9,13)           179.4092         estimate D2E/DX2                !
 ! D38   D(7,8,9,23)            -0.2392         estimate D2E/DX2                !
 ! D39   D(10,8,9,13)           -0.4818         estimate D2E/DX2                !
 ! D40   D(10,8,9,23)          179.8698         estimate D2E/DX2                !
 ! D41   D(7,8,10,11)         -179.4634         estimate D2E/DX2                !
 ! D42   D(7,8,10,24)            0.2822         estimate D2E/DX2                !
 ! D43   D(9,8,10,11)            0.4359         estimate D2E/DX2                !
 ! D44   D(9,8,10,24)         -179.8185         estimate D2E/DX2                !
 ! D45   D(8,9,13,12)            0.026          estimate D2E/DX2                !
 ! D46   D(8,9,13,27)         -179.6343         estimate D2E/DX2                !
 ! D47   D(23,9,13,12)         179.6984         estimate D2E/DX2                !
 ! D48   D(23,9,13,27)           0.0381         estimate D2E/DX2                !
 ! D49   D(8,10,11,12)           0.0717         estimate D2E/DX2                !
 ! D50   D(8,10,11,25)         179.7156         estimate D2E/DX2                !
 ! D51   D(24,10,11,12)       -179.6785         estimate D2E/DX2                !
 ! D52   D(24,10,11,25)         -0.0346         estimate D2E/DX2                !
 ! D53   D(10,11,12,13)         -0.5325         estimate D2E/DX2                !
 ! D54   D(10,11,12,26)        178.8811         estimate D2E/DX2                !
 ! D55   D(25,11,12,13)        179.8307         estimate D2E/DX2                !
 ! D56   D(25,11,12,26)         -0.7556         estimate D2E/DX2                !
 ! D57   D(11,12,13,9)           0.4833         estimate D2E/DX2                !
 ! D58   D(11,12,13,27)       -179.8617         estimate D2E/DX2                !
 ! D59   D(26,12,13,9)        -178.9239         estimate D2E/DX2                !
 ! D60   D(26,12,13,27)          0.7311         estimate D2E/DX2                !
 ! D61   D(11,12,26,28)         46.055          estimate D2E/DX2                !
 ! D62   D(11,12,26,30)        135.252          estimate D2E/DX2                !
 ! D63   D(11,12,26,31)       -133.9299         estimate D2E/DX2                !
 ! D64   D(11,12,26,32)        -44.7653         estimate D2E/DX2                !
 ! D65   D(13,12,26,28)       -134.5474         estimate D2E/DX2                !
 ! D66   D(13,12,26,30)        -45.3504         estimate D2E/DX2                !
 ! D67   D(13,12,26,31)         45.4676         estimate D2E/DX2                !
 ! D68   D(13,12,26,32)        134.6323         estimate D2E/DX2                !
 --------------------------------------------------------------------------------
 Trust Radius=3.00D-01 FncErr=1.00D-07 GrdErr=1.00D-06
 Number of steps in this run=    173 maximum allowed number of steps=    192.
 GradGradGradGradGradGradGradGradGradGradGradGradGradGradGradGradGradGrad

                          Input orientation:                          
 ---------------------------------------------------------------------
 Center     Atomic      Atomic             Coordinates (Angstroms)
 Number     Number       Type             X           Y           Z
 ---------------------------------------------------------------------
      1          6           0       -2.142490    1.960080   -0.023640
      2          6           0       -0.813520    1.223320    0.107600
      3          6           0        0.371790    2.189690   -0.005500
      4          7           0        1.631300    1.476120    0.103960
      5          6           0        2.834570    2.108890    0.003580
      6          8           0        2.864700    3.316450   -0.173750
      7          7           0        3.984560    1.374140    0.095560
      8          6           0        5.344370    1.834470    0.007290
      9          6           0        5.730420    3.182730   -0.184360
     10          6           0        6.360630    0.869990    0.122740
     11          6           0        7.707280    1.222870    0.060850
     12          6           0        8.089840    2.558850   -0.118020
     13          6           0        7.085480    3.534060   -0.245070
     14          1           0       -2.979290    1.234540    0.056040
     15          1           0       -2.205430    2.468260   -1.009550
     16          1           0       -2.246130    2.714890    0.784470
     17          1           0       -0.745280    0.460370   -0.698710
     18          1           0       -0.780930    0.706380    1.091470
     19          1           0        0.307900    2.952100    0.802030
     20          1           0        0.328310    2.700940   -0.992320
     21          1           0        1.614360    0.454570    0.252340
     22          1           0        3.863380    0.360150    0.244880
     23          1           0        5.026210    3.989000   -0.285370
     24          1           0        6.108420   -0.173090    0.267240
     25          1           0        8.452300    0.444550    0.159630
     26         16           0        9.853920    3.007860   -0.166370
     27          1           0        7.348420    4.574940   -0.386610
     28          9           0       10.177250    1.705990   -1.231720
     29          9           0       11.510690    3.430310   -0.205960
     30          9           0        9.581910    4.017890   -1.522190
     31          9           0        9.563500    4.317370    0.898090
     32          9           0       10.160350    2.006570    1.189380
 ---------------------------------------------------------------------
                    Distance matrix (angstroms):
                    1          2          3          4          5
     1  C    0.000000
     2  C    1.525189   0.000000
     3  C    2.524808   1.533500   0.000000
     4  N    3.806835   2.457858   1.451733   0.000000
     5  C    4.979359   3.755478   2.464122   1.363207   0.000000
     6  O    5.189819   4.241421   2.740893   2.232759   1.220883
     7  N    6.156158   4.800465   3.705056   2.355484   1.367770
     8  C    7.487978   6.188956   4.985268   3.731575   2.524761
     9  C    7.968903   6.837227   5.452801   4.449543   3.094253
    10  C    8.573959   7.182862   6.133862   4.768051   3.739274
    11  C    9.877681   8.520928   7.399227   6.081408   4.952940
    12  C   10.250269   9.005796   7.727693   6.552428   5.275899
    13  C    9.363860   8.237603   6.851157   5.839950   4.490342
    14  H    1.110401   2.166413   3.485088   4.617163   5.879473
    15  H    1.110958   2.176077   2.779889   4.116399   5.153366
    16  H    1.110640   2.176076   2.784491   4.126998   5.175958
    17  H    2.158019   1.112153   2.172311   2.706318   4.003268
    18  H    2.160805   1.111885   2.175389   2.717817   4.027701
    19  H    2.769521   2.174511   1.112410   2.101715   2.780753
    20  H    2.755371   2.167247   1.112241   2.097569   2.761101
    21  H    4.056679   2.550790   2.149675   1.032409   2.070644
    22  H    6.221122   4.757867   3.949824   2.499486   2.043225
    23  H    7.454883   6.473473   4.997947   4.241646   2.901998
    24  H    8.527165   7.063193   6.210156   4.774009   3.999380
    25  H   10.704205   9.298635   8.268460   6.898788   5.861166
    26  S   12.042926  10.819146   9.518722   8.368440   7.078722
    27  H    9.851224   8.837130   7.382955   6.521411   5.158342
    28  F   12.381438  11.082589   9.893666   8.652753   7.456758
    29  F   13.733322  12.524188  11.209568  10.075577   8.778674
    30  F   11.997574  10.887185   9.511518   8.503950   7.176270
    31  F   11.976502  10.857282   9.477923   8.463046   7.138349
    32  F   12.362583  11.054843   9.862919   8.614186   7.421836
                    6          7          8          9         10
     6  O    0.000000
     7  N    2.258137   0.000000
     8  C    2.894444   1.438325   0.000000
     9  C    2.868858   2.529304   1.415475   0.000000
    10  C    4.277219   2.429118   1.405822   2.416659   0.000000
    11  C    5.280975   3.725954   2.441366   2.794486   1.393492
    12  C    5.280071   4.278140   2.842188   2.441411   2.429070
    13  C    4.226988   3.794336   2.446172   1.401180   2.785312
    14  H    6.208009   6.965361   8.345394   8.928174   9.347270
    15  H    5.208090   6.382346   7.644288   8.010563   8.787146
    16  H    5.234562   6.410437   7.680810   8.048780   8.827109
    17  H    4.633005   4.882338   6.282549   7.043471   7.164951
    18  H    4.658741   4.914024   6.321972   7.082212   7.208820
    19  H    2.760819   4.062867   5.219841   5.516328   6.436782
    20  H    2.735358   4.038817   5.187567   5.483403   6.401923
    21  H    3.152025   2.547163   3.984614   4.957370   4.766178
    22  H    3.148384   1.032064   2.103188   3.411311   2.551688
    23  H    2.266475   2.840358   2.197470   1.075261   3.416936
    24  H    4.784671   2.633282   2.163711   3.407104   1.082823
    25  H    6.291282   4.563874   3.407978   3.876157   2.134817
    26  S    6.996033   6.098117   4.662944   4.127245   4.105746
    27  H    4.661851   4.668315   3.417828   2.144080   3.868051
    28  F    7.562160   6.342019   4.990830   4.801252   4.135220
    29  F    8.646800   7.807777   6.373043   5.785610   5.760764
    30  F    6.887033   6.398192   5.006334   4.161881   4.794968
    31  F    6.857449   6.358556   4.975879   4.141450   4.769064
    32  F    7.536605   6.303713   4.961917   4.784850   4.106995
                   11         12         13         14         15
    11  C    0.000000
    12  C    1.401139   0.000000
    13  C    2.412845   1.405673   0.000000
    14  H   10.686577  11.149427  10.328507   0.000000
    15  H   10.047814  10.334196   9.383036   1.804552   0.000000
    16  H   10.090596  10.376469   9.423902   1.805428   1.811350
    17  H    8.520804   9.099460   8.424616   2.481892   2.502056
    18  H    8.566134   9.142487   8.465372   2.486736   3.089936
    19  H    7.634816   7.846001   6.882637   3.783138   3.135722
    20  H    7.598885   7.811910   6.849220   3.766909   2.544460
    21  H    6.144154   6.818871   6.297923   4.663529   4.498679
    22  H    3.943820   4.777964   4.549251   6.900895   6.545852
    23  H    3.867749   3.385139   2.109310   8.472995   7.425207
    24  H    2.132523   3.396755   3.867825   9.198505   8.816293
    25  H    1.081940   2.163038   3.402507  11.459322  10.910985
    26  S    2.801050   1.820968   2.819103  12.957060  12.100828
    27  H    3.400790   2.164824   1.082868  10.863508   9.803173
    28  F    2.829292   2.514951   3.724830  13.227817  12.408109
    29  F    4.405668   3.531202   4.426599  14.657748  13.773280
    30  F    3.719192   2.515306   2.845574  12.962314  11.899812
    31  F    3.704383   2.509292   2.839185  12.943511  12.065074
    32  F    2.811640   2.510243   3.720981  13.211004  12.568252
                   16         17         18         19         20
    16  H    0.000000
    17  H    3.087917   0.000000
    18  H    2.505029   1.807356   0.000000
    19  H    2.565082   3.093562   2.512486   0.000000
    20  H    3.128085   2.501791   3.090447   1.811957   0.000000
    21  H    4.505063   2.544097   2.550483   2.871699   2.872156
    22  H    6.569785   4.705332   4.733519   4.435094   4.416637
    23  H    7.460217   6.777328   6.811326   4.951772   4.922311
    24  H    8.854742   6.950362   6.993995   6.610510   6.576945
    25  H   10.954509   9.237558   9.283826   8.545861   8.509847
    26  S   12.140887  10.914034  10.953493   9.595176   9.566276
    27  H    9.843099   9.084882   9.123421   7.322254   7.291139
    28  F   12.626293  11.006241  11.246250  10.153472   9.901962
    29  F   13.810969  12.620307  12.656502  11.258207  11.233698
    30  F   12.121098  10.953763  11.188645   9.620040   9.361850
    31  F   11.918398  11.121923  10.958279   9.356245   9.564268
    32  F   12.433279  11.175347  11.018697   9.905293  10.095097
                   21         22         23         24         25
    21  H    0.000000
    22  H    2.251013   0.000000
    23  H    4.941867   3.847323   0.000000
    24  H    4.537704   2.307607   4.335845   0.000000
    25  H    6.838576   4.590488   4.949671   2.426280   0.000000
    26  S    8.636258   6.562474   4.927837   4.933075   2.939621
    27  H    7.089792   5.505337   2.397130   4.950647   4.310110
    28  F    8.780181   6.622431   5.713224   4.725802   2.550007
    29  F   10.344197   8.252908   6.508988   6.510985   4.289775
    30  F    8.906630   7.014498   4.720695   5.729878   4.107712
    31  F    8.861549   6.969766   4.700575   5.700858   4.096196
    32  F    8.736172   6.576824   5.697746   4.692483   2.533323
                   26         27         28         29         30
    26  S    0.000000
    27  H    2.963406   0.000000
    28  F    1.713003   4.116718   0.000000
    29  F    1.710239   4.320568   2.409051   0.000000
    30  F    1.712425   2.566773   2.404929   2.407884   0.000000
    31  F    1.712377   2.573592   3.425213   2.407769   2.438808
    32  F    1.713050   4.121555   2.439746   2.407785   3.425290
                   31         32
    31  F    0.000000
    32  F    2.404345   0.000000
 Stoichiometry    C10H13F5N2OS
 Framework group  C1[X(C10H13F5N2OS)]
 Deg. of freedom    90
 Full point group                 C1      NOp   1
 Largest Abelian subgroup         C1      NOp   1
 Largest concise Abelian subgroup C1      NOp   1
                         Standard orientation:                         
 ---------------------------------------------------------------------
 Center     Atomic      Atomic             Coordinates (Angstroms)
 Number     Number       Type             X           Y           Z
 ---------------------------------------------------------------------
      1          6           0       -8.209047   -0.477857    0.039501
      2          6           0       -6.976621    0.420005    0.005290
      3          6           0       -5.685862   -0.407666   -0.017628
      4          7           0       -4.519333    0.456335   -0.033189
      5          6           0       -3.249443   -0.039262   -0.023472
      6          8           0       -3.076921   -1.247838   -0.011834
      7          7           0       -2.193793    0.830436   -0.018492
      8          6           0       -0.788547    0.524435    0.002143
      9          6           0       -0.246050   -0.782942    0.007735
     10          6           0        0.107355    1.607725    0.015486
     11          6           0        1.486641    1.409466    0.024616
     12          6           0        2.024014    0.115483    0.019225
     13          6           0        1.141388   -0.978535    0.015880
     14          1           0       -9.125282    0.149049    0.061724
     15          1           0       -8.194247   -1.117844    0.947479
     16          1           0       -8.240289   -1.124031   -0.863275
     17          1           0       -6.981510    1.070295    0.907500
     18          1           0       -7.022535    1.064792   -0.899382
     19          1           0       -5.676739   -1.056752   -0.920988
     20          1           0       -5.651364   -1.048523    0.890773
     21          1           0       -4.656758    1.479523   -0.041442
     22          1           0       -2.433891    1.834135   -0.028371
     23          1           0       -0.850555   -1.672160    0.000575
     24          1           0       -0.266137    2.624095    0.014748
     25          1           0        2.134942    2.275647    0.030061
     26         16           0        3.828697   -0.126788    0.000563
     27          1           0        1.525227   -1.991089    0.013950
     28          9           0        4.019931    1.048766    1.231775
     29          9           0        5.523577   -0.354280   -0.022831
     30          9           0        3.700745   -1.334765    1.207551
     31          9           0        3.671046   -1.306135   -1.230908
     32          9           0        3.991843    1.076600   -1.207651
 ---------------------------------------------------------------------
 Rotational constants (GHZ):      1.3186432      0.0971055      0.0944359
 General basis read from cards:  (6D, 7F)
 There are   391 symmetry adapted cartesian basis functions of A   symmetry.
 There are   391 symmetry adapted basis functions of A   symmetry.
   391 basis functions,   684 primitive gaussians,   391 cartesian basis functions
    78 alpha electrons       78 beta electrons
       nuclear repulsion energy      1674.8032693248 Hartrees.
 NAtoms=   32 NActive=   32 NUniq=   32 SFac= 1.00D+00 NAtFMM=   60 NAOKFM=F Big=F
 Integral buffers will be    131072 words long.
 Raffenetti 2 integral format.
 Two-electron integral symmetry is turned on.
 One-electron integrals computed using PRISM.
 NBasis=   391 RedAO= T EigKep=  1.04D-06  NBF=   391
 NBsUse=   391 1.00D-06 EigRej= -1.00D+00 NBFU=   391
 ExpMin= 4.05D-02 ExpMax= 2.19D+04 ExpMxC= 3.30D+03 IAcc=3 IRadAn=         5 AccDes= 0.00D+00
 Harris functional with IExCor= 1009 and IRadAn=       5 diagonalized for initial guess.
 HarFok:  IExCor= 1009 AccDes= 0.00D+00 IRadAn=         5 IDoV= 1 UseB2=F ITyADJ=14
 ICtDFT=  3500011 ScaDFX=  1.000000  1.000000  1.000000  1.000000
 FoFCou: FMM=F IPFlag=           0 FMFlag=      100000 FMFlg1=           0
         NFxFlg=           0 DoJE=T BraDBF=F KetDBF=T FulRan=T
         wScrn=  0.000000 ICntrl=     500 IOpCl=  0 I1Cent=   200000004 NGrid=           0
         NMat0=    1 NMatS0=      1 NMatT0=    0 NMatD0=    1 NMtDS0=    0 NMtDT0=    0
 Petite list used in FoFCou.
 Requested convergence on RMS density matrix=1.00D-08 within 128 cycles.
 Requested convergence on MAX density matrix=1.00D-06.
 Requested convergence on             energy=1.00D-06.
 No special actions if energy rises.
 EnCoef did     1 forward-backward iterations
 SCF Done:  E(RM062X) =  -1470.49157791     A.U. after   18 cycles
            NFock= 18  Conv=0.60D-08     -V/T= 2.0077

 **********************************************************************

            Population analysis using the SCF density.

 **********************************************************************

 Orbital symmetries:
       Occupied  (A) (A) (A) (A) (A) (A) (A) (A) (A) (A) (A) (A)
                 (A) (A) (A) (A) (A) (A) (A) (A) (A) (A) (A) (A)
                 (A) (A) (A) (A) (A) (A) (A) (A) (A) (A) (A) (A)
                 (A) (A) (A) (A) (A) (A) (A) (A) (A) (A) (A) (A)
                 (A) (A) (A) (A) (A) (A) (A) (A) (A) (A) (A) (A)
                 (A) (A) (A) (A) (A) (A) (A) (A) (A) (A) (A) (A)
                 (A) (A) (A) (A) (A) (A)
       Virtual   (A) (A) (A) (A) (A) (A) (A) (A) (A) (A) (A) (A)
                 (A) (A) (A) (A) (A) (A) (A) (A) (A) (A) (A) (A)
                 (A) (A) (A) (A) (A) (A) (A) (A) (A) (A) (A) (A)
                 (A) (A) (A) (A) (A) (A) (A) (A) (A) (A) (A) (A)
                 (A) (A) (A) (A) (A) (A) (A) (A) (A) (A) (A) (A)
                 (A) (A) (A) (A) (A) (A) (A) (A) (A) (A) (A) (A)
                 (A) (A) (A) (A) (A) (A) (A) (A) (A) (A) (A) (A)
                 (A) (A) (A) (A) (A) (A) (A) (A) (A) (A) (A) (A)
                 (A) (A) (A) (A) (A) (A) (A) (A) (A) (A) (A) (A)
                 (A) (A) (A) (A) (A) (A) (A) (A) (A) (A) (A) (A)
                 (A) (A) (A) (A) (A) (A) (A) (A) (A) (A) (A) (A)
                 (A) (A) (A) (A) (A) (A) (A) (A) (A) (A) (A) (A)
                 (A) (A) (A) (A) (A) (A) (A) (A) (A) (A) (A) (A)
                 (A) (A) (A) (A) (A) (A) (A) (A) (A) (A) (A) (A)
                 (A) (A) (A) (A) (A) (A) (A) (A) (A) (A) (A) (A)
                 (A) (A) (A) (A) (A) (A) (A) (A) (A) (A) (A) (A)
                 (A) (A) (A) (A) (A) (A) (A) (A) (A) (A) (A) (A)
                 (A) (A) (A) (A) (A) (A) (A) (A) (A) (A) (A) (A)
                 (A) (A) (A) (A) (A) (A) (A) (A) (A) (A) (A) (A)
                 (A) (A) (A) (A) (A) (A) (A) (A) (A) (A) (A) (A)
                 (A) (A) (A) (A) (A) (A) (A) (A) (A) (A) (A) (A)
                 (A) (A) (A) (A) (A) (A) (A) (A) (A) (A) (A) (A)
                 (A) (A) (A) (A) (A) (A) (A) (A) (A) (A) (A) (A)
                 (A) (A) (A) (A) (A) (A) (A) (A) (A) (A) (A) (A)
                 (A) (A) (A) (A) (A) (A) (A) (A) (A) (A) (A) (A)
                 (A) (A) (A) (A) (A) (A) (A) (A) (A) (A) (A) (A)
                 (A)
 The electronic state is 1-A.
 Alpha  occ. eigenvalues --  -90.33051 -25.31787 -25.30205 -25.30186 -25.30141
 Alpha  occ. eigenvalues --  -25.30111 -19.61624 -14.83111 -14.80688 -10.69806
 Alpha  occ. eigenvalues --  -10.64466 -10.62314 -10.60136 -10.59824 -10.59530
 Alpha  occ. eigenvalues --  -10.59016 -10.57991 -10.57309 -10.55970  -8.61687
 Alpha  occ. eigenvalues --   -6.54033  -6.54017  -6.53639  -1.43286  -1.36047
 Alpha  occ. eigenvalues --   -1.35903  -1.34957  -1.33011  -1.19310  -1.07078
 Alpha  occ. eigenvalues --   -1.04508  -0.99661  -0.94126  -0.90113  -0.87802
 Alpha  occ. eigenvalues --   -0.86277  -0.79641  -0.74742  -0.73686  -0.70090
 Alpha  occ. eigenvalues --   -0.69980  -0.69807  -0.68919  -0.67649  -0.65315
 Alpha  occ. eigenvalues --   -0.63157  -0.59760  -0.58988  -0.58728  -0.57581
 Alpha  occ. eigenvalues --   -0.56603  -0.55369  -0.55115  -0.54438  -0.54191
 Alpha  occ. eigenvalues --   -0.53858  -0.53514  -0.53363  -0.53252  -0.52184
 Alpha  occ. eigenvalues --   -0.52161  -0.51374  -0.50988  -0.50405  -0.49938
 Alpha  occ. eigenvalues --   -0.48796  -0.48195  -0.46280  -0.45152  -0.44165
 Alpha  occ. eigenvalues --   -0.44013  -0.41899  -0.41863  -0.39599  -0.35363
 Alpha  occ. eigenvalues --   -0.33738  -0.33280  -0.30152
 Alpha virt. eigenvalues --   -0.08989  -0.02100  -0.01655  -0.00436   0.01397
 Alpha virt. eigenvalues --    0.02048   0.02869   0.03188   0.03283   0.03566
 Alpha virt. eigenvalues --    0.04450   0.04820   0.05205   0.05373   0.05993
 Alpha virt. eigenvalues --    0.06457   0.06628   0.07325   0.07720   0.08142
 Alpha virt. eigenvalues --    0.08371   0.08661   0.09102   0.09247   0.09831
 Alpha virt. eigenvalues --    0.09971   0.11146   0.11563   0.11758   0.12648
 Alpha virt. eigenvalues --    0.13313   0.13975   0.14137   0.14329   0.14881
 Alpha virt. eigenvalues --    0.15127   0.15545   0.16740   0.17041   0.17898
 Alpha virt. eigenvalues --    0.18496   0.18653   0.19253   0.19756   0.19869
 Alpha virt. eigenvalues --    0.20619   0.21257   0.21615   0.21802   0.22555
 Alpha virt. eigenvalues --    0.22738   0.22979   0.23677   0.23950   0.24265
 Alpha virt. eigenvalues --    0.24767   0.25280   0.25803   0.26062   0.26664
 Alpha virt. eigenvalues --    0.27380   0.27550   0.28058   0.28216   0.28530
 Alpha virt. eigenvalues --    0.29173   0.29792   0.30616   0.30811   0.31117
 Alpha virt. eigenvalues --    0.31401   0.31792   0.32367   0.32692   0.32919
 Alpha virt. eigenvalues --    0.33078   0.33775   0.34145   0.34829   0.35504
 Alpha virt. eigenvalues --    0.36151   0.36219   0.37140   0.37409   0.37747
 Alpha virt. eigenvalues --    0.38065   0.39238   0.39528   0.40050   0.40148
 Alpha virt. eigenvalues --    0.40569   0.40745   0.41540   0.42355   0.44147
 Alpha virt. eigenvalues --    0.45691   0.46523   0.46627   0.49177   0.49454
 Alpha virt. eigenvalues --    0.50012   0.51020   0.51369   0.53141   0.55015
 Alpha virt. eigenvalues --    0.57456   0.57519   0.58451   0.59368   0.59894
 Alpha virt. eigenvalues --    0.60337   0.64967   0.66308   0.67489   0.67715
 Alpha virt. eigenvalues --    0.70185   0.70326   0.71428   0.72396   0.73324
 Alpha virt. eigenvalues --    0.74415   0.75141   0.75485   0.77160   0.77928
 Alpha virt. eigenvalues --    0.79665   0.79849   0.81185   0.81632   0.84215
 Alpha virt. eigenvalues --    0.84354   0.84810   0.87084   0.87153   0.87309
 Alpha virt. eigenvalues --    0.87919   0.89140   0.90358   0.90400   0.92364
 Alpha virt. eigenvalues --    0.94286   0.96122   0.96871   0.98074   0.98294
 Alpha virt. eigenvalues --    1.00533   1.01299   1.02440   1.02541   1.03675
 Alpha virt. eigenvalues --    1.03747   1.04661   1.08855   1.09008   1.09618
 Alpha virt. eigenvalues --    1.10530   1.11735   1.12546   1.13003   1.13291
 Alpha virt. eigenvalues --    1.15504   1.16603   1.19584   1.20678   1.23852
 Alpha virt. eigenvalues --    1.26278   1.28280   1.29380   1.30403   1.34616
 Alpha virt. eigenvalues --    1.34806   1.34950   1.37589   1.38018   1.39350
 Alpha virt. eigenvalues --    1.43170   1.43324   1.44708   1.46301   1.47388
 Alpha virt. eigenvalues --    1.47753   1.48302   1.49663   1.51170   1.52480
 Alpha virt. eigenvalues --    1.54050   1.54987   1.56071   1.56927   1.58624
 Alpha virt. eigenvalues --    1.59985   1.60537   1.64954   1.66633   1.67457
 Alpha virt. eigenvalues --    1.68635   1.70914   1.71785   1.74751   1.74930
 Alpha virt. eigenvalues --    1.77231   1.78149   1.78574   1.78948   1.80989
 Alpha virt. eigenvalues --    1.81850   1.82884   1.84685   1.84805   1.85115
 Alpha virt. eigenvalues --    1.85665   1.85936   1.86948   1.87320   1.88640
 Alpha virt. eigenvalues --    1.88979   1.89333   1.90389   1.91025   1.91238
 Alpha virt. eigenvalues --    1.92261   1.93102   1.93479   1.93823   1.94360
 Alpha virt. eigenvalues --    1.95716   1.97348   1.97752   1.98361   1.98767
 Alpha virt. eigenvalues --    1.99128   1.99663   1.99867   2.01309   2.01785
 Alpha virt. eigenvalues --    2.02497   2.03367   2.03609   2.04527   2.04998
 Alpha virt. eigenvalues --    2.06503   2.06960   2.12283   2.13881   2.14231
 Alpha virt. eigenvalues --    2.14311   2.15354   2.17245   2.18368   2.18577
 Alpha virt. eigenvalues --    2.20066   2.23205   2.23466   2.24522   2.24794
 Alpha virt. eigenvalues --    2.25588   2.28442   2.29335   2.29489   2.29764
 Alpha virt. eigenvalues --    2.31484   2.34257   2.37045   2.37192   2.38430
 Alpha virt. eigenvalues --    2.40264   2.40876   2.47823   2.50470   2.54768
 Alpha virt. eigenvalues --    2.58164   2.63044   2.64000   2.65229   2.68750
 Alpha virt. eigenvalues --    2.71442   2.72986   2.74772   2.77071   2.77285
 Alpha virt. eigenvalues --    2.78138   2.80146   2.81366   2.81909   2.84829
 Alpha virt. eigenvalues --    2.87075   2.92605   2.96796   3.07934   3.11121
 Alpha virt. eigenvalues --    3.19099   3.26961   3.31561   3.39386   4.13359
 Alpha virt. eigenvalues --    4.20701   4.23941   4.25972   4.29971   4.34027
 Alpha virt. eigenvalues --    4.39955   4.41416   4.42149   4.48649   4.50769
 Alpha virt. eigenvalues --    4.57408   4.66566   4.74987   5.74437   5.78335
 Alpha virt. eigenvalues --    5.90741   7.11571   8.05569
          Condensed to atoms (all electrons):
               1          2          3          4          5          6
     1  C    5.553106   0.006635  -0.002619  -0.004984  -0.038209  -0.002292
     2  C    0.006635   6.124719  -0.366266  -0.078872   0.119482   0.020358
     3  C   -0.002619  -0.366266   6.826987   0.361796  -0.485210  -0.096591
     4  N   -0.004984  -0.078872   0.361796   7.744261   0.363869  -0.209699
     5  C   -0.038209   0.119482  -0.485210   0.363869   6.796211   0.625900
     6  O   -0.002292   0.020358  -0.096591  -0.209699   0.625900   8.290309
     7  N   -0.002212   0.017343  -0.154043  -0.440140   0.090584  -0.069440
     8  C   -0.007052   0.012714  -0.418732  -0.240845  -0.900170  -0.456594
     9  C   -0.002770  -0.003456  -0.058155   0.071693   0.784485   0.358209
    10  C   -0.000497   0.002753  -0.072584  -0.124138  -1.649999  -0.152866
    11  C    0.000250   0.000145   0.032070   0.021653   0.377390   0.011938
    12  C   -0.000206   0.000461  -0.033787   0.003478  -0.529114   0.004724
    13  C   -0.001037  -0.000558  -0.039794   0.028668  -0.332679   0.258400
    14  H    0.409967  -0.083836   0.026838   0.000615  -0.002291   0.000009
    15  H    0.421769  -0.068614  -0.007905   0.000510  -0.001098  -0.000064
    16  H    0.412823  -0.064910  -0.005738   0.000545   0.001849  -0.000059
    17  H   -0.033679   0.417849  -0.083097   0.007378   0.003058  -0.000249
    18  H   -0.023405   0.406674  -0.068341   0.007413  -0.009742  -0.000228
    19  H    0.002433  -0.050625   0.409949  -0.055757   0.002972   0.000702
    20  H    0.008669  -0.059176   0.442004  -0.059868  -0.020003   0.001195
    21  H   -0.001600   0.000748  -0.086403   0.228606   0.040308   0.008686
    22  H   -0.000148   0.000158   0.002425   0.025436  -0.014118   0.007512
    23  H    0.000003   0.000027   0.001862   0.000402   0.009222  -0.001849
    24  H   -0.000001   0.000005  -0.000032   0.001595  -0.002148   0.000036
    25  H    0.000000   0.000000   0.000026   0.000010   0.003267  -0.000001
    26  S   -0.000004   0.000002  -0.000972   0.000738  -0.049754   0.000054
    27  H    0.000000   0.000001   0.000044   0.000023   0.002214   0.000190
    28  F   -0.000000  -0.000000  -0.000004   0.000001  -0.000824  -0.000001
    29  F   -0.000000   0.000000  -0.000000  -0.000000  -0.000079   0.000000
    30  F   -0.000000   0.000000  -0.000008   0.000000  -0.001405   0.000001
    31  F   -0.000000   0.000000  -0.000008   0.000001  -0.001444   0.000001
    32  F   -0.000000  -0.000000  -0.000004   0.000001  -0.000906  -0.000001
               7          8          9         10         11         12
     1  C   -0.002212  -0.007052  -0.002770  -0.000497   0.000250  -0.000206
     2  C    0.017343   0.012714  -0.003456   0.002753   0.000145   0.000461
     3  C   -0.154043  -0.418732  -0.058155  -0.072584   0.032070  -0.033787
     4  N   -0.440140  -0.240845   0.071693  -0.124138   0.021653   0.003478
     5  C    0.090584  -0.900170   0.784485  -1.649999   0.377390  -0.529114
     6  O   -0.069440  -0.456594   0.358209  -0.152866   0.011938   0.004724
     7  N    7.866749   0.108333  -0.361105   0.344874   0.050578   0.021932
     8  C    0.108333  15.310643  -1.151295  -0.800956   1.225532  -5.069337
     9  C   -0.361105  -1.151295  19.949717  -5.141727   0.034431  -1.037273
    10  C    0.344874  -0.800956  -5.141727  19.312986  -4.257903   1.216469
    11  C    0.050578   1.225532   0.034431  -4.257903  23.029377  -3.880872
    12  C    0.021932  -5.069337  -1.037273   1.216469  -3.880872  20.304728
    13  C   -0.089395  -1.351574  -8.302210  -1.612639 -10.789862  -3.876913
    14  H    0.000012  -0.000048   0.000005  -0.000002   0.000000  -0.000000
    15  H    0.000015  -0.000009  -0.000049   0.000001   0.000000  -0.000000
    16  H    0.000011   0.000044  -0.000042   0.000001   0.000000  -0.000000
    17  H    0.000033   0.000077  -0.000212   0.000097   0.000005  -0.000001
    18  H    0.000138  -0.000899  -0.000237   0.000071   0.000010  -0.000003
    19  H    0.000090  -0.002734   0.003124  -0.001043   0.000009   0.000000
    20  H    0.000874  -0.006243   0.002435  -0.001067   0.000043  -0.000055
    21  H    0.035452   0.017804  -0.000348  -0.000741   0.000574  -0.000357
    22  H    0.223012   0.003356   0.051506  -0.130226   0.041896  -0.003050
    23  H   -0.014544   0.034187   0.222157   0.036096  -0.003230   0.057271
    24  H   -0.011462   0.028666   0.071078   0.165626  -0.040089   0.091116
    25  H    0.000566   0.006660  -0.024054  -0.103318   0.359204   0.026823
    26  S    0.002184  -0.558692  -0.834294   0.179317  -0.290938  -0.457127
    27  H   -0.000335  -0.019083  -0.054835  -0.039595   0.033387   0.037339
    28  F    0.000027  -0.019413   0.013832  -0.010812  -0.119878   0.118888
    29  F   -0.000009   0.003852  -0.012415   0.004145   0.067436  -0.182702
    30  F   -0.000024  -0.014486  -0.044708   0.031552  -0.029118   0.115442
    31  F   -0.000026  -0.016125  -0.042803   0.033494  -0.029838   0.106036
    32  F    0.000029  -0.022145   0.011217  -0.005466  -0.121089   0.107171
              13         14         15         16         17         18
     1  C   -0.001037   0.409967   0.421769   0.412823  -0.033679  -0.023405
     2  C   -0.000558  -0.083836  -0.068614  -0.064910   0.417849   0.406674
     3  C   -0.039794   0.026838  -0.007905  -0.005738  -0.083097  -0.068341
     4  N    0.028668   0.000615   0.000510   0.000545   0.007378   0.007413
     5  C   -0.332679  -0.002291  -0.001098   0.001849   0.003058  -0.009742
     6  O    0.258400   0.000009  -0.000064  -0.000059  -0.000249  -0.000228
     7  N   -0.089395   0.000012   0.000015   0.000011   0.000033   0.000138
     8  C   -1.351574  -0.000048  -0.000009   0.000044   0.000077  -0.000899
     9  C   -8.302210   0.000005  -0.000049  -0.000042  -0.000212  -0.000237
    10  C   -1.612639  -0.000002   0.000001   0.000001   0.000097   0.000071
    11  C  -10.789862   0.000000   0.000000   0.000000   0.000005   0.000010
    12  C   -3.876913  -0.000000  -0.000000  -0.000000  -0.000001  -0.000003
    13  C   31.999459   0.000000  -0.000004  -0.000004  -0.000021  -0.000025
    14  H    0.000000   0.489705  -0.024033  -0.023859  -0.003127  -0.003052
    15  H   -0.000004  -0.024033   0.492500  -0.027765  -0.004879   0.003958
    16  H   -0.000004  -0.023859  -0.027765   0.492046   0.003974  -0.004874
    17  H   -0.000021  -0.003127  -0.004879   0.003974   0.511566  -0.034087
    18  H   -0.000025  -0.003052   0.003958  -0.004874  -0.034087   0.511133
    19  H    0.000510  -0.000065  -0.000327   0.002660   0.003870  -0.005348
    20  H    0.000379  -0.000058   0.002757  -0.000327  -0.005386   0.003896
    21  H    0.000850  -0.000003   0.000001   0.000001   0.000993   0.001045
    22  H    0.026290  -0.000000  -0.000000  -0.000000   0.000002   0.000002
    23  H   -0.036272   0.000000  -0.000000  -0.000000  -0.000000  -0.000000
    24  H   -0.016413   0.000000   0.000000   0.000000   0.000000   0.000000
    25  H    0.020681  -0.000000   0.000000   0.000000  -0.000000  -0.000000
    26  S    0.590750  -0.000000  -0.000000  -0.000000  -0.000000  -0.000000
    27  H    0.333828  -0.000000   0.000000   0.000000   0.000000   0.000000
    28  F   -0.019078  -0.000000  -0.000000  -0.000000   0.000000  -0.000000
    29  F    0.082800  -0.000000   0.000000   0.000000   0.000000   0.000000
    30  F   -0.081729  -0.000000  -0.000000   0.000000   0.000000  -0.000000
    31  F   -0.084216  -0.000000   0.000000  -0.000000  -0.000000   0.000000
    32  F   -0.018256  -0.000000   0.000000  -0.000000  -0.000000   0.000000
              19         20         21         22         23         24
     1  C    0.002433   0.008669  -0.001600  -0.000148   0.000003  -0.000001
     2  C   -0.050625  -0.059176   0.000748   0.000158   0.000027   0.000005
     3  C    0.409949   0.442004  -0.086403   0.002425   0.001862  -0.000032
     4  N   -0.055757  -0.059868   0.228606   0.025436   0.000402   0.001595
     5  C    0.002972  -0.020003   0.040308  -0.014118   0.009222  -0.002148
     6  O    0.000702   0.001195   0.008686   0.007512  -0.001849   0.000036
     7  N    0.000090   0.000874   0.035452   0.223012  -0.014544  -0.011462
     8  C   -0.002734  -0.006243   0.017804   0.003356   0.034187   0.028666
     9  C    0.003124   0.002435  -0.000348   0.051506   0.222157   0.071078
    10  C   -0.001043  -0.001067  -0.000741  -0.130226   0.036096   0.165626
    11  C    0.000009   0.000043   0.000574   0.041896  -0.003230  -0.040089
    12  C    0.000000  -0.000055  -0.000357  -0.003050   0.057271   0.091116
    13  C    0.000510   0.000379   0.000850   0.026290  -0.036272  -0.016413
    14  H   -0.000065  -0.000058  -0.000003  -0.000000   0.000000   0.000000
    15  H   -0.000327   0.002757   0.000001  -0.000000  -0.000000   0.000000
    16  H    0.002660  -0.000327   0.000001  -0.000000  -0.000000   0.000000
    17  H    0.003870  -0.005386   0.000993   0.000002  -0.000000   0.000000
    18  H   -0.005348   0.003896   0.001045   0.000002  -0.000000   0.000000
    19  H    0.492920  -0.034940   0.002784   0.000004  -0.000000   0.000000
    20  H   -0.034940   0.492796   0.002839   0.000005  -0.000000   0.000000
    21  H    0.002784   0.002839   0.346956   0.002709   0.000000   0.000004
    22  H    0.000004   0.000005   0.002709   0.347908  -0.000116   0.006905
    23  H   -0.000000  -0.000000   0.000000  -0.000116   0.417017  -0.000110
    24  H    0.000000   0.000000   0.000004   0.006905  -0.000110   0.497682
    25  H   -0.000000  -0.000000  -0.000000  -0.000011   0.000011  -0.004361
    26  S   -0.000000  -0.000001  -0.000006   0.000405   0.001027   0.005216
    27  H   -0.000000  -0.000000  -0.000000   0.000002  -0.004299   0.000014
    28  F   -0.000000  -0.000000  -0.000000   0.000000   0.000012   0.000057
    29  F   -0.000000   0.000000  -0.000000   0.000000  -0.000000  -0.000001
    30  F   -0.000000  -0.000000  -0.000000   0.000000   0.000019   0.000016
    31  F   -0.000000  -0.000000  -0.000000   0.000000   0.000019   0.000016
    32  F    0.000000  -0.000000  -0.000000   0.000000   0.000012   0.000059
              25         26         27         28         29         30
     1  C    0.000000  -0.000004   0.000000  -0.000000  -0.000000  -0.000000
     2  C    0.000000   0.000002   0.000001  -0.000000   0.000000   0.000000
     3  C    0.000026  -0.000972   0.000044  -0.000004  -0.000000  -0.000008
     4  N    0.000010   0.000738   0.000023   0.000001  -0.000000   0.000000
     5  C    0.003267  -0.049754   0.002214  -0.000824  -0.000079  -0.001405
     6  O   -0.000001   0.000054   0.000190  -0.000001   0.000000   0.000001
     7  N    0.000566   0.002184  -0.000335   0.000027  -0.000009  -0.000024
     8  C    0.006660  -0.558692  -0.019083  -0.019413   0.003852  -0.014486
     9  C   -0.024054  -0.834294  -0.054835   0.013832  -0.012415  -0.044708
    10  C   -0.103318   0.179317  -0.039595  -0.010812   0.004145   0.031552
    11  C    0.359204  -0.290938   0.033387  -0.119878   0.067436  -0.029118
    12  C    0.026823  -0.457127   0.037339   0.118888  -0.182702   0.115442
    13  C    0.020681   0.590750   0.333828  -0.019078   0.082800  -0.081729
    14  H   -0.000000  -0.000000  -0.000000  -0.000000  -0.000000  -0.000000
    15  H    0.000000  -0.000000   0.000000  -0.000000   0.000000  -0.000000
    16  H    0.000000  -0.000000   0.000000  -0.000000   0.000000   0.000000
    17  H   -0.000000  -0.000000   0.000000   0.000000   0.000000   0.000000
    18  H   -0.000000  -0.000000   0.000000  -0.000000   0.000000  -0.000000
    19  H   -0.000000  -0.000000  -0.000000  -0.000000  -0.000000  -0.000000
    20  H   -0.000000  -0.000001  -0.000000  -0.000000   0.000000  -0.000000
    21  H   -0.000000  -0.000006  -0.000000  -0.000000  -0.000000  -0.000000
    22  H   -0.000011   0.000405   0.000002   0.000000   0.000000   0.000000
    23  H    0.000011   0.001027  -0.004299   0.000012  -0.000000   0.000019
    24  H   -0.004361   0.005216   0.000014   0.000057  -0.000001   0.000016
    25  H    0.448228   0.014409  -0.000131   0.000909  -0.000014   0.000134
    26  S    0.014409  14.953605   0.011802   0.064935   0.126230   0.060061
    27  H   -0.000131   0.011802   0.443871   0.000097  -0.000023   0.000988
    28  F    0.000909   0.064935   0.000097   9.491562  -0.025104  -0.007370
    29  F   -0.000014   0.126230  -0.000023  -0.025104   9.420098  -0.024352
    30  F    0.000134   0.060061   0.000988  -0.007370  -0.024352   9.481880
    31  F    0.000134   0.065841   0.000844  -0.018740  -0.023989  -0.030015
    32  F    0.000693   0.072789   0.000094  -0.028600  -0.024913  -0.018933
              31         32
     1  C   -0.000000  -0.000000
     2  C    0.000000  -0.000000
     3  C   -0.000008  -0.000004
     4  N    0.000001   0.000001
     5  C   -0.001444  -0.000906
     6  O    0.000001  -0.000001
     7  N   -0.000026   0.000029
     8  C   -0.016125  -0.022145
     9  C   -0.042803   0.011217
    10  C    0.033494  -0.005466
    11  C   -0.029838  -0.121089
    12  C    0.106036   0.107171
    13  C   -0.084216  -0.018256
    14  H   -0.000000  -0.000000
    15  H    0.000000   0.000000
    16  H   -0.000000  -0.000000
    17  H   -0.000000  -0.000000
    18  H    0.000000   0.000000
    19  H   -0.000000   0.000000
    20  H   -0.000000  -0.000000
    21  H   -0.000000  -0.000000
    22  H    0.000000   0.000000
    23  H    0.000019   0.000012
    24  H    0.000016   0.000059
    25  H    0.000134   0.000693
    26  S    0.065841   0.072789
    27  H    0.000844   0.000094
    28  F   -0.018740  -0.028600
    29  F   -0.023989  -0.024913
    30  F   -0.030015  -0.018933
    31  F    9.486302  -0.006794
    32  F   -0.006794   9.497597
 Mulliken charges:
               1
     1  C   -0.694941
     2  C   -0.353760
     3  C   -0.123707
     4  N   -0.654391
     5  C    0.818382
     6  O   -0.598289
     7  N   -0.620098
     8  C    0.304565
     9  C    1.498100
    10  C   -1.221901
    11  C    0.276887
    12  C   -1.141081
    13  C   -0.689938
    14  H    0.213223
    15  H    0.213238
    16  H    0.213624
    17  H    0.215835
    18  H    0.215900
    19  H    0.228813
    20  H    0.229229
    21  H    0.399099
    22  H    0.408137
    23  H    0.281074
    24  H    0.206525
    25  H    0.250135
    26  S    2.042422
    27  H    0.253563
    28  F   -0.440497
    29  F   -0.410958
    30  F   -0.437945
    31  F   -0.438690
    32  F   -0.442554
 Sum of Mulliken charges =  -0.00000
 Mulliken charges with hydrogens summed into heavy atoms:
               1
     1  C   -0.054857
     2  C    0.077974
     3  C    0.334335
     4  N   -0.255292
     5  C    0.818382
     6  O   -0.598289
     7  N   -0.211962
     8  C    0.304565
     9  C    1.779174
    10  C   -1.015376
    11  C    0.527022
    12  C   -1.141081
    13  C   -0.436375
    26  S    2.042422
    28  F   -0.440497
    29  F   -0.410958
    30  F   -0.437945
    31  F   -0.438690
    32  F   -0.442554
 Electronic spatial extent (au):  <R**2>=          10678.5019
 Charge=             -0.0000 electrons
 Dipole moment (field-independent basis, Debye):
    X=             -7.4383    Y=              4.4075    Z=              0.0017  Tot=              8.6461
 Quadrupole moment (field-independent basis, Debye-Ang):
   XX=           -112.1251   YY=           -111.0105   ZZ=           -123.7962
   XY=            -11.6574   XZ=              0.1202   YZ=             -0.0729
 Traceless Quadrupole moment (field-independent basis, Debye-Ang):
   XX=              3.5188   YY=              4.6334   ZZ=             -8.1523
   XY=            -11.6574   XZ=              0.1202   YZ=             -0.0729
 Octapole moment (field-independent basis, Debye-Ang**2):
  XXX=           -155.1451  YYY=             15.0947  ZZZ=             -0.4022  XYY=             30.8010
  XXY=             42.5907  XXZ=             -0.3532  XZZ=             27.4991  YZZ=             -5.4619
  YYZ=             -0.1858  XYZ=              0.3963
 Hexadecapole moment (field-independent basis, Debye-Ang**3):
 XXXX=         -11471.2832 YYYY=           -665.5492 ZZZZ=           -325.7684 XXXY=           -164.3010
 XXXZ=              0.5298 YYYX=            -67.4605 YYYZ=             -0.2157 ZZZX=             -0.4837
 ZZZY=             -0.1899 XXYY=          -2160.4299 XXZZ=          -2133.8676 YYZZ=           -184.3659
 XXYZ=             -0.3239 YYXZ=              1.1405 ZZXY=              2.0490
 N-N= 1.674803269325D+03 E-N=-6.811396712196D+03  KE= 1.459319770020D+03
 Calling FoFJK, ICntrl=      2127 FMM=F ISym2X=0 I1Cent= 0 IOpClX= 0 NMat=1 NMatS=1 NMatT=0.
 ***** Axes restored to original set *****
 -------------------------------------------------------------------
 Center     Atomic                   Forces (Hartrees/Bohr)
 Number     Number              X              Y              Z
 -------------------------------------------------------------------
      1        6          -0.006195141    0.001436174   -0.000307610
      2        6           0.005291484   -0.005593773    0.000668829
      3        6          -0.005586589    0.006535762   -0.001720385
      4        7           0.010256112   -0.037865134    0.005931362
      5        6          -0.012548414    0.031243837   -0.005414209
      6        8           0.002489457    0.010648516   -0.001310181
      7        7           0.025974641   -0.028533842    0.003893132
      8        6          -0.015302147    0.002397006   -0.000000022
      9        6           0.008187647   -0.005397742    0.000834489
     10        6           0.000896723    0.007948462   -0.001042294
     11        6           0.004527125    0.003904818   -0.000149661
     12        6          -0.023584219   -0.004122620    0.000344012
     13        6           0.007767472   -0.009962334    0.001649301
     14        1           0.006330180    0.009400595   -0.001019175
     15        1          -0.001334459   -0.003491704    0.010196264
     16        1          -0.001057653   -0.006008618   -0.008788049
     17        1           0.000967164    0.004463542    0.008344581
     18        1           0.001152133    0.002160694   -0.008992469
     19        1           0.001467917   -0.004869131   -0.009683786
     20        1           0.001499327   -0.001437463    0.010764972
     21        1          -0.003583298    0.017084687   -0.002479123
     22        1           0.007162013    0.015470963   -0.002422002
     23        1          -0.008515572   -0.001887915    0.000278523
     24        1          -0.000883922   -0.002545069    0.000280467
     25        1           0.001941363   -0.000715181    0.000068227
     26       16           0.007896046    0.003930466   -0.000339689
     27        1           0.000174598    0.001001287   -0.000155713
     28        9           0.003043471    0.039534942    0.033502372
     29        9          -0.061877643   -0.016014105    0.001412766
     30        9           0.019324918   -0.024848710    0.041912296
     31        9           0.020223850   -0.033981493   -0.034234945
     32        9           0.003895413    0.030113082   -0.042022278
 -------------------------------------------------------------------
 Cartesian Forces:  Max     0.061877643 RMS     0.015213463

 GradGradGradGradGradGradGradGradGradGradGradGradGradGradGradGradGradGrad
 Berny optimization.
 FormGI is forming the generalized inverse of G from B-inverse, IUseBI=4.
 GSVD:  received Info=                   1 from GESDD.
 Internal  Forces:  Max     0.063931383 RMS     0.011499435
 Search for a local minimum.
 Step number   1 out of a maximum of  173
 All quantities printed in internal units (Hartrees-Bohrs-Radians)
 Mixed Optimization -- RFO/linear search
 Second derivative matrix not updated -- first step.
 ITU=  0
     Eigenvalues ---    0.00230   0.00323   0.00433   0.01007   0.01173
     Eigenvalues ---    0.01185   0.01477   0.01653   0.01714   0.01950
     Eigenvalues ---    0.01980   0.02040   0.02046   0.02085   0.02101
     Eigenvalues ---    0.02118   0.02129   0.02148   0.02178   0.03751
     Eigenvalues ---    0.04457   0.04932   0.05555   0.05687   0.05795
     Eigenvalues ---    0.08042   0.08693   0.08696   0.09155   0.11982
     Eigenvalues ---    0.12648   0.12862   0.12930   0.12935   0.13034
     Eigenvalues ---    0.15999   0.16000   0.16000   0.16000   0.16000
     Eigenvalues ---    0.16000   0.16000   0.16000   0.16000   0.16742
     Eigenvalues ---    0.21962   0.22000   0.22000   0.22000   0.22002
     Eigenvalues ---    0.22958   0.24000   0.24532   0.24999   0.25000
     Eigenvalues ---    0.25000   0.25000   0.25000   0.25000   0.29103
     Eigenvalues ---    0.29872   0.32346   0.32364   0.32373   0.32401
     Eigenvalues ---    0.32499   0.32532   0.32558   0.34364   0.34370
     Eigenvalues ---    0.34436   0.34441   0.34686   0.35650   0.35655
     Eigenvalues ---    0.35761   0.36573   0.38019   0.39816   0.40701
     Eigenvalues ---    0.41183   0.42416   0.42468   0.44189   0.44681
     Eigenvalues ---    0.45301   0.46303   0.51408   0.52305   0.94993
 RFO step:  Lambda=-5.90173003D-02 EMin= 2.30000000D-03
 Linear search not attempted -- first point.
 Maximum step size (   0.300) exceeded in Quadratic search.
    -- Step size scaled by   0.716
 Iteration  1 RMS(Cart)=  0.04351678 RMS(Int)=  0.00061239
 Iteration  2 RMS(Cart)=  0.00093359 RMS(Int)=  0.00022915
 Iteration  3 RMS(Cart)=  0.00000087 RMS(Int)=  0.00022915
 Variable       Old X    -DE/DX   Delta X   Delta X   Delta X     New X
                                 (Linear)    (Quad)   (Total)
    R1        2.88219   0.00260   0.00000   0.00521   0.00521   2.88740
    R2        2.09835  -0.01099   0.00000  -0.02044  -0.02044   2.07792
    R3        2.09941  -0.01057   0.00000  -0.01970  -0.01970   2.07971
    R4        2.09881  -0.01038   0.00000  -0.01932  -0.01932   2.07948
    R5        2.89790  -0.00546   0.00000  -0.01117  -0.01117   2.88673
    R6        2.10167  -0.00905   0.00000  -0.01692  -0.01692   2.08474
    R7        2.10116  -0.00893   0.00000  -0.01668  -0.01668   2.08448
    R8        2.74338  -0.00089   0.00000  -0.00145  -0.00145   2.74193
    R9        2.10215  -0.01045   0.00000  -0.01955  -0.01955   2.08260
   R10        2.10183  -0.01027   0.00000  -0.01920  -0.01920   2.08263
   R11        2.57609   0.00053   0.00000   0.00065   0.00065   2.57674
   R12        1.95097  -0.01720   0.00000  -0.02547  -0.02547   1.92550
   R13        2.30713   0.01078   0.00000   0.00765   0.00765   2.31478
   R14        2.58471   0.01370   0.00000   0.01711   0.01711   2.60182
   R15        2.71804  -0.03407   0.00000  -0.05332  -0.05332   2.66472
   R16        1.95032  -0.01639   0.00000  -0.02425  -0.02425   1.92607
   R17        2.67486  -0.01537   0.00000  -0.02245  -0.02247   2.65239
   R18        2.65662  -0.00545   0.00000  -0.00744  -0.00745   2.64916
   R19        2.64785  -0.01037   0.00000  -0.01474  -0.01476   2.63309
   R20        2.03195   0.00414   0.00000   0.00697   0.00697   2.03892
   R21        2.63332  -0.00865   0.00000  -0.01147  -0.01146   2.62186
   R22        2.04624   0.00269   0.00000   0.00464   0.00464   2.05088
   R23        2.64777  -0.01207   0.00000  -0.01679  -0.01676   2.63100
   R24        2.04457   0.00186   0.00000   0.00319   0.00319   2.04776
   R25        2.65634  -0.01444   0.00000  -0.02069  -0.02068   2.63566
   R26        3.44113  -0.00758   0.00000  -0.01781  -0.01781   3.42332
   R27        2.04632   0.00103   0.00000   0.00177   0.00177   2.04809
   R28        3.23711  -0.05031   0.00000  -0.08938  -0.08938   3.14772
   R29        3.23188  -0.06393   0.00000  -0.11270  -0.11270   3.11918
   R30        3.23601  -0.05091   0.00000  -0.09030  -0.09030   3.14571
   R31        3.23592  -0.05070   0.00000  -0.08992  -0.08992   3.14601
   R32        3.23719  -0.05016   0.00000  -0.08914  -0.08914   3.14806
    A1        1.91223   0.00349   0.00000   0.01202   0.01196   1.92419
    A2        1.92484   0.00223   0.00000   0.00701   0.00698   1.93182
    A3        1.92516   0.00241   0.00000   0.00751   0.00748   1.93264
    A4        1.89639  -0.00260   0.00000  -0.00782  -0.00787   1.88852
    A5        1.89814  -0.00275   0.00000  -0.00846  -0.00852   1.88962
    A6        1.90662  -0.00293   0.00000  -0.01077  -0.01079   1.89584
    A7        1.94201  -0.00078   0.00000  -0.00054  -0.00053   1.94147
    A8        1.89913   0.00147   0.00000   0.00703   0.00703   1.90615
    A9        1.90315   0.00119   0.00000   0.00539   0.00539   1.90854
   A10        1.90859  -0.00021   0.00000  -0.00151  -0.00152   1.90707
   A11        1.91302  -0.00020   0.00000  -0.00192  -0.00193   1.91110
   A12        1.89736  -0.00148   0.00000  -0.00860  -0.00862   1.88873
   A13        1.93402  -0.00346   0.00000  -0.00733  -0.00731   1.92671
   A14        1.91131   0.00210   0.00000   0.00720   0.00720   1.91850
   A15        1.90169   0.00274   0.00000   0.01056   0.01056   1.91224
   A16        1.90919   0.00063   0.00000   0.00027   0.00028   1.90947
   A17        1.90366   0.00065   0.00000   0.00141   0.00142   1.90508
   A18        1.90370  -0.00267   0.00000  -0.01226  -0.01229   1.89141
   A19        2.13187  -0.00725   0.00000  -0.01859  -0.01859   2.11328
   A20        2.07483  -0.00015   0.00000  -0.00302  -0.00302   2.07181
   A21        2.07643   0.00739   0.00000   0.02161   0.02161   2.09804
   A22        2.08471   0.01450   0.00000   0.03359   0.03359   2.11830
   A23        2.08040  -0.02388   0.00000  -0.05529  -0.05530   2.02511
   A24        2.11805   0.00938   0.00000   0.02173   0.02172   2.13977
   A25        2.23805  -0.00837   0.00000  -0.02147  -0.02147   2.21658
   A26        2.02505   0.00933   0.00000   0.02754   0.02754   2.05259
   A27        2.02009  -0.00096   0.00000  -0.00607  -0.00607   2.01402
   A28        2.17853  -0.00746   0.00000  -0.01788  -0.01786   2.16066
   A29        2.04747  -0.00072   0.00000  -0.00226  -0.00224   2.04522
   A30        2.05719   0.00818   0.00000   0.02014   0.02010   2.07730
   A31        2.10419  -0.00461   0.00000  -0.01153  -0.01157   2.09262
   A32        2.15116  -0.00550   0.00000  -0.01974  -0.01972   2.13144
   A33        2.02782   0.01011   0.00000   0.03128   0.03130   2.05912
   A34        2.11907  -0.00336   0.00000  -0.00668  -0.00668   2.11239
   A35        2.09840   0.00141   0.00000   0.00247   0.00247   2.10086
   A36        2.06571   0.00195   0.00000   0.00422   0.00422   2.06993
   A37        2.10713  -0.00870   0.00000  -0.02082  -0.02078   2.08635
   A38        2.07057   0.00528   0.00000   0.01347   0.01345   2.08402
   A39        2.10548   0.00341   0.00000   0.00736   0.00734   2.11281
   A40        2.06912   0.01237   0.00000   0.02905   0.02908   2.09821
   A41        2.09787  -0.00490   0.00000  -0.01153  -0.01155   2.08632
   A42        2.11614  -0.00748   0.00000  -0.01750  -0.01752   2.09862
   A43        2.10961  -0.00389   0.00000  -0.01013  -0.01013   2.09948
   A44        2.07317   0.00187   0.00000   0.00481   0.00481   2.07798
   A45        2.10039   0.00202   0.00000   0.00533   0.00532   2.10572
   A46        1.58277   0.00979   0.00000   0.03731   0.03727   1.62004
   A47        1.58337   0.00939   0.00000   0.03643   0.03640   1.61977
   A48        1.57855   0.01038   0.00000   0.03929   0.03925   1.61781
   A49        1.57895   0.01071   0.00000   0.03995   0.03991   1.61885
   A50        1.56128  -0.01023   0.00000  -0.03895  -0.03892   1.52236
   A51        1.55663   0.00305   0.00000   0.00950   0.00811   1.56474
   A52        1.58501  -0.00358   0.00000  -0.01158  -0.01305   1.57196
   A53        1.56065  -0.00974   0.00000  -0.03772  -0.03768   1.52297
   A54        1.56059  -0.00994   0.00000  -0.03764  -0.03761   1.52298
   A55        1.56021  -0.01036   0.00000  -0.03865  -0.03862   1.52159
   A56        1.58497  -0.00340   0.00000  -0.01073  -0.01217   1.57281
   A57        1.55615   0.00311   0.00000   0.00972   0.00819   1.56434
   A58        3.14404  -0.00044   0.00000  -0.00165  -0.00165   3.14240
   A59        3.16132   0.02017   0.00000   0.07660   0.07653   3.23785
   A60        3.16232   0.02010   0.00000   0.07637   0.07630   3.23863
   A61        3.14399  -0.00033   0.00000  -0.00125  -0.00125   3.14274
   A62        3.14133  -0.00009   0.00000  -0.00045  -0.00041   3.14092
   A63        3.14189  -0.00008   0.00000  -0.00039  -0.00042   3.14148
    D1        3.13563   0.00009   0.00000   0.00079   0.00079   3.13641
    D2        1.03161  -0.00012   0.00000  -0.00159  -0.00159   1.03003
    D3       -1.03538   0.00013   0.00000   0.00161   0.00161  -1.03377
    D4        1.04900  -0.00027   0.00000  -0.00145  -0.00146   1.04755
    D5       -1.05501  -0.00048   0.00000  -0.00382  -0.00383  -1.05884
    D6       -3.12201  -0.00023   0.00000  -0.00062  -0.00063  -3.12264
    D7       -1.05857   0.00038   0.00000   0.00256   0.00257  -1.05600
    D8        3.12060   0.00017   0.00000   0.00018   0.00020   3.12080
    D9        1.05360   0.00042   0.00000   0.00339   0.00340   1.05700
   D10       -3.12912  -0.00030   0.00000  -0.00223  -0.00223  -3.13135
   D11        1.04640  -0.00025   0.00000  -0.00259  -0.00258   1.04382
   D12       -1.03453   0.00012   0.00000   0.00172   0.00171  -1.03282
   D13       -1.03069   0.00091   0.00000   0.00520   0.00519  -1.02550
   D14       -3.13836   0.00095   0.00000   0.00484   0.00484  -3.13351
   D15        1.06390   0.00132   0.00000   0.00915   0.00913   1.07303
   D16        1.04769  -0.00114   0.00000  -0.00736  -0.00736   1.04033
   D17       -1.05998  -0.00109   0.00000  -0.00772  -0.00770  -1.06768
   D18       -3.14091  -0.00073   0.00000  -0.00341  -0.00341   3.13887
   D19        3.11452   0.00033   0.00000   0.00208   0.00208   3.11660
   D20       -0.01513   0.00024   0.00000   0.00128   0.00128  -0.01385
   D21       -1.05975   0.00115   0.00000   0.00656   0.00656  -1.05319
   D22        2.09378   0.00106   0.00000   0.00576   0.00576   2.09955
   D23        1.02111  -0.00133   0.00000  -0.00734  -0.00734   1.01377
   D24       -2.10855  -0.00142   0.00000  -0.00814  -0.00813  -2.11668
   D25        0.01022   0.00008   0.00000   0.00058   0.00058   0.01080
   D26       -3.12426  -0.00033   0.00000  -0.00307  -0.00308  -3.12734
   D27        3.13986   0.00012   0.00000   0.00122   0.00122   3.14108
   D28        0.00538  -0.00029   0.00000  -0.00244  -0.00244   0.00294
   D29        3.13233   0.00030   0.00000   0.00272   0.00271   3.13504
   D30       -0.00630   0.00028   0.00000   0.00247   0.00246  -0.00384
   D31       -0.00201  -0.00013   0.00000  -0.00105  -0.00105  -0.00306
   D32       -3.14064  -0.00015   0.00000  -0.00130  -0.00129   3.14125
   D33        0.01183  -0.00005   0.00000  -0.00047  -0.00047   0.01137
   D34       -3.13165  -0.00001   0.00000  -0.00004  -0.00004  -3.13169
   D35       -3.13272  -0.00001   0.00000  -0.00017  -0.00017  -3.13289
   D36        0.00698   0.00003   0.00000   0.00025   0.00025   0.00724
   D37        3.13128   0.00021   0.00000   0.00186   0.00186   3.13314
   D38       -0.00418   0.00002   0.00000   0.00020   0.00022  -0.00396
   D39       -0.00841   0.00017   0.00000   0.00145   0.00145  -0.00696
   D40        3.13932  -0.00002   0.00000  -0.00020  -0.00019   3.13913
   D41       -3.13223  -0.00017   0.00000  -0.00153  -0.00153  -3.13375
   D42        0.00493  -0.00005   0.00000  -0.00040  -0.00039   0.00453
   D43        0.00761  -0.00015   0.00000  -0.00118  -0.00116   0.00644
   D44       -3.13843  -0.00002   0.00000  -0.00004  -0.00003  -3.13846
   D45        0.00045   0.00004   0.00000   0.00014   0.00013   0.00058
   D46       -3.13521  -0.00016   0.00000  -0.00163  -0.00165  -3.13686
   D47        3.13633   0.00017   0.00000   0.00152   0.00153   3.13786
   D48        0.00066  -0.00003   0.00000  -0.00025  -0.00024   0.00043
   D49        0.00125  -0.00010   0.00000  -0.00071  -0.00070   0.00055
   D50        3.13663   0.00014   0.00000   0.00135   0.00136   3.13799
   D51       -3.13598  -0.00022   0.00000  -0.00182  -0.00181  -3.13780
   D52       -0.00060   0.00002   0.00000   0.00024   0.00025  -0.00036
   D53       -0.00929   0.00028   0.00000   0.00224   0.00223  -0.00706
   D54        3.12206   0.00036   0.00000   0.00355   0.00356   3.12562
   D55        3.13864   0.00004   0.00000   0.00012   0.00012   3.13876
   D56       -0.01319   0.00012   0.00000   0.00143   0.00144  -0.01175
   D57        0.00843  -0.00023   0.00000  -0.00192  -0.00192   0.00652
   D58       -3.13918  -0.00003   0.00000  -0.00012  -0.00012  -3.13930
   D59       -3.12281  -0.00033   0.00000  -0.00328  -0.00329  -3.12610
   D60        0.01276  -0.00013   0.00000  -0.00148  -0.00149   0.01127
   D61        0.80381  -0.00180   0.00000  -0.00638  -0.00635   0.79747
   D62        2.36059   0.00148   0.00000   0.00402   0.00402   2.36461
   D63       -2.33752  -0.00171   0.00000  -0.00593  -0.00594  -2.34346
   D64       -0.78130   0.00157   0.00000   0.00441   0.00443  -0.77687
   D65       -2.34830  -0.00160   0.00000  -0.00475  -0.00474  -2.35304
   D66       -0.79151   0.00169   0.00000   0.00564   0.00562  -0.78590
   D67        0.79356  -0.00151   0.00000  -0.00430  -0.00434   0.78922
   D68        2.34978   0.00177   0.00000   0.00603   0.00604   2.35581
         Item               Value     Threshold  Converged?
 Maximum Force            0.063931     0.000450     NO 
 RMS     Force            0.011499     0.000300     NO 
 Maximum Displacement     0.244631     0.001800     NO 
 RMS     Displacement     0.043960     0.001200     NO 
 Predicted change in Energy=-2.979627D-02
 GradGradGradGradGradGradGradGradGradGradGradGradGradGradGradGradGradGrad

                          Input orientation:                          
 ---------------------------------------------------------------------
 Center     Atomic      Atomic             Coordinates (Angstroms)
 Number     Number       Type             X           Y           Z
 ---------------------------------------------------------------------
      1          6           0       -2.101775    1.944447   -0.018434
      2          6           0       -0.760117    1.223965    0.105951
      3          6           0        0.406667    2.202959   -0.011174
      4          7           0        1.670546    1.498314    0.095575
      5          6           0        2.857319    2.161573   -0.008989
      6          8           0        2.897331    3.373145   -0.184905
      7          7           0        3.992311    1.388595    0.090706
      8          6           0        5.329218    1.829497    0.008919
      9          6           0        5.698981    3.170258   -0.179970
     10          6           0        6.332486    0.857519    0.127122
     11          6           0        7.674620    1.204075    0.067665
     12          6           0        8.031886    2.537740   -0.111513
     13          6           0        7.047175    3.517235   -0.238818
     14          1           0       -2.929164    1.224780    0.062796
     15          1           0       -2.181770    2.451872   -0.991726
     16          1           0       -2.216911    2.693856    0.779089
     17          1           0       -0.680155    0.465311   -0.690979
     18          1           0       -0.711307    0.707797    1.079569
     19          1           0        0.341891    2.961447    0.785722
     20          1           0        0.360537    2.717280   -0.984787
     21          1           0        1.657894    0.489951    0.241387
[...]
 013028,0.00003498,-0.00001070,0.00005613,-0.00001263,-0.00009447,-0.00
 010916,0.00000145,-0.00018662,0.00146522,0.00085472,-0.00032312,-0.001
 12078,0.00088499,0.00016996,0.00075509,-0.00022354,0.00391434,-0.00098
 741,0.00086620,-0.00682007,-0.01561312,0.00272468,-0.07275156,-0.32903
 636,0.04080887,-0.00000169,-0.00000021,-0.00000002,0.00000021,0.000000
 72,0.00000021,0.00000036,0.00000040,-0.00000051,0.00000046,-0.00000095
 ,-0.00000032,0.00000002,-0.00000061,0.00000009,-0.00000405,0.00000274,
 -0.00000064,-0.00000237,0.00000195,0.00000114,0.00000326,0.00000421,-0
 .00000128,-0.00002747,0.00003148,-0.00003529,0.00005578,0.00063877,-0.
 00073677,-0.00004646,-0.00006369,-0.00008349,-0.00047570,-0.00067232,0
 .00016757,0.00035320,-0.00354267,0.00055770,0.07902892,0.34533173,-0.0
 0000015,-0.00000011,0.00000202,0.00000091,-0.00000043,0.00000081,-0.00
 000041,0.00000819,0.00002174,0.00000341,-0.00000919,-0.00003099,-0.000
 03836,0.00002801,0.00008764,-0.00005518,-0.00000952,0.00002421,-0.0000
 0575,-0.00003289,-0.00006195,0.00018062,0.00088043,0.00752788,0.000090
 65,0.00120556,0.00475299,-0.00007468,-0.00020156,-0.00087665,-0.000396
 33,0.00088834,0.00548175,0.00087946,0.00239744,0.00308820,0.01037741,0
 .04098883,-0.04507111,-0.00000016,-0.00000012,0.00000006,-0.00000041,0
 .00000118,-0.00000091,0.00000068,-0.00000097,-0.00000136,-0.00000092,-
 0.00000272,-0.00000119,0.00000025,0.00000184,-0.00000154,0.00000220,-0
 .00000084,-0.00000364,-0.00000129,-0.00000093,-0.00000021,0.00000032,-
 0.00000422,-0.00000126,0.00000123,-0.00003962,-0.00024019,0.00005997,-
 0.00081301,-0.00454581,-0.00000434,-0.00008193,-0.00064142,0.00006763,
 0.00014992,0.00048650,-0.00000256,0.00053927,0.00053589,-0.01157044,-0
 .04498200,0.03297569,-0.00001521,-0.00007338,0.00000600,-0.00001489,0.
 00012810,0.00000383,0.00041695,-0.00024518,0.00009851,-0.00140666,-0.0
 0042170,-0.00013886,0.00288232,-0.00111790,0.00011418,-0.00081053,0.00
 053297,-0.00009064,-0.00375330,-0.00004428,0.00019999,0.00236221,0.002
 32949,-0.00024975,-0.00273366,-0.00066372,-0.00127765,-0.00014048,0.00
 045318,-0.00027399,-0.00367904,0.00071102,0.00194293,-0.01169482,0.023
 64764,0.01677279,-0.00068277,-0.00504226,0.00370271,-0.00005677,-0.000
 00868,-0.00000121,0.00000935,0.00001714,-0.00000541,0.00000756,0.00001
 649,0.00000367,0.00001067,-0.00000828,-0.00000153,-0.00000136,-0.00001
 407,0.00000158,-0.00009895,0.00006601,0.00002092,-0.00001359,0.0000252
 2,0.00000602,0.00006843,0.00016130,0.00003485,-0.00005174,0.00014550,0
 .00000206,-0.00027391,-0.00036668,-0.00026466,-0.00022423,-0.00022007,
 0.00000332,-0.00155782,-0.00006939,0.00066783,-0.08666099,0.03403777,0
 .03191585,0.00017233,0.00012170,0.00040681,0.09800540,0.00000843,0.000
 02608,-0.00000322,0.00000077,-0.00005283,-0.00000591,-0.00014029,0.000
 06788,-0.00004236,0.00053586,0.00024792,0.00007160,-0.00110160,0.00018
 922,-0.00006505,0.00036020,-0.00004499,0.00004031,0.00156755,0.0002720
 3,-0.00018017,-0.00148717,-0.00010752,-0.00014933,0.00015106,-0.000414
 94,0.00067704,0.00099215,0.00159231,0.00087151,0.00059261,-0.00339889,
 0.00144091,-0.00444333,-0.00738673,-0.00643488,0.00264193,0.00259011,-
 0.00151177,0.00002238,0.00000392,-0.00000042,-0.00000437,-0.00000725,-
 0.00000093,-0.00000497,-0.00000348,0.00000371,-0.00000241,0.00000774,0
 .00000785,0.00000213,0.00000620,-0.00000474,0.00003191,-0.00001898,0.0
 0000161,0.00000367,-0.00001177,-0.00000659,-0.00001474,-0.00008038,-0.
 00003812,0.00008247,-0.00009026,-0.00002401,0.00020444,0.00025031,0.00
 007664,0.00038464,0.00010668,0.00000868,-0.00038493,0.00147178,-0.0011
 7548,0.03143657,-0.14415492,-0.06631860,-0.00074794,0.00028132,-0.0002
 0364,-0.02812813,0.20866509,0.00000832,0.00003436,-0.00000458,0.000006
 47,-0.00006148,-0.00001205,-0.00018505,0.00010547,-0.00006783,0.000651
 67,0.00022971,0.00009560,-0.00130381,0.00041201,-0.00007292,0.00044766
 ,-0.00017379,0.00010435,0.00168436,0.00001519,-0.00001556,-0.00118204,
 -0.00048652,-0.00018475,0.00085973,-0.00106411,0.00065587,0.00055469,0
 .00010731,0.00040658,0.00219329,0.00008899,-0.00004115,-0.00085335,-0.
 01560408,-0.00177336,0.00323707,0.00383340,-0.00178700,0.00002680,0.00
 000388,-0.00000093,-0.00000368,-0.00001098,0.00000347,-0.00000495,-0.0
 0000417,0.00000210,-0.00000329,0.00000991,0.00000590,0.00000057,0.0000
 0303,0.00000254,0.00003995,-0.00002496,-0.00000243,0.00000841,-0.00001
 559,-0.00000311,-0.00003326,-0.00008367,-0.00004215,0.00002271,-0.0000
 6990,-0.00006437,0.00026108,0.00030854,0.00007567,0.00023339,0.0001177
 5,-0.00008368,0.00089265,-0.00004074,-0.00124534,0.03056148,-0.0655860
 4,-0.12270234,-0.00022302,-0.00003379,-0.00034694,-0.02823094,0.103143
 93,0.16473116,-0.00000918,-0.00005302,0.00000383,-0.00000741,0.0000875
 1,0.,0.00031065,-0.00017855,0.00006786,-0.00098349,-0.00028696,-0.0000
 6997,0.00193614,-0.00060302,0.00006238,-0.00056624,0.00029630,-0.00005
 019,-0.00219609,0.00011165,0.00003000,0.00152854,0.00041999,-0.0001013
 6,-0.00040699,-0.00057030,0.00008045,-0.00075095,0.00016747,-0.0000243
 8,0.00009687,0.00059262,-0.00008755,-0.00278113,-0.00164476,0.00027793
 ,0.00055051,-0.00003038,0.00002637,-0.00004348,-0.00000891,-0.00000114
 ,0.00000778,0.00001316,-0.00000447,0.00000611,0.00001397,0.00000416,0.
 00000828,-0.00000450,0.00000041,-0.00000196,-0.00001038,0.00000102,-0.
 00006813,0.00004770,0.00001548,-0.00000346,0.00001966,0.00000237,0.000
 05207,0.00010558,0.00002331,0.00001997,0.00006880,-0.00000712,0.000062
 55,-0.00004241,0.00001350,-0.00015780,-0.00011893,0.00002232,0.0001168
 3,0.00025885,-0.00003800,-0.20223343,-0.03405616,0.00596948,0.00039663
 ,-0.00031852,0.00003383,-0.01313610,-0.01906728,-0.00891224,0.30397688
 ,-0.00000100,-0.00001405,0.00000056,-0.00000511,0.00001935,0.00000100,
 0.00008338,-0.00005606,0.00001320,-0.00024328,-0.00002969,-0.00001633,
 0.00051261,-0.00033117,0.00005718,-0.00013041,0.00019402,-0.00003456,-
 0.00061572,0.00012494,-0.00000504,0.00033178,0.00037395,-0.00007684,-0
 .00061541,0.00012470,-0.00000683,0.00015901,0.00053574,-0.00007966,0.0
 0077607,-0.00051974,0.00009769,-0.00172253,0.00339174,-0.00004732,-0.0
 0019532,-0.00098875,0.00017547,-0.00000943,-0.00000102,-0.00000035,0.0
 0000084,0.00000320,-0.00000337,0.00000020,0.00000377,0.00000339,0.0000
 0283,0.00000064,0.00000320,0.,-0.00000089,-0.00000324,-0.00002006,0.00
 001362,0.00000835,-0.00000348,0.00000399,-0.00000160,0.00001790,0.0000
 1739,-0.00000206,0.00002897,0.00000709,-0.00000469,-0.00004957,-0.0000
 4268,0.00000011,0.00003273,-0.00001461,-0.00000532,0.00019832,0.000470
 28,-0.00010208,-0.03410856,-0.07477165,0.00157902,-0.00024078,0.000201
 58,-0.00006312,-0.03735528,-0.02804685,-0.01967945,0.05148246,0.111853
 77,0.00000052,0.00000246,-0.00000187,0.00000051,-0.00000360,-0.0000054
 9,-0.00001145,0.00000448,-0.00001752,0.00003766,0.00001110,0.00002061,
 -0.00009070,0.00007052,-0.00004966,0.00001820,-0.00003820,0.00005378,0
 .00011059,-0.00001510,0.00006380,-0.00005875,-0.00006750,-0.00010795,0
 .00007989,-0.00002166,0.00000013,-0.00000771,-0.00007560,0.00003043,-0
 .00011023,0.00010398,0.00022678,0.00030052,-0.00004804,0.00293796,0.00
 002762,0.00017637,0.00023571,0.00000200,0.00000032,-0.00000074,0.00000
 031,-0.00000259,0.00000185,-0.00000094,0.00000141,0.00000145,0.0000003
 5,0.00000349,0.00000206,-0.00000011,-0.00000277,0.00000335,0.00000050,
 0.00000156,0.00000282,0.00000228,-0.00000282,0.00000140,-0.00000545,-0
 .00000996,-0.00001459,-0.00000375,-0.00000668,-0.00003584,0.00000592,-
 0.00000108,-0.00005444,-0.00000416,-0.00000444,-0.00005459,-0.00003125
 ,-0.00010814,-0.00028081,0.00598343,0.00149999,-0.06635041,0.00002842,
 -0.00006474,-0.00028003,-0.02251747,-0.02399109,-0.00237765,-0.0090730
 8,-0.00235419,0.09906776,-0.00001017,-0.00005256,0.00000331,-0.0000105
 2,0.00008968,0.00000053,0.00030153,-0.00017868,0.00006576,-0.00099963,
 -0.00026582,-0.00009577,0.00206939,-0.00088535,0.00016820,-0.00053730,
 0.00046077,-0.00009463,-0.00265133,0.00011865,0.00004468,0.00213262,-0
 .00090677,0.00009280,0.00083394,-0.00070612,0.00043970,-0.00238056,-0.
 00070545,-0.00084122,-0.00151466,0.00357425,0.00170525,-0.00259685,-0.
 01831535,0.01630527,-0.00354327,0.00004094,0.00232103,-0.00004097,-0.0
 0000650,-0.00000104,0.00000686,0.00001198,-0.00000400,0.00000523,0.000
 01282,0.00000394,0.00000783,-0.00000459,0.00000016,-0.00000106,-0.0000
 1044,0.00000106,-0.00007207,0.00004809,0.00001665,-0.00000871,0.000019
 04,0.00000298,0.00005464,0.00011145,0.00001913,-0.00000357,0.00009327,
 -0.00003950,0.00008582,0.00003967,0.00000228,-0.00041190,-0.00017535,-
 0.00021813,-0.00007738,-0.00023093,0.00034874,-0.07185648,0.00026485,-
 0.00158576,-0.00130991,-0.00135008,0.00041745,0.00523629,0.01544479,-0
 .00514169,-0.03719191,0.02132532,-0.03949041,0.09709940,-0.00000721,-0
 .00004962,0.00000649,-0.00001757,0.00008020,0.00000436,0.00028018,-0.0
 0018389,0.00006534,-0.00092152,-0.00014414,-0.00010295,0.00209288,-0.0
 0143619,0.00033341,-0.00044313,0.00080492,-0.00021526,-0.00310749,0.00
 040030,0.00010288,0.00239148,0.00005959,0.00012309,-0.00096547,0.00066
 071,-0.00092611,-0.00124084,-0.00041817,-0.00101645,-0.00353527,0.0028
 2284,0.00179602,0.00420827,-0.00967177,0.01598485,-0.00009304,-0.00382
 870,0.00062389,-0.00003354,-0.00000226,-0.00000053,0.00000281,0.000012
 12,-0.00000957,0.00000224,0.00000965,0.00000589,0.00000881,-0.00000429
 ,0.00000459,0.00000047,-0.00000319,-0.00000835,-0.00007264,0.00004343,
 0.00002023,-0.00001872,0.00001611,-0.00000273,0.00005973,0.00009569,0.
 00001236,0.00007460,0.00009529,-0.00000896,-0.00022908,-0.00015714,-0.
 00001450,-0.00054977,-0.00015897,-0.00021219,0.00047066,0.00053394,0.0
 0017862,0.00232981,-0.12452156,0.07505296,-0.00072369,0.00123673,0.000
 61897,0.00859367,-0.03875643,0.01641508,0.00696555,0.00472914,0.008573
 04,-0.01915878,0.15806949,0.00000714,0.00004342,-0.00000737,0.00001402
 ,-0.00006981,-0.00001236,-0.00023588,0.00014793,-0.00008565,0.00079770
 ,0.00015718,0.00012599,-0.00176281,0.00110462,-0.00029735,0.00042872,-
 0.00060975,0.00024714,0.00246136,-0.00028054,0.00000259,-0.00168815,-0
 .00034257,-0.00022301,0.00080659,-0.00004278,0.00061073,0.00039089,0.0
 0134543,0.00054345,0.00563498,-0.00247955,-0.00134098,-0.00963287,0.01
 378143,-0.00822440,0.00189439,0.00199499,-0.00021854,0.00003019,0.0000
 0239,-0.00000059,-0.00000198,-0.00001353,0.00000918,-0.00000361,-0.000
 00564,-0.00000138,-0.00000587,0.00000973,0.00000075,-0.00000056,-0.000
 00050,0.00001025,0.00005634,-0.00003331,-0.00000991,0.00001764,-0.0000
 1774,0.00000225,-0.00005627,-0.00009086,-0.00003072,-0.00006011,-0.000
 07226,-0.00003604,0.00017172,0.00011708,-0.00008840,0.00066360,0.00016
 125,0.00015177,-0.00031523,-0.00031538,-0.00035870,-0.00261060,0.07365
 498,-0.15983578,0.00101983,-0.00019823,-0.00143828,0.00111401,-0.00473
 967,0.00805712,-0.02155821,0.01244213,-0.01108429,0.02634413,-0.104375
 68,0.21939196,-0.00001024,-0.00005407,0.00000509,-0.00000948,0.0000915
 6,-0.00000080,0.00030436,-0.00017984,0.00006750,-0.00101346,-0.0002615
 7,-0.00007059,0.00212437,-0.00092885,0.00012028,-0.00054305,0.00048551
 ,-0.00011053,-0.00273625,0.00012559,0.00005411,0.00220040,-0.00094206,
 -0.00003830,0.00082482,-0.00073107,-0.00015777,-0.00242297,-0.00044057
 ,0.00103915,-0.00158079,0.00308651,-0.00261637,-0.00281486,-0.02228464
 ,-0.01112807,-0.00343024,-0.00069986,-0.00212834,-0.00004156,-0.000006
 68,-0.00000119,0.00000680,0.00001245,-0.00000458,0.00000523,0.00001279
 ,0.00000365,0.00000895,-0.00000484,0.00000044,-0.00000206,-0.00001050,
 0.00000122,-0.00007437,0.00004759,0.00001474,-0.00000784,0.00002031,0.
 00000253,0.00005291,0.00011109,0.00002177,0.00000313,0.00009680,0.0000
 2738,0.00008330,0.00003735,0.00000964,-0.00041735,-0.00010887,0.000284
 20,-0.00007922,-0.00031243,-0.00028567,-0.07181315,-0.00096183,-0.0004
 8533,-0.00096881,-0.00131086,0.00006628,0.00846559,0.00060535,-0.00039
 633,-0.03607387,0.03037218,0.03342926,0.00894901,0.00027492,-0.0006321
 9,0.09575625,-0.00000831,-0.00005923,0.00000268,-0.00002129,0.00009561
 ,-0.00000096,0.00034089,-0.00022904,0.00005065,-0.00111752,-0.00017169
 ,-0.00005773,0.00248948,-0.00164792,0.00019976,-0.00053205,0.00092409,
 -0.00012585,-0.00365191,0.00040500,-0.00006623,0.00274728,0.00008772,-
 0.00038627,-0.00112573,0.00087967,0.00091064,-0.00130233,-0.00040131,0
 .00126671,-0.00480063,0.00269324,-0.00278640,0.00600921,-0.01673960,-0
 .01382420,-0.00060349,-0.00417399,0.00055419,-0.00003965,-0.00000256,-
 0.00000175,0.00000461,0.00001064,-0.00000824,0.00000125,0.00001529,0.0
 0001087,0.00001207,0.00000191,0.00000929,0.00000003,-0.00001043,-0.000
 00441,-0.00009485,0.00005888,0.00003123,-0.00001555,0.00001821,-0.0000
 0234,0.00006402,0.00010330,-0.00000430,0.00008794,0.00009481,-0.000021
 63,-0.00027810,-0.00016463,0.00006966,-0.00068954,-0.00011894,0.000310
 25,0.00053158,0.00049721,-0.00042811,0.00147072,-0.16308737,-0.0741742
 2,-0.00108489,0.00096779,-0.00130280,0.00391887,-0.00085940,-0.0052632
 0,0.01208631,-0.00160612,-0.01144455,0.00054357,0.00802992,0.00440187,
 -0.02274947,0.21309699,-0.00000410,-0.00002860,-0.00000266,-0.00000977
 ,0.00004517,-0.00000545,0.00016276,-0.00011254,0.00001230,-0.00053895,
 -0.00009402,0.00000737,0.00113193,-0.00061755,0.00000060,-0.00029925,0
 .00034789,0.00001712,-0.00153014,0.00015005,0.00006361,0.00099320,0.00
 024724,-0.00032390,-0.00053663,-0.00000403,0.00037860,-0.00004165,-0.0
 0107367,0.00055717,-0.00450777,0.00136765,-0.00115397,0.00820305,-0.01
 110793,-0.00087225,-0.00172445,-0.00089539,0.00034501,-0.00001897,-0.0
 0000122,-0.00000170,0.00000292,0.00000259,-0.00000136,-0.00000034,0.00
 000967,0.00000686,0.00000683,0.00000506,0.00000655,-0.00000075,-0.0000
 0951,0.00000237,-0.00004812,0.00003292,0.00001844,-0.00000269,0.000007
 63,0.00000208,0.00002439,0.00003904,-0.00001903,0.00004527,0.00002603,
 -0.00004343,-0.00011620,-0.00008809,-0.00005106,-0.00049301,-0.0000821
 3,0.00013616,0.00017735,0.00008031,-0.00033927,0.00008171,-0.07263333,
 -0.12086698,-0.00064118,-0.00037475,-0.00108839,0.00213561,-0.00446253
 ,0.00114575,0.01971657,-0.01565429,-0.00604954,-0.00081888,-0.01809184
 ,-0.04454994,-0.01821770,0.10641531,0.16470515,-0.00001481,-0.00007369
 ,0.00000499,-0.00001393,0.00012771,-0.00000101,0.00042038,-0.00025285,
 0.00009607,-0.00142493,-0.00041804,-0.00008382,0.00292531,-0.00113615,
 0.00015275,-0.00077289,0.00053887,-0.00012283,-0.00378595,-0.00007232,
 0.00002952,0.00233825,0.00228566,-0.00053171,-0.00270023,-0.00019077,0
 .00146538,-0.00012633,0.00050652,0.00008387,-0.00391051,0.00006151,-0.
 00202216,-0.01202748,0.01903884,-0.02216648,-0.00095809,-0.00595883,-0
 .00216291,-0.00005691,-0.00000874,-0.00000195,0.00000946,0.00001578,-0
 .00000449,0.00000702,0.00001800,0.00000493,0.00001195,-0.00000579,0.00
 000033,-0.00000248,-0.00001646,0.00000431,-0.00010419,0.00006749,0.000
 02023,-0.00000817,0.00002739,0.00000403,0.00005832,0.00016209,0.000032
 81,-0.00004962,0.00013617,-0.00005216,-0.00030186,-0.00026322,0.000408
 81,-0.00022808,-0.00021480,0.00006742,-0.00169185,-0.00027185,-0.00065
 363,-0.08860436,0.02658192,-0.04029561,0.00017816,-0.00000322,-0.00043
 813,0.00936974,0.00045823,0.00478336,-0.01245822,-0.03000864,0.0313774
 9,0.00843565,0.00336168,-0.00328891,0.00525447,0.00780748,-0.00313104,
 0.10023219,0.00000590,0.00001616,-0.00000130,-0.00000090,-0.00003512,0
 .00000529,-0.00009068,0.00004174,-0.00002284,0.00035900,0.00017017,0.0
 0001420,-0.00074554,0.00009570,0.00006801,0.00021954,0.00000284,-0.000
 00764,0.00109111,0.00029306,-0.00002387,-0.00113192,0.00002010,0.00019
 889,-0.00006669,-0.00026071,-0.00045585,0.00075705,0.00130485,-0.00111
 406,-0.00007929,-0.00369811,-0.00049647,-0.00395185,-0.00173117,0.0065
 8682,0.00177172,0.00178710,0.00055928,0.00001445,0.00000281,0.00000106
 ,-0.00000386,-0.00000215,-0.00000309,-0.00000300,-0.00000465,0.0000014
 1,-0.00000154,0.00000243,0.00000338,0.00000137,0.00000808,-0.00000800,
 0.00002391,-0.00001623,0.00000046,-0.00000079,-0.00000588,-0.00000485,
 -0.00000107,-0.00005250,-0.00001239,0.00007869,-0.00005757,0.00003053,
 0.00014277,0.00013460,-0.00013232,0.00031442,0.00006071,-0.00006087,-0
 .00073574,0.00158829,0.00035163,0.02450640,-0.11025237,0.06248181,-0.0
 0066457,0.00030784,0.00004164,-0.00112706,0.00765700,-0.01662611,-0.01
 574350,-0.01564564,0.02781403,0.00075362,0.00163624,0.00432336,0.01660
 800,-0.03870807,0.01655488,-0.02229996,0.15534046,-0.00000845,-0.00003
 759,-0.00000058,-0.00000554,0.00006729,-0.00001144,0.00021061,-0.00013
 101,0.00003574,-0.00074515,-0.00024657,-0.00000174,0.00146745,-0.00037
 491,-0.00006476,-0.00048671,0.00014237,0.00001463,-0.00192210,-0.00009
 621,0.00011798,0.00145430,0.00033428,-0.00040661,-0.00077350,0.0013392
 8,0.00047820,-0.00077749,-0.00036053,0.00069608,-0.00216340,0.00089047
 ,0.00023375,0.00221417,0.01509702,-0.00714133,-0.00386863,-0.00460527,
 -0.00070394,-0.00002881,-0.00000431,-0.00000251,0.00000608,0.00000423,
 0.00000194,0.00000244,0.00001237,0.00000383,0.00000694,0.00000142,0.00
 000235,-0.00000237,-0.00001533,0.00001038,-0.00005698,0.00004086,0.000
 01254,0.00000173,0.00001166,0.00000641,0.00001526,0.00007525,-0.000004
 18,-0.00003885,0.00005989,-0.00009241,-0.00031268,-0.00029659,0.000230
 10,-0.00032113,-0.00015106,-0.00002681,-0.00082583,-0.00074918,-0.0013
 5661,-0.03849506,0.06170329,-0.15457615,0.00040359,-0.00015095,-0.0003
 5349,-0.00610137,0.00301472,-0.04445797,0.01357645,0.02375902,-0.01588
 448,0.00002799,0.00506305,-0.00130950,0.00112652,-0.00432991,0.0079638
 0,0.03642055,-0.10006703,0.21658682\\-0.00000149,0.00000106,-0.0000037
 3,0.00000145,-0.00000447,0.00000260,-0.00000165,0.00000354,0.00000022,
 0.00001748,0.00000605,-0.00000202,-0.00000813,-0.00002005,0.00001664,0
 .00000093,0.00000860,-0.00000942,-0.00001461,-0.00000147,-0.00000953,-
 0.00000015,0.00002798,-0.00000120,-0.00001962,-0.00001852,0.00000603,0
 .00001966,-0.00000435,-0.00000040,-0.00001374,-0.00001959,0.00000944,-
 0.00000420,0.00002037,-0.00000396,0.00002501,-0.00000430,-0.00000270,0
 .00000135,-0.00000037,0.00000315,-0.00000035,-0.00000374,-0.00000191,0
 .00000020,0.00000266,-0.00000117,0.00000205,0.00000035,0.00000133,-0.0
 0000171,0.00000199,0.00000317,0.00000239,-0.00000251,-0.00000125,0.000
 00155,-0.00000187,-0.00000278,-0.00000408,0.00000342,0.00000161,0.0000
 0269,-0.00000121,0.00000582,0.00000167,0.00000092,-0.00000527,-0.00000
 194,0.00000112,0.00000397,0.00000171,0.00000289,0.00000226,-0.00001597
 ,0.00001617,-0.00000702,-0.00000230,-0.00000032,-0.00000398,0.00000142
 ,-0.00000116,0.00000454,0.00001539,-0.00000368,-0.00000306,-0.00000219
 ,-0.00000671,-0.00000295,-0.00000146,-0.00000022,-0.00000134,-0.000001
 33,-0.00000258,0.00000291\\\@


 A leading authority is anyone who has guessed right more than once.
 -- Frank A. Clark
 Job cpu time:       0 days  3 hours 12 minutes  4.6 seconds.
 File lengths (MBytes):  RWF=    562 Int=      0 D2E=      0 Chk=     12 Scr=      1
 Normal termination of Gaussian 09 at Tue Oct 30 14:59:23 2018.
WARNING: pbs_rusage is deprecated and values produced may not be accurate


=============================================================================
                                     Resource usage:
                                       CPU time:              15:01:45
   JobId:    1827663.r-man2            Elapsed time:          03:47:23
   Project:             q95            Requested time:        38:00:00
   Service Units:     15.16 
                                       Max physical memory:      764MB
                                       Max virtual memory:      1669MB
                                       Requested memory:           0MB

                                       Number of cpus:               4

                                       Max jobfs disk use:       0.5GB
                                       Requested jobfs:         16.0GB
=============================================================================

