 Entering Gaussian System, Link 0=/apps/gaussian/g09e01/g09/g09
 AtFile(1): /home/507/hio507/Basis/6-31pGd.gbs
 Initial command:
 /apps/gaussian/g09e01/g09/l1.exe "/jobfs/local/6128545.r-man2/Gau-56512.inp" -scrdir="/jobfs/local/6128545.r-man2/"
 Entering Link 1 = /apps/gaussian/g09e01/g09/l1.exe PID=     56513.
  
 Copyright (c) 1988,1990,1992,1993,1995,1998,2003,2009,2015,
            Gaussian, Inc.  All Rights Reserved.
  
 This is part of the Gaussian(R) 09 program.  It is based on
 the Gaussian(R) 03 system (copyright 2003, Gaussian, Inc.),
 the Gaussian(R) 98 system (copyright 1998, Gaussian, Inc.),
 the Gaussian(R) 94 system (copyright 1995, Gaussian, Inc.),
 the Gaussian 92(TM) system (copyright 1992, Gaussian, Inc.),
 the Gaussian 90(TM) system (copyright 1990, Gaussian, Inc.),
 the Gaussian 88(TM) system (copyright 1988, Gaussian, Inc.),
 the Gaussian 86(TM) system (copyright 1986, Carnegie Mellon
 University), and the Gaussian 82(TM) system (copyright 1983,
 Carnegie Mellon University). Gaussian is a federally registered
 trademark of Gaussian, Inc.
  
 This software contains proprietary and confidential information,
 including trade secrets, belonging to Gaussian, Inc.
  
 This software is provided under written license and may be
 used, copied, transmitted, or stored only in accord with that
 written license.
  
 The following legend is applicable only to US Government
 contracts under FAR:
  
                    RESTRICTED RIGHTS LEGEND
  
 Use, reproduction and disclosure by the US Government is
 subject to restrictions as set forth in subparagraphs (a)
 and (c) of the Commercial Computer Software - Restricted
 Rights clause in FAR 52.227-19.
  
 Gaussian, Inc.
 340 Quinnipiac St., Bldg. 40, Wallingford CT 06492
  
  
 ---------------------------------------------------------------
 Warning -- This program may not be used in any manner that
 competes with the business of Gaussian, Inc. or will provide
 assistance to any competitor of Gaussian, Inc.  The licensee
 of this program is prohibited from giving any competitor of
 Gaussian, Inc. access to this program.  By using this program,
 the user acknowledges that Gaussian, Inc. is engaged in the
 business of creating and licensing software in the field of
 computational chemistry and represents and warrants to the
 licensee that it is not a competitor of Gaussian, Inc. and that
 it will not use this program in any manner prohibited above.
 ---------------------------------------------------------------
  

 Cite this work as:
 Gaussian 09, Revision E.01,
 M. J. Frisch, G. W. Trucks, H. B. Schlegel, G. E. Scuseria, 
 M. A. Robb, J. R. Cheeseman, G. Scalmani, V. Barone, B. Mennucci, 
 G. A. Petersson, H. Nakatsuji, M. Caricato, X. Li, H. P. Hratchian, 
 A. F. Izmaylov, J. Bloino, G. Zheng, J. L. Sonnenberg, M. Hada, 
 M. Ehara, K. Toyota, R. Fukuda, J. Hasegawa, M. Ishida, T. Nakajima, 
 Y. Honda, O. Kitao, H. Nakai, T. Vreven, J. A. Montgomery, Jr., 
 J. E. Peralta, F. Ogliaro, M. Bearpark, J. J. Heyd, E. Brothers, 
 K. N. Kudin, V. N. Staroverov, T. Keith, R. Kobayashi, J. Normand, 
 K. Raghavachari, A. Rendell, J. C. Burant, S. S. Iyengar, J. Tomasi, 
 M. Cossi, N. Rega, J. M. Millam, M. Klene, J. E. Knox, J. B. Cross, 
 V. Bakken, C. Adamo, J. Jaramillo, R. Gomperts, R. E. Stratmann, 
 O. Yazyev, A. J. Austin, R. Cammi, C. Pomelli, J. W. Ochterski, 
 R. L. Martin, K. Morokuma, V. G. Zakrzewski, G. A. Voth, 
 P. Salvador, J. J. Dannenberg, S. Dapprich, A. D. Daniels, 
 O. Farkas, J. B. Foresman, J. V. Ortiz, J. Cioslowski, 
 and D. J. Fox, Gaussian, Inc., Wallingford CT, 2013.
 
 ******************************************
 Gaussian 09:  ES64L-G09RevE.01 30-Nov-2015
                25-Feb-2019 
 ******************************************
 %chk=4SF5_EtO.M062X_6-31pGd_bsse.chk
 %mem=196608000
 %nproc=4
 Will use up to    4 processors via shared memory.
 ----------------------------------------------------------------------
 # M062X/Gen 6D SCF=Tight INT(grid=ultrafine) Counterpoise=2 maxdisk=67
 1088640
 ----------------------------------------------------------------------
 1/38=1,62=2/1;
 2/12=2,17=6,18=5,40=1/2;
 1/38=1,53=2,62=2,63=1/22;
 3/5=7,8=2,11=2,16=1,25=1,30=1,74=-55,75=-5/1,2,3;
 4//1;
 5/5=2,32=2,38=5/2;
 6/7=2,8=2,9=2,10=2,28=1/1;
 1/53=2,62=2,63=1/22;
 3/5=7,6=11,8=2,11=2,16=1,25=1,30=1,74=-55,75=-5,82=7/1,2,3;
 4//1;
 5/5=2,32=2,38=5/2;
 6/7=2,8=2,9=2,10=2,28=1/1;
 1/53=2,62=2,63=1/22(-4);
 99/5=1,9=1/99;
 ---------------------------
 4SF5_EtO.M062X_6-31pGd_bsse
 ---------------------------
 Symbolic Z-matrix:
 Charge = -1 Multiplicity = 1 in supermolecule
 Charge =  0 Multiplicity = 1 in fragment      1.
 Charge = -1 Multiplicity = 1 in fragment      2.
 C(Fragment=1)        -2.1513    2.30951  -0.05735 
 C(Fragment=1)        -0.79539   1.65672   0.20067 
 C(Fragment=1)         0.35486   2.55581  -0.23948 
 N(Fragment=1)         1.61546   1.88836  -0.00825 
 C(Fragment=1)         2.78016   2.55828  -0.16371 
 O(Fragment=1)         2.84271   3.75577  -0.45302 
 N(Fragment=1)         3.89398   1.75057   0.0459 
 C(Fragment=1)         5.21631   2.11554  -0.03301 
 C(Fragment=1)         5.67769   3.41137  -0.34597 
 C(Fragment=1)         6.16683   1.09941   0.22283 
 C(Fragment=1)         7.52303   1.36327   0.16989 
 C(Fragment=1)         7.95404   2.65304  -0.14204 
 C(Fragment=1)         7.04123   3.67046  -0.39875 
 H(Fragment=1)        -2.97364   1.66297   0.26612 
 H(Fragment=1)        -2.2903    2.51906  -1.12461 
 H(Fragment=1)        -2.24036   3.26087   0.4808 
 H(Fragment=1)        -0.72425   0.6965   -0.32357 
 H(Fragment=1)        -0.67799   1.42733   1.26661 
 H(Fragment=1)         0.33766   3.50337   0.31464 
 H(Fragment=1)         0.24322   2.81618  -1.30403 
 H(Fragment=1)         1.60581   0.8648    0.16126 
 H(Fragment=1)         3.72328   0.74956   0.28383 
 H(Fragment=1)         4.95952   4.19517  -0.54284 
 H(Fragment=1)         5.80581   0.10194   0.46202 
 H(Fragment=1)         8.23776   0.57217   0.36928 
 S(Fragment=1)         9.71218   3.00293  -0.21295 
 H(Fragment=1)         7.38574   4.6703   -0.6408 
 F(Fragment=1)         10.04794   1.65159  -1.04291 
 F(Fragment=1)         11.30432   3.3181   -0.27646 
 F(Fragment=1)         9.59426   3.82825  -1.60356 
 F(Fragment=1)         9.57122   4.39364   0.60837 
 F(Fragment=1)         10.02437   2.21649   1.16983 
 O(Fragment=2)         1.44411  -0.88138   0.43568 
 O(Fragment=2)         3.67755  -0.94125   0.66043 
 C(Fragment=2)         2.5333   -1.47136   0.65039 
 C(Fragment=2)         2.44532  -2.98104   0.92645 
 C(Fragment=2)         3.78889  -3.65867   1.16546 
 H(Fragment=2)         1.92067  -3.43276   0.0755 
 H(Fragment=2)         1.7793   -3.11052   1.78862 
 H(Fragment=2)         4.44362  -3.53468   0.29797 
 H(Fragment=2)         3.66393  -4.7312    1.35888 
 H(Fragment=2)         4.30233  -3.20711   2.01919 
 
                          Input orientation:                          
 ---------------------------------------------------------------------
 Center     Atomic      Atomic             Coordinates (Angstroms)
 Number     Number       Type             X           Y           Z
 ---------------------------------------------------------------------
      1          6           0       -2.151297    2.309514   -0.057353
      2          6           0       -0.795393    1.656722    0.200670
      3          6           0        0.354858    2.555810   -0.239482
      4          7           0        1.615462    1.888359   -0.008255
      5          6           0        2.780158    2.558279   -0.163711
      6          8           0        2.842706    3.755774   -0.453021
      7          7           0        3.893981    1.750571    0.045898
      8          6           0        5.216311    2.115541   -0.033010
      9          6           0        5.677687    3.411367   -0.345972
     10          6           0        6.166828    1.099412    0.222830
     11          6           0        7.523033    1.363271    0.169893
     12          6           0        7.954038    2.653036   -0.142042
     13          6           0        7.041232    3.670461   -0.398755
     14          1           0       -2.973644    1.662975    0.266124
     15          1           0       -2.290296    2.519062   -1.124606
     16          1           0       -2.240360    3.260868    0.480797
     17          1           0       -0.724249    0.696503   -0.323566
     18          1           0       -0.677994    1.427328    1.266606
     19          1           0        0.337655    3.503370    0.314637
     20          1           0        0.243216    2.816182   -1.304035
     21          1           0        1.605814    0.864802    0.161260
     22          1           0        3.723278    0.749561    0.283835
     23          1           0        4.959523    4.195166   -0.542840
     24          1           0        5.805811    0.101940    0.462020
     25          1           0        8.237758    0.572167    0.369280
     26         16           0        9.712177    3.002933   -0.212949
     27          1           0        7.385740    4.670302   -0.640801
     28          9           0       10.047940    1.651594   -1.042912
     29          9           0       11.304319    3.318104   -0.276460
     30          9           0        9.594261    3.828246   -1.603560
     31          9           0        9.571221    4.393639    0.608369
     32          9           0       10.024372    2.216488    1.169825
     33          8           0        1.444105   -0.881383    0.435685
     34          8           0        3.677554   -0.941252    0.660429
     35          6           0        2.533299   -1.471364    0.650390
     36          6           0        2.445318   -2.981040    0.926448
     37          6           0        3.788895   -3.658671    1.165460
     38          1           0        1.920668   -3.432763    0.075500
     39          1           0        1.779302   -3.110518    1.788623
     40          1           0        4.443619   -3.534682    0.297966
     41          1           0        3.663926   -4.731198    1.358881
     42          1           0        4.302326   -3.207106    2.019192
 ---------------------------------------------------------------------
                    Distance matrix (angstroms):
                    1          2          3          4          5
     1  C    0.000000
     2  C    1.526823   0.000000
     3  C    2.524806   1.524851   0.000000
     4  N    3.790548   2.430952   1.445019   0.000000
     5  C    4.938870   3.705421   2.426484   1.352581   0.000000
     6  O    5.214239   4.250776   2.770361   2.278417   1.233533
     7  N    6.071940   4.692865   3.640775   2.283323   1.391737
     8  C    7.370202   6.033715   4.885714   3.608094   2.479505
     9  C    7.911408   6.728920   5.392201   4.351469   3.025997
    10  C    8.410354   6.984526   6.009478   4.625016   3.707728
    11  C    9.723152   8.323657   7.278219   5.933536   4.902469
    12  C   10.111527   8.812641   7.600427   6.385936   5.174794
    13  C    9.298996   8.113393   6.780517   5.724278   4.410096
    14  H    1.094945   2.179243   3.483062   4.602822   5.838884
    15  H    1.096477   2.175942   2.789559   4.110836   5.160849
    16  H    1.096637   2.177082   2.784074   4.121931   5.110247
    17  H    2.170056   1.096315   2.151410   2.644653   3.971477
    18  H    2.168350   1.096641   2.146755   2.664162   3.909433
    19  H    2.785418   2.169538   1.097822   2.084540   2.662298
    20  H    2.746747   2.164993   1.101604   2.103084   2.793372
    21  H    4.031237   2.528732   2.141260   1.037545   2.086278
    22  H    6.087733   4.609582   3.857804   2.413518   2.088357
    23  H    7.372594   6.333685   4.897188   4.097546   2.751867
    24  H    8.273978   6.786866   6.018844   4.579463   3.947116
    25  H   10.541957   9.099588   8.151414   6.762374   5.832163
    26  S   11.884741  10.601528   9.368033   8.175633   6.946441
    27  H    9.842195   8.759034   7.352920   6.437036   5.089169
    28  F   12.256654  10.914413   9.768263   8.499016   7.376702
    29  F   13.495143  12.222556  10.976027   9.797452   8.558702
    30  F   11.943845  10.766414   9.425835   8.364771   7.079406
    31  F   11.924939  10.729567   9.435984   8.363656   7.076948
    32  F   12.237709  10.877495   9.777565   8.497371   7.373858
    33  O    4.832373   3.393017   3.668325   2.810324   3.738394
    34  O    6.712540   5.193082   4.907096   3.564556   3.705569
    35  C    6.061467   4.589919   4.664291   3.544570   4.118462
    36  C    7.077195   5.704191   6.032091   5.027264   5.655495
    37  C    8.508841   7.085190   7.237835   6.072146   6.436981
    38  H    7.040760   5.770226   6.197902   5.330526   6.057106
    39  H    6.945069   5.645992   6.184620   5.314545   6.078535
    40  H    8.818946   7.376137   7.355333   6.123857   6.332806
    41  H    9.240896   7.876071   8.161200   7.062847   7.499054
    42  H    8.740388   7.276715   7.341342   6.106844   6.349939
                    6          7          8          9         10
     6  O    0.000000
     7  N    2.318391   0.000000
     8  C    2.915609   1.374041   0.000000
     9  C    2.857830   2.468485   1.410666   0.000000
    10  C    4.308459   2.370896   1.414728   2.430624   0.000000
    11  C    5.293161   3.651767   2.434758   2.804660   1.382648
    12  C    5.238173   4.163392   2.792121   2.407992   2.396039
    13  C    4.199743   3.713339   2.425259   1.388946   2.785901
    14  H    6.223095   6.871713   8.207903   8.847433   9.157931
    15  H    5.322424   6.340815   7.596287   8.055510   8.680665
    16  H    5.191774   6.332478   7.561595   7.962517   8.684426
    17  H    4.700964   4.751379   6.114601   6.953832   6.924436
    18  H    4.557862   4.743159   6.074987   6.850657   6.931708
    19  H    2.632164   3.973912   5.084114   5.381525   6.306084
    20  H    2.892129   4.035583   5.180549   5.550280   6.353566
    21  H    3.203898   2.456339   3.825935   4.829330   4.567459
    22  H    3.218024   1.042964   2.048278   3.361783   2.469221
    23  H    2.163804   2.730941   2.156549   1.081137   3.409916
    24  H    4.792473   2.558562   2.155726   3.409043   1.087426
    25  H    6.318079   4.512385   3.416575   3.889293   2.142005
    26  S    6.914770   5.957082   4.586137   4.057293   4.047567
    27  H    4.637972   4.603126   3.406264   2.142262   3.870770
    28  F    7.529339   6.250322   4.957801   4.762524   4.119471
    29  F    8.474764   7.581174   6.210416   5.627834   5.618336
    30  F    6.849269   6.287340   4.956453   4.134594   4.746529
    31  F    6.841515   6.287546   4.956443   4.127375   4.752942
    32  F    7.521925   6.249959   4.957262   4.755948   4.126173
    33  O    4.924338   3.616767   4.840534   6.079631   5.125716
    34  O    4.898856   2.769548   3.491793   4.894759   3.248428
    35  C    5.351282   3.549328   4.531168   5.892451   4.471491
    36  C    6.888070   5.026145   5.879975   7.275310   5.567298
    37  C    7.647793   5.524886   6.067568   7.472443   5.402080
    38  H    7.266674   5.546331   6.454202   7.818884   6.212261
    39  H    7.300805   5.580246   6.514835   7.892331   6.278981
    40  H    7.501843   5.319732   5.712410   7.084150   4.944686
    41  H    8.716999   6.617415   7.157171   8.559388   6.446017
    42  H    7.531534   5.351560   5.777324   7.161690   5.024876
                   11         12         13         14         15
    11  C    0.000000
    12  C    1.395193   0.000000
    13  C    2.424586   1.390780   0.000000
    14  H   10.501396  10.980030  10.235712   0.000000
    15  H    9.965592  10.292219   9.430271   1.770305   0.000000
    16  H    9.950949  10.231479   9.332167   1.771173   1.769206
    17  H    8.288892   8.897957   8.315814   2.518250   2.532962
    18  H    8.274281   8.831683   8.209234   2.515254   3.083715
    19  H    7.498709   7.677299   6.743500   3.788682   3.153793
    20  H    7.568300   7.799592   6.911031   3.760781   2.557178
    21  H    5.938184   6.602252   6.142403   4.649679   4.423766
    22  H    3.850683   4.658747   4.472852   6.758950   6.424789
    23  H    3.885769   3.392038   2.151648   8.366693   7.463756
    24  H    2.150615   3.389375   3.873182   8.919307   8.596908
    25  H    1.084635   2.161472   3.408955  11.264814  10.810274
    26  S    2.761777   1.794020   2.759359  12.765385  12.046768
    27  H    3.407716   2.154318   1.084875  10.825127   9.924091
    28  F    2.815881   2.489755   3.678458  13.087221  12.368964
    29  F    4.280038   3.418299   4.279372  14.383813  13.644464
    30  F    3.675762   2.491482   2.827438  12.889389  11.966038
    31  F    3.683811   2.491604   2.817468  12.843180  12.133129
    32  F    2.825692   2.489548   3.670640  13.041145  12.530244
    33  O    6.485559   7.430015   7.262465   5.100884   5.286142
    34  O    4.509896   5.643686   5.805523   7.153733   7.125683
    35  C    5.758774   6.857335   6.918130   6.348083   6.507010
    36  C    6.725222   7.951760   8.192744   7.167150   7.542148
    37  C    6.336785   7.674349   8.169494   8.652205   8.964673
    38  H    7.375456   8.572388   8.769315   7.068038   7.388958
    39  H    7.458252   8.664490   8.857438   6.906137   7.532643
    40  H    5.786980   7.127728   7.690715   9.057176   9.166087
    41  H    7.310879   8.670914   9.224063   9.280996   9.704986
    42  H    5.889075   7.235136   7.787746   8.929203   9.280901
                   16         17         18         19         20
    16  H    0.000000
    17  H    3.085704   0.000000
    18  H    2.533842   1.750683   0.000000
    19  H    2.594722   3.068134   2.499548   0.000000
    20  H    3.090554   2.527914   3.063615   1.761035   0.000000
    21  H    4.542719   2.385911   2.598846   2.931517   2.794933
    22  H    6.473827   4.489125   4.560307   4.364270   4.347768
    23  H    7.332057   6.677873   6.535795   4.751369   4.972381
    24  H    8.644077   6.603963   6.666614   6.441442   6.436500
    25  H   10.818157   8.989609   9.001507   8.426539   8.470437
    26  S   11.975432  10.688819  10.612600   9.402683   9.533445
    27  H    9.793176   9.036793   8.898252   7.207641   7.409001
    28  F   12.486544  10.838345  10.974053   9.978058   9.877099
    29  F   13.565952  12.311030  12.228324  10.984145  11.120065
    30  F   12.030159  10.858998  10.932588   9.458846   9.410422
    31  F   11.866460  10.978798  10.690120   9.281034   9.651805
    32  F   12.328388  10.957801  10.731858   9.809174  10.106960
    33  O    5.543967   2.787103   3.244053   4.523820   4.259196
    34  O    7.260288   4.798578   4.994838   5.570382   5.456382
    35  C    6.723883   4.032351   4.369729   5.448078   5.239018
    36  C    7.817647   5.013283   5.413362   6.845738   6.590303
    37  C    9.203299   6.446177   6.769838   7.995610   7.784213
    38  H    7.891966   4.919926   5.638462   7.118501   6.615609
    39  H    7.646088   5.022202   5.186795   6.927806   6.859291
    40  H    9.533547   6.707912   7.196577   8.148214   7.780956
    41  H    9.975207   7.179599   7.535796   8.942183   8.703754
    42  H    9.327813   6.781823   6.844555   7.978383   7.987503
                   21         22         23         24         25
    21  H    0.000000
    22  H    2.124137   0.000000
    23  H    4.778540   3.752850   0.000000
    24  H    4.279298   2.188175   4.298889   0.000000
    25  H    6.641656   4.518772   4.970403   2.478726   0.000000
    26  S    8.391946   6.418052   4.911005   4.912336   2.901986
    27  H    6.966540   5.444335   2.474243   4.958056   4.305915
    28  F    8.563794   6.524973   5.710676   4.760453   2.536968
    29  F   10.013556   8.023935   6.410666   6.412695   4.166646
    30  F    8.701257   6.892677   4.768705   5.701257   4.041565
    31  F    8.723548   6.898047   4.757355   5.711253   4.054495
    32  F    8.585824   6.529980   5.700972   4.771641   2.556687
    33  O    1.774999   2.806718   6.251962   4.471252   6.947729
    34  O    2.793403   1.732848   5.429004   2.378465   4.813593
    35  C    2.560692   2.546158   6.278529   3.635946   6.065962
    36  C    4.010084   3.995437   7.744544   4.584035   6.818217
    37  C    5.122115   4.496007   8.122279   4.324925   6.190822
    38  H    4.309936   4.559018   8.234214   5.266675   7.485413
    39  H    4.299020   4.576422   8.301960   5.319073   7.568908
    40  H    5.237107   4.344402   7.792539   3.886837   5.591672
    41  H    6.081557   5.585514   9.218193   5.362019   7.072831
    42  H    5.225276   4.359125   7.860632   3.954116   5.700241
                   26         27         28         29         30
    26  S    0.000000
    27  H    2.894043   0.000000
    28  F    1.621016   4.044947   0.000000
    29  F    1.624279   4.161303   2.223329   0.000000
    30  F    1.621371   2.552161   2.293025   2.223901   0.000000
    31  F    1.621263   2.532448   3.236171   2.223360   2.283162
    32  F    1.621118   4.032610   2.283827   2.223413   3.236421
    33  O    9.158038   8.202625   9.090006  10.740887   9.631416
    34  O    7.261960   6.850794   7.085623   8.785638   7.929766
    35  C    8.502998   7.933059   8.312038  10.036376   9.111715
    36  C    9.482268   9.241595   9.118089  10.936549  10.191894
    37  C    9.020103   9.250495   8.500087  10.355488   9.870343
    38  H   10.109847   9.799988   9.651637  11.565077  10.696987
    39  H   10.213280   9.893200   9.953174  11.675517  10.987581
    40  H    8.411846   8.766934   7.752666   9.713900   9.184641
    41  H    9.943278  10.307222   9.341536  11.217897  10.826311
    42  H    8.533084   8.867725   8.123763   9.842575   9.519721
                   31         32         33         34         35
    31  F    0.000000
    32  F    2.293592   0.000000
    33  O    9.690494   9.151871   0.000000
    34  O    7.949785   7.107243   2.245526   0.000000
    35  C    9.161461   8.365778   1.257187   1.261126   0.000000
    36  C   10.259900   9.193236   2.377358   2.397897   1.537228
    37  C    9.929015   8.567303   3.707282   2.766193   2.574127
    38  H   10.957530   9.938893   2.620379   3.104258   2.133753
    39  H   10.882066   9.835704   2.629038   3.095464   2.133287
    40  H    9.447059   8.061073   4.007000   2.728391   2.833868
    41  H   10.895965   9.421324   4.538829   3.853792   3.522328
    42  H    9.355372   7.929603   4.010723   2.714898   2.831232
                   36         37         38         39         40
    36  C    0.000000
    37  C    1.523650   0.000000
    38  H    1.097007   2.174700   0.000000
    39  H    1.097127   2.174228   1.748890   0.000000
    40  H    2.166730   1.093884   2.534790   3.082298   0.000000
    41  H    2.176019   1.096970   2.524272   2.522516   1.779076
    42  H    2.166489   1.093792   3.082394   2.535378   1.757808
                   41         42
    41  H    0.000000
    42  H    1.779444   0.000000
 Stoichiometry    C13H18F5N2O3S(1-)
 Framework group  C1[X(C13H18F5N2O3S)]
 Deg. of freedom   120
 Full point group                 C1      NOp   1
 Largest Abelian subgroup         C1      NOp   1
 Largest concise Abelian subgroup C1      NOp   1
                         Standard orientation:                         
 ---------------------------------------------------------------------
 Center     Atomic      Atomic             Coordinates (Angstroms)
 Number     Number       Type             X           Y           Z
 ---------------------------------------------------------------------
      1          6           0        7.024476   -2.706796    0.048654
      2          6           0        5.915888   -1.663438    0.165379
      3          6           0        4.540995   -2.272600   -0.087132
      4          7           0        3.526481   -1.247352    0.000661
      5          6           0        2.215986   -1.581531   -0.019437
      6          8           0        1.811533   -2.746142   -0.060720
      7          7           0        1.379737   -0.469721    0.019239
      8          6           0        0.005763   -0.458199    0.011966
      9          6           0       -0.809859   -1.608263   -0.033743
     10          6           0       -0.613983    0.812857    0.054230
     11          6           0       -1.991315    0.933971    0.051841
     12          6           0       -2.776060   -0.218694    0.006000
     13          6           0       -2.192920   -1.480586   -0.036966
     14          1           0        8.008932   -2.266042    0.237038
     15          1           0        7.042878   -3.150778   -0.953745
     16          1           0        6.877751   -3.521100    0.768371
     17          1           0        6.083000   -0.843102   -0.542455
     18          1           0        5.923601   -1.207101    1.162534
     19          1           0        4.327182   -3.060116    0.647249
     20          1           0        4.519323   -2.756177   -1.076685
     21          1           0        3.825930   -0.254807   -0.040343
     22          1           0        1.831303    0.469907    0.050267
     23          1           0       -0.346211   -2.584405   -0.065920
     24          1           0        0.019391    1.696152    0.087752
     25          1           0       -2.449519    1.916508    0.085018
     26         16           0       -4.563862   -0.069500    0.002254
     27          1           0       -2.811249   -2.371284   -0.072758
     28          9           0       -4.559874    1.132935   -1.084864
     29          9           0       -6.182364    0.067333   -0.000793
     30          9           0       -4.752204   -1.149482   -1.192321
     31          9           0       -4.766149   -1.256120    1.088306
     32          9           0       -4.573132    1.026776    1.196456
     33          8           0        4.475442    1.394951   -0.124338
     34          8           0        2.359764    2.119987    0.077195
     35          6           0        3.603328    2.296189   -0.036560
     36          6           0        4.117204    3.744565   -0.071328
     37          6           0        3.026245    4.804117    0.021790
     38          1           0        4.699080    3.856479   -0.994539
     39          1           0        4.838622    3.848041    0.748755
     40          1           0        2.316888    4.701605   -0.804579
     41          1           0        3.451144    5.815090   -0.005374
     42          1           0        2.455333    4.689755    0.947728
 ---------------------------------------------------------------------
 Rotational constants (GHZ):      0.3530971      0.0819006      0.0684261
 Counterpoise: doing full dimer calculation.
 General basis read from cards:  (6D, 7F)
 There are   496 symmetry adapted cartesian basis functions of A   symmetry.
 There are   496 symmetry adapted basis functions of A   symmetry.
   496 basis functions,   864 primitive gaussians,   496 cartesian basis functions
    98 alpha electrons       98 beta electrons
       nuclear repulsion energy      2399.7153477756 Hartrees.
 NAtoms=   42 NActive=   42 NUniq=   42 SFac= 1.00D+00 NAtFMM=   60 NAOKFM=F Big=F
 Integral buffers will be    131072 words long.
 Raffenetti 2 integral format.
 Two-electron integral symmetry is turned on.
 One-electron integrals computed using PRISM.
 NBasis=   496 RedAO= T EigKep=  1.79D-06  NBF=   496
 NBsUse=   494 1.00D-06 EigRej=  8.69D-07 NBFU=   494
 ExpMin= 4.05D-02 ExpMax= 2.19D+04 ExpMxC= 3.30D+03 IAcc=3 IRadAn=         5 AccDes= 0.00D+00
 Harris functional with IExCor= 1009 and IRadAn=       5 diagonalized for initial guess.
 HarFok:  IExCor= 1009 AccDes= 0.00D+00 IRadAn=         5 IDoV= 1 UseB2=F ITyADJ=14
 ICtDFT=  3500011 ScaDFX=  1.000000  1.000000  1.000000  1.000000
 FoFCou: FMM=F IPFlag=           0 FMFlag=      100000 FMFlg1=           0
         NFxFlg=           0 DoJE=T BraDBF=F KetDBF=T FulRan=T
         wScrn=  0.000000 ICntrl=     500 IOpCl=  0 I1Cent=   200000004 NGrid=           0
         NMat0=    1 NMatS0=      1 NMatT0=    0 NMatD0=    1 NMtDS0=    0 NMtDT0=    0
 Petite list used in FoFCou.
 Requested convergence on RMS density matrix=1.00D-08 within 128 cycles.
 Requested convergence on MAX density matrix=1.00D-06.
 Requested convergence on             energy=1.00D-06.
 No special actions if energy rises.
 SCF Done:  E(RM062X) =  -1738.33944640     A.U. after   15 cycles
            NFock= 15  Conv=0.52D-08     -V/T= 2.0070

 **********************************************************************

            Population analysis using the SCF density.

 **********************************************************************

 Orbital symmetries:
       Occupied  (A) (A) (A) (A) (A) (A) (A) (A) (A) (A) (A) (A)
                 (A) (A) (A) (A) (A) (A) (A) (A) (A) (A) (A) (A)
                 (A) (A) (A) (A) (A) (A) (A) (A) (A) (A) (A) (A)
                 (A) (A) (A) (A) (A) (A) (A) (A) (A) (A) (A) (A)
                 (A) (A) (A) (A) (A) (A) (A) (A) (A) (A) (A) (A)
                 (A) (A) (A) (A) (A) (A) (A) (A) (A) (A) (A) (A)
                 (A) (A) (A) (A) (A) (A) (A) (A) (A) (A) (A) (A)
                 (A) (A) (A) (A) (A) (A) (A) (A) (A) (A) (A) (A)
                 (A) (A)
       Virtual   (A) (A) (A) (A) (A) (A) (A) (A) (A) (A) (A) (A)
                 (A) (A) (A) (A) (A) (A) (A) (A) (A) (A) (A) (A)
                 (A) (A) (A) (A) (A) (A) (A) (A) (A) (A) (A) (A)
                 (A) (A) (A) (A) (A) (A) (A) (A) (A) (A) (A) (A)
                 (A) (A) (A) (A) (A) (A) (A) (A) (A) (A) (A) (A)
                 (A) (A) (A) (A) (A) (A) (A) (A) (A) (A) (A) (A)
                 (A) (A) (A) (A) (A) (A) (A) (A) (A) (A) (A) (A)
                 (A) (A) (A) (A) (A) (A) (A) (A) (A) (A) (A) (A)
                 (A) (A) (A) (A) (A) (A) (A) (A) (A) (A) (A) (A)
                 (A) (A) (A) (A) (A) (A) (A) (A) (A) (A) (A) (A)
                 (A) (A) (A) (A) (A) (A) (A) (A) (A) (A) (A) (A)
                 (A) (A) (A) (A) (A) (A) (A) (A) (A) (A) (A) (A)
                 (A) (A) (A) (A) (A) (A) (A) (A) (A) (A) (A) (A)
                 (A) (A) (A) (A) (A) (A) (A) (A) (A) (A) (A) (A)
                 (A) (A) (A) (A) (A) (A) (A) (A) (A) (A) (A) (A)
                 (A) (A) (A) (A) (A) (A) (A) (A) (A) (A) (A) (A)
                 (A) (A) (A) (A) (A) (A) (A) (A) (A) (A) (A) (A)
                 (A) (A) (A) (A) (A) (A) (A) (A) (A) (A) (A) (A)
                 (A) (A) (A) (A) (A) (A) (A) (A) (A) (A) (A) (A)
                 (A) (A) (A) (A) (A) (A) (A) (A) (A) (A) (A) (A)
                 (A) (A) (A) (A) (A) (A) (A) (A) (A) (A) (A) (A)
                 (A) (A) (A) (A) (A) (A) (A) (A) (A) (A) (A) (A)
                 (A) (A) (A) (A) (A) (A) (A) (A) (A) (A) (A) (A)
                 (A) (A) (A) (A) (A) (A) (A) (A) (A) (A) (A) (A)
                 (A) (A) (A) (A) (A) (A) (A) (A) (A) (A) (A) (A)
                 (A) (A) (A) (A) (A) (A) (A) (A) (A) (A) (A) (A)
                 (A) (A) (A) (A) (A) (A) (A) (A) (A) (A) (A) (A)
                 (A) (A) (A) (A) (A) (A) (A) (A) (A) (A) (A) (A)
                 (A) (A) (A) (A) (A) (A) (A) (A) (A) (A) (A) (A)
                 (A) (A) (A) (A) (A) (A) (A) (A) (A) (A) (A) (A)
                 (A) (A) (A) (A) (A) (A) (A) (A) (A) (A) (A) (A)
                 (A) (A) (A) (A) (A) (A) (A) (A) (A) (A) (A) (A)
                 (A) (A) (A) (A) (A) (A) (A) (A) (A) (A) (A) (A)
 The electronic state is 1-A.
 Alpha  occ. eigenvalues --  -90.23081 -25.21175 -25.21162 -25.21157 -25.21153
 Alpha  occ. eigenvalues --  -25.21001 -19.49405 -19.47482 -19.46951 -14.67098
 Alpha  occ. eigenvalues --  -14.65176 -10.56344 -10.52109 -10.51063 -10.50005
 Alpha  occ. eigenvalues --  -10.48135 -10.48108 -10.47389 -10.45870 -10.45607
 Alpha  occ. eigenvalues --  -10.45607 -10.44844 -10.43213 -10.43169  -8.51767
 Alpha  occ. eigenvalues --   -6.44194  -6.44176  -6.43716  -1.39621  -1.30036
 Alpha  occ. eigenvalues --   -1.29896  -1.26865  -1.25651  -1.05534  -1.03557
 Alpha  occ. eigenvalues --   -0.94283  -0.93750  -0.90984  -0.88414  -0.83096
 Alpha  occ. eigenvalues --   -0.78675  -0.76384  -0.75272  -0.74510  -0.68440
 Alpha  occ. eigenvalues --   -0.64230  -0.64036  -0.63578  -0.61899  -0.61506
 Alpha  occ. eigenvalues --   -0.58924  -0.57394  -0.55654  -0.53860  -0.52563
 Alpha  occ. eigenvalues --   -0.52231  -0.50757  -0.50417  -0.48431  -0.46938
 Alpha  occ. eigenvalues --   -0.45953  -0.45485  -0.45458  -0.45297  -0.45141
 Alpha  occ. eigenvalues --   -0.43960  -0.43475  -0.43004  -0.42459  -0.41804
 Alpha  occ. eigenvalues --   -0.41753  -0.41577  -0.41085  -0.41004  -0.40338
 Alpha  occ. eigenvalues --   -0.40092  -0.38982  -0.37807  -0.37419  -0.36335
 Alpha  occ. eigenvalues --   -0.34743  -0.34428  -0.34362  -0.33858  -0.32923
 Alpha  occ. eigenvalues --   -0.31908  -0.31230  -0.30653  -0.30104  -0.29092
 Alpha  occ. eigenvalues --   -0.27697  -0.22964  -0.22439  -0.20421  -0.19891
 Alpha  occ. eigenvalues --   -0.19722  -0.19166  -0.16182
 Alpha virt. eigenvalues --    0.07470   0.10025   0.10058   0.10849   0.11182
 Alpha virt. eigenvalues --    0.11450   0.11643   0.12300   0.12528   0.12756
 Alpha virt. eigenvalues --    0.13017   0.13111   0.13590   0.14359   0.14713
 Alpha virt. eigenvalues --    0.14808   0.15303   0.15766   0.16489   0.16674
 Alpha virt. eigenvalues --    0.17554   0.18056   0.18321   0.18539   0.18739
 Alpha virt. eigenvalues --    0.19186   0.19744   0.20257   0.20306   0.21097
 Alpha virt. eigenvalues --    0.21197   0.21235   0.21567   0.22081   0.22243
 Alpha virt. eigenvalues --    0.22735   0.22859   0.23471   0.24242   0.24687
 Alpha virt. eigenvalues --    0.25374   0.25665   0.26049   0.26441   0.26763
 Alpha virt. eigenvalues --    0.26971   0.27668   0.27834   0.28970   0.29209
 Alpha virt. eigenvalues --    0.29882   0.30427   0.31040   0.31499   0.31991
 Alpha virt. eigenvalues --    0.32211   0.32716   0.32981   0.33152   0.33329
 Alpha virt. eigenvalues --    0.34042   0.34231   0.34689   0.34942   0.35088
 Alpha virt. eigenvalues --    0.35492   0.35683   0.35777   0.36218   0.36495
 Alpha virt. eigenvalues --    0.36701   0.37354   0.37864   0.38154   0.38599
 Alpha virt. eigenvalues --    0.39019   0.39214   0.39507   0.39930   0.40624
 Alpha virt. eigenvalues --    0.40842   0.41190   0.41534   0.41553   0.41949
 Alpha virt. eigenvalues --    0.42048   0.42376   0.42608   0.42972   0.43441
 Alpha virt. eigenvalues --    0.43679   0.43742   0.44141   0.44672   0.45018
 Alpha virt. eigenvalues --    0.45317   0.45689   0.45940   0.46251   0.47187
 Alpha virt. eigenvalues --    0.47587   0.47957   0.48183   0.48211   0.48573
 Alpha virt. eigenvalues --    0.48997   0.49268   0.49750   0.49803   0.49917
 Alpha virt. eigenvalues --    0.50647   0.51326   0.51578   0.53313   0.54076
 Alpha virt. eigenvalues --    0.54518   0.55428   0.55957   0.56518   0.57431
 Alpha virt. eigenvalues --    0.58267   0.58920   0.59030   0.59194   0.60376
 Alpha virt. eigenvalues --    0.61670   0.62308   0.63478   0.64595   0.65955
 Alpha virt. eigenvalues --    0.66279   0.66571   0.66810   0.68934   0.68979
 Alpha virt. eigenvalues --    0.69104   0.70193   0.71612   0.72455   0.75908
 Alpha virt. eigenvalues --    0.77432   0.78842   0.80435   0.80573   0.81694
 Alpha virt. eigenvalues --    0.81828   0.83231   0.83982   0.84517   0.86055
 Alpha virt. eigenvalues --    0.86430   0.86791   0.87684   0.88056   0.88345
 Alpha virt. eigenvalues --    0.90143   0.91009   0.91307   0.91935   0.92439
 Alpha virt. eigenvalues --    0.93012   0.93715   0.95385   0.96689   0.97104
 Alpha virt. eigenvalues --    0.97686   0.98267   0.98742   1.00245   1.00779
 Alpha virt. eigenvalues --    1.02056   1.04300   1.04655   1.05624   1.05962
 Alpha virt. eigenvalues --    1.08185   1.09237   1.09845   1.09874   1.10208
 Alpha virt. eigenvalues --    1.10811   1.11256   1.12323   1.13951   1.14878
 Alpha virt. eigenvalues --    1.15815   1.16874   1.17832   1.18416   1.18919
 Alpha virt. eigenvalues --    1.19259   1.19510   1.21644   1.22254   1.22914
 Alpha virt. eigenvalues --    1.24859   1.26836   1.27560   1.28319   1.28674
 Alpha virt. eigenvalues --    1.29129   1.31975   1.33258   1.33634   1.34475
 Alpha virt. eigenvalues --    1.36544   1.37925   1.40053   1.41621   1.43690
 Alpha virt. eigenvalues --    1.45019   1.45193   1.47328   1.47491   1.48418
 Alpha virt. eigenvalues --    1.50458   1.50683   1.51721   1.51723   1.52702
 Alpha virt. eigenvalues --    1.53908   1.55005   1.55837   1.56139   1.56935
 Alpha virt. eigenvalues --    1.57673   1.57969   1.58783   1.59248   1.60940
 Alpha virt. eigenvalues --    1.61404   1.61822   1.63170   1.64382   1.64921
 Alpha virt. eigenvalues --    1.65849   1.66312   1.68472   1.68833   1.69077
 Alpha virt. eigenvalues --    1.70210   1.70541   1.71973   1.72392   1.73426
 Alpha virt. eigenvalues --    1.75368   1.77123   1.79333   1.81618   1.81870
 Alpha virt. eigenvalues --    1.82331   1.85080   1.85518   1.86696   1.87033
 Alpha virt. eigenvalues --    1.88154   1.89511   1.90039   1.91484   1.91892
 Alpha virt. eigenvalues --    1.93024   1.93514   1.94827   1.94960   1.95244
 Alpha virt. eigenvalues --    1.97586   1.97763   1.97978   1.98105   1.98923
 Alpha virt. eigenvalues --    1.99350   1.99694   1.99765   2.00125   2.01981
 Alpha virt. eigenvalues --    2.02584   2.03418   2.04376   2.05507   2.06422
 Alpha virt. eigenvalues --    2.06720   2.07001   2.07522   2.07771   2.08244
 Alpha virt. eigenvalues --    2.09199   2.11385   2.12288   2.12825   2.13542
 Alpha virt. eigenvalues --    2.14191   2.14681   2.15608   2.15771   2.16269
 Alpha virt. eigenvalues --    2.16436   2.17005   2.17507   2.17806   2.18681
 Alpha virt. eigenvalues --    2.19077   2.20270   2.21243   2.22567   2.22868
 Alpha virt. eigenvalues --    2.23613   2.24486   2.26110   2.26220   2.27139
 Alpha virt. eigenvalues --    2.27302   2.28398   2.30793   2.31902   2.33806
 Alpha virt. eigenvalues --    2.34007   2.34860   2.35195   2.36643   2.37432
 Alpha virt. eigenvalues --    2.38755   2.41072   2.42259   2.43049   2.43086
 Alpha virt. eigenvalues --    2.46803   2.48274   2.49240   2.49380   2.50263
 Alpha virt. eigenvalues --    2.50994   2.51225   2.52667   2.53672   2.55371
 Alpha virt. eigenvalues --    2.57992   2.59973   2.60887   2.65344   2.65957
 Alpha virt. eigenvalues --    2.67060   2.72200   2.73280   2.75140   2.76255
 Alpha virt. eigenvalues --    2.77188   2.79315   2.83769   2.84727   2.88308
 Alpha virt. eigenvalues --    2.88768   2.89568   2.91406   2.91675   2.92778
 Alpha virt. eigenvalues --    2.93725   3.00504   3.02100   3.04275   3.06488
 Alpha virt. eigenvalues --    3.08707   3.11693   3.14119   3.20551   3.23880
 Alpha virt. eigenvalues --    3.26180   3.28453   3.35106   3.40401   3.45880
 Alpha virt. eigenvalues --    3.50016   3.55809   4.35213   4.36728   4.38977
 Alpha virt. eigenvalues --    4.41782   4.43274   4.47004   4.53299   4.54776
 Alpha virt. eigenvalues --    4.56383   4.56719   4.58547   4.60654   4.65811
 Alpha virt. eigenvalues --    4.68971   4.73615   4.80177   4.87410   4.88443
 Alpha virt. eigenvalues --    4.99541   5.99577   6.05204   6.25818   7.18389
 Alpha virt. eigenvalues --    8.98779
          Condensed to atoms (all electrons):
               1          2          3          4          5          6
     1  C    5.919225  -0.314577   0.116256  -0.030879  -0.097237  -0.002081
     2  C   -0.314577   6.525165  -0.610209  -0.050819   0.247804   0.021300
     3  C    0.116256  -0.610209   7.461448   0.346122  -0.898380  -0.130224
     4  N   -0.030879  -0.050819   0.346122   7.839250   0.460632  -0.189127
     5  C   -0.097237   0.247804  -0.898380   0.460632   7.170116   0.558706
     6  O   -0.002081   0.021300  -0.130224  -0.189127   0.558706   8.353427
     7  N   -0.002929   0.024077  -0.187895  -0.372432   0.153957  -0.052916
     8  C   -0.005571   0.008917  -0.274417  -0.157550  -0.239327  -0.418991
     9  C   -0.007721   0.000012  -0.293326  -0.071593   0.062764   0.398479
    10  C   -0.002435   0.001604  -0.001657  -0.011759  -0.440009  -0.108902
    11  C   -0.000161  -0.000535   0.023140   0.007943   0.056377  -0.026672
    12  C   -0.000637  -0.000051  -0.056387  -0.001138  -0.719462   0.020776
    13  C   -0.001051   0.000107  -0.132212  -0.021817  -0.900426   0.188525
    14  H    0.456142  -0.131123   0.030312   0.000444  -0.002037   0.000001
    15  H    0.397344  -0.057149   0.003596  -0.000403   0.003219   0.000002
    16  H    0.445313  -0.072093  -0.023145   0.000948  -0.003503  -0.000050
    17  H   -0.020557   0.440752  -0.098839   0.008763  -0.004793  -0.000106
    18  H   -0.059369   0.428624  -0.056779   0.001874  -0.000586  -0.000124
    19  H    0.001811  -0.038562   0.511086  -0.041961  -0.098983  -0.001419
    20  H   -0.018844  -0.072410   0.412373  -0.066428   0.031041   0.001900
    21  H    0.004488  -0.003238  -0.011303   0.144724  -0.012075   0.003080
    22  H   -0.000084  -0.001105  -0.002069   0.010700  -0.038752   0.003472
    23  H    0.000013   0.000005   0.002664   0.001183   0.019760  -0.006856
    24  H   -0.000004   0.000016  -0.000370   0.001102  -0.003629   0.000100
    25  H    0.000000   0.000000   0.000032   0.000022   0.003160  -0.000003
    26  S   -0.000010  -0.000020  -0.001447   0.001212  -0.054747   0.001022
    27  H   -0.000000   0.000002  -0.000068   0.000009  -0.004550   0.000305
    28  F   -0.000000  -0.000000  -0.000009  -0.000000  -0.001694  -0.000001
    29  F    0.000000  -0.000000  -0.000000   0.000000  -0.000043   0.000000
    30  F   -0.000000  -0.000000   0.000002   0.000005  -0.000055   0.000001
    31  F   -0.000000  -0.000000   0.000001   0.000005  -0.000255   0.000001
    32  F   -0.000000   0.000000  -0.000012  -0.000000  -0.002006  -0.000001
    33  O    0.007356  -0.005654   0.015838  -0.032214  -0.017169  -0.000112
    34  O   -0.001035  -0.005276   0.005012   0.010052  -0.007225   0.000133
    35  C   -0.005118  -0.003682   0.009639  -0.007480  -0.002539  -0.001583
    36  C    0.006144  -0.006987   0.048140  -0.029275  -0.033449  -0.001375
    37  C   -0.000873  -0.000566  -0.004220   0.004295   0.002218   0.000070
    38  H    0.000011  -0.000122   0.000335  -0.000101  -0.000422  -0.000000
    39  H    0.000088   0.000321  -0.000017  -0.000241  -0.000212  -0.000000
    40  H    0.000001   0.000023  -0.000011  -0.000010   0.000079  -0.000000
    41  H    0.000000   0.000004  -0.000009  -0.000005   0.000018   0.000000
    42  H    0.000001   0.000012  -0.000012  -0.000012  -0.000006  -0.000000
               7          8          9         10         11         12
     1  C   -0.002929  -0.005571  -0.007721  -0.002435  -0.000161  -0.000637
     2  C    0.024077   0.008917   0.000012   0.001604  -0.000535  -0.000051
     3  C   -0.187895  -0.274417  -0.293326  -0.001657   0.023140  -0.056387
     4  N   -0.372432  -0.157550  -0.071593  -0.011759   0.007943  -0.001138
     5  C    0.153957  -0.239327   0.062764  -0.440009   0.056377  -0.719462
     6  O   -0.052916  -0.418991   0.398479  -0.108902  -0.026672   0.020776
     7  N    7.956555   0.306718  -0.110580  -0.176814  -0.010579  -0.027966
     8  C    0.306718  16.105990   1.851844   0.713065  -3.577952  -3.387848
     9  C   -0.110580   1.851844  16.656470  -4.993491  -2.470186  -4.087191
    10  C   -0.176814   0.713065  -4.993491  14.186348   1.158002  -2.214861
    11  C   -0.010579  -3.577952  -2.470186   1.158002  13.977987   0.806810
    12  C   -0.027966  -3.387848  -4.087191  -2.214861   0.806810  14.990954
    13  C    0.101505  -4.174802  -0.582981  -2.212031  -4.697632   1.896685
    14  H    0.000015  -0.000028  -0.000011  -0.000001   0.000000  -0.000000
    15  H    0.000026   0.000107  -0.000022   0.000009   0.000000   0.000000
    16  H    0.000025  -0.000095  -0.000064   0.000010   0.000001  -0.000000
    17  H    0.000547  -0.002194  -0.000336   0.000284   0.000029  -0.000008
    18  H   -0.000715   0.000626  -0.000072   0.000127  -0.000001   0.000005
    19  H   -0.001162  -0.005825  -0.012308   0.002624   0.000283  -0.000233
    20  H   -0.000417   0.005958   0.004679  -0.001091  -0.000130   0.000135
    21  H    0.003860   0.004811  -0.008258  -0.000939  -0.000194  -0.000669
    22  H    0.092321  -0.019038   0.057211  -0.039894   0.007448   0.016402
    23  H   -0.017415  -0.024698   0.240778   0.008672  -0.010509   0.059847
    24  H   -0.009304  -0.025282   0.011599   0.231069   0.004094   0.089004
    25  H    0.000447   0.013431  -0.007040  -0.065730   0.339420  -0.006387
    26  S    0.008838  -0.675929  -0.497843   0.108359   0.230357  -0.150812
    27  H   -0.000739  -0.017781  -0.076840  -0.012692  -0.005710   0.004197
    28  F    0.000034  -0.025596  -0.019690   0.017585   0.048727  -0.085479
    29  F    0.000003  -0.001288   0.002861   0.010841   0.074435  -0.248594
    30  F    0.000307  -0.003470   0.001549  -0.003412  -0.010939  -0.111844
    31  F    0.000295  -0.006024  -0.007120   0.000131  -0.005468  -0.106277
    32  F    0.000003  -0.027605  -0.025129   0.024903   0.057691  -0.087552
    33  O    0.007207   0.014233  -0.001535  -0.024193  -0.008668  -0.001551
    34  O    0.006634  -0.277918  -0.024591   0.253137   0.053122  -0.001147
    35  C   -0.005164   0.163768  -0.015958  -0.085320  -0.076818  -0.024265
    36  C   -0.032609  -0.064819  -0.032196   0.040143   0.025158  -0.000125
    37  C    0.004364  -0.033563  -0.000848   0.015009   0.022607   0.001504
    38  H    0.000109  -0.000833  -0.000128   0.000941  -0.000015  -0.000009
    39  H    0.000117  -0.000291  -0.000042   0.000171  -0.000115  -0.000014
    40  H   -0.000081   0.000499   0.000077  -0.000894  -0.000391  -0.000123
    41  H    0.000028   0.000208   0.000009  -0.000171  -0.000155  -0.000006
    42  H   -0.000080   0.000076   0.000009  -0.000177  -0.000131  -0.000067
              13         14         15         16         17         18
     1  C   -0.001051   0.456142   0.397344   0.445313  -0.020557  -0.059369
     2  C    0.000107  -0.131123  -0.057149  -0.072093   0.440752   0.428624
     3  C   -0.132212   0.030312   0.003596  -0.023145  -0.098839  -0.056779
     4  N   -0.021817   0.000444  -0.000403   0.000948   0.008763   0.001874
     5  C   -0.900426  -0.002037   0.003219  -0.003503  -0.004793  -0.000586
     6  O    0.188525   0.000001   0.000002  -0.000050  -0.000106  -0.000124
     7  N    0.101505   0.000015   0.000026   0.000025   0.000547  -0.000715
     8  C   -4.174802  -0.000028   0.000107  -0.000095  -0.002194   0.000626
     9  C   -0.582981  -0.000011  -0.000022  -0.000064  -0.000336  -0.000072
    10  C   -2.212031  -0.000001   0.000009   0.000010   0.000284   0.000127
    11  C   -4.697632   0.000000   0.000000   0.000001   0.000029  -0.000001
    12  C    1.896685  -0.000000   0.000000  -0.000000  -0.000008   0.000005
    13  C   16.671518  -0.000000  -0.000001  -0.000004  -0.000031   0.000006
    14  H   -0.000000   0.509508  -0.027350  -0.027970  -0.002879  -0.003007
    15  H   -0.000001  -0.027350   0.510853  -0.033376  -0.004282   0.003922
    16  H   -0.000004  -0.027970  -0.033376   0.514132   0.003740  -0.004736
    17  H   -0.000031  -0.002879  -0.004282   0.003740   0.468295  -0.031833
    18  H    0.000006  -0.003007   0.003922  -0.004736  -0.031833   0.497142
    19  H   -0.001953  -0.000078  -0.000267   0.002745   0.004012  -0.005906
    20  H    0.000851  -0.000079   0.002894  -0.000446  -0.005375   0.004430
    21  H   -0.001089   0.000000  -0.000006   0.000003   0.002056  -0.000176
    22  H    0.009137  -0.000000  -0.000000  -0.000000   0.000004  -0.000000
    23  H    0.025677   0.000000   0.000000  -0.000000  -0.000000   0.000000
    24  H   -0.013230   0.000000   0.000000  -0.000000  -0.000000   0.000000
    25  H    0.001207  -0.000000   0.000000  -0.000000  -0.000000  -0.000000
    26  S   -0.186253  -0.000000   0.000000  -0.000000  -0.000000   0.000000
    27  H    0.376243  -0.000000   0.000000   0.000000   0.000000   0.000000
    28  F   -0.058959  -0.000000  -0.000000  -0.000000  -0.000000   0.000000
    29  F    0.034374   0.000000  -0.000000   0.000000   0.000000  -0.000000
    30  F    0.017070  -0.000000  -0.000000   0.000000   0.000000   0.000000
    31  F    0.011833  -0.000000   0.000000  -0.000000  -0.000000   0.000000
    32  F   -0.065661  -0.000000   0.000000  -0.000000  -0.000000   0.000000
    33  O    0.001472  -0.000014   0.000036  -0.000047  -0.005370   0.000076
    34  O    0.006615  -0.000000   0.000000  -0.000000  -0.000094   0.000066
    35  C   -0.004651  -0.000113   0.000068  -0.000068  -0.001157   0.000608
    36  C   -0.007902   0.000076  -0.000025  -0.000003  -0.000260  -0.000043
    37  C   -0.001148  -0.000000  -0.000000   0.000000  -0.000008  -0.000030
    38  H   -0.000009  -0.000000   0.000000  -0.000000  -0.000001   0.000000
    39  H   -0.000001  -0.000000   0.000000  -0.000000  -0.000000   0.000000
    40  H    0.000022  -0.000000  -0.000000  -0.000000   0.000000  -0.000000
    41  H    0.000001   0.000000  -0.000000  -0.000000  -0.000000  -0.000000
    42  H    0.000007   0.000000  -0.000000  -0.000000  -0.000000  -0.000000
              19         20         21         22         23         24
     1  C    0.001811  -0.018844   0.004488  -0.000084   0.000013  -0.000004
     2  C   -0.038562  -0.072410  -0.003238  -0.001105   0.000005   0.000016
     3  C    0.511086   0.412373  -0.011303  -0.002069   0.002664  -0.000370
     4  N   -0.041961  -0.066428   0.144724   0.010700   0.001183   0.001102
     5  C   -0.098983   0.031041  -0.012075  -0.038752   0.019760  -0.003629
     6  O   -0.001419   0.001900   0.003080   0.003472  -0.006856   0.000100
     7  N   -0.001162  -0.000417   0.003860   0.092321  -0.017415  -0.009304
     8  C   -0.005825   0.005958   0.004811  -0.019038  -0.024698  -0.025282
     9  C   -0.012308   0.004679  -0.008258   0.057211   0.240778   0.011599
    10  C    0.002624  -0.001091  -0.000939  -0.039894   0.008672   0.231069
    11  C    0.000283  -0.000130  -0.000194   0.007448  -0.010509   0.004094
    12  C   -0.000233   0.000135  -0.000669   0.016402   0.059847   0.089004
    13  C   -0.001953   0.000851  -0.001089   0.009137   0.025677  -0.013230
    14  H   -0.000078  -0.000079   0.000000  -0.000000   0.000000   0.000000
    15  H   -0.000267   0.002894  -0.000006  -0.000000   0.000000   0.000000
    16  H    0.002745  -0.000446   0.000003  -0.000000  -0.000000  -0.000000
    17  H    0.004012  -0.005375   0.002056   0.000004  -0.000000  -0.000000
    18  H   -0.005906   0.004430  -0.000176  -0.000000   0.000000   0.000000
    19  H    0.515233  -0.047462   0.001851   0.000010  -0.000001   0.000000
    20  H   -0.047462   0.544083   0.001203   0.000003  -0.000000   0.000000
    21  H    0.001851   0.001203   0.247638   0.009420   0.000001   0.000003
    22  H    0.000010   0.000003   0.009420   0.268350  -0.000194   0.007234
    23  H   -0.000001  -0.000000   0.000001  -0.000194   0.431006  -0.000111
    24  H    0.000000   0.000000   0.000003   0.007234  -0.000111   0.428076
    25  H   -0.000000   0.000000  -0.000000  -0.000008   0.000013  -0.003611
    26  S   -0.000002   0.000001  -0.000010   0.000578   0.000021   0.005182
    27  H    0.000000   0.000000  -0.000000   0.000002  -0.003814   0.000014
    28  F   -0.000000   0.000000  -0.000000   0.000000   0.000018   0.000031
    29  F    0.000000  -0.000000  -0.000000   0.000000  -0.000001  -0.000001
    30  F    0.000000   0.000000  -0.000000   0.000000   0.000000   0.000024
    31  F    0.000000  -0.000000  -0.000000   0.000000   0.000001   0.000024
    32  F   -0.000000   0.000000  -0.000000   0.000000   0.000018   0.000031
    33  O   -0.000534   0.000511   0.081513  -0.002165   0.000002  -0.000038
    34  O   -0.000022   0.000005  -0.000738   0.097184   0.000013  -0.003630
    35  C    0.001159   0.000017  -0.004063  -0.011039   0.000047  -0.001380
    36  C    0.000074   0.000025   0.019311   0.022150   0.000005   0.002621
    37  C    0.000007  -0.000003  -0.003236  -0.002884  -0.000002  -0.000623
    38  H   -0.000000  -0.000000  -0.000004  -0.000029   0.000000   0.000001
    39  H   -0.000000   0.000000  -0.000005  -0.000028   0.000000   0.000000
    40  H   -0.000000   0.000000  -0.000000  -0.000014   0.000000   0.000021
    41  H   -0.000000  -0.000000   0.000000  -0.000000  -0.000000  -0.000000
    42  H    0.000000  -0.000000  -0.000000  -0.000015   0.000000   0.000018
              25         26         27         28         29         30
     1  C    0.000000  -0.000010  -0.000000  -0.000000   0.000000  -0.000000
     2  C    0.000000  -0.000020   0.000002  -0.000000  -0.000000  -0.000000
     3  C    0.000032  -0.001447  -0.000068  -0.000009  -0.000000   0.000002
     4  N    0.000022   0.001212   0.000009  -0.000000   0.000000   0.000005
     5  C    0.003160  -0.054747  -0.004550  -0.001694  -0.000043  -0.000055
     6  O   -0.000003   0.001022   0.000305  -0.000001   0.000000   0.000001
     7  N    0.000447   0.008838  -0.000739   0.000034   0.000003   0.000307
     8  C    0.013431  -0.675929  -0.017781  -0.025596  -0.001288  -0.003470
     9  C   -0.007040  -0.497843  -0.076840  -0.019690   0.002861   0.001549
    10  C   -0.065730   0.108359  -0.012692   0.017585   0.010841  -0.003412
    11  C    0.339420   0.230357  -0.005710   0.048727   0.074435  -0.010939
    12  C   -0.006387  -0.150812   0.004197  -0.085479  -0.248594  -0.111844
    13  C    0.001207  -0.186253   0.376243  -0.058959   0.034374   0.017070
    14  H   -0.000000  -0.000000  -0.000000  -0.000000   0.000000  -0.000000
    15  H    0.000000   0.000000   0.000000  -0.000000  -0.000000  -0.000000
    16  H   -0.000000  -0.000000   0.000000  -0.000000   0.000000   0.000000
    17  H   -0.000000  -0.000000   0.000000  -0.000000   0.000000   0.000000
    18  H   -0.000000   0.000000   0.000000   0.000000  -0.000000   0.000000
    19  H   -0.000000  -0.000002   0.000000  -0.000000   0.000000   0.000000
    20  H    0.000000   0.000001   0.000000   0.000000  -0.000000   0.000000
    21  H   -0.000000  -0.000010  -0.000000  -0.000000  -0.000000  -0.000000
    22  H   -0.000008   0.000578   0.000002   0.000000   0.000000   0.000000
    23  H    0.000013   0.000021  -0.003814   0.000018  -0.000001   0.000000
    24  H   -0.003611   0.005182   0.000014   0.000031  -0.000001   0.000024
    25  H    0.474717   0.019737  -0.000139   0.001852   0.000101   0.000217
    26  S    0.019737  14.877974   0.032668  -0.011921   0.134853  -0.023776
    27  H   -0.000139   0.032668   0.479929   0.000298   0.000126   0.002718
    28  F    0.001852  -0.011921   0.000298   9.755116  -0.029071  -0.007786
    29  F    0.000101   0.134853   0.000126  -0.029071   9.625071  -0.030218
    30  F    0.000217  -0.023776   0.002718  -0.007786  -0.030218   9.757885
    31  F    0.000209  -0.021341   0.002683  -0.064286  -0.030256  -0.022582
    32  F    0.001887  -0.012842   0.000308  -0.019632  -0.029199  -0.064109
    33  O    0.000000  -0.000026  -0.000000  -0.000000  -0.000000  -0.000000
    34  O    0.000173   0.000125  -0.000001   0.000001  -0.000000  -0.000002
    35  C    0.000092  -0.000663  -0.000002  -0.000006  -0.000000  -0.000009
    36  C   -0.000042  -0.000393  -0.000000  -0.000006   0.000000   0.000000
    37  C   -0.000012   0.000137   0.000000   0.000002  -0.000000  -0.000000
    38  H   -0.000000  -0.000000   0.000000  -0.000000  -0.000000  -0.000000
    39  H   -0.000000  -0.000000   0.000000  -0.000000   0.000000  -0.000000
    40  H   -0.000000  -0.000004  -0.000000  -0.000000  -0.000000  -0.000000
    41  H    0.000000   0.000000   0.000000   0.000000   0.000000  -0.000000
    42  H   -0.000000  -0.000001  -0.000000  -0.000000  -0.000000   0.000000
              31         32         33         34         35         36
     1  C   -0.000000  -0.000000   0.007356  -0.001035  -0.005118   0.006144
     2  C   -0.000000   0.000000  -0.005654  -0.005276  -0.003682  -0.006987
     3  C    0.000001  -0.000012   0.015838   0.005012   0.009639   0.048140
     4  N    0.000005  -0.000000  -0.032214   0.010052  -0.007480  -0.029275
     5  C   -0.000255  -0.002006  -0.017169  -0.007225  -0.002539  -0.033449
     6  O    0.000001  -0.000001  -0.000112   0.000133  -0.001583  -0.001375
     7  N    0.000295   0.000003   0.007207   0.006634  -0.005164  -0.032609
     8  C   -0.006024  -0.027605   0.014233  -0.277918   0.163768  -0.064819
     9  C   -0.007120  -0.025129  -0.001535  -0.024591  -0.015958  -0.032196
    10  C    0.000131   0.024903  -0.024193   0.253137  -0.085320   0.040143
    11  C   -0.005468   0.057691  -0.008668   0.053122  -0.076818   0.025158
    12  C   -0.106277  -0.087552  -0.001551  -0.001147  -0.024265  -0.000125
    13  C    0.011833  -0.065661   0.001472   0.006615  -0.004651  -0.007902
    14  H   -0.000000  -0.000000  -0.000014  -0.000000  -0.000113   0.000076
    15  H    0.000000   0.000000   0.000036   0.000000   0.000068  -0.000025
    16  H   -0.000000  -0.000000  -0.000047  -0.000000  -0.000068  -0.000003
    17  H   -0.000000  -0.000000  -0.005370  -0.000094  -0.001157  -0.000260
    18  H    0.000000   0.000000   0.000076   0.000066   0.000608  -0.000043
    19  H    0.000000  -0.000000  -0.000534  -0.000022   0.001159   0.000074
    20  H   -0.000000   0.000000   0.000511   0.000005   0.000017   0.000025
    21  H   -0.000000  -0.000000   0.081513  -0.000738  -0.004063   0.019311
    22  H    0.000000   0.000000  -0.002165   0.097184  -0.011039   0.022150
    23  H    0.000001   0.000018   0.000002   0.000013   0.000047   0.000005
    24  H    0.000024   0.000031  -0.000038  -0.003630  -0.001380   0.002621
    25  H    0.000209   0.001887   0.000000   0.000173   0.000092  -0.000042
    26  S   -0.021341  -0.012842  -0.000026   0.000125  -0.000663  -0.000393
    27  H    0.002683   0.000308  -0.000000  -0.000001  -0.000002  -0.000000
    28  F   -0.064286  -0.019632  -0.000000   0.000001  -0.000006  -0.000006
    29  F   -0.030256  -0.029199  -0.000000  -0.000000  -0.000000   0.000000
    30  F   -0.022582  -0.064109  -0.000000  -0.000002  -0.000009   0.000000
    31  F    9.759025  -0.007659  -0.000000  -0.000002  -0.000008   0.000000
    32  F   -0.007659   9.754517  -0.000000   0.000001  -0.000004  -0.000006
    33  O   -0.000000  -0.000000   8.514482  -0.183879   0.549447  -0.305951
    34  O   -0.000002   0.000001  -0.183879   8.568017   0.238812  -0.110255
    35  C   -0.000008  -0.000004   0.549447   0.238812   5.779487  -1.065431
    36  C    0.000000  -0.000006  -0.305951  -0.110255  -1.065431   7.717924
    37  C   -0.000000   0.000002   0.036211   0.057209   0.032421  -0.393092
    38  H   -0.000000  -0.000000  -0.003112   0.002522  -0.081963   0.453362
    39  H   -0.000000  -0.000000  -0.001907   0.001000  -0.083772   0.451162
    40  H   -0.000000  -0.000000   0.000133  -0.004887  -0.006356  -0.058892
    41  H   -0.000000   0.000000  -0.000192   0.001959   0.036380  -0.083660
    42  H    0.000000  -0.000000   0.000130  -0.004839  -0.006488  -0.055936
              37         38         39         40         41         42
     1  C   -0.000873   0.000011   0.000088   0.000001   0.000000   0.000001
     2  C   -0.000566  -0.000122   0.000321   0.000023   0.000004   0.000012
     3  C   -0.004220   0.000335  -0.000017  -0.000011  -0.000009  -0.000012
     4  N    0.004295  -0.000101  -0.000241  -0.000010  -0.000005  -0.000012
     5  C    0.002218  -0.000422  -0.000212   0.000079   0.000018  -0.000006
     6  O    0.000070  -0.000000  -0.000000  -0.000000   0.000000  -0.000000
     7  N    0.004364   0.000109   0.000117  -0.000081   0.000028  -0.000080
     8  C   -0.033563  -0.000833  -0.000291   0.000499   0.000208   0.000076
     9  C   -0.000848  -0.000128  -0.000042   0.000077   0.000009   0.000009
    10  C    0.015009   0.000941   0.000171  -0.000894  -0.000171  -0.000177
    11  C    0.022607  -0.000015  -0.000115  -0.000391  -0.000155  -0.000131
    12  C    0.001504  -0.000009  -0.000014  -0.000123  -0.000006  -0.000067
    13  C   -0.001148  -0.000009  -0.000001   0.000022   0.000001   0.000007
    14  H   -0.000000  -0.000000  -0.000000  -0.000000   0.000000   0.000000
    15  H   -0.000000   0.000000   0.000000  -0.000000  -0.000000  -0.000000
    16  H    0.000000  -0.000000  -0.000000  -0.000000  -0.000000  -0.000000
    17  H   -0.000008  -0.000001  -0.000000   0.000000  -0.000000  -0.000000
    18  H   -0.000030   0.000000   0.000000  -0.000000  -0.000000  -0.000000
    19  H    0.000007  -0.000000  -0.000000  -0.000000  -0.000000   0.000000
    20  H   -0.000003  -0.000000   0.000000   0.000000  -0.000000  -0.000000
    21  H   -0.003236  -0.000004  -0.000005  -0.000000   0.000000  -0.000000
    22  H   -0.002884  -0.000029  -0.000028  -0.000014  -0.000000  -0.000015
    23  H   -0.000002   0.000000   0.000000   0.000000  -0.000000   0.000000
    24  H   -0.000623   0.000001   0.000000   0.000021  -0.000000   0.000018
    25  H   -0.000012  -0.000000  -0.000000  -0.000000   0.000000  -0.000000
    26  S    0.000137  -0.000000  -0.000000  -0.000004   0.000000  -0.000001
    27  H    0.000000   0.000000   0.000000  -0.000000   0.000000  -0.000000
    28  F    0.000002  -0.000000  -0.000000  -0.000000   0.000000  -0.000000
    29  F   -0.000000  -0.000000   0.000000  -0.000000   0.000000  -0.000000
    30  F   -0.000000  -0.000000  -0.000000  -0.000000  -0.000000   0.000000
    31  F   -0.000000  -0.000000  -0.000000  -0.000000  -0.000000   0.000000
    32  F    0.000002  -0.000000  -0.000000  -0.000000   0.000000  -0.000000
    33  O    0.036211  -0.003112  -0.001907   0.000133  -0.000192   0.000130
    34  O    0.057209   0.002522   0.001000  -0.004887   0.001959  -0.004839
    35  C    0.032421  -0.081963  -0.083772  -0.006356   0.036380  -0.006488
    36  C   -0.393092   0.453362   0.451162  -0.058892  -0.083660  -0.055936
    37  C    5.851320  -0.052063  -0.047840   0.423018   0.386121   0.419445
    38  H   -0.052063   0.503853  -0.030028  -0.003912  -0.002049   0.003699
    39  H   -0.047840  -0.030028   0.504169   0.003697  -0.002066  -0.003925
    40  H    0.423018  -0.003912   0.003697   0.489003  -0.029935  -0.027157
    41  H    0.386121  -0.002049  -0.002066  -0.029935   0.549954  -0.029912
    42  H    0.419445   0.003699  -0.003925  -0.027157  -0.029912   0.488483
 Mulliken charges:
               1
     1  C   -0.783017
     2  C   -0.324568
     3  C   -0.202978
     4  N   -0.754040
     5  C    0.813722
     6  O   -0.610758
     7  N   -0.658197
     8  C    0.258484
     9  C    0.058758
    10  C   -0.376562
    11  C    0.009334
    12  C   -0.565614
    13  C   -0.279010
    14  H    0.198191
    15  H    0.200806
    16  H    0.198683
    17  H    0.249642
    18  H    0.225871
    19  H    0.215782
    20  H    0.202576
    21  H    0.522040
    22  H    0.515692
    23  H    0.273858
    24  H    0.280947
    25  H    0.226253
    26  S    2.216975
    27  H    0.222835
    28  F   -0.499529
    29  F   -0.513995
    30  F   -0.501574
    31  F   -0.502928
    32  F   -0.497944
    33  O   -0.634317
    34  O   -0.676254
    35  C    0.683153
    36  C   -0.503561
    37  C   -0.714953
    38  H    0.209967
    39  H    0.209780
    40  H    0.216094
    41  H    0.173477
    42  H    0.216877
 Sum of Mulliken charges =  -1.00000
 Mulliken charges with hydrogens summed into heavy atoms:
               1
     1  C   -0.185337
     2  C    0.150944
     3  C    0.215381
     4  N   -0.232000
     5  C    0.813722
     6  O   -0.610758
     7  N   -0.142505
     8  C    0.258484
     9  C    0.332616
    10  C   -0.095615
    11  C    0.235587
    12  C   -0.565614
    13  C   -0.056175
    26  S    2.216975
    28  F   -0.499529
    29  F   -0.513995
    30  F   -0.501574
    31  F   -0.502928
    32  F   -0.497944
    33  O   -0.634317
    34  O   -0.676254
    35  C    0.683153
    36  C   -0.083813
    37  C   -0.108505
         Mulliken charges condensed to fragments:
      1     -0.180265
      2     -0.819735
 Electronic spatial extent (au):  <R**2>=          14571.9574
 Charge=             -1.0000 electrons
 Dipole moment (field-independent basis, Debye):
    X=             -3.1692    Y=             -0.3835    Z=              0.0998  Tot=              3.1939
 Quadrupole moment (field-independent basis, Debye-Ang):
   XX=           -229.5732   YY=           -174.1245   ZZ=           -155.5275
   XY=             -6.2256   XZ=              0.7888   YZ=             -0.2555
 Traceless Quadrupole moment (field-independent basis, Debye-Ang):
   XX=            -43.1648   YY=             12.2839   ZZ=             30.8809
   XY=             -6.2256   XZ=              0.7888   YZ=             -0.2555
 Octapole moment (field-independent basis, Debye-Ang**2):
  XXX=           -116.6150  YYY=              1.1342  ZZZ=             -0.5738  XYY=           -111.6631
  XXY=            -33.1253  XXZ=              4.4446  XZZ=            -35.0758  YZZ=              1.2098
  YYZ=              0.8241  XYZ=             -0.5093
 Hexadecapole moment (field-independent basis, Debye-Ang**3):
 XXXX=         -16435.5005 YYYY=          -4142.9115 ZZZZ=           -354.6104 XXXY=            -99.6287
 XXXZ=             26.6365 YYYX=             32.8324 YYYZ=             -8.7216 ZZZX=             -2.5670
 ZZZY=              0.1349 XXYY=          -3216.4416 XXZZ=          -2474.6094 YYZZ=           -696.3906
 XXYZ=              7.6767 YYXZ=              5.0614 ZZXY=              3.1874
 N-N= 2.399715347776D+03 E-N=-8.911761516260D+03  KE= 1.726187758190D+03
 CPIOFr:  IOpCl= 0 IRwI=-1 IRwCP=  731 ICalc= -1 LCPTot=      383511 Len1MO=      992832 IndFrg=      383511
 CPIOFr:  IOpCl= 0 IRwI=-1 IRwCP=  731 ICalc=  0 LCPTot=      383511 Len1MO=      992832 IndFrg=     1376343
 Counterpoise: doing DCBS calculation for fragment   1 NewBq=T
 Basis read from rwf:  (6D, 7F)
 There are   496 symmetry adapted cartesian basis functions of A   symmetry.
 There are   496 symmetry adapted basis functions of A   symmetry.
   496 basis functions,   864 primitive gaussians,   496 cartesian basis functions
    78 alpha electrons       78 beta electrons
       nuclear repulsion energy      1711.6792682813 Hartrees.
 NAtoms=   42 NActive=   42 NUniq=   42 SFac= 1.00D+00 NAtFMM=   60 NAOKFM=F Big=F
 Integral buffers will be    131072 words long.
 Raffenetti 2 integral format.
 Two-electron integral symmetry is turned on.
 One-electron integrals computed using PRISM.
 NBasis=   496 RedAO= T EigKep=  1.79D-06  NBF=   496
 NBsUse=   494 1.00D-06 EigRej=  8.69D-07 NBFU=   494
 ExpMin= 4.05D-02 ExpMax= 2.19D+04 ExpMxC= 3.30D+03 IAcc=3 IRadAn=         5 AccDes= 0.00D+00
 Harris functional with IExCor= 1009 and IRadAn=       5 diagonalized for initial guess.
 HarFok:  IExCor= 1009 AccDes= 0.00D+00 IRadAn=         5 IDoV= 1 UseB2=F ITyADJ=14
 ICtDFT=  3500011 ScaDFX=  1.000000  1.000000  1.000000  1.000000
 FoFCou: FMM=F IPFlag=           0 FMFlag=      100000 FMFlg1=           0
         NFxFlg=           0 DoJE=T BraDBF=F KetDBF=T FulRan=T
         wScrn=  0.000000 ICntrl=     500 IOpCl=  0 I1Cent=   200000004 NGrid=           0
         NMat0=    1 NMatS0=      1 NMatT0=    0 NMatD0=    1 NMtDS0=    0 NMtDT0=    0
 Petite list used in FoFCou.
 Requested convergence on RMS density matrix=1.00D-08 within 128 cycles.
 Requested convergence on MAX density matrix=1.00D-06.
 Requested convergence on             energy=1.00D-06.
 No special actions if energy rises.
 SCF Done:  E(RM062X) =  -1470.52795580     A.U. after   14 cycles
            NFock= 14  Conv=0.91D-08     -V/T= 2.0069

 **********************************************************************

            Population analysis using the SCF density.

 **********************************************************************

 Orbital symmetries:
       Occupied  (A) (A) (A) (A) (A) (A) (A) (A) (A) (A) (A) (A)
                 (A) (A) (A) (A) (A) (A) (A) (A) (A) (A) (A) (A)
                 (A) (A) (A) (A) (A) (A) (A) (A) (A) (A) (A) (A)
                 (A) (A) (A) (A) (A) (A) (A) (A) (A) (A) (A) (A)
                 (A) (A) (A) (A) (A) (A) (A) (A) (A) (A) (A) (A)
                 (A) (A) (A) (A) (A) (A) (A) (A) (A) (A) (A) (A)
                 (A) (A) (A) (A) (A) (A)
       Virtual   (A) (A) (A) (A) (A) (A) (A) (A) (A) (A) (A) (A)
                 (A) (A) (A) (A) (A) (A) (A) (A) (A) (A) (A) (A)
                 (A) (A) (A) (A) (A) (A) (A) (A) (A) (A) (A) (A)
                 (A) (A) (A) (A) (A) (A) (A) (A) (A) (A) (A) (A)
                 (A) (A) (A) (A) (A) (A) (A) (A) (A) (A) (A) (A)
                 (A) (A) (A) (A) (A) (A) (A) (A) (A) (A) (A) (A)
                 (A) (A) (A) (A) (A) (A) (A) (A) (A) (A) (A) (A)
                 (A) (A) (A) (A) (A) (A) (A) (A) (A) (A) (A) (A)
                 (A) (A) (A) (A) (A) (A) (A) (A) (A) (A) (A) (A)
                 (A) (A) (A) (A) (A) (A) (A) (A) (A) (A) (A) (A)
                 (A) (A) (A) (A) (A) (A) (A) (A) (A) (A) (A) (A)
                 (A) (A) (A) (A) (A) (A) (A) (A) (A) (A) (A) (A)
                 (A) (A) (A) (A) (A) (A) (A) (A) (A) (A) (A) (A)
                 (A) (A) (A) (A) (A) (A) (A) (A) (A) (A) (A) (A)
                 (A) (A) (A) (A) (A) (A) (A) (A) (A) (A) (A) (A)
                 (A) (A) (A) (A) (A) (A) (A) (A) (A) (A) (A) (A)
                 (A) (A) (A) (A) (A) (A) (A) (A) (A) (A) (A) (A)
                 (A) (A) (A) (A) (A) (A) (A) (A) (A) (A) (A) (A)
                 (A) (A) (A) (A) (A) (A) (A) (A) (A) (A) (A) (A)
                 (A) (A) (A) (A) (A) (A) (A) (A) (A) (A) (A) (A)
                 (A) (A) (A) (A) (A) (A) (A) (A) (A) (A) (A) (A)
                 (A) (A) (A) (A) (A) (A) (A) (A) (A) (A) (A) (A)
                 (A) (A) (A) (A) (A) (A) (A) (A) (A) (A) (A) (A)
                 (A) (A) (A) (A) (A) (A) (A) (A) (A) (A) (A) (A)
                 (A) (A) (A) (A) (A) (A) (A) (A) (A) (A) (A) (A)
                 (A) (A) (A) (A) (A) (A) (A) (A) (A) (A) (A) (A)
                 (A) (A) (A) (A) (A) (A) (A) (A) (A) (A) (A) (A)
                 (A) (A) (A) (A) (A) (A) (A) (A) (A) (A) (A) (A)
                 (A) (A) (A) (A) (A) (A) (A) (A) (A) (A) (A) (A)
                 (A) (A) (A) (A) (A) (A) (A) (A) (A) (A) (A) (A)
                 (A) (A) (A) (A) (A) (A) (A) (A) (A) (A) (A) (A)
                 (A) (A) (A) (A) (A) (A) (A) (A) (A) (A) (A) (A)
                 (A) (A) (A) (A) (A) (A) (A) (A) (A) (A) (A) (A)
                 (A) (A) (A) (A) (A) (A) (A) (A) (A) (A) (A) (A)
                 (A) (A) (A) (A) (A) (A) (A) (A)
 The electronic state is 1-A.
 Alpha  occ. eigenvalues --  -90.31793 -25.29578 -25.29563 -25.29491 -25.29478
 Alpha  occ. eigenvalues --  -25.28507 -19.63016 -14.83102 -14.81321 -10.70715
 Alpha  occ. eigenvalues --  -10.63366 -10.60733 -10.59984 -10.59230 -10.58810
 Alpha  occ. eigenvalues --  -10.58418 -10.57193 -10.57133 -10.55717  -8.60423
 Alpha  occ. eigenvalues --   -6.52859  -6.52845  -6.52413  -1.47776  -1.38350
 Alpha  occ. eigenvalues --   -1.38208  -1.34541  -1.33946  -1.19435  -1.08550
 Alpha  occ. eigenvalues --   -1.05594  -0.99404  -0.93118  -0.90546  -0.87727
 Alpha  occ. eigenvalues --   -0.85755  -0.80247  -0.75175  -0.74130  -0.71815
 Alpha  occ. eigenvalues --   -0.71689  -0.71202  -0.69781  -0.67725  -0.65417
 Alpha  occ. eigenvalues --   -0.63802  -0.61955  -0.60298  -0.59894  -0.57938
 Alpha  occ. eigenvalues --   -0.56890  -0.56620  -0.55432  -0.54260  -0.54150
 Alpha  occ. eigenvalues --   -0.53865  -0.53827  -0.53769  -0.53376  -0.52259
 Alpha  occ. eigenvalues --   -0.51063  -0.50729  -0.50349  -0.49832  -0.49450
 Alpha  occ. eigenvalues --   -0.49268  -0.48755  -0.46273  -0.44932  -0.44804
 Alpha  occ. eigenvalues --   -0.43686  -0.42575  -0.42097  -0.40240  -0.36188
 Alpha  occ. eigenvalues --   -0.34235  -0.33496  -0.29275
 Alpha virt. eigenvalues --   -0.02922  -0.01219  -0.00686  -0.00117   0.00957
 Alpha virt. eigenvalues --    0.01799   0.02017   0.02167   0.03401   0.03820
 Alpha virt. eigenvalues --    0.04169   0.04606   0.05195   0.05290   0.05345
 Alpha virt. eigenvalues --    0.06117   0.06419   0.06557   0.06982   0.07601
 Alpha virt. eigenvalues --    0.07863   0.08090   0.08471   0.08984   0.09185
 Alpha virt. eigenvalues --    0.09530   0.09759   0.10532   0.10896   0.11151
 Alpha virt. eigenvalues --    0.11865   0.12011   0.12380   0.12701   0.12829
 Alpha virt. eigenvalues --    0.13284   0.13620   0.13966   0.14457   0.14836
 Alpha virt. eigenvalues --    0.15174   0.15548   0.16010   0.16247   0.16550
 Alpha virt. eigenvalues --    0.17451   0.17709   0.18119   0.18496   0.18869
 Alpha virt. eigenvalues --    0.19074   0.19719   0.19775   0.19962   0.20578
 Alpha virt. eigenvalues --    0.20843   0.21226   0.21848   0.22153   0.22799
 Alpha virt. eigenvalues --    0.23065   0.23545   0.23671   0.24152   0.24478
 Alpha virt. eigenvalues --    0.25219   0.25293   0.25704   0.25826   0.26124
 Alpha virt. eigenvalues --    0.26495   0.26949   0.27272   0.27510   0.27958
 Alpha virt. eigenvalues --    0.28612   0.28976   0.29082   0.29694   0.30045
 Alpha virt. eigenvalues --    0.30327   0.30754   0.31415   0.31663   0.32058
 Alpha virt. eigenvalues --    0.32382   0.32472   0.33362   0.33765   0.34056
 Alpha virt. eigenvalues --    0.34372   0.34443   0.35224   0.35571   0.35683
 Alpha virt. eigenvalues --    0.36396   0.36627   0.37264   0.37695   0.37920
 Alpha virt. eigenvalues --    0.38014   0.38461   0.39469   0.39606   0.39637
 Alpha virt. eigenvalues --    0.40190   0.40388   0.40666   0.40954   0.41471
 Alpha virt. eigenvalues --    0.41497   0.42463   0.43261   0.44257   0.44953
 Alpha virt. eigenvalues --    0.45185   0.45318   0.47110   0.47751   0.49191
 Alpha virt. eigenvalues --    0.49765   0.50658   0.51048   0.51748   0.51982
 Alpha virt. eigenvalues --    0.52689   0.54271   0.54710   0.55193   0.57277
 Alpha virt. eigenvalues --    0.57797   0.58031   0.58301   0.59475   0.59675
 Alpha virt. eigenvalues --    0.60205   0.60573   0.62450   0.63542   0.64839
 Alpha virt. eigenvalues --    0.65582   0.67210   0.67926   0.68873   0.70049
 Alpha virt. eigenvalues --    0.70922   0.71556   0.72085   0.73150   0.73846
 Alpha virt. eigenvalues --    0.74311   0.74507   0.74992   0.75402   0.76238
 Alpha virt. eigenvalues --    0.76777   0.77658   0.79092   0.79555   0.80102
 Alpha virt. eigenvalues --    0.80921   0.82198   0.82466   0.83513   0.83981
 Alpha virt. eigenvalues --    0.85093   0.85590   0.86060   0.86624   0.87794
 Alpha virt. eigenvalues --    0.88718   0.89421   0.90905   0.90994   0.92131
 Alpha virt. eigenvalues --    0.93316   0.93604   0.95680   0.96333   0.97117
 Alpha virt. eigenvalues --    0.98775   1.00654   1.01122   1.01405   1.01715
 Alpha virt. eigenvalues --    1.02495   1.02769   1.02909   1.04586   1.04820
 Alpha virt. eigenvalues --    1.05903   1.07030   1.07814   1.09634   1.11511
 Alpha virt. eigenvalues --    1.12177   1.13378   1.15532   1.16665   1.18050
 Alpha virt. eigenvalues --    1.19288   1.19484   1.22137   1.22629   1.24679
 Alpha virt. eigenvalues --    1.25831   1.28180   1.28488   1.30791   1.30939
 Alpha virt. eigenvalues --    1.33980   1.34894   1.35729   1.37938   1.38924
 Alpha virt. eigenvalues --    1.40183   1.41942   1.42767   1.44204   1.45258
 Alpha virt. eigenvalues --    1.46370   1.47327   1.48102   1.48583   1.50786
 Alpha virt. eigenvalues --    1.51245   1.52165   1.53905   1.54628   1.55118
 Alpha virt. eigenvalues --    1.56046   1.57741   1.59740   1.62184   1.62615
 Alpha virt. eigenvalues --    1.64323   1.65480   1.68631   1.71233   1.73542
 Alpha virt. eigenvalues --    1.73617   1.75493   1.76847   1.79066   1.79319
 Alpha virt. eigenvalues --    1.80389   1.81344   1.81453   1.84544   1.84792
 Alpha virt. eigenvalues --    1.84970   1.85411   1.85801   1.86092   1.87321
 Alpha virt. eigenvalues --    1.88870   1.89463   1.89801   1.89895   1.90708
 Alpha virt. eigenvalues --    1.91237   1.91277   1.92271   1.92716   1.93541
 Alpha virt. eigenvalues --    1.94990   1.95526   1.96650   1.97814   1.98829
 Alpha virt. eigenvalues --    1.99725   2.00877   2.01644   2.03112   2.03439
 Alpha virt. eigenvalues --    2.04035   2.04299   2.05574   2.06338   2.06676
 Alpha virt. eigenvalues --    2.07273   2.07544   2.08033   2.08197   2.08910
 Alpha virt. eigenvalues --    2.10993   2.11731   2.12281   2.14070   2.14421
 Alpha virt. eigenvalues --    2.15608   2.15750   2.16175   2.17241   2.18869
 Alpha virt. eigenvalues --    2.19297   2.20219   2.21084   2.21785   2.22207
 Alpha virt. eigenvalues --    2.23389   2.24183   2.25765   2.26227   2.26697
 Alpha virt. eigenvalues --    2.27247   2.30558   2.31859   2.34227   2.35159
 Alpha virt. eigenvalues --    2.36898   2.38556   2.39549   2.39726   2.39900
 Alpha virt. eigenvalues --    2.40560   2.42287   2.43108   2.43238   2.44498
 Alpha virt. eigenvalues --    2.49335   2.51842   2.52744   2.53997   2.59100
 Alpha virt. eigenvalues --    2.59881   2.60259   2.62618   2.64213   2.64574
 Alpha virt. eigenvalues --    2.66507   2.67362   2.68436   2.71370   2.72103
 Alpha virt. eigenvalues --    2.72821   2.74904   2.76212   2.78435   2.78654
 Alpha virt. eigenvalues --    2.79485   2.81217   2.82118   2.82883   2.82981
 Alpha virt. eigenvalues --    2.85462   2.86784   2.89418   2.91433   2.95456
 Alpha virt. eigenvalues --    2.95890   2.97083   2.98561   3.01860   3.03764
 Alpha virt. eigenvalues --    3.05286   3.05781   3.10221   3.11992   3.14158
 Alpha virt. eigenvalues --    3.16567   3.21979   3.24497   3.27400   3.31663
 Alpha virt. eigenvalues --    3.32623   3.36242   3.38374   3.45067   3.52232
 Alpha virt. eigenvalues --    3.55403   3.63604   3.69842   3.76205   3.77134
 Alpha virt. eigenvalues --    3.84869   3.86414   4.05200   4.15692   4.23062
 Alpha virt. eigenvalues --    4.26499   4.27813   4.30054   4.32358   4.36899
 Alpha virt. eigenvalues --    4.41332   4.43494   4.44322   4.45528   4.47090
 Alpha virt. eigenvalues --    4.51521   4.55355   4.56526   4.61192   4.65566
 Alpha virt. eigenvalues --    4.72005   4.76333   4.79085   4.84919   5.21020
 Alpha virt. eigenvalues --    5.21782   5.26087   5.57842   5.68288   5.91563
 Alpha virt. eigenvalues --    5.97158   6.18614   6.45495   6.49919   7.10479
 Alpha virt. eigenvalues --    8.90761  23.86954  24.11799  24.30255  38.23411
 Alpha virt. eigenvalues --   38.80788
          Condensed to atoms (all electrons):
               1          2          3          4          5          6
     1  C    5.659244  -0.045413   0.006330  -0.012400  -0.036725   0.000539
     2  C   -0.045413   6.124477  -0.392395  -0.062847   0.171135   0.015738
     3  C    0.006330  -0.392395   7.031786   0.362245  -0.678987  -0.100278
     4  N   -0.012400  -0.062847   0.362245   7.698856   0.343436  -0.162786
     5  C   -0.036725   0.171135  -0.678987   0.343436   6.775397   0.576173
     6  O    0.000539   0.015738  -0.100278  -0.162786   0.576173   8.229387
     7  N   -0.000426   0.020902  -0.175755  -0.424304   0.167928  -0.045350
     8  C   -0.004779   0.015903  -0.264371  -0.168696  -0.321205  -0.419316
     9  C   -0.003826  -0.007561  -0.151627   0.027873   0.162235   0.386127
    10  C   -0.001395   0.004201  -0.052310  -0.072682  -0.532851  -0.100087
    11  C    0.000058   0.000351   0.008411  -0.008017  -0.071120  -0.023343
    12  C   -0.000430  -0.000024  -0.042235   0.007071  -0.614474   0.015343
    13  C   -0.000843  -0.001103  -0.081250   0.008701  -0.570497   0.173513
    14  H    0.431876  -0.098817   0.023569   0.000816  -0.002293   0.000004
    15  H    0.409348  -0.067526  -0.003097  -0.000006   0.008160  -0.000016
    16  H    0.429370  -0.062650  -0.015228   0.001143  -0.004360  -0.000049
[...]
     3  C    0.000031  -0.000531  -0.000021  -0.000007  -0.000000   0.000003
     4  N    0.000018   0.002206   0.000023   0.000002   0.000000   0.000008
     5  C    0.003184  -0.038858  -0.001728  -0.001518  -0.000044  -0.000159
     6  O   -0.000002   0.000266   0.000195  -0.000001   0.000000   0.000001
     7  N    0.000629   0.007511  -0.000617   0.000082  -0.000004   0.000250
     8  C    0.016546  -0.557137  -0.012969  -0.031783   0.004940  -0.016768
     9  C   -0.012770  -0.562706  -0.122038  -0.003037  -0.013876   0.007706
    10  C   -0.092541   0.182718  -0.029400   0.033511   0.000943   0.031177
    11  C    0.385821   0.305773   0.007961  -0.013175   0.110112  -0.032994
    12  C   -0.017469  -0.293344  -0.009570  -0.071593  -0.211236  -0.052791
    13  C   -0.002885  -0.280082   0.442201  -0.043342   0.032039  -0.030319
    14  H   -0.000000  -0.000000  -0.000000  -0.000000  -0.000000  -0.000000
    15  H    0.000000   0.000000   0.000000  -0.000000   0.000000  -0.000000
    16  H   -0.000000  -0.000000   0.000000  -0.000000   0.000000   0.000000
    17  H   -0.000000  -0.000000  -0.000000  -0.000000   0.000000   0.000000
    18  H    0.000000   0.000000   0.000000   0.000000   0.000000  -0.000000
    19  H   -0.000000  -0.000001  -0.000000  -0.000000   0.000000  -0.000000
    20  H   -0.000000   0.000000  -0.000000   0.000000  -0.000000  -0.000000
    21  H   -0.000000  -0.000014  -0.000000  -0.000000   0.000000  -0.000000
    22  H   -0.000017   0.000597   0.000003   0.000000   0.000000   0.000000
    23  H    0.000012   0.001576  -0.003397   0.000017  -0.000000   0.000009
    24  H   -0.003585   0.007126   0.000015   0.000047  -0.000000   0.000025
    25  H    0.449111   0.019728  -0.000126   0.001725   0.000064   0.000235
    26  S    0.019728  14.791371   0.025864   0.016562   0.098394  -0.005325
    27  H   -0.000126   0.025864   0.445817   0.000271   0.000058   0.002090
    28  F    0.001725   0.016562   0.000271   9.729938  -0.028368  -0.012330
    29  F    0.000064   0.098394   0.000058  -0.028368   9.593127  -0.030266
    30  F    0.000235  -0.005325   0.002090  -0.012330  -0.030266   9.721146
    31  F    0.000226  -0.004453   0.002085  -0.062596  -0.030416  -0.026571
    32  F    0.001749   0.018411   0.000284  -0.020779  -0.028502  -0.062165
              31         32
     1  C    0.000000  -0.000000
     2  C   -0.000000   0.000000
     3  C    0.000001  -0.000010
     4  N    0.000007   0.000002
     5  C   -0.000414  -0.001882
     6  O    0.000001  -0.000001
     7  N    0.000240   0.000053
     8  C   -0.019285  -0.035029
     9  C    0.002891  -0.005097
    10  C    0.034010   0.040808
    11  C   -0.027153  -0.007408
    12  C   -0.047842  -0.074497
    13  C   -0.037298  -0.050706
    14  H   -0.000000  -0.000000
    15  H    0.000000   0.000000
    16  H   -0.000000  -0.000000
    17  H   -0.000000  -0.000000
    18  H    0.000000   0.000000
    19  H   -0.000000  -0.000000
    20  H   -0.000000   0.000000
    21  H   -0.000000  -0.000000
    22  H    0.000000   0.000000
    23  H    0.000009   0.000017
    24  H    0.000025   0.000044
    25  H    0.000226   0.001749
    26  S   -0.004453   0.018411
    27  H    0.002085   0.000284
    28  F   -0.062596  -0.020779
    29  F   -0.030416  -0.028502
    30  F   -0.026571  -0.062165
    31  F    9.722691  -0.011950
    32  F   -0.011950   9.728637
 Mulliken charges:
               1
     1  C   -0.728302
     2  C   -0.347970
     3  C   -0.173904
     4  N   -0.673571
     5  C    0.785936
     6  O   -0.578568
     7  N   -0.602149
     8  C    0.064584
     9  C    0.690976
    10  C   -0.513060
    11  C   -0.542457
    12  C   -0.293979
    13  C   -0.220862
    14  H    0.216453
    15  H    0.216563
    16  H    0.217231
    17  H    0.210571
    18  H    0.225740
    19  H    0.242289
    20  H    0.226181
    21  H    0.399160
    22  H    0.400854
    23  H    0.282604
    24  H    0.197759
    25  H    0.250316
    26  S    2.264346
    27  H    0.252999
    28  F   -0.493627
    29  F   -0.496965
    30  F   -0.492962
    31  F   -0.494208
    32  F   -0.491979
    33  O    0.000000
    34  O    0.000000
    35  C    0.000000
    36  C    0.000000
    37  C    0.000000
    38  H    0.000000
    39  H    0.000000
    40  H    0.000000
    41  H    0.000000
    42  H    0.000000
 Sum of Mulliken charges =  -0.00000
 Mulliken charges with hydrogens summed into heavy atoms:
               1
     1  C   -0.078055
     2  C    0.088342
     3  C    0.294566
     4  N   -0.274412
     5  C    0.785936
     6  O   -0.578568
     7  N   -0.201295
     8  C    0.064584
     9  C    0.973580
    10  C   -0.315300
    11  C   -0.292141
    12  C   -0.293979
    13  C    0.032138
    26  S    2.264346
    28  F   -0.493627
    29  F   -0.496965
    30  F   -0.492962
    31  F   -0.494208
    32  F   -0.491979
    33  O    0.000000
    34  O    0.000000
    35  C    0.000000
    36  C    0.000000
    37  C    0.000000
         Mulliken charges condensed to fragments:
      1     -0.000000
      2      0.000000
 Electronic spatial extent (au):  <R**2>=          11125.6433
 Charge=             -0.0000 electrons
 Dipole moment (field-independent basis, Debye):
    X=              8.9133    Y=              2.6810    Z=              0.0316  Tot=              9.3079
 Quadrupole moment (field-independent basis, Debye-Ang):
   XX=           -123.5681   YY=           -119.7576   ZZ=           -122.5542
   XY=              2.0696   XZ=             -0.0304   YZ=             -0.0258
 Traceless Quadrupole moment (field-independent basis, Debye-Ang):
   XX=             -1.6081   YY=              2.2023   ZZ=             -0.5942
   XY=              2.0696   XZ=             -0.0304   YZ=             -0.0258
 Octapole moment (field-independent basis, Debye-Ang**2):
  XXX=            485.2737  YYY=            300.7417  ZZZ=             -3.1470  XYY=             57.7213
  XXY=             64.4675  XXZ=             -1.0738  XZZ=             74.5485  YZZ=             92.8877
  YYZ=              0.8894  XYZ=             -1.6929
 Hexadecapole moment (field-independent basis, Debye-Ang**3):
 XXXX=         -11784.7059 YYYY=          -1675.7856 ZZZZ=           -300.5444 XXXY=            786.9388
 XXXZ=             -7.9553 YYYX=           1007.4773 YYYZ=            -10.0565 ZZZX=            -16.8704
 ZZZY=             -3.5969 XXYY=          -2126.0145 XXZZ=          -2014.8254 YYZZ=           -325.3615
 XXYZ=             -4.5302 YYXZ=              1.6712 ZZXY=            317.5597
 N-N= 1.711679268281D+03 E-N=-6.886004053700D+03  KE= 1.460457815994D+03
 CPIOFr:  IOpCl= 0 IRwI=-1 IRwCP=  731 ICalc=  3 LCPTot=      383511 Len1MO=      992832 IndFrg=     4354839
 Counterpoise: doing MCBS calculation for fragment   2
 Basis read from rwf:  (6D, 7F)
 There are   105 symmetry adapted cartesian basis functions of A   symmetry.
 There are   105 symmetry adapted basis functions of A   symmetry.
   105 basis functions,   180 primitive gaussians,   105 cartesian basis functions
    20 alpha electrons       20 beta electrons
       nuclear repulsion energy       168.5432903434 Hartrees.
 NAtoms=   42 NActive=   10 NUniq=   10 SFac= 1.00D+00 NAtFMM=   60 NAOKFM=F Big=F
 Integral buffers will be    131072 words long.
 Raffenetti 2 integral format.
 Two-electron integral symmetry is turned on.
 One-electron integrals computed using PRISM.
 NBasis=   105 RedAO= T EigKep=  1.22D-04  NBF=   105
 NBsUse=   105 1.00D-06 EigRej= -1.00D+00 NBFU=   105
 ExpMin= 4.38D-02 ExpMax= 5.48D+03 ExpMxC= 8.25D+02 IAcc=3 IRadAn=         5 AccDes= 0.00D+00
 Harris functional with IExCor= 1009 and IRadAn=       5 diagonalized for initial guess.
 HarFok:  IExCor= 1009 AccDes= 0.00D+00 IRadAn=         5 IDoV= 1 UseB2=F ITyADJ=14
 ICtDFT=  3500011 ScaDFX=  1.000000  1.000000  1.000000  1.000000
 FoFCou: FMM=F IPFlag=           0 FMFlag=      100000 FMFlg1=           0
         NFxFlg=           0 DoJE=T BraDBF=F KetDBF=T FulRan=T
         wScrn=  0.000000 ICntrl=     500 IOpCl=  0 I1Cent=   200000004 NGrid=           0
         NMat0=    1 NMatS0=      1 NMatT0=    0 NMatD0=    1 NMtDS0=    0 NMtDT0=    0
 Petite list used in FoFCou.
 Keep R1 ints in memory in canonical form, NReq=16474548.
 Requested convergence on RMS density matrix=1.00D-08 within 128 cycles.
 Requested convergence on MAX density matrix=1.00D-06.
 Requested convergence on             energy=1.00D-06.
 No special actions if energy rises.
 SCF Done:  E(RM062X) =  -267.728482362     A.U. after   14 cycles
            NFock= 14  Conv=0.40D-08     -V/T= 2.0084

 **********************************************************************

            Population analysis using the SCF density.

 **********************************************************************

 Orbital symmetries:
       Occupied  (A) (A) (A) (A) (A) (A) (A) (A) (A) (A) (A) (A)
                 (A) (A) (A) (A) (A) (A) (A) (A)
       Virtual   (A) (A) (A) (A) (A) (A) (A) (A) (A) (A) (A) (A)
                 (A) (A) (A) (A) (A) (A) (A) (A) (A) (A) (A) (A)
                 (A) (A) (A) (A) (A) (A) (A) (A) (A) (A) (A) (A)
                 (A) (A) (A) (A) (A) (A) (A) (A) (A) (A) (A) (A)
                 (A) (A) (A) (A) (A) (A) (A) (A) (A) (A) (A) (A)
                 (A) (A) (A) (A) (A) (A) (A) (A) (A) (A) (A) (A)
                 (A) (A) (A) (A) (A) (A) (A) (A) (A) (A) (A) (A)
                 (A)
 The electronic state is 1-A.
 Alpha  occ. eigenvalues --  -19.38313 -19.37984 -10.43619 -10.38686 -10.37528
 Alpha  occ. eigenvalues --   -0.94229  -0.84522  -0.69914  -0.56014  -0.39484
 Alpha  occ. eigenvalues --   -0.36276  -0.33516  -0.30138  -0.27617  -0.27396
 Alpha  occ. eigenvalues --   -0.25016  -0.22641  -0.10888  -0.10844  -0.10176
 Alpha virt. eigenvalues --    0.14617   0.16485   0.18636   0.19568   0.21556
 Alpha virt. eigenvalues --    0.21832   0.22417   0.22880   0.23464   0.25913
 Alpha virt. eigenvalues --    0.28391   0.29733   0.30030   0.38009   0.38905
 Alpha virt. eigenvalues --    0.42272   0.42501   0.43635   0.45463   0.46255
 Alpha virt. eigenvalues --    0.46735   0.48001   0.49566   0.49786   0.50773
 Alpha virt. eigenvalues --    0.55096   0.56094   0.57225   0.71676   0.75207
 Alpha virt. eigenvalues --    0.84455   0.86643   0.89650   0.92068   0.94819
 Alpha virt. eigenvalues --    0.99477   1.01985   1.08486   1.10006   1.14583
 Alpha virt. eigenvalues --    1.20091   1.21329   1.31093   1.32743   1.33996
 Alpha virt. eigenvalues --    1.34582   1.49193   1.54767   1.57826   1.59167
 Alpha virt. eigenvalues --    1.61032   1.63166   1.63277   1.74396   1.78260
 Alpha virt. eigenvalues --    1.80805   1.86853   2.02568   2.02767   2.08638
 Alpha virt. eigenvalues --    2.10106   2.12084   2.14398   2.16411   2.22704
 Alpha virt. eigenvalues --    2.26494   2.28162   2.29478   2.45076   2.52361
 Alpha virt. eigenvalues --    2.54100   2.54325   2.73489   2.74143   2.78552
 Alpha virt. eigenvalues --    2.97705   3.13245   3.27227   3.32690   3.42443
 Alpha virt. eigenvalues --    4.36342   4.41517   4.58214   4.66947   4.82508
          Condensed to atoms (all electrons):
               1          2          3          4          5          6
     1  O    8.617986  -0.169701   0.529814  -0.393136   0.079469  -0.002871
     2  O   -0.169701   8.597223   0.462589  -0.323815   0.096342   0.001407
     3  C    0.529814   0.462589   4.836561  -0.362340   0.050759  -0.015201
     4  C   -0.393136  -0.323815  -0.362340   7.537227  -0.642086   0.388795
     5  C    0.079469   0.096342   0.050759  -0.642086   6.025906  -0.056136
     6  H   -0.002871   0.001407  -0.015201   0.388795  -0.056136   0.530317
     7  H   -0.002789   0.001222  -0.015292   0.388381  -0.055616  -0.032663
     8  H   -0.000093  -0.006589  -0.003272  -0.047664   0.410874  -0.004346
     9  H   -0.000311   0.002877   0.012405  -0.060154   0.378423  -0.002026
    10  H   -0.000118  -0.006666  -0.002374  -0.048681   0.411245   0.003864
               7          8          9         10
     1  O   -0.002789  -0.000093  -0.000311  -0.000118
     2  O    0.001222  -0.006589   0.002877  -0.006666
     3  C   -0.015292  -0.003272   0.012405  -0.002374
     4  C    0.388381  -0.047664  -0.060154  -0.048681
     5  C   -0.055616   0.410874   0.378423   0.411245
     6  H   -0.032663  -0.004346  -0.002026   0.003864
     7  H    0.530597   0.003862  -0.002046  -0.004332
     8  H    0.003862   0.499635  -0.033971  -0.025574
     9  H   -0.002046  -0.033971   0.589108  -0.033885
    10  H   -0.004332  -0.025574  -0.033885   0.498279
 Mulliken charges:
               1
     1  C    0.000000
     2  C    0.000000
     3  C    0.000000
     4  N    0.000000
     5  C    0.000000
     6  O    0.000000
     7  N    0.000000
     8  C    0.000000
     9  C    0.000000
    10  C    0.000000
    11  C    0.000000
    12  C    0.000000
    13  C    0.000000
    14  H    0.000000
    15  H    0.000000
    16  H    0.000000
    17  H    0.000000
    18  H    0.000000
    19  H    0.000000
    20  H    0.000000
    21  H    0.000000
    22  H    0.000000
    23  H    0.000000
    24  H    0.000000
    25  H    0.000000
    26  S    0.000000
    27  H    0.000000
    28  F    0.000000
    29  F    0.000000
    30  F    0.000000
    31  F    0.000000
    32  F    0.000000
    33  O   -0.658251
    34  O   -0.654888
    35  C    0.506352
    36  C   -0.436528
    37  C   -0.699181
    38  H    0.188861
    39  H    0.188674
    40  H    0.207138
    41  H    0.149580
    42  H    0.208242
 Sum of Mulliken charges =  -1.00000
 Mulliken charges with hydrogens summed into heavy atoms:
               1
     1  C    0.000000
     2  C    0.000000
     3  C    0.000000
     4  N    0.000000
     5  C    0.000000
     6  O    0.000000
     7  N    0.000000
     8  C    0.000000
     9  C    0.000000
    10  C    0.000000
    11  C    0.000000
    12  C    0.000000
    13  C    0.000000
    26  S    0.000000
    28  F    0.000000
    29  F    0.000000
    30  F    0.000000
    31  F    0.000000
    32  F    0.000000
    33  O   -0.658251
    34  O   -0.654888
    35  C    0.506352
    36  C   -0.058993
    37  C   -0.134220
         Mulliken charges condensed to fragments:
      1      0.000000
      2     -1.000000
 Electronic spatial extent (au):  <R**2>=           3439.1319
 Charge=             -1.0000 electrons
 Dipole moment (field-independent basis, Debye):
    X=            -16.2160    Y=             -8.4169    Z=              0.1000  Tot=             18.2705
 Quadrupole moment (field-independent basis, Debye-Ang):
   XX=            -96.9833   YY=            -54.2565   ZZ=            -32.4451
   XY=            -25.6004   XZ=              1.2643   YZ=             -0.1172
 Traceless Quadrupole moment (field-independent basis, Debye-Ang):
   XX=            -35.7550   YY=              6.9718   ZZ=             28.7832
   XY=            -25.6004   XZ=              1.2643   YZ=             -0.1172
 Octapole moment (field-independent basis, Debye-Ang**2):
  XXX=           -629.0460  YYY=           -382.2101  ZZZ=              2.5095  XYY=           -177.1867
  XXY=           -194.2417  XXZ=              8.6914  XZZ=           -114.0648  YZZ=            -97.8647
  YYZ=              0.1089  XYZ=              1.3634
 Hexadecapole moment (field-independent basis, Debye-Ang**3):
 XXXX=          -3931.0511 YYYY=          -2618.6918 ZZZZ=            -51.2572 XXXY=          -1437.2353
 XXXZ=             56.3990 YYYX=          -1273.3374 YYYZ=              2.2275 ZZZX=             14.5561
 ZZZY=              4.7435 XXYY=          -1014.4947 XXZZ=           -438.7020 YYZZ=           -370.6644
 XXYZ=             12.7753 YYXZ=              6.2667 ZZXY=           -336.4578
 N-N= 1.685432903434D+02 E-N=-9.724291691752D+02  KE= 2.654887960425D+02
 CPIOFr:  IOpCl= 0 IRwI=-1 IRwCP=  731 ICalc=  4 LCPTot=      383511 Len1MO=      992832 IndFrg=     5347671
 CPIOFr:  IOpCl= 0 IRwI=-2 IRwCP=  731 ICalc=  0 LCPTot=      383511 Len1MO=      992832 IndFrg=     1376343
 Counterpoise corrected energy =   -1738.337697999825
                   BSSE energy =       0.001748396792
               sum of monomers =   -1738.255649904586
           complexation energy =     -52.58 kcal/mole (raw)
           complexation energy =     -51.49 kcal/mole (corrected)
 1\1\GINC-R3757\SP\RM062X\Gen\C13H18F5N2O3S1(1-)\ROOT\25-Feb-2019\0\\# 
 M062X/Gen 6D SCF=Tight INT(grid=ultrafine) Counterpoise=2 maxdisk=6710
 88640\\4SF5_EtO.M062X_6-31pGd_bsse\\-1,1\C,0,-2.151296941,2.3095142078
 ,-0.0573528405\C,0,-0.7953929468,1.6567221286,0.2006703446\C,0,0.35485
 80319,2.5558104354,-0.2394818505\N,0,1.6154617928,1.8883593001,-0.0082
 548755\C,0,2.7801577031,2.5582794943,-0.1637114767\O,0,2.8427061826,3.
 7557736752,-0.4530208579\N,0,3.8939805714,1.7505709156,0.0458980546\C,
 0,5.2163114766,2.1155412829,-0.0330097143\C,0,5.6776874046,3.411367057
 4,-0.345971881\C,0,6.1668280549,1.099411583,0.2228299353\C,0,7.5230331
 365,1.3632709617,0.1698934078\C,0,7.9540384962,2.6530361608,-0.1420416
 404\C,0,7.0412322648,3.670460576,-0.3987548187\H,0,-2.9736439462,1.662
 974661,0.2661240338\H,0,-2.2902962685,2.5190623382,-1.1246063386\H,0,-
 2.2403602744,3.2608684611,0.4807972837\H,0,-0.7242485288,0.6965027472,
 -0.3235662692\H,0,-0.6779937055,1.427327562,1.2666055465\H,0,0.3376552
 26,3.5033699794,0.3146366946\H,0,0.2432156776,2.8161821886,-1.30403492
 93\H,0,1.6058141109,0.864801649,0.1612600896\H,0,3.7232780591,0.749560
 9896,0.2838346355\H,0,4.9595232093,4.1951658581,-0.5428399418\H,0,5.80
 58112455,0.1019396644,0.46201987\H,0,8.2377583626,0.5721673915,0.36928
 01622\S,0,9.7121773705,3.0029328835,-0.212948922\H,0,7.3857402984,4.67
 03018059,-0.6408005681\F,0,10.0479403791,1.651594056,-1.0429119704\F,0
 ,11.3043194464,3.3181035625,-0.2764601328\F,0,9.5942611482,3.828246146
 9,-1.6035595817\F,0,9.5712205368,4.3936388096,0.6083691274\F,0,10.0243
 717548,2.2164879847,1.1698250178\O,0,1.4441052715,-0.8813832337,0.4356
 849929\O,0,3.6775535182,-0.9412515342,0.6604293601\C,0,2.5332988932,-1
 .4713638705,0.6503898572\C,0,2.4453177266,-2.9810399659,0.9264480064\C
 ,0,3.7888947658,-3.6586710454,1.1654597002\H,0,1.9206677914,-3.4327630
 668,0.0755002613\H,0,1.7793020392,-3.1105179863,1.7886231692\H,0,4.443
 6190886,-3.5346824125,0.29796601\H,0,3.6639257859,-4.7311977792,1.3588
 814572\H,0,4.3023257903,-3.2071056234,2.0191915912\\Version=ES64L-G09R
 evE.01\State=1-A\HF=-267.7284824\RMSD=4.017e-09\Dipole=1.1526371,0.463
 6717,-0.0531301\Quadrupole=-26.4117661,4.3625971,22.049169,-14.6538166
 ,2.2545629,3.7915317\PG=C01 [X(C13H18F5N2O3S1)]\\@


 THE GREAT THING ABOUT BEING IMPERFECT IS THE JOY IT BRINGS OTHERS.
   -- SIGN OUTSIDE LAKE AGASSIZ JR. HIGH SCHOOL, FARGO, N.D.
 Job cpu time:       0 days  1 hours 58 minutes 27.2 seconds.
 File lengths (MBytes):  RWF=    202 Int=      0 D2E=      0 Chk=     55 Scr=      1
 Normal termination of Gaussian 09 at Mon Feb 25 10:07:26 2019.
WARNING: pbs_rusage is deprecated and values produced may not be accurate


=============================================================================
                                     Resource usage:
                                       CPU time:              01:41:55
   JobId:    6128545.r-man2            Elapsed time:          00:26:25
   Project:             q95            Requested time:        48:00:00
   Service Units:      1.76 
                                       Max physical memory:      164MB
                                       Max virtual memory:       423MB
                                       Requested memory:           0MB

                                       Number of cpus:               4

                                       Max jobfs disk use:       0.2GB
                                       Requested jobfs:          5.0GB
=============================================================================

