 Entering Gaussian System, Link 0=/apps/gaussian/g09e01/g09/g09
 AtFile(1): /home/507/hio507/Basis/6-31pGd.gbs
 Initial command:
 /apps/gaussian/g09e01/g09/l1.exe "/jobfs/local/6062816.r-man2/Gau-27186.inp" -scrdir="/jobfs/local/6062816.r-man2/"
 Entering Link 1 = /apps/gaussian/g09e01/g09/l1.exe PID=     27187.
  
 Copyright (c) 1988,1990,1992,1993,1995,1998,2003,2009,2015,
            Gaussian, Inc.  All Rights Reserved.
  
 This is part of the Gaussian(R) 09 program.  It is based on
 the Gaussian(R) 03 system (copyright 2003, Gaussian, Inc.),
 the Gaussian(R) 98 system (copyright 1998, Gaussian, Inc.),
 the Gaussian(R) 94 system (copyright 1995, Gaussian, Inc.),
 the Gaussian 92(TM) system (copyright 1992, Gaussian, Inc.),
 the Gaussian 90(TM) system (copyright 1990, Gaussian, Inc.),
 the Gaussian 88(TM) system (copyright 1988, Gaussian, Inc.),
 the Gaussian 86(TM) system (copyright 1986, Carnegie Mellon
 University), and the Gaussian 82(TM) system (copyright 1983,
 Carnegie Mellon University). Gaussian is a federally registered
 trademark of Gaussian, Inc.
  
 This software contains proprietary and confidential information,
 including trade secrets, belonging to Gaussian, Inc.
  
 This software is provided under written license and may be
 used, copied, transmitted, or stored only in accord with that
 written license.
  
 The following legend is applicable only to US Government
 contracts under FAR:
  
                    RESTRICTED RIGHTS LEGEND
  
 Use, reproduction and disclosure by the US Government is
 subject to restrictions as set forth in subparagraphs (a)
 and (c) of the Commercial Computer Software - Restricted
 Rights clause in FAR 52.227-19.
  
 Gaussian, Inc.
 340 Quinnipiac St., Bldg. 40, Wallingford CT 06492
  
  
 ---------------------------------------------------------------
 Warning -- This program may not be used in any manner that
 competes with the business of Gaussian, Inc. or will provide
 assistance to any competitor of Gaussian, Inc.  The licensee
 of this program is prohibited from giving any competitor of
 Gaussian, Inc. access to this program.  By using this program,
 the user acknowledges that Gaussian, Inc. is engaged in the
 business of creating and licensing software in the field of
 computational chemistry and represents and warrants to the
 licensee that it is not a competitor of Gaussian, Inc. and that
 it will not use this program in any manner prohibited above.
 ---------------------------------------------------------------
  

 Cite this work as:
 Gaussian 09, Revision E.01,
 M. J. Frisch, G. W. Trucks, H. B. Schlegel, G. E. Scuseria, 
 M. A. Robb, J. R. Cheeseman, G. Scalmani, V. Barone, B. Mennucci, 
 G. A. Petersson, H. Nakatsuji, M. Caricato, X. Li, H. P. Hratchian, 
 A. F. Izmaylov, J. Bloino, G. Zheng, J. L. Sonnenberg, M. Hada, 
 M. Ehara, K. Toyota, R. Fukuda, J. Hasegawa, M. Ishida, T. Nakajima, 
 Y. Honda, O. Kitao, H. Nakai, T. Vreven, J. A. Montgomery, Jr., 
 J. E. Peralta, F. Ogliaro, M. Bearpark, J. J. Heyd, E. Brothers, 
 K. N. Kudin, V. N. Staroverov, T. Keith, R. Kobayashi, J. Normand, 
 K. Raghavachari, A. Rendell, J. C. Burant, S. S. Iyengar, J. Tomasi, 
 M. Cossi, N. Rega, J. M. Millam, M. Klene, J. E. Knox, J. B. Cross, 
 V. Bakken, C. Adamo, J. Jaramillo, R. Gomperts, R. E. Stratmann, 
 O. Yazyev, A. J. Austin, R. Cammi, C. Pomelli, J. W. Ochterski, 
 R. L. Martin, K. Morokuma, V. G. Zakrzewski, G. A. Voth, 
 P. Salvador, J. J. Dannenberg, S. Dapprich, A. D. Daniels, 
 O. Farkas, J. B. Foresman, J. V. Ortiz, J. Cioslowski, 
 and D. J. Fox, Gaussian, Inc., Wallingford CT, 2013.
 
 ******************************************
 Gaussian 09:  ES64L-G09RevE.01 30-Nov-2015
                24-Feb-2019 
 ******************************************
 %chk=4SF5_EtO.M062X_6-31pGd_opt.chk
 %mem=196608000
 %nproc=8
 Will use up to    8 processors via shared memory.
 ----------------------------------------------------------------------
 # M062X/Gen 6D SCF=Tight INT(grid=ultrafine) OPT=CalcFC IOP(2/17=4) ma
 xdisk=3221225472
 ----------------------------------------------------------------------
 1/10=4,14=-1,18=20,19=15,26=4,38=1/1,3;
 2/9=110,12=2,17=4,18=5,40=1/2;
 3/5=7,8=2,11=2,16=1,25=1,30=1,71=2,74=-55,75=-5,140=1/1,2,3;
 4//1;
 5/5=2,32=2,38=5/2;
 8/6=4,10=90,11=11/1;
 11/6=1,8=1,9=11,15=111,16=1/1,2,10;
 10/6=1,13=1/2;
 6/7=2,8=2,9=2,10=2,28=1/1;
 7/10=1,18=20,25=1/1,2,3,16;
 1/10=4,14=-1,18=20,19=15,26=4/3(2);
 2/9=110,17=4/2;
 99//99;
 2/9=110,17=4/2;
 3/5=7,6=1,8=2,11=2,16=1,25=1,30=1,71=1,74=-55,75=-5,82=7/1,2,3;
 4/5=5,16=3,69=1/1;
 5/5=2,32=2,38=5/2;
 7//1,2,3,16;
 1/14=-1,18=20,19=15,26=4/3(-5);
 2/9=110,17=4/2;
 6/7=2,8=2,9=2,10=2,19=2,28=1/1;
 99/9=1/99;
 --------------------------
 4SF5_EtO.M062X_6-31pGd_opt
 --------------------------
 Symbolic Z-matrix:
 Charge = -1 Multiplicity = 1
 C                    -2.16035   2.33786  -0.08902 
 C                    -0.81572   1.63174   0.05979 
 C                     0.34762   2.58464  -0.18698 
 N                     1.6064    1.88573  -0.03144 
 C                     2.77406   2.553    -0.16217 
 O                     2.83824   3.76025  -0.4135 
 N                     3.88816   1.74149   0.018 
 C                     5.21268   2.11074  -0.05294 
 C                     5.67333   3.41248  -0.33731 
 C                     6.16373   1.09074   0.17941 
 C                     7.52015   1.35459   0.12996 
 C                     7.94855   2.65126  -0.15436 
 C                     7.03668   3.67488  -0.38661 
 H                    -2.99215   1.64782   0.08637 
 H                    -2.27863   2.75481  -1.09619 
 H                    -2.2544    3.16373   0.62605 
 H                    -0.74864   0.79156  -0.64159 
 H                    -0.72117   1.20228   1.06432 
 H                     0.30151   3.42811   0.51561 
 H                     0.27583   3.0144   -1.19645 
 H                     1.59188   0.86753   0.16099 
 H                     3.72198   0.73704   0.24182 
 H                     4.95857   4.20327  -0.51593 
 H                     5.80663   0.088     0.39937 
 H                     8.23287   0.55709   0.31133 
 S                     9.70777   3.00144  -0.22115 
 H                     7.37611   4.68159  -0.60709 
 F                     10.03797   1.67594  -1.09294 
 F                     11.29993   3.31565  -0.28106 
 F                     9.58655   3.86823  -1.58526 
 F                     9.57222   4.36616   0.64247 
 F                     10.02353   2.17397   1.1359 
 O                     1.46941  -0.88457   0.49608 
 O                     3.70626  -0.95509   0.63298 
 C                     2.56055  -1.48019   0.69025 
 C                     2.47008  -2.97413   1.0313 
 C                     3.81052  -3.67659   1.20044 
 H                     1.87549  -3.45003   0.24198 
 H                     1.86976  -3.05606   1.94629 
 H                     4.40594  -3.60903   0.28484 
 H                     3.67008  -4.73712   1.44163 
 H                     4.39519  -3.21584   2.0021 
 
 Add virtual bond connecting atoms O33        and H21        Dist= 3.38D+00.
 Add virtual bond connecting atoms O34        and H22        Dist= 3.28D+00.

 GradGradGradGradGradGradGradGradGradGradGradGradGradGradGradGradGradGrad
 Berny optimization.
 Initialization pass.
                           ----------------------------
                           !    Initial Parameters    !
                           ! (Angstroms and Degrees)  !
 --------------------------                            --------------------------
 ! Name  Definition              Value          Derivative Info.                !
 --------------------------------------------------------------------------------
 ! R1    R(1,2)                  1.526          calculate D2E/DX2 analytically  !
 ! R2    R(1,14)                 1.0949         calculate D2E/DX2 analytically  !
 ! R3    R(1,15)                 1.0965         calculate D2E/DX2 analytically  !
 ! R4    R(1,16)                 1.0965         calculate D2E/DX2 analytically  !
 ! R5    R(2,3)                  1.5239         calculate D2E/DX2 analytically  !
 ! R6    R(2,17)                 1.0965         calculate D2E/DX2 analytically  !
 ! R7    R(2,18)                 1.0966         calculate D2E/DX2 analytically  !
 ! R8    R(3,4)                  1.4482         calculate D2E/DX2 analytically  !
 ! R9    R(3,19)                 1.0987         calculate D2E/DX2 analytically  !
 ! R10   R(3,20)                 1.0995         calculate D2E/DX2 analytically  !
 ! R11   R(4,5)                  1.3512         calculate D2E/DX2 analytically  !
 ! R12   R(4,21)                 1.0363         calculate D2E/DX2 analytically  !
 ! R13   R(5,6)                  1.2348         calculate D2E/DX2 analytically  !
 ! R14   R(5,7)                  1.39           calculate D2E/DX2 analytically  !
 ! R15   R(7,8)                  1.3769         calculate D2E/DX2 analytically  !
 ! R16   R(7,22)                 1.0424         calculate D2E/DX2 analytically  !
 ! R17   R(8,9)                  1.4098         calculate D2E/DX2 analytically  !
 ! R18   R(8,10)                 1.4138         calculate D2E/DX2 analytically  !
 ! R19   R(9,13)                 1.3892         calculate D2E/DX2 analytically  !
 ! R20   R(9,23)                 1.0808         calculate D2E/DX2 analytically  !
 ! R21   R(10,11)                1.3827         calculate D2E/DX2 analytically  !
 ! R22   R(10,24)                1.0869         calculate D2E/DX2 analytically  !
 ! R23   R(11,12)                1.3949         calculate D2E/DX2 analytically  !
 ! R24   R(11,25)                1.0848         calculate D2E/DX2 analytically  !
 ! R25   R(12,13)                1.3904         calculate D2E/DX2 analytically  !
 ! R26   R(12,26)                1.795          calculate D2E/DX2 analytically  !
 ! R27   R(13,27)                1.085          calculate D2E/DX2 analytically  !
 ! R28   R(21,33)                1.7881         calculate D2E/DX2 analytically  !
 ! R29   R(22,34)                1.7368         calculate D2E/DX2 analytically  !
 ! R30   R(26,28)                1.6205         calculate D2E/DX2 analytically  !
 ! R31   R(26,29)                1.624          calculate D2E/DX2 analytically  !
 ! R32   R(26,30)                1.6207         calculate D2E/DX2 analytically  !
 ! R33   R(26,31)                1.6207         calculate D2E/DX2 analytically  !
 ! R34   R(26,32)                1.6205         calculate D2E/DX2 analytically  !
 ! R35   R(33,35)                1.2582         calculate D2E/DX2 analytically  !
 ! R36   R(34,35)                1.2616         calculate D2E/DX2 analytically  !
 ! R37   R(35,36)                1.535          calculate D2E/DX2 analytically  !
 ! R38   R(36,37)                1.5228         calculate D2E/DX2 analytically  !
 ! R39   R(36,38)                1.0968         calculate D2E/DX2 analytically  !
 ! R40   R(36,39)                1.0974         calculate D2E/DX2 analytically  !
 ! R41   R(37,40)                1.0943         calculate D2E/DX2 analytically  !
 ! R42   R(37,41)                1.0966         calculate D2E/DX2 analytically  !
 ! R43   R(37,42)                1.094          calculate D2E/DX2 analytically  !
 ! A1    A(2,1,14)             111.2329         calculate D2E/DX2 analytically  !
 ! A2    A(2,1,15)             111.1364         calculate D2E/DX2 analytically  !
 ! A3    A(2,1,16)             111.1313         calculate D2E/DX2 analytically  !
 ! A4    A(14,1,15)            107.7486         calculate D2E/DX2 analytically  !
 ! A5    A(14,1,16)            107.7617         calculate D2E/DX2 analytically  !
 ! A6    A(15,1,16)            107.6604         calculate D2E/DX2 analytically  !
 ! A7    A(1,2,3)              111.5629         calculate D2E/DX2 analytically  !
 ! A8    A(1,2,17)             110.2475         calculate D2E/DX2 analytically  !
 ! A9    A(1,2,18)             110.2751         calculate D2E/DX2 analytically  !
 ! A10   A(3,2,17)             109.1987         calculate D2E/DX2 analytically  !
 ! A11   A(3,2,18)             109.1118         calculate D2E/DX2 analytically  !
 ! A12   A(17,2,18)            106.2954         calculate D2E/DX2 analytically  !
 ! A13   A(2,3,4)              110.1442         calculate D2E/DX2 analytically  !
 ! A14   A(2,3,19)             110.1474         calculate D2E/DX2 analytically  !
 ! A15   A(2,3,20)             110.0747         calculate D2E/DX2 analytically  !
 ! A16   A(4,3,19)             109.7732         calculate D2E/DX2 analytically  !
 ! A17   A(4,3,20)             110.1213         calculate D2E/DX2 analytically  !
 ! A18   A(19,3,20)            106.5171         calculate D2E/DX2 analytically  !
 ! A19   A(3,4,5)              120.1604         calculate D2E/DX2 analytically  !
 ! A20   A(3,4,21)             118.8127         calculate D2E/DX2 analytically  !
 ! A21   A(5,4,21)             121.0148         calculate D2E/DX2 analytically  !
 ! A22   A(4,5,6)              123.1897         calculate D2E/DX2 analytically  !
 ! A23   A(4,5,7)              113.0649         calculate D2E/DX2 analytically  !
 ! A24   A(6,5,7)              123.7453         calculate D2E/DX2 analytically  !
 ! A25   A(5,7,8)              127.4287         calculate D2E/DX2 analytically  !
 ! A26   A(5,7,22)             117.5549         calculate D2E/DX2 analytically  !
 ! A27   A(8,7,22)             115.0138         calculate D2E/DX2 analytically  !
 ! A28   A(7,8,9)              124.9137         calculate D2E/DX2 analytically  !
 ! A29   A(7,8,10)             116.4337         calculate D2E/DX2 analytically  !
 ! A30   A(9,8,10)             118.6526         calculate D2E/DX2 analytically  !
 ! A31   A(8,9,13)             120.1463         calculate D2E/DX2 analytically  !
 ! A32   A(8,9,23)             119.5266         calculate D2E/DX2 analytically  !
 ! A33   A(13,9,23)            120.3271         calculate D2E/DX2 analytically  !
 ! A34   A(8,10,11)            121.0868         calculate D2E/DX2 analytically  !
 ! A35   A(8,10,24)            118.544          calculate D2E/DX2 analytically  !
 ! A36   A(11,10,24)           120.3692         calculate D2E/DX2 analytically  !
 ! A37   A(10,11,12)           119.075          calculate D2E/DX2 analytically  !
 ! A38   A(10,11,25)           119.8826         calculate D2E/DX2 analytically  !
 ! A39   A(12,11,25)           121.0424         calculate D2E/DX2 analytically  !
 ! A40   A(11,12,13)           121.1304         calculate D2E/DX2 analytically  !
 ! A41   A(11,12,26)           119.337          calculate D2E/DX2 analytically  !
 ! A42   A(13,12,26)           119.5326         calculate D2E/DX2 analytically  !
 ! A43   A(9,13,12)            119.9089         calculate D2E/DX2 analytically  !
 ! A44   A(9,13,27)            119.3047         calculate D2E/DX2 analytically  !
 ! A45   A(12,13,27)           120.7864         calculate D2E/DX2 analytically  !
 ! A46   A(12,26,28)            93.448          calculate D2E/DX2 analytically  !
 ! A47   A(12,26,30)            93.5746         calculate D2E/DX2 analytically  !
 ! A48   A(12,26,31)            93.582          calculate D2E/DX2 analytically  !
 ! A49   A(12,26,32)            93.4507         calculate D2E/DX2 analytically  !
 ! A50   A(28,26,29)            86.4824         calculate D2E/DX2 analytically  !
 ! A51   A(28,26,30)            89.9945         calculate D2E/DX2 analytically  !
 ! A52   A(28,26,32)            89.6067         calculate D2E/DX2 analytically  !
 ! A53   A(29,26,30)            86.4918         calculate D2E/DX2 analytically  !
 ! A54   A(29,26,31)            86.4877         calculate D2E/DX2 analytically  !
 ! A55   A(29,26,32)            86.4829         calculate D2E/DX2 analytically  !
 ! A56   A(30,26,31)            89.5357         calculate D2E/DX2 analytically  !
 ! A57   A(31,26,32)            90.0022         calculate D2E/DX2 analytically  !
 ! A58   A(21,33,35)           115.683          calculate D2E/DX2 analytically  !
 ! A59   A(22,34,35)           115.0841         calculate D2E/DX2 analytically  !
 ! A60   A(33,35,34)           125.6985         calculate D2E/DX2 analytically  !
 ! A61   A(33,35,36)           116.3522         calculate D2E/DX2 analytically  !
 ! A62   A(34,35,36)           117.9488         calculate D2E/DX2 analytically  !
 ! A63   A(35,36,37)           114.9451         calculate D2E/DX2 analytically  !
 ! A64   A(35,36,38)           107.1176         calculate D2E/DX2 analytically  !
 ! A65   A(35,36,39)           106.8668         calculate D2E/DX2 analytically  !
 ! A66   A(37,36,38)           110.9134         calculate D2E/DX2 analytically  !
 ! A67   A(37,36,39)           110.7617         calculate D2E/DX2 analytically  !
 ! A68   A(38,36,39)           105.7286         calculate D2E/DX2 analytically  !
 ! A69   A(36,37,40)           110.9502         calculate D2E/DX2 analytically  !
 ! A70   A(36,37,41)           110.9663         calculate D2E/DX2 analytically  !
 ! A71   A(36,37,42)           110.9502         calculate D2E/DX2 analytically  !
 ! A72   A(40,37,41)           108.2657         calculate D2E/DX2 analytically  !
 ! A73   A(40,37,42)           107.2374         calculate D2E/DX2 analytically  !
 ! A74   A(41,37,42)           108.335          calculate D2E/DX2 analytically  !
 ! A75   L(4,21,33,1,-1)       176.8742         calculate D2E/DX2 analytically  !
 ! A76   L(7,22,34,1,-1)       188.652          calculate D2E/DX2 analytically  !
 ! A77   L(12,26,29,28,-1)     179.9304         calculate D2E/DX2 analytically  !
 ! A78   L(28,26,31,12,-1)     187.03           calculate D2E/DX2 analytically  !
 ! A79   L(30,26,32,12,-1)     187.0253         calculate D2E/DX2 analytically  !
 ! A80   L(4,21,33,1,-2)       180.1067         calculate D2E/DX2 analytically  !
 ! A81   L(7,22,34,1,-2)       180.5074         calculate D2E/DX2 analytically  !
 ! A82   L(12,26,29,28,-2)     180.0663         calculate D2E/DX2 analytically  !
 ! A83   L(28,26,31,12,-2)     180.0319         calculate D2E/DX2 analytically  !
 ! A84   L(30,26,32,12,-2)     180.0236         calculate D2E/DX2 analytically  !
 ! D1    D(14,1,2,3)           179.8285         calculate D2E/DX2 analytically  !
 ! D2    D(14,1,2,17)           58.3182         calculate D2E/DX2 analytically  !
 ! D3    D(14,1,2,18)          -58.7527         calculate D2E/DX2 analytically  !
 ! D4    D(15,1,2,3)            59.773          calculate D2E/DX2 analytically  !
 ! D5    D(15,1,2,17)          -61.7372         calculate D2E/DX2 analytically  !
 ! D6    D(15,1,2,18)         -178.8081         calculate D2E/DX2 analytically  !
 ! D7    D(16,1,2,3)           -60.1029         calculate D2E/DX2 analytically  !
 ! D8    D(16,1,2,17)          178.3869         calculate D2E/DX2 analytically  !
 ! D9    D(16,1,2,18)           61.316          calculate D2E/DX2 analytically  !
 ! D10   D(1,2,3,4)            179.7077         calculate D2E/DX2 analytically  !
 ! D11   D(1,2,3,19)            58.4821         calculate D2E/DX2 analytically  !
 ! D12   D(1,2,3,20)           -58.6793         calculate D2E/DX2 analytically  !
 ! D13   D(17,2,3,4)           -58.176          calculate D2E/DX2 analytically  !
 ! D14   D(17,2,3,19)         -179.4015         calculate D2E/DX2 analytically  !
 ! D15   D(17,2,3,20)           63.4371         calculate D2E/DX2 analytically  !
 ! D16   D(18,2,3,4)            57.6161         calculate D2E/DX2 analytically  !
 ! D17   D(18,2,3,19)          -63.6095         calculate D2E/DX2 analytically  !
 ! D18   D(18,2,3,20)          179.2291         calculate D2E/DX2 analytically  !
 ! D19   D(2,3,4,5)           -177.7923         calculate D2E/DX2 analytically  !
 ! D20   D(2,3,4,21)             3.4615         calculate D2E/DX2 analytically  !
 ! D21   D(19,3,4,5)           -56.3435         calculate D2E/DX2 analytically  !
 ! D22   D(19,3,4,21)          124.9103         calculate D2E/DX2 analytically  !
 ! D23   D(20,3,4,5)            60.6224         calculate D2E/DX2 analytically  !
 ! D24   D(20,3,4,21)         -118.1238         calculate D2E/DX2 analytically  !
 ! D25   D(3,4,5,6)              0.0298         calculate D2E/DX2 analytically  !
 ! D26   D(3,4,5,7)            179.9047         calculate D2E/DX2 analytically  !
 ! D27   D(21,4,5,6)           178.7479         calculate D2E/DX2 analytically  !
 ! D28   D(21,4,5,7)            -1.3771         calculate D2E/DX2 analytically  !
 ! D29   D(3,4,33,35)         -176.9267         calculate D2E/DX2 analytically  !
 ! D30   D(5,4,33,35)            4.2334         calculate D2E/DX2 analytically  !
 ! D31   D(4,5,7,8)            179.7812         calculate D2E/DX2 analytically  !
 ! D32   D(4,5,7,22)            -0.8331         calculate D2E/DX2 analytically  !
 ! D33   D(6,5,7,8)             -0.3446         calculate D2E/DX2 analytically  !
 ! D34   D(6,5,7,22)           179.0411         calculate D2E/DX2 analytically  !
 ! D35   D(5,7,8,9)             -0.4326         calculate D2E/DX2 analytically  !
 ! D36   D(5,7,8,10)           179.6194         calculate D2E/DX2 analytically  !
 ! D37   D(22,7,8,9)          -179.8316         calculate D2E/DX2 analytically  !
 ! D38   D(22,7,8,10)            0.2204         calculate D2E/DX2 analytically  !
 ! D39   D(5,7,34,35)            3.3794         calculate D2E/DX2 analytically  !
 ! D40   D(8,7,34,35)         -177.4272         calculate D2E/DX2 analytically  !
 ! D41   D(7,8,9,13)          -179.8918         calculate D2E/DX2 analytically  !
 ! D42   D(7,8,9,23)             0.1337         calculate D2E/DX2 analytically  !
 ! D43   D(10,8,9,13)            0.0552         calculate D2E/DX2 analytically  !
 ! D44   D(10,8,9,23)         -179.9193         calculate D2E/DX2 analytically  !
 ! D45   D(7,8,10,11)          179.9053         calculate D2E/DX2 analytically  !
 ! D46   D(7,8,10,24)           -0.1024         calculate D2E/DX2 analytically  !
 ! D47   D(9,8,10,11)           -0.0461         calculate D2E/DX2 analytically  !
 ! D48   D(9,8,10,24)          179.9462         calculate D2E/DX2 analytically  !
 ! D49   D(8,9,13,12)           -0.0267         calculate D2E/DX2 analytically  !
 ! D50   D(8,9,13,27)          179.9736         calculate D2E/DX2 analytically  !
 ! D51   D(23,9,13,12)         179.9476         calculate D2E/DX2 analytically  !
 ! D52   D(23,9,13,27)          -0.052          calculate D2E/DX2 analytically  !
 ! D53   D(8,10,11,12)           0.008          calculate D2E/DX2 analytically  !
 ! D54   D(8,10,11,25)        -179.9952         calculate D2E/DX2 analytically  !
 ! D55   D(24,10,11,12)       -179.9842         calculate D2E/DX2 analytically  !
 ! D56   D(24,10,11,25)          0.0126         calculate D2E/DX2 analytically  !
 ! D57   D(10,11,12,13)          0.022          calculate D2E/DX2 analytically  !
 ! D58   D(10,11,12,26)       -179.9684         calculate D2E/DX2 analytically  !
 ! D59   D(25,11,12,13)       -179.9748         calculate D2E/DX2 analytically  !
 ! D60   D(25,11,12,26)          0.0348         calculate D2E/DX2 analytically  !
 ! D61   D(11,12,13,9)          -0.0126         calculate D2E/DX2 analytically  !
 ! D62   D(11,12,13,27)        179.9871         calculate D2E/DX2 analytically  !
 ! D63   D(26,12,13,9)         179.9778         calculate D2E/DX2 analytically  !
 ! D64   D(26,12,13,27)         -0.0226         calculate D2E/DX2 analytically  !
 ! D65   D(11,12,26,28)         44.7862         calculate D2E/DX2 analytically  !
 ! D66   D(11,12,26,30)        134.9963         calculate D2E/DX2 analytically  !
 ! D67   D(11,12,26,31)       -135.2458         calculate D2E/DX2 analytically  !
 ! D68   D(11,12,26,32)        -45.0273         calculate D2E/DX2 analytically  !
 ! D69   D(13,12,26,28)       -135.2043         calculate D2E/DX2 analytically  !
 ! D70   D(13,12,26,30)        -44.9943         calculate D2E/DX2 analytically  !
 ! D71   D(13,12,26,31)         44.7637         calculate D2E/DX2 analytically  !
 ! D72   D(13,12,26,32)        134.9822         calculate D2E/DX2 analytically  !
 ! D73   D(21,33,35,34)         -1.9398         calculate D2E/DX2 analytically  !
 ! D74   D(21,33,35,36)        177.7834         calculate D2E/DX2 analytically  !
 ! D75   D(22,34,35,33)         -0.2804         calculate D2E/DX2 analytically  !
 ! D76   D(22,34,35,36)       -179.9996         calculate D2E/DX2 analytically  !
 ! D77   D(33,35,36,37)        177.4701         calculate D2E/DX2 analytically  !
 ! D78   D(33,35,36,38)         53.7468         calculate D2E/DX2 analytically  !
 ! D79   D(33,35,36,39)        -59.1935         calculate D2E/DX2 analytically  !
 ! D80   D(34,35,36,37)         -2.7844         calculate D2E/DX2 analytically  !
 ! D81   D(34,35,36,38)       -126.5077         calculate D2E/DX2 analytically  !
 ! D82   D(34,35,36,39)        120.552          calculate D2E/DX2 analytically  !
 ! D83   D(35,36,37,40)        -59.5711         calculate D2E/DX2 analytically  !
 ! D84   D(35,36,37,41)       -179.9766         calculate D2E/DX2 analytically  !
 ! D85   D(35,36,37,42)         59.5303         calculate D2E/DX2 analytically  !
 ! D86   D(38,36,37,40)         62.1144         calculate D2E/DX2 analytically  !
 ! D87   D(38,36,37,41)        -58.2912         calculate D2E/DX2 analytically  !
 ! D88   D(38,36,37,42)       -178.7842         calculate D2E/DX2 analytically  !
 ! D89   D(39,36,37,40)        179.1933         calculate D2E/DX2 analytically  !
 ! D90   D(39,36,37,41)         58.7878         calculate D2E/DX2 analytically  !
 ! D91   D(39,36,37,42)        -61.7053         calculate D2E/DX2 analytically  !
 --------------------------------------------------------------------------------
 Trust Radius=3.00D-01 FncErr=1.00D-07 GrdErr=1.00D-06
 Number of steps in this run=    228 maximum allowed number of steps=    252.
 GradGradGradGradGradGradGradGradGradGradGradGradGradGradGradGradGradGrad

                          Input orientation:                          
 ---------------------------------------------------------------------
 Center     Atomic      Atomic             Coordinates (Angstroms)
 Number     Number       Type             X           Y           Z
 ---------------------------------------------------------------------
      1          6           0       -2.160346    2.337858   -0.089024
      2          6           0       -0.815725    1.631743    0.059788
      3          6           0        0.347622    2.584644   -0.186984
      4          7           0        1.606395    1.885731   -0.031441
      5          6           0        2.774062    2.552998   -0.162166
      6          8           0        2.838237    3.760251   -0.413498
      7          7           0        3.888159    1.741489    0.018001
      8          6           0        5.212678    2.110741   -0.052935
      9          6           0        5.673331    3.412481   -0.337314
     10          6           0        6.163726    1.090739    0.179411
     11          6           0        7.520149    1.354592    0.129956
     12          6           0        7.948550    2.651255   -0.154358
     13          6           0        7.036679    3.674879   -0.386607
     14          1           0       -2.992148    1.647822    0.086368
     15          1           0       -2.278634    2.754806   -1.096186
     16          1           0       -2.254399    3.163731    0.626051
     17          1           0       -0.748645    0.791560   -0.641585
     18          1           0       -0.721173    1.202281    1.064316
     19          1           0        0.301505    3.428106    0.515606
     20          1           0        0.275835    3.014402   -1.196448
     21          1           0        1.591879    0.867527    0.160995
     22          1           0        3.721980    0.737039    0.241820
     23          1           0        4.958571    4.203270   -0.515928
     24          1           0        5.806632    0.088005    0.399370
     25          1           0        8.232871    0.557091    0.311333
     26         16           0        9.707774    3.001444   -0.221150
     27          1           0        7.376111    4.681594   -0.607087
     28          9           0       10.037968    1.675942   -1.092939
     29          9           0       11.299934    3.315653   -0.281058
     30          9           0        9.586546    3.868235   -1.585261
     31          9           0        9.572220    4.366156    0.642466
     32          9           0       10.023532    2.173970    1.135895
     33          8           0        1.469407   -0.884575    0.496081
     34          8           0        3.706260   -0.955093    0.632979
     35          6           0        2.560551   -1.480194    0.690254
     36          6           0        2.470076   -2.974126    1.031302
     37          6           0        3.810518   -3.676595    1.200436
     38          1           0        1.875493   -3.450027    0.241980
     39          1           0        1.869764   -3.056059    1.946286
     40          1           0        4.405936   -3.609028    0.284840
     41          1           0        3.670082   -4.737124    1.441630
     42          1           0        4.395194   -3.215843    2.002096
 ---------------------------------------------------------------------
                    Distance matrix (angstroms):
                    1          2          3          4          5
     1  C    0.000000
     2  C    1.526025   0.000000
     3  C    2.521984   1.523907   0.000000
     4  N    3.794216   2.437109   1.448165   0.000000
     5  C    4.939638   3.712755   2.426774   1.351215   0.000000
     6  O    5.207142   4.255113   2.763426   2.275352   1.234805
     7  N    6.078777   4.705349   3.645316   2.286853   1.390042
     8  C    7.376610   6.048454   4.889921   3.613360   2.480801
     9  C    7.910940   6.740665   5.391761   4.354824   3.029051
    10  C    8.421256   7.001410   6.016068   4.630955   3.707385
    11  C    9.732767   8.340775   7.284135   5.939751   4.903759
    12  C   10.113964   8.825972   7.601290   6.389371   5.175427
    13  C    9.298465   8.126126   6.780262   5.728453   4.413490
    14  H    1.094900   2.176645   3.479428   4.606200   5.842114
    15  H    1.096454   2.176614   2.784390   4.120974   5.142262
    16  H    1.096469   2.176562   2.786912   4.119625   5.126373
    17  H    2.165471   1.096509   2.150259   2.667527   3.967616
    18  H    2.165861   1.096565   2.149186   2.661834   3.942761
    19  H    2.759517   2.164000   1.098721   2.093064   2.709008
    20  H    2.760267   2.163649   1.099483   2.097982   2.742950
    21  H    4.037769   2.528008   2.148896   1.036330   2.083939
    22  H    6.105231   4.628649   3.870892   2.422780   2.087932
    23  H    7.371635   6.347181   4.897858   4.103998   2.760548
    24  H    8.292956   6.808382   6.031402   4.589053   3.948164
    25  H   10.552270   9.115659   8.156988   6.767050   5.831504
    26  S   11.887392  10.615981   9.369490   8.180046   6.948449
    27  H    9.833896   8.766556   7.346656   6.437224   5.089964
    28  F   12.257441  10.914824   9.774932   8.500718   7.375628
    29  F   13.497115  12.236867  10.977083   9.801616   8.560740
    30  F   11.940279  10.766398   9.431888   8.368243   7.082725
    31  F   11.929048  10.757598   9.431595   8.370246   7.081661
    32  F   12.246395  10.906031   9.774554   8.502585   7.374513
    33  O    4.888920   3.426957   3.709509   2.823409   3.735281
    34  O    6.766231   5.241051   4.947982   3.594602   3.715905
    35  C    6.121411   4.634747   4.710574   3.572213   4.127813
    36  C    7.135344   5.740589   6.073628   5.049117   5.662674
    37  C    8.572489   7.133137   7.288325   6.108612   6.460553
    38  H    7.063794   5.753280   6.239844   5.349531   6.083344
    39  H    7.034104   5.722430   6.219749   5.329358   6.060103
    40  H    8.866865   7.401491   7.419846   6.174937   6.390102
    41  H    9.294739   7.911663   8.203622   7.091611   7.518038
    42  H    8.842596   7.377352   7.404091   6.159442   6.371156
                    6          7          8          9         10
     6  O    0.000000
     7  N    2.316014   0.000000
     8  C    2.913564   1.376855   0.000000
     9  C    2.857360   2.470891   1.409822   0.000000
    10  C    4.305428   2.372286   1.413818   2.428576   0.000000
    11  C    5.291770   3.654255   2.435083   2.804279   1.382732
    12  C    5.235678   4.164632   2.790598   2.406150   2.394203
    13  C    4.199396   3.716838   2.425869   1.389244   2.785714
    14  H    6.221384   6.881284   8.219056   8.853477   9.173278
    15  H    5.259217   6.348036   7.590979   8.015122   8.698835
    16  H    5.231772   6.334312   7.571463   7.989922   8.681107
    17  H    4.661638   4.778846   6.133850   6.942880   6.967383
    18  H    4.625640   4.757253   6.106074   6.909358   6.942430
    19  H    2.721867   3.994542   5.116474   5.439139   6.319964
    20  H    2.781224   4.017969   5.147490   5.479922   6.345135
    21  H    3.201765   2.461129   3.834258   4.835633   4.577330
    22  H    3.217180   1.042416   2.048443   3.361719   2.468021
    23  H    2.168542   2.737011   2.158150   1.080802   3.409362
    24  H    4.791400   2.561249   2.156113   3.407729   1.086910
    25  H    6.315670   4.512801   3.415858   3.889118   2.140921
    26  S    6.913995   5.959245   4.585579   4.056991   4.046173
    27  H    4.634507   4.604429   3.405410   2.140768   3.870749
    28  F    7.526095   6.249691   4.955207   4.757792   4.119597
    29  F    8.474403   7.582997   6.209552   5.627717   5.616307
    30  F    6.850136   6.290081   4.956564   4.132595   4.748079
    31  F    6.843150   6.291850   4.957427   4.131682   4.749801
    32  F    7.519665   6.251363   4.955969   4.756943   4.121450
    33  O    4.927011   3.602101   4.825496   6.068955   5.102821
    34  O    4.907447   2.771794   3.484122   4.887385   3.229596
    35  C    5.362614   3.548761   4.525585   5.889275   4.455729
    36  C    6.897450   5.027402   5.878206   7.274799   5.558048
    37  C    7.671817   5.546153   6.085248   7.489308   5.413645
    38  H    7.303741   5.572507   6.491989   7.864679   6.245912
    39  H    7.277953   5.550556   6.470532   7.843721   6.225423
    40  H    7.566480   5.382131   5.786250   7.162050   5.018840
    41  H    8.737210   6.636769   7.176809   8.578678   6.463393
    42  H    7.544872   5.363661   5.767489   7.144309   4.999653
                   11         12         13         14         15
    11  C    0.000000
    12  C    1.394882   0.000000
    13  C    2.425759   1.390415   0.000000
    14  H   10.516476  10.989254  10.242560   0.000000
    15  H    9.973975  10.270982   9.387497   1.770013   0.000000
    16  H    9.952933  10.245576   9.360068   1.770173   1.770284
    17  H    8.323775   8.907135   8.306010   2.509264   2.530190
    18  H    8.295517   8.874051   8.270622   2.512413   3.082822
    19  H    7.520439   7.715545   6.799812   3.768529   3.115819
    20  H    7.549464   7.751670   6.841132   3.767342   2.569583
    21  H    5.948326   6.609720   6.150360   4.650563   4.485889
    22  H    3.849672   4.656724   4.473595   6.777404   6.470627
    23  H    3.885076   3.388135   2.148128   8.372993   7.403506
    24  H    2.147782   3.385953   3.872524   8.941451   8.644076
    25  H    1.084841   2.164077   3.411539  11.280131  10.830642
    26  S    2.760634   1.794983   2.759645  12.775558  12.020837
    27  H    3.410707   2.157528   1.085036  10.825223   9.857274
    28  F    2.817472   2.489545   3.674559  13.083405  12.363764
    29  F    4.278021   3.418954   4.279664  14.393758  13.614569
    30  F    3.678365   2.492300   2.824178  12.882086  11.927340
    31  F    3.680106   2.492412   2.822379  12.867087  12.085616
    32  F    2.819614   2.489599   3.673150  13.068522  12.516504
    33  O    6.462151   7.409754   7.249984   5.146491   5.461522
    34  O    4.487029   5.623404   5.793779   7.207123   7.250677
    35  C    5.739996   6.841986   6.911593   6.401690   6.674152
    36  C    6.712188   7.941308   8.189847   7.217424   7.739323
    37  C    6.341934   7.681176   8.183580   8.710156   9.149598
    38  H    7.413438   8.617700   8.820275   7.050263   7.586001
    39  H    7.394576   8.598708   8.800280   7.015980   7.760927
    40  H    5.861727   7.206536   7.773477   9.077748   9.332154
    41  H    7.324788   8.685656   9.243279   9.326820   9.897310
    42  H    5.844581   7.190234   7.756635   9.049756   9.475652
                   16         17         18         19         20
    16  H    0.000000
    17  H    3.082433   0.000000
    18  H    2.527874   1.754863   0.000000
    19  H    2.571913   3.064846   2.510230   0.000000
    20  H    3.121839   2.509672   3.064125   1.761516   0.000000
    21  H    4.503630   2.475472   2.505645   2.889183   2.860715
    22  H    6.461700   4.557396   4.542527   4.360785   4.373890
    23  H    7.376428   6.650404   6.615331   4.832515   4.878990
    24  H    8.630858   6.674597   6.655524   6.440203   6.457566
    25  H   10.810941   9.034969   9.008782   8.437477   8.463227
    26  S   11.993234  10.695656  10.660785   9.444720   9.482239
    27  H    9.827068   9.008064   8.970241   7.271982   7.317158
    28  F   12.500829  10.832214  10.983497  10.022784   9.854006
    29  F   13.585502  12.315408  12.279388  11.027817  11.066140
    30  F   12.066243  10.824631  10.971629   9.529918   9.357861
    31  F   11.887599  10.997580  10.776919   9.318915   9.572441
    32  F   12.328307  11.005012  10.788790   9.822190  10.058020
    33  O    5.502036   3.003909   3.078392   4.468064   4.414894
    34  O    7.245289   4.951918   4.943933   5.551447   5.556213
    35  C    6.689836   4.229118   4.255033   5.406034   5.383397
    36  C    7.756171   5.228682   5.256190   6.779176   6.755741
    37  C    9.159868   6.644051   6.660193   7.953548   7.937787
    38  H    7.806748   5.065358   5.390999   7.061234   6.812989
    39  H    7.578755   5.325159   5.062043   6.822806   7.019108
    40  H    9.505091   6.840552   7.074144   8.149900   7.944922
    41  H    9.908994   7.377756   7.396080   8.881206   8.863776
    42  H    9.317165   7.036150   6.824695   7.944180   8.125008
                   21         22         23         24         25
    21  H    0.000000
    22  H    2.135623   0.000000
    23  H    4.787486   3.757406   0.000000
    24  H    4.292857   2.189028   4.300278   0.000000
    25  H    6.649943   4.515015   4.969912   2.472737   0.000000
    26  S    8.400440   6.416511   4.907770   4.908369   2.904090
    27  H    6.970968   5.443605   2.466091   4.957548   4.311503
    28  F    8.576846   6.523406   5.702683   4.759488   2.546013
    29  F   10.021729   8.021723   6.407488   6.407578   4.167429
    30  F    8.715983   6.894618   4.761709   5.702337   4.048849
    31  F    8.726858   6.896109   4.759639   5.704500   4.051232
    32  F    8.587782   6.524853   5.700913   4.761929   2.549640
    33  O    1.788056   2.787179   6.251768   4.445986   6.917874
    34  O    2.831134   1.736825   5.431112   2.356733   4.783342
    35  C    2.594270   2.542858   6.285470   3.616753   6.038983
    36  C    4.035712   3.995409   7.752519   4.572591   6.796886
    37  C    5.162542   4.517405   8.145932   4.335711   6.186421
    38  H    4.327617   4.576138   8.285696   5.291153   7.515189
    39  H    4.319608   4.552307   8.264447   5.270391   7.497804
    40  H    5.289027   4.399767   7.872652   3.955138   5.657092
    41  H    6.113188   5.604346   9.242450   5.378942   7.079924
    42  H    5.284141   4.379163   7.855004   3.933993   5.641053
                   26         27         28         29         30
    26  S    0.000000
    27  H    2.899742   0.000000
    28  F    1.620493   4.044191   0.000000
    29  F    1.623973   4.167550   2.222692   0.000000
    30  F    1.620747   2.550373   2.291792   2.223059   0.000000
    31  F    1.620693   2.546326   3.235089   2.222937   2.282740
    32  F    1.620491   4.041659   2.283843   2.222701   3.235148
    33  O    9.137082   8.190749   9.083032  10.718447   9.633750
    34  O    7.238915   6.839431   7.070478   8.760058   7.922300
    35  C    8.485195   7.927190   8.309797  10.016007   9.118567
    36  C    9.468915   9.239240   9.132826  10.920165  10.213151
    37  C    9.021904   9.264984   8.525864  10.352666   9.901872
    38  H   10.157785   9.853983   9.730548  11.613272  10.786849
    39  H   10.140292   9.834168   9.917070  11.596891  10.952917
    40  H    8.489044   8.851661   7.845315   9.787679   9.286844
    41  H    9.955099  10.326866   9.386236  11.226287  10.872848
    42  H    8.474726   8.835339   8.083916   9.774899   9.487014
                   31         32         33         34         35
    31  F    0.000000
    32  F    2.291906   0.000000
    33  O    9.656458   9.106982   0.000000
    34  O    7.919928   7.067665   2.242148   0.000000
    35  C    9.129380   8.321514   1.258198   1.261610   0.000000
    36  C   10.221124   9.141582   2.377820   2.400689   1.535036
    37  C    9.909308   8.534332   3.711103   2.781987   2.578154
    38  H   10.976917   9.940773   2.609793   3.119180   2.133190
    39  H   10.775762   9.720796   2.641727   3.084080   2.130295
    40  H    9.509046   8.107080   4.011293   2.766608   2.846356
    41  H   10.878584   9.392711   4.536427   3.867685   3.521820
    42  H    9.280996   7.840827   4.032756   2.731319   2.845931
                   36         37         38         39         40
    36  C    0.000000
    37  C    1.522777   0.000000
    38  H    1.096831   2.171242   0.000000
    39  H    1.097399   2.169766   1.749258   0.000000
    40  H    2.169760   1.094259   2.535796   3.081939   0.000000
    41  H    2.171760   1.096640   2.513231   2.514319   1.775456
    42  H    2.169550   1.093983   3.082490   2.531096   1.761726
                   41         42
    41  H    0.000000
    42  H    1.776009   0.000000
 Stoichiometry    C13H18F5N2O3S(1-)
 Framework group  C1[X(C13H18F5N2O3S)]
 Deg. of freedom   120
 Full point group                 C1      NOp   1
 Largest Abelian subgroup         C1      NOp   1
 Largest concise Abelian subgroup C1      NOp   1
                         Standard orientation:                         
 ---------------------------------------------------------------------
 Center     Atomic      Atomic             Coordinates (Angstroms)
 Number     Number       Type             X           Y           Z
 ---------------------------------------------------------------------
      1          6           0       -7.026608    2.735462    0.037186
      2          6           0       -5.936446    1.667639    0.029837
      3          6           0       -4.545239    2.287875   -0.016479
      4          7           0       -3.535922    1.249385   -0.015414
      5          6           0       -2.224996    1.576798   -0.008041
      6          8           0       -1.819615    2.743145   -0.001418
      7          7           0       -1.386745    0.467947   -0.005910
      8          6           0       -0.009917    0.459760   -0.003031
      9          6           0        0.803861    1.610980   -0.010455
     10          6           0        0.611902   -0.809933    0.007113
     11          6           0        1.989383   -0.930309    0.008820
     12          6           0        2.770796    0.225122    0.000520
     13          6           0        2.187586    1.487275   -0.008921
     14          1           0       -8.023653    2.284028    0.067451
     15          1           0       -6.971080    3.363348   -0.859969
     16          1           0       -6.930354    3.392627    0.909604
     17          1           0       -6.063264    1.001790   -0.832076
     18          1           0       -6.018044    1.035152    0.921888
     19          1           0       -4.397458    2.950714    0.847229
     20          1           0       -4.441427    2.915291   -0.913381
     21          1           0       -3.838713    0.258586   -0.040256
     22          1           0       -1.833147   -0.474003    0.003389
     23          1           0        0.343369    2.588752   -0.016919
     24          1           0       -0.017166   -1.696276    0.013721
     25          1           0        2.445932   -1.914372    0.016589
     26         16           0        4.559659    0.077029    0.001811
     27          1           0        2.800809    2.382384   -0.015138
     28          9           0        4.562202   -1.083394   -1.129299
     29          9           0        6.177868   -0.059667    0.002940
     30          9           0        4.754870    1.200189   -1.150242
     31          9           0        4.755205    1.221662    1.132397
     32          9           0        4.562400   -1.062014    1.154444
     33          8           0       -4.453594   -1.419979   -0.078774
     34          8           0       -2.332186   -2.137347    0.031847
     35          6           0       -3.579142   -2.322566   -0.017683
     36          6           0       -4.093054   -3.768865    0.003532
     37          6           0       -3.007023   -4.836202    0.016834
     38          1           0       -4.750919   -3.890497   -0.865639
     39          1           0       -4.742075   -3.863287    0.883385
     40          1           0       -2.366595   -4.753780   -0.866604
     41          1           0       -3.444981   -5.841489    0.031291
     42          1           0       -2.363488   -4.728524    0.894938
 ---------------------------------------------------------------------
 Rotational constants (GHZ):      0.3497528      0.0820627      0.0683927
 General basis read from cards:  (6D, 7F)
 There are   496 symmetry adapted cartesian basis functions of A   symmetry.
 There are   496 symmetry adapted basis functions of A   symmetry.
   496 basis functions,   864 primitive gaussians,   496 cartesian basis functions
    98 alpha electrons       98 beta electrons
       nuclear repulsion energy      2398.7339325792 Hartrees.
 NAtoms=   42 NActive=   42 NUniq=   42 SFac= 1.00D+00 NAtFMM=   60 NAOKFM=F Big=F
 Integral buffers will be    131072 words long.
 Raffenetti 2 integral format.
 Two-electron integral symmetry is turned on.
 One-electron integrals computed using PRISM.
 NBasis=   496 RedAO= T EigKep=  1.77D-06  NBF=   496
 NBsUse=   494 1.00D-06 EigRej=  8.52D-07 NBFU=   494
 ExpMin= 4.05D-02 ExpMax= 2.19D+04 ExpMxC= 3.30D+03 IAcc=3 IRadAn=         5 AccDes= 0.00D+00
 Harris functional with IExCor= 1009 and IRadAn=       5 diagonalized for initial guess.
 HarFok:  IExCor= 1009 AccDes= 0.00D+00 IRadAn=         5 IDoV= 1 UseB2=F ITyADJ=14
 ICtDFT=  3500011 ScaDFX=  1.000000  1.000000  1.000000  1.000000
 FoFCou: FMM=F IPFlag=           0 FMFlag=      100000 FMFlg1=           0
         NFxFlg=           0 DoJE=T BraDBF=F KetDBF=T FulRan=T
         wScrn=  0.000000 ICntrl=     500 IOpCl=  0 I1Cent=   200000004 NGrid=           0
         NMat0=    1 NMatS0=      1 NMatT0=    0 NMatD0=    1 NMtDS0=    0 NMtDT0=    0
 Petite list used in FoFCou.
 Requested convergence on RMS density matrix=1.00D-08 within 128 cycles.
 Requested convergence on MAX density matrix=1.00D-06.
 Requested convergence on             energy=1.00D-06.
 No special actions if energy rises.
 SCF Done:  E(RM062X) =  -1738.33930492     A.U. after   15 cycles
            NFock= 15  Conv=0.55D-08     -V/T= 2.0070
 DoSCS=F DFT=T ScalE2(SS,OS)=  1.000000  1.000000
 Range of M.O.s used for correlation:     1   494
 NBasis=   496 NAE=    98 NBE=    98 NFC=     0 NFV=     0
 NROrb=    494 NOA=    98 NOB=    98 NVA=   396 NVB=   396

 **** Warning!!: The largest alpha MO coefficient is  0.11407094D+03

 Symmetrizing basis deriv contribution to polar:
 IMax=3 JMax=2 DiffMx= 0.00D+00
 G2DrvN: will do    43 centers at a time, making    1 passes.
 Calling FoFCou, ICntrl=  3107 FMM=F I1Cent=   0 AccDes= 0.00D+00.
 End of G2Drv F.D. properties file   721 does not exist.
 End of G2Drv F.D. properties file   722 does not exist.
 End of G2Drv F.D. properties file   788 does not exist.
          IDoAtm=111111111111111111111111111111111111111111
          Differentiating once with respect to nuclear coordinates.
          There are   129 degrees of freedom in the 1st order CPHF.  IDoFFX=6 NUNeed=     0.
    123 vectors produced by pass  0 Test12= 3.88D-14 1.00D-09 XBig12= 3.14D-01 1.50D-01.
 AX will form   123 AO Fock derivatives at one time.
    123 vectors produced by pass  1 Test12= 3.88D-14 1.00D-09 XBig12= 2.80D-02 5.76D-02.
    123 vectors produced by pass  2 Test12= 3.88D-14 1.00D-09 XBig12= 1.23D-03 5.46D-03.
    123 vectors produced by pass  3 Test12= 3.88D-14 1.00D-09 XBig12= 1.82D-05 6.14D-04.
    123 vectors produced by pass  4 Test12= 3.88D-14 1.00D-09 XBig12= 1.74D-07 4.56D-05.
    123 vectors produced by pass  5 Test12= 3.88D-14 1.00D-09 XBig12= 8.24D-10 2.72D-06.
     97 vectors produced by pass  6 Test12= 3.88D-14 1.00D-09 XBig12= 2.83D-12 2.16D-07.
     29 vectors produced by pass  7 Test12= 3.88D-14 1.00D-09 XBig12= 1.08D-14 9.88D-09.
     17 vectors produced by pass  8 Test12= 3.88D-14 1.00D-09 XBig12= 1.66D-15 4.50D-09.
     17 vectors produced by pass  9 Test12= 3.88D-14 1.00D-09 XBig12= 1.85D-14 1.13D-08.
     14 vectors produced by pass 10 Test12= 3.88D-14 1.00D-09 XBig12= 1.10D-14 1.01D-08.
     14 vectors produced by pass 11 Test12= 3.88D-14 1.00D-09 XBig12= 4.89D-14 1.73D-08.
     11 vectors produced by pass 12 Test12= 3.88D-14 1.00D-09 XBig12= 1.05D-14 7.81D-09.
     10 vectors produced by pass 13 Test12= 3.88D-14 1.00D-09 XBig12= 1.12D-14 6.30D-09.
     10 vectors produced by pass 14 Test12= 3.88D-14 1.00D-09 XBig12= 1.16D-14 1.07D-08.
      9 vectors produced by pass 15 Test12= 3.88D-14 1.00D-09 XBig12= 1.07D-14 6.80D-09.
      9 vectors produced by pass 16 Test12= 3.88D-14 1.00D-09 XBig12= 1.11D-14 7.58D-09.
      9 vectors produced by pass 17 Test12= 3.88D-14 1.00D-09 XBig12= 7.76D-15 5.56D-09.
      9 vectors produced by pass 18 Test12= 3.88D-14 1.00D-09 XBig12= 2.39D-14 1.22D-08.
      9 vectors produced by pass 19 Test12= 3.88D-14 1.00D-09 XBig12= 4.14D-14 1.51D-08.
      9 vectors produced by pass 20 Test12= 3.88D-14 1.00D-09 XBig12= 1.48D-14 1.33D-08.
      9 vectors produced by pass 21 Test12= 3.88D-14 1.00D-09 XBig12= 2.49D-14 9.30D-09.
      8 vectors produced by pass 22 Test12= 3.88D-14 1.00D-09 XBig12= 1.92D-14 8.21D-09.
      8 vectors produced by pass 23 Test12= 3.88D-14 1.00D-09 XBig12= 1.62D-14 7.19D-09.
      8 vectors produced by pass 24 Test12= 3.88D-14 1.00D-09 XBig12= 1.94D-14 9.03D-09.
      6 vectors produced by pass 25 Test12= 3.88D-14 1.00D-09 XBig12= 1.05D-14 5.76D-09.
      6 vectors produced by pass 26 Test12= 3.88D-14 1.00D-09 XBig12= 2.11D-14 1.10D-08.
      6 vectors produced by pass 27 Test12= 3.88D-14 1.00D-09 XBig12= 1.69D-14 7.48D-09.
      5 vectors produced by pass 28 Test12= 3.88D-14 1.00D-09 XBig12= 1.56D-14 7.39D-09.
      5 vectors produced by pass 29 Test12= 3.88D-14 1.00D-09 XBig12= 1.52D-14 7.13D-09.
      4 vectors produced by pass 30 Test12= 3.88D-14 1.00D-09 XBig12= 9.51D-15 5.47D-09.
      4 vectors produced by pass 31 Test12= 3.88D-14 1.00D-09 XBig12= 2.38D-14 8.68D-09.
      4 vectors produced by pass 32 Test12= 3.88D-14 1.00D-09 XBig12= 1.14D-14 6.44D-09.
      3 vectors produced by pass 33 Test12= 3.88D-14 1.00D-09 XBig12= 7.80D-15 4.59D-09.
      3 vectors produced by pass 34 Test12= 3.88D-14 1.00D-09 XBig12= 5.27D-15 4.43D-09.
      3 vectors produced by pass 35 Test12= 3.88D-14 1.00D-09 XBig12= 1.06D-14 5.73D-09.
      3 vectors produced by pass 36 Test12= 3.88D-14 1.00D-09 XBig12= 6.01D-15 5.12D-09.
      3 vectors produced by pass 37 Test12= 3.88D-14 1.00D-09 XBig12= 2.50D-14 1.00D-08.
      3 vectors produced by pass 38 Test12= 3.88D-14 1.00D-09 XBig12= 1.47D-14 6.55D-09.
      3 vectors produced by pass 39 Test12= 3.88D-14 1.00D-09 XBig12= 1.57D-14 7.11D-09.
      3 vectors produced by pass 40 Test12= 3.88D-14 1.00D-09 XBig12= 8.01D-15 5.74D-09.
      3 vectors produced by pass 41 Test12= 3.88D-14 1.00D-09 XBig12= 1.68D-14 8.33D-09.
      3 vectors produced by pass 42 Test12= 3.88D-14 1.00D-09 XBig12= 1.17D-14 6.53D-09.
      2 vectors produced by pass 43 Test12= 3.88D-14 1.00D-09 XBig12= 8.67D-15 6.51D-09.
 InvSVY:  IOpt=1 It=  1 EMax= 1.11D-15
 Solved reduced A of dimension  1116 with   129 vectors.
 End of Minotr F.D. properties file   721 does not exist.
 End of Minotr F.D. properties file   722 does not exist.
 End of Minotr F.D. properties file   788 does not exist.

 **********************************************************************

            Population analysis using the SCF density.

 **********************************************************************

 Orbital symmetries:
       Occupied  (A) (A) (A) (A) (A) (A) (A) (A) (A) (A) (A) (A)
                 (A) (A) (A) (A) (A) (A) (A) (A) (A) (A) (A) (A)
                 (A) (A) (A) (A) (A) (A) (A) (A) (A) (A) (A) (A)
                 (A) (A) (A) (A) (A) (A) (A) (A) (A) (A) (A) (A)
                 (A) (A) (A) (A) (A) (A) (A) (A) (A) (A) (A) (A)
                 (A) (A) (A) (A) (A) (A) (A) (A) (A) (A) (A) (A)
                 (A) (A) (A) (A) (A) (A) (A) (A) (A) (A) (A) (A)
                 (A) (A) (A) (A) (A) (A) (A) (A) (A) (A) (A) (A)
                 (A) (A)
       Virtual   (A) (A) (A) (A) (A) (A) (A) (A) (A) (A) (A) (A)
                 (A) (A) (A) (A) (A) (A) (A) (A) (A) (A) (A) (A)
                 (A) (A) (A) (A) (A) (A) (A) (A) (A) (A) (A) (A)
                 (A) (A) (A) (A) (A) (A) (A) (A) (A) (A) (A) (A)
                 (A) (A) (A) (A) (A) (A) (A) (A) (A) (A) (A) (A)
                 (A) (A) (A) (A) (A) (A) (A) (A) (A) (A) (A) (A)
                 (A) (A) (A) (A) (A) (A) (A) (A) (A) (A) (A) (A)
                 (A) (A) (A) (A) (A) (A) (A) (A) (A) (A) (A) (A)
                 (A) (A) (A) (A) (A) (A) (A) (A) (A) (A) (A) (A)
                 (A) (A) (A) (A) (A) (A) (A) (A) (A) (A) (A) (A)
                 (A) (A) (A) (A) (A) (A) (A) (A) (A) (A) (A) (A)
                 (A) (A) (A) (A) (A) (A) (A) (A) (A) (A) (A) (A)
                 (A) (A) (A) (A) (A) (A) (A) (A) (A) (A) (A) (A)
                 (A) (A) (A) (A) (A) (A) (A) (A) (A) (A) (A) (A)
                 (A) (A) (A) (A) (A) (A) (A) (A) (A) (A) (A) (A)
                 (A) (A) (A) (A) (A) (A) (A) (A) (A) (A) (A) (A)
                 (A) (A) (A) (A) (A) (A) (A) (A) (A) (A) (A) (A)
                 (A) (A) (A) (A) (A) (A) (A) (A) (A) (A) (A) (A)
                 (A) (A) (A) (A) (A) (A) (A) (A) (A) (A) (A) (A)
                 (A) (A) (A) (A) (A) (A) (A) (A) (A) (A) (A) (A)
                 (A) (A) (A) (A) (A) (A) (A) (A) (A) (A) (A) (A)
                 (A) (A) (A) (A) (A) (A) (A) (A) (A) (A) (A) (A)
                 (A) (A) (A) (A) (A) (A) (A) (A) (A) (A) (A) (A)
                 (A) (A) (A) (A) (A) (A) (A) (A) (A) (A) (A) (A)
                 (A) (A) (A) (A) (A) (A) (A) (A) (A) (A) (A) (A)
                 (A) (A) (A) (A) (A) (A) (A) (A) (A) (A) (A) (A)
                 (A) (A) (A) (A) (A) (A) (A) (A) (A) (A) (A) (A)
                 (A) (A) (A) (A) (A) (A) (A) (A) (A) (A) (A) (A)
                 (A) (A) (A) (A) (A) (A) (A) (A) (A) (A) (A) (A)
                 (A) (A) (A) (A) (A) (A) (A) (A) (A) (A) (A) (A)
                 (A) (A) (A) (A) (A) (A) (A) (A) (A) (A) (A) (A)
                 (A) (A) (A) (A) (A) (A) (A) (A) (A) (A) (A) (A)
                 (A) (A) (A) (A) (A) (A) (A) (A) (A) (A) (A) (A)
 The electronic state is 1-A.
 Alpha  occ. eigenvalues --  -90.23048 -25.21152 -25.21147 -25.21137 -25.21136
 Alpha  occ. eigenvalues --  -25.20974 -19.49297 -19.47364 -19.46816 -14.67068
 Alpha  occ. eigenvalues --  -14.65239 -10.56287 -10.52020 -10.51044 -10.50008
 Alpha  occ. eigenvalues --  -10.48116 -10.48073 -10.47482 -10.45810 -10.45690
 Alpha  occ. eigenvalues --  -10.45589 -10.44988 -10.43230 -10.43194  -8.51736
 Alpha  occ. eigenvalues --   -6.44163  -6.44145  -6.43685  -1.39634  -1.30032
 Alpha  occ. eigenvalues --   -1.29904  -1.26852  -1.25644  -1.05440  -1.03416
 Alpha  occ. eigenvalues --   -0.94142  -0.93564  -0.90950  -0.88392  -0.83080
 Alpha  occ. eigenvalues --   -0.78809  -0.76370  -0.75319  -0.74520  -0.68480
 Alpha  occ. eigenvalues --   -0.64247  -0.64029  -0.63577  -0.61888  -0.61517
 Alpha  occ. eigenvalues --   -0.58960  -0.57424  -0.55653  -0.53857  -0.52535
 Alpha  occ. eigenvalues --   -0.52228  -0.50696  -0.50387  -0.48427  -0.46917
 Alpha  occ. eigenvalues --   -0.45919  -0.45498  -0.45472  -0.45436  -0.45136
 Alpha  occ. eigenvalues --   -0.43922  -0.43539  -0.42989  -0.42440  -0.41810
 Alpha  occ. eigenvalues --   -0.41762  -0.41558  -0.41050  -0.40946  -0.40279
 Alpha  occ. eigenvalues --   -0.40096  -0.38921  -0.37743  -0.37402  -0.36378
 Alpha  occ. eigenvalues --   -0.34742  -0.34406  -0.34311  -0.33824  -0.32970
 Alpha  occ. eigenvalues --   -0.31902  -0.31219  -0.30556  -0.30388  -0.29066
 Alpha  occ. eigenvalues --   -0.27626  -0.22854  -0.22413  -0.20365  -0.19792
 Alpha  occ. eigenvalues --   -0.19654  -0.19083  -0.16196
 Alpha virt. eigenvalues --    0.07512   0.09985   0.10069   0.10865   0.11210
 Alpha virt. eigenvalues --    0.11457   0.11649   0.12273   0.12544   0.12772
 Alpha virt. eigenvalues --    0.12976   0.13253   0.13496   0.14310   0.14711
 Alpha virt. eigenvalues --    0.14790   0.15274   0.15803   0.16391   0.16714
 Alpha virt. eigenvalues --    0.17532   0.17997   0.18373   0.18540   0.18749
 Alpha virt. eigenvalues --    0.19159   0.19728   0.20287   0.20357   0.21157
 Alpha virt. eigenvalues --    0.21231   0.21354   0.21527   0.22154   0.22182
 Alpha virt. eigenvalues --    0.22709   0.23048   0.23394   0.23968   0.24903
 Alpha virt. eigenvalues --    0.25337   0.25621   0.26098   0.26604   0.26934
 Alpha virt. eigenvalues --    0.26964   0.27721   0.27964   0.28898   0.29200
 Alpha virt. eigenvalues --    0.29957   0.30609   0.31470   0.31539   0.31658
 Alpha virt. eigenvalues --    0.32448   0.32669   0.33095   0.33250   0.33567
 Alpha virt. eigenvalues --    0.34102   0.34335   0.34433   0.34714   0.35179
 Alpha virt. eigenvalues --    0.35443   0.35592   0.35733   0.36572   0.36573
 Alpha virt. eigenvalues --    0.36688   0.37225   0.37690   0.37885   0.38478
 Alpha virt. eigenvalues --    0.39089   0.39270   0.39321   0.39747   0.40632
 Alpha virt. eigenvalues --    0.40948   0.41150   0.41538   0.41868   0.42018
 Alpha virt. eigenvalues --    0.42107   0.42359   0.42861   0.42962   0.43552
 Alpha virt. eigenvalues --    0.43730   0.43850   0.44096   0.45009   0.45098
 Alpha virt. eigenvalues --    0.45238   0.45289   0.45673   0.46368   0.47189
 Alpha virt. eigenvalues --    0.47586   0.48016   0.48232   0.48378   0.48706
 Alpha virt. eigenvalues --    0.49066   0.49173   0.49343   0.49816   0.49958
 Alpha virt. eigenvalues --    0.50823   0.51279   0.51570   0.53361   0.53999
 Alpha virt. eigenvalues --    0.54601   0.55460   0.55944   0.56853   0.58119
 Alpha virt. eigenvalues --    0.58915   0.58954   0.59195   0.59543   0.60395
 Alpha virt. eigenvalues --    0.62151   0.62451   0.63822   0.64774   0.66438
 Alpha virt. eigenvalues --    0.66556   0.66731   0.67134   0.69007   0.69053
 Alpha virt. eigenvalues --    0.69501   0.70688   0.71723   0.72605   0.76109
 Alpha virt. eigenvalues --    0.77483   0.77864   0.80469   0.80838   0.81630
 Alpha virt. eigenvalues --    0.81842   0.83389   0.84177   0.85245   0.86081
 Alpha virt. eigenvalues --    0.86305   0.86704   0.87035   0.87994   0.88232
 Alpha virt. eigenvalues --    0.90786   0.91036   0.91697   0.92073   0.92255
 Alpha virt. eigenvalues --    0.92698   0.93546   0.95370   0.96822   0.97050
 Alpha virt. eigenvalues --    0.97429   0.98175   0.98922   0.99473   1.00805
 Alpha virt. eigenvalues --    1.01797   1.04288   1.04641   1.05615   1.05954
 Alpha virt. eigenvalues --    1.08101   1.08620   1.09791   1.10008   1.10172
 Alpha virt. eigenvalues --    1.10816   1.11204   1.12168   1.13853   1.14404
 Alpha virt. eigenvalues --    1.15836   1.16602   1.17949   1.18175   1.18632
 Alpha virt. eigenvalues --    1.19232   1.20298   1.21336   1.21846   1.22869
 Alpha virt. eigenvalues --    1.24885   1.26772   1.27811   1.28420   1.28776
 Alpha virt. eigenvalues --    1.28861   1.32514   1.33325   1.33803   1.35327
 Alpha virt. eigenvalues --    1.36555   1.38429   1.40064   1.41845   1.43708
 Alpha virt. eigenvalues --    1.44730   1.45325   1.47367   1.47560   1.48101
 Alpha virt. eigenvalues --    1.50220   1.50594   1.51637   1.52025   1.53312
 Alpha virt. eigenvalues --    1.54177   1.55482   1.55843   1.56136   1.56846
 Alpha virt. eigenvalues --    1.57353   1.58008   1.59019   1.59182   1.60957
 Alpha virt. eigenvalues --    1.61722   1.61866   1.63323   1.63980   1.64906
 Alpha virt. eigenvalues --    1.65788   1.66434   1.68544   1.68968   1.69212
 Alpha virt. eigenvalues --    1.70298   1.70621   1.71762   1.72364   1.73280
 Alpha virt. eigenvalues --    1.75326   1.77568   1.79052   1.81645   1.81887
 Alpha virt. eigenvalues --    1.82490   1.85501   1.85752   1.86895   1.87033
 Alpha virt. eigenvalues --    1.88236   1.89546   1.90056   1.91501   1.92093
 Alpha virt. eigenvalues --    1.92992   1.93509   1.94937   1.95108   1.95266
 Alpha virt. eigenvalues --    1.97388   1.97740   1.98074   1.98119   1.98838
 Alpha virt. eigenvalues --    1.99476   1.99710   1.99872   2.00306   2.02090
 Alpha virt. eigenvalues --    2.02682   2.03427   2.05188   2.05443   2.06326
 Alpha virt. eigenvalues --    2.06680   2.07060   2.07692   2.08031   2.08176
 Alpha virt. eigenvalues --    2.09267   2.11622   2.12449   2.13055   2.13339
 Alpha virt. eigenvalues --    2.13937   2.14705   2.15628   2.15834   2.16356
 Alpha virt. eigenvalues --    2.16538   2.16984   2.17543   2.17803   2.18664
 Alpha virt. eigenvalues --    2.19006   2.20343   2.21414   2.22471   2.23160
 Alpha virt. eigenvalues --    2.23687   2.24616   2.26403   2.26639   2.27269
 Alpha virt. eigenvalues --    2.27323   2.28950   2.31000   2.31606   2.33734
 Alpha virt. eigenvalues --    2.33974   2.35057   2.35173   2.36504   2.37435
 Alpha virt. eigenvalues --    2.38565   2.41305   2.42031   2.43121   2.43288
 Alpha virt. eigenvalues --    2.46656   2.48365   2.49208   2.49564   2.50288
 Alpha virt. eigenvalues --    2.50822   2.51321   2.52779   2.53835   2.55290
 Alpha virt. eigenvalues --    2.56769   2.59843   2.60864   2.65753   2.66315
 Alpha virt. eigenvalues --    2.66931   2.72100   2.73333   2.75081   2.76559
 Alpha virt. eigenvalues --    2.77178   2.79386   2.83900   2.85559   2.88232
 Alpha virt. eigenvalues --    2.88677   2.89241   2.91434   2.91657   2.92766
 Alpha virt. eigenvalues --    2.93731   3.00644   3.02076   3.04383   3.06418
 Alpha virt. eigenvalues --    3.08767   3.11905   3.14292   3.20677   3.24019
 Alpha virt. eigenvalues --    3.26111   3.28873   3.34938   3.40504   3.45996
 Alpha virt. eigenvalues --    3.50064   3.55945   4.35256   4.36808   4.39098
 Alpha virt. eigenvalues --    4.41860   4.43252   4.47042   4.53120   4.54925
 Alpha virt. eigenvalues --    4.56368   4.56883   4.58829   4.60734   4.66077
 Alpha virt. eigenvalues --    4.69836   4.73619   4.81441   4.87582   4.88512
 Alpha virt. eigenvalues --    4.99896   5.99633   6.05284   6.26154   7.19166
 Alpha virt. eigenvalues --    8.99143
          Condensed to atoms (all electrons):
               1          2          3          4          5          6
     1  C    5.960153  -0.337961   0.095854  -0.032693  -0.090613  -0.001141
     2  C   -0.337961   6.593865  -0.712450  -0.060570   0.305056   0.028802
     3  C    0.095854  -0.712450   7.560972   0.320062  -0.913261  -0.135717
     4  N   -0.032693  -0.060570   0.320062   7.833621   0.497423  -0.190193
     5  C   -0.090613   0.305056  -0.913261   0.497423   7.071721   0.532745
     6  O   -0.001141   0.028802  -0.135717  -0.190193   0.532745   8.353562
     7  N   -0.002695   0.028513  -0.168749  -0.362223   0.171323  -0.051030
     8  C   -0.004444   0.016623  -0.278728  -0.158451  -0.258552  -0.412645
     9  C   -0.007757  -0.001382  -0.263370  -0.049845   0.070719   0.401669
    10  C   -0.002992   0.002869  -0.014526  -0.019403  -0.421835  -0.112327
    11  C   -0.000259  -0.000126   0.014892   0.002706  -0.006021  -0.027291
    12  C   -0.000664  -0.000014  -0.053957  -0.000842  -0.688720   0.023757
    13  C   -0.000955  -0.000666  -0.119372  -0.014065  -0.846788   0.203416
    14  H    0.465985  -0.141267   0.030244   0.000504  -0.001776   0.000001
    15  H    0.415320  -0.063558  -0.006029  -0.000101   0.001095  -0.000011
    16  H    0.427052  -0.066001  -0.013519   0.000426  -0.000851  -0.000030
    17  H   -0.029507   0.432979  -0.085207   0.005890  -0.004069  -0.000127
    18  H   -0.040821   0.431064  -0.074006   0.003984  -0.002510  -0.000116
    19  H   -0.004838  -0.053298   0.488319  -0.049862  -0.064259  -0.000440
    20  H   -0.018112  -0.052313   0.447103  -0.054867  -0.018683   0.000578
    21  H    0.004660  -0.002002  -0.012142   0.148512  -0.013095   0.003116
    22  H   -0.000045  -0.001260  -0.003979   0.010568  -0.043624   0.003406
    23  H    0.000017   0.000023   0.002787   0.001135   0.021165  -0.006519
    24  H   -0.000004   0.000014  -0.000283   0.001211  -0.003026   0.000095
    25  H    0.000000   0.000000   0.000035   0.000023   0.003476  -0.000003
    26  S   -0.000010  -0.000017  -0.001496   0.001094  -0.054518   0.001081
    27  H   -0.000000   0.000002  -0.000067   0.000009  -0.004558   0.000308
    28  F   -0.000000   0.000000  -0.000011  -0.000000  -0.001859  -0.000001
    29  F    0.000000  -0.000000  -0.000000   0.000000  -0.000050   0.000000
    30  F   -0.000000  -0.000000   0.000002   0.000005  -0.000118  -0.000000
    31  F   -0.000000  -0.000000   0.000001   0.000005  -0.000156   0.000001
    32  F   -0.000000   0.000000  -0.000011  -0.000000  -0.001933  -0.000001
    33  O    0.009041   0.005475   0.006556  -0.031742  -0.017644  -0.000142
    34  O   -0.001275  -0.005265   0.005421   0.008909  -0.003878   0.000173
    35  C   -0.006006  -0.007725   0.014589  -0.007793  -0.004081  -0.001889
    36  C    0.006526  -0.008239   0.051909  -0.029814  -0.033340  -0.001412
    37  C   -0.000963  -0.000440  -0.004817   0.003605   0.002171   0.000075
    38  H    0.000033  -0.000007   0.000261  -0.000156  -0.000386  -0.000000
    39  H    0.000047   0.000143   0.000075  -0.000166  -0.000228  -0.000000
    40  H    0.000001   0.000019  -0.000019  -0.000008   0.000050  -0.000000
    41  H    0.000000   0.000005  -0.000008  -0.000005   0.000019   0.000000
    42  H    0.000001   0.000018  -0.000010  -0.000010   0.000041  -0.000000
               7          8          9         10         11         12
     1  C   -0.002695  -0.004444  -0.007757  -0.002992  -0.000259  -0.000664
     2  C    0.028513   0.016623  -0.001382   0.002869  -0.000126  -0.000014
     3  C   -0.168749  -0.278728  -0.263370  -0.014526   0.014892  -0.053957
     4  N   -0.362223  -0.158451  -0.049845  -0.019403   0.002706  -0.000842
     5  C    0.171323  -0.258552   0.070719  -0.421835  -0.006021  -0.688720
     6  O   -0.051030  -0.412645   0.401669  -0.112327  -0.027291   0.023757
     7  N    7.947954   0.292652  -0.133428  -0.166209  -0.009558  -0.029897
     8  C    0.292652  16.114002   1.795853   0.743260  -3.559166  -3.385343
     9  C   -0.133428   1.795853  16.598372  -4.878387  -2.436122  -3.997598
    10  C   -0.166209   0.743260  -4.878387  13.917044   1.356290  -2.227398
    11  C   -0.009558  -3.559166  -2.436122   1.356290  13.776535   0.822340
    12  C   -0.029897  -3.385343  -3.997598  -2.227398   0.822340  14.915990
    13  C    0.082767  -4.159357  -0.765611  -2.248737  -4.679300   1.837745
    14  H    0.000017  -0.000027  -0.000009  -0.000001   0.000000  -0.000000
    15  H    0.000018   0.000038  -0.000032   0.000008   0.000000  -0.000000
    16  H    0.000028  -0.000012  -0.000050   0.000010   0.000000  -0.000000
    17  H    0.000162  -0.001245  -0.000183   0.000162   0.000013  -0.000004
    18  H   -0.000436  -0.000496  -0.000156   0.000152   0.000008  -0.000000
    19  H   -0.000953  -0.001975  -0.006507   0.001344   0.000133  -0.000098
    20  H   -0.001347   0.001222  -0.000997   0.000371   0.000027   0.000030
    21  H    0.001335   0.006428  -0.007227  -0.001742  -0.000405  -0.000608
    22  H    0.094528  -0.012161   0.058776  -0.041012   0.005648   0.016141
    23  H   -0.017388  -0.022651   0.240633   0.008068  -0.009999   0.058656
    24  H   -0.009009  -0.029795   0.010668   0.234655   0.004617   0.089795
    25  H    0.000486   0.015470  -0.006539  -0.066048   0.334617  -0.004254
    26  S    0.008567  -0.683081  -0.497524   0.094061   0.223669  -0.139021
    27  H   -0.000745  -0.017668  -0.078896  -0.012341  -0.005532   0.005714
    28  F    0.000009  -0.026985  -0.020903   0.018175   0.054018  -0.082902
    29  F    0.000003  -0.001375   0.002079   0.011383   0.076241  -0.247620
    30  F    0.000313  -0.004787  -0.002578  -0.003861  -0.009752  -0.110953
    31  F    0.000304  -0.004477  -0.002024  -0.002824  -0.007932  -0.111663
    32  F    0.000000  -0.027104  -0.022095   0.020904   0.054037  -0.084013
    33  O    0.007535   0.019023  -0.000952  -0.028463  -0.009116  -0.001702
    34  O    0.006604  -0.284841  -0.025791   0.258569   0.054521  -0.001833
    35  C   -0.005879   0.160579  -0.014179  -0.087746  -0.073759  -0.024820
    36  C   -0.031922  -0.058494  -0.030503   0.035407   0.017869  -0.001003
    37  C    0.004816  -0.033622  -0.000966   0.016409   0.022405   0.001477
    38  H    0.000112  -0.000774  -0.000109   0.000783  -0.000037  -0.000010
    39  H    0.000107  -0.000298  -0.000052   0.000287  -0.000119  -0.000014
    40  H   -0.000091   0.000483   0.000072  -0.000624  -0.000375  -0.000092
    41  H    0.000029   0.000183   0.000009  -0.000174  -0.000127  -0.000005
    42  H   -0.000083  -0.000007   0.000008  -0.000278  -0.000117  -0.000087
              13         14         15         16         17         18
     1  C   -0.000955   0.465985   0.415320   0.427052  -0.029507  -0.040821
     2  C   -0.000666  -0.141267  -0.063558  -0.066001   0.432979   0.431064
     3  C   -0.119372   0.030244  -0.006029  -0.013519  -0.085207  -0.074006
     4  N   -0.014065   0.000504  -0.000101   0.000426   0.005890   0.003984
     5  C   -0.846788  -0.001776   0.001095  -0.000851  -0.004069  -0.002510
     6  O    0.203416   0.000001  -0.000011  -0.000030  -0.000127  -0.000116
     7  N    0.082767   0.000017   0.000018   0.000028   0.000162  -0.000436
     8  C   -4.159357  -0.000027   0.000038  -0.000012  -0.001245  -0.000496
     9  C   -0.765611  -0.000009  -0.000032  -0.000050  -0.000183  -0.000156
    10  C   -2.248737  -0.000001   0.000008   0.000010   0.000162   0.000152
    11  C   -4.679300   0.000000   0.000000   0.000000   0.000013   0.000008
    12  C    1.837745  -0.000000  -0.000000  -0.000000  -0.000004  -0.000000
    13  C   16.839748  -0.000000  -0.000002  -0.000003  -0.000014  -0.000009
    14  H   -0.000000   0.509394  -0.027651  -0.027702  -0.003068  -0.003070
    15  H   -0.000002  -0.027651   0.512395  -0.033334  -0.004441   0.003873
    16  H   -0.000003  -0.027702  -0.033334   0.512629   0.003831  -0.004582
    17  H   -0.000014  -0.003068  -0.004441   0.003831   0.479399  -0.031108
    18  H   -0.000009  -0.003070   0.003873  -0.004582  -0.031108   0.484450
    19  H   -0.000898  -0.000069  -0.000354   0.002872   0.004222  -0.005548
    20  H   -0.000054  -0.000080   0.002939  -0.000356  -0.005586   0.004303
    21  H   -0.000878   0.000000  -0.000002   0.000000   0.001071   0.000591
    22  H    0.010437  -0.000000  -0.000000  -0.000000   0.000002   0.000001
    23  H    0.023381   0.000000   0.000000  -0.000000  -0.000000  -0.000000
    24  H   -0.014187   0.000000   0.000000  -0.000000  -0.000000  -0.000000
    25  H    0.002598  -0.000000   0.000000   0.000000  -0.000000  -0.000000
    26  S   -0.165227  -0.000000  -0.000000  -0.000000  -0.000000   0.000000
    27  H    0.377298  -0.000000   0.000000   0.000000   0.000000   0.000000
    28  F   -0.063543  -0.000000  -0.000000  -0.000000   0.000000  -0.000000
    29  F    0.032298   0.000000   0.000000   0.000000   0.000000   0.000000
    30  F    0.018758  -0.000000  -0.000000  -0.000000   0.000000   0.000000
    31  F    0.015329  -0.000000   0.000000  -0.000000  -0.000000   0.000000
    32  F   -0.063881  -0.000000   0.000000  -0.000000  -0.000000   0.000000
    33  O    0.001572  -0.000035  -0.000008  -0.000023  -0.003092  -0.001893
    34  O    0.006054  -0.000000   0.000000  -0.000000  -0.000052   0.000006
    35  C   -0.003175  -0.000151  -0.000007  -0.000020  -0.000728  -0.000376
    36  C   -0.007183   0.000082  -0.000012  -0.000009  -0.000048   0.000006
    37  C   -0.001251  -0.000001   0.000000   0.000000  -0.000023  -0.000034
    38  H   -0.000007  -0.000000  -0.000000   0.000000  -0.000000   0.000000
    39  H   -0.000002  -0.000000   0.000000  -0.000000  -0.000000  -0.000000
    40  H    0.000018   0.000000  -0.000000  -0.000000   0.000000  -0.000000
    41  H    0.000001   0.000000  -0.000000  -0.000000  -0.000000  -0.000000
    42  H    0.000008   0.000000  -0.000000  -0.000000  -0.000000   0.000000
              19         20         21         22         23         24
     1  C   -0.004838  -0.018112   0.004660  -0.000045   0.000017  -0.000004
     2  C   -0.053298  -0.052313  -0.002002  -0.001260   0.000023   0.000014
     3  C    0.488319   0.447103  -0.012142  -0.003979   0.002787  -0.000283
     4  N   -0.049862  -0.054867   0.148512   0.010568   0.001135   0.001211
     5  C   -0.064259  -0.018683  -0.013095  -0.043624   0.021165  -0.003026
     6  O   -0.000440   0.000578   0.003116   0.003406  -0.006519   0.000095
     7  N   -0.000953  -0.001347   0.001335   0.094528  -0.017388  -0.009009
     8  C   -0.001975   0.001222   0.006428  -0.012161  -0.022651  -0.029795
     9  C   -0.006507  -0.000997  -0.007227   0.058776   0.240633   0.010668
    10  C    0.001344   0.000371  -0.001742  -0.041012   0.008068   0.234655
    11  C    0.000133   0.000027  -0.000405   0.005648  -0.009999   0.004617
    12  C   -0.000098   0.000030  -0.000608   0.016141   0.058656   0.089795
    13  C   -0.000898  -0.000054  -0.000878   0.010437   0.023381  -0.014187
    14  H   -0.000069  -0.000080   0.000000  -0.000000   0.000000   0.000000
    15  H   -0.000354   0.002939  -0.000002  -0.000000   0.000000   0.000000
    16  H    0.002872  -0.000356   0.000000  -0.000000  -0.000000  -0.000000
    17  H    0.004222  -0.005586   0.001071   0.000002  -0.000000  -0.000000
    18  H   -0.005548   0.004303   0.000591   0.000001  -0.000000  -0.000000
    19  H    0.525613  -0.048412   0.001634   0.000006  -0.000001   0.000000
    20  H   -0.048412   0.532391   0.001475   0.000008  -0.000000   0.000000
    21  H    0.001634   0.001475   0.242410   0.009135   0.000001   0.000003
    22  H    0.000006   0.000008   0.009135   0.267488  -0.000189   0.007050
    23  H   -0.000001  -0.000000   0.000001  -0.000189   0.431104  -0.000111
    24  H    0.000000   0.000000   0.000003   0.007050  -0.000111   0.426524
    25  H    0.000000   0.000000  -0.000000  -0.000008   0.000013  -0.003682
    26  S   -0.000001   0.000000  -0.000009   0.000583  -0.000084   0.005204
    27  H    0.000000   0.000000  -0.000000   0.000002  -0.003899   0.000014
    28  F    0.000000  -0.000000  -0.000000   0.000000   0.000018   0.000032
    29  F    0.000000   0.000000  -0.000000   0.000000  -0.000001  -0.000001
    30  F   -0.000000   0.000000  -0.000000   0.000000   0.000000   0.000024
    31  F    0.000000  -0.000000  -0.000000   0.000000  -0.000000   0.000024
    32  F   -0.000000   0.000000  -0.000000   0.000000   0.000018   0.000032
    33  O   -0.000165   0.000032   0.079862  -0.001555   0.000002  -0.000042
    34  O   -0.000016  -0.000000  -0.000680   0.096178   0.000014  -0.003387
    35  C    0.000902   0.000520  -0.004943  -0.010493   0.000049  -0.001439
    36  C    0.000062  -0.000006   0.017599   0.022031   0.000006   0.002569
    37  C    0.000004   0.000002  -0.002998  -0.002994  -0.000002  -0.000567
    38  H   -0.000000  -0.000000  -0.000002  -0.000028   0.000000   0.000000
    39  H   -0.000000   0.000000  -0.000007  -0.000028   0.000000   0.000000
    40  H   -0.000000   0.000000  -0.000000  -0.000012   0.000000   0.000015
    41  H   -0.000000  -0.000000   0.000000  -0.000000  -0.000000  -0.000000
    42  H    0.000000  -0.000000   0.000000  -0.000013   0.000000   0.000021
              25         26         27         28         29         30
     1  C    0.000000  -0.000010  -0.000000  -0.000000   0.000000  -0.000000
     2  C    0.000000  -0.000017   0.000002   0.000000  -0.000000  -0.000000
     3  C    0.000035  -0.001496  -0.000067  -0.000011  -0.000000   0.000002
     4  N    0.000023   0.001094   0.000009  -0.000000   0.000000   0.000005
     5  C    0.003476  -0.054518  -0.004558  -0.001859  -0.000050  -0.000118
     6  O   -0.000003   0.001081   0.000308  -0.000001   0.000000  -0.000000
     7  N    0.000486   0.008567  -0.000745   0.000009   0.000003   0.000313
     8  C    0.015470  -0.683081  -0.017668  -0.026985  -0.001375  -0.004787
     9  C   -0.006539  -0.497524  -0.078896  -0.020903   0.002079  -0.002578
    10  C   -0.066048   0.094061  -0.012341   0.018175   0.011383  -0.003861
    11  C    0.334617   0.223669  -0.005532   0.054018   0.076241  -0.009752
    12  C   -0.004254  -0.139021   0.005714  -0.082902  -0.247620  -0.110953
    13  C    0.002598  -0.165227   0.377298  -0.063543   0.032298   0.018758
    14  H   -0.000000  -0.000000  -0.000000  -0.000000   0.000000  -0.000000
    15  H    0.000000  -0.000000   0.000000  -0.000000   0.000000  -0.000000
    16  H    0.000000  -0.000000   0.000000  -0.000000   0.000000  -0.000000
    17  H   -0.000000  -0.000000   0.000000   0.000000   0.000000   0.000000
    18  H   -0.000000   0.000000   0.000000  -0.000000   0.000000   0.000000
    19  H    0.000000  -0.000001   0.000000   0.000000   0.000000  -0.000000
    20  H    0.000000   0.000000   0.000000  -0.000000   0.000000   0.000000
    21  H   -0.000000  -0.000009  -0.000000  -0.000000  -0.000000  -0.000000
    22  H   -0.000008   0.000583   0.000002   0.000000   0.000000   0.000000
    23  H    0.000013  -0.000084  -0.003899   0.000018  -0.000001   0.000000
    24  H   -0.003682   0.005204   0.000014   0.000032  -0.000001   0.000024
    25  H    0.474340   0.018776  -0.000137   0.001754   0.000098   0.000213
    26  S    0.018776  14.878234   0.031714  -0.014449   0.134719  -0.023367
    27  H   -0.000137   0.031714   0.479562   0.000296   0.000122   0.002658
    28  F    0.001754  -0.014449   0.000296   9.756172  -0.029150  -0.007703
    29  F    0.000098   0.134719   0.000122  -0.029150   9.625445  -0.030231
    30  F    0.000213  -0.023367   0.002658  -0.007703  -0.030231   9.760086
    31  F    0.000210  -0.022700   0.002667  -0.064570  -0.030261  -0.022123
    32  F    0.001766  -0.014501   0.000298  -0.019497  -0.029199  -0.064544
    33  O    0.000000  -0.000029  -0.000000  -0.000000  -0.000000  -0.000000
    34  O    0.000188   0.000086  -0.000001   0.000001  -0.000000  -0.000002
    35  C    0.000104  -0.000719  -0.000002  -0.000006  -0.000000  -0.000010
    36  C   -0.000046  -0.000427  -0.000000  -0.000006   0.000000   0.000000
    37  C   -0.000011   0.000154   0.000000   0.000003  -0.000000  -0.000000
    38  H   -0.000000  -0.000000   0.000000  -0.000000  -0.000000  -0.000000
    39  H   -0.000000  -0.000000   0.000000  -0.000000   0.000000  -0.000000
    40  H   -0.000000  -0.000002  -0.000000  -0.000000  -0.000000   0.000000
    41  H    0.000000   0.000000   0.000000   0.000000   0.000000  -0.000000
    42  H   -0.000000  -0.000002  -0.000000  -0.000000  -0.000000   0.000000
[...]
 349781,0.22451297,0.00000589,0.00000576,-0.00000269,-0.00000521,-0.000
 01314,0.00001243,-0.00000355,0.00000204,0.00000935,0.00012097,0.000078
 56,-0.00001758,-0.00029039,0.00000832,0.00000909,0.00007277,-0.0000114
 0,-0.00000662,0.00009938,-0.00024530,0.00006680,-0.00004397,-0.0000351
 0,0.00000918,0.00001091,0.00000545,-0.00000240,0.00002259,0.00002243,-
 0.00001751,-0.00000383,-0.00000189,-0.00000423,0.00001436,-0.00001352,
 -0.00000087,-0.00001869,-0.00001017,0.00000111,0.,0.00000056,0.0000014
 5,-0.00000238,0.00000116,-0.00000346,-0.00000235,-0.00000007,0.0000010
 5,0.00001207,0.00000088,0.00000039,0.00000583,0.00000071,-0.00000582,-
 0.00000041,0.00000051,0.00000222,0.00000494,-0.00000197,-0.00000300,-0
 .00003510,-0.00016064,-0.00002385,-0.00000982,0.00032867,-0.00011883,-
 0.00000710,-0.00000352,0.00000310,0.00001510,0.00004256,0.00001760,0.0
 0001060,0.00000848,0.00000514,0.00003587,0.00006573,0.00002793,-0.0000
 0123,-0.00000167,0.00000174,-0.00000365,-0.00001965,-0.00000837,-0.000
 01202,-0.00000952,-0.00000301,-0.00000801,-0.00001361,0.00000695,-0.00
 000886,-0.00002380,-0.00001248,-0.00000838,-0.00000615,-0.00000974,0.0
 0053402,0.00134093,-0.00118652,0.00054004,-0.00229507,-0.00048798,-0.0
 0476058,-0.00046327,0.00342537,-0.14037401,-0.01809926,0.12669922,-0.0
 1739241,-0.00338602,0.02332830,0.00942944,0.00243239,-0.01254521,0.155
 03925,0.00000439,0.00000233,-0.00000731,0.00000944,-0.00001100,0.00002
 870,-0.00005979,0.00003371,-0.00000612,0.00009865,0.00005069,0.0000372
 5,-0.00029947,0.00010635,-0.00000612,0.00008228,-0.00012940,0.00000650
 ,-0.00005412,-0.00057836,0.00025758,0.00025084,0.00000728,0.00000297,-
 0.00005713,-0.00003590,-0.00000280,-0.00007679,0.00007031,-0.00001075,
 0.00003552,-0.00000057,0.00000105,-0.00004583,-0.00002063,0.00000207,0
 .00001359,-0.00001543,0.00000468,0.00001002,0.00000024,0.00000260,-0.0
 0000304,0.00000244,-0.00000466,0.00000026,-0.00000205,0.00000151,-0.00
 000990,0.00000342,0.,-0.00000085,-0.00000982,-0.00001236,0.00000533,-0
 .00000725,0.00000108,0.00001750,-0.00000372,0.00000254,-0.00003764,0.0
 0001245,-0.00014074,0.00005135,0.00090409,-0.00048351,0.00000196,0.000
 00074,0.00000095,0.00008475,0.00000796,-0.00000223,-0.00000656,-0.0000
 0070,0.00000046,0.00012927,0.00000114,0.00000535,-0.00000401,-0.000002
 42,0.00000200,-0.00002964,0.00002089,0.00001239,-0.00001878,-0.0000009
 7,-0.00000043,-0.00002317,-0.00001363,0.00001686,-0.00002269,-0.000021
 87,-0.00001047,-0.00002966,0.00001240,-0.00002298,0.00161961,-0.000214
 39,-0.00389904,-0.00148135,-0.00663058,-0.00294572,-0.02024127,-0.0009
 3355,0.03022321,-0.01878386,-0.04879417,0.02955978,0.01008868,0.001318
 35,-0.01321917,0.00905884,0.00171247,-0.01208924,0.01809473,0.05363708
 ,0.00000092,0.00000174,0.00000221,-0.00001429,0.00000891,-0.00001583,0
 .00009663,-0.00003987,-0.00000008,-0.00008185,0.00006954,0.00000690,0.
 00018552,-0.00010921,0.00001589,-0.00005303,0.00011148,-0.00001980,0.0
 0001032,0.00029321,-0.00005588,-0.00012608,0.00000135,-0.00000105,0.00
 002831,0.00001992,-0.00000407,0.00003765,-0.00004664,0.00001261,-0.000
 02693,-0.00000511,0.00000363,0.00002214,0.00002105,-0.00000323,-0.0000
 0214,0.00001357,-0.00000232,-0.00002242,-0.00000040,0.00000122,0.00000
 213,-0.00000173,0.00000471,-0.00000101,-0.00000093,-0.00000135,0.00002
 097,0.00000386,-0.00001737,0.00000848,0.00001312,0.00001532,-0.0000140
 1,0.00000987,0.00000231,-0.00001843,0.00000194,-0.00000398,0.00001448,
 -0.00012278,0.00003282,-0.00003038,-0.00044125,0.00009489,0.00000129,0
 .00000008,-0.00000211,-0.00004630,-0.00001448,-0.00000426,-0.00000302,
 -0.00000342,-0.00000106,-0.00013771,-0.00005049,-0.00000911,0.00000251
 ,0.00000269,-0.00000138,0.00002832,-0.00000391,-0.00000593,0.00002832,
 0.00000843,0.00000059,0.00002539,0.00002106,-0.00001949,0.00002506,0.0
 0003291,0.00001409,0.00003012,-0.00000302,0.00001870,-0.00199985,0.000
 94357,0.00149475,-0.00048816,0.00145498,-0.00001018,0.00463262,-0.0028
 5653,-0.00439066,0.12545436,0.02630349,-0.21382774,-0.00509676,-0.0010
 0464,0.00626191,0.01568782,0.00389313,-0.02167435,-0.13744480,-0.02824
 340,0.22996768,0.00000464,0.00000177,0.00000033,0.00000012,-0.00000780
 ,0.00000665,-0.00000605,0.00000203,0.00001243,0.00005662,0.00009511,-0
 .00004738,-0.00012290,-0.00001282,0.00001921,0.00003179,0.00002657,-0.
 00001580,0.00003402,-0.00002126,-0.00001874,-0.00000388,-0.00000165,0.
 00000803,0.00000255,0.00000922,-0.00000466,-0.00000891,-0.00001016,-0.
 00000993,0.00000902,-0.00000398,-0.00000155,0.00000001,-0.00000096,-0.
 00000192,-0.00000287,0.00000255,-0.00000147,0.00000461,-0.00000125,0.0
 0000100,-0.00000325,0.00000358,-0.00000642,-0.00000222,0.00000400,0.00
 000088,0.00000167,-0.00000331,0.00001654,0.00000105,-0.00001027,-0.000
 01384,0.00000049,0.00000396,-0.00000109,0.00000153,0.00000570,-0.00000
 733,-0.00001495,-0.00013018,0.00003978,0.00000449,0.00002533,0.0000201
 5,-0.00000219,0.00000084,0.00000233,0.00001820,0.00000724,0.00001949,-
 0.00000603,-0.00000486,0.00000285,-0.00001323,-0.00000672,0.00003162,-
 0.00000054,0.00000123,0.00000063,0.00000424,-0.00000384,-0.00000757,0.
 00000285,0.00000099,-0.00000375,0.00000271,0.00000472,-0.00001048,0.00
 000240,0.00000167,-0.00000277,0.00000142,0.00000369,-0.00000720,0.0007
 4644,0.00038244,-0.00035721,0.00168348,0.00015556,-0.00060702,-0.00155
 379,-0.00199744,0.00059382,-0.01864130,-0.00276142,0.02495844,-0.14129
 013,-0.01886206,0.12879846,0.00081425,-0.00089874,-0.00014032,-0.00490
 776,0.00318016,-0.00186632,0.15618797,0.00000051,-0.00000236,0.0000040
 2,-0.00000291,0.00000475,-0.00000946,0.00005428,-0.00002768,0.00000928
 ,-0.00007679,0.00002621,0.00000902,0.00017467,-0.00011364,0.00002017,-
 0.00004641,0.00009859,-0.00002066,-0.00001054,0.00022402,-0.00004651,-
 0.00003705,0.00002656,-0.00000202,0.00000249,0.00001341,-0.00000415,-0
 .00000195,-0.00006979,0.00004454,-0.00003624,0.00000138,0.00000455,0.0
 0001695,0.00002974,-0.00000860,0.00001523,0.00001934,-0.00000478,-0.00
 000899,-0.00000158,0.00000120,0.00000020,0.00000161,-0.00000176,-0.000
 00099,0.00000289,-0.00000032,0.00000855,-0.00000102,0.00000231,0.00000
 256,-0.00000004,0.00000103,-0.00000746,0.00000896,0.00000043,-0.000010
 74,0.00000531,-0.00000755,0.00002635,-0.00007272,0.00000660,-0.0000446
 0,-0.00036349,0.00006809,0.00000440,0.00000471,-0.00000250,-0.00004539
 ,-0.00009478,-0.00004788,-0.00001299,-0.00000782,-0.00000126,-0.000194
 31,-0.00003445,0.00000354,0.00000146,0.00000417,-0.00000076,0.00004370
 ,-0.00001792,-0.00001625,0.00003800,0.00000697,-0.00000115,0.00003669,
 0.00002549,-0.00003044,0.00003570,0.00003695,0.00001539,0.00004306,-0.
 00000859,0.00002559,-0.00088998,0.00003169,0.00006223,-0.00110263,-0.0
 0014963,0.00056363,0.00201057,0.00073174,-0.00090963,0.00880009,0.0015
 8665,-0.01279605,-0.02007769,-0.05086552,0.02633337,-0.00075013,0.0004
 8134,0.00021361,0.00299073,-0.00122934,0.00058696,0.01913907,0.0513110
 7,-0.00000398,-0.00000351,0.00000095,0.00000078,0.00001308,-0.00000601
 ,0.00001340,-0.00000822,-0.00000432,-0.00010947,-0.00009501,0.00003546
 ,0.00021096,-0.00001697,-0.00000143,-0.00005614,-0.00001019,0.00000790
 ,-0.00017491,0.00001034,0.00000694,0.00019683,0.00005563,-0.00001502,-
 0.00004853,-0.00001874,0.00000454,-0.00008276,-0.00000497,0.00001925,0
 .00003001,-0.00000127,0.00000686,-0.00004441,0.00001440,-0.00000128,0.
 00003561,0.00000958,-0.00000103,-0.00000415,0.00000023,-0.00000022,0.0
 0000170,-0.00000066,0.00000325,0.00000163,-0.00000205,-0.00000139,-0.0
 0000228,-0.00000091,-0.00000567,-0.00000083,0.00000227,0.00000643,-0.0
 0000160,-0.00000089,-0.00000110,-0.00000482,0.00000073,0.00000177,0.00
 002400,0.00011184,-0.00002889,0.00000594,0.00000975,-0.00002325,0.0000
 1132,0.00000693,-0.00000340,0.00002830,-0.00010673,-0.00001337,-0.0000
 2651,-0.00001894,-0.00000527,-0.00001633,-0.00011112,-0.00002026,-0.00
 000074,0.00000251,-0.00000147,-0.00000284,0.00003789,0.00001323,0.0000
 1461,0.00001586,0.00000195,0.00000590,0.00001980,-0.00001182,0.0000069
 0,0.00003082,0.00001380,0.00000279,0.00001796,0.00000080,-0.00042935,-
 0.00061488,-0.00005469,-0.00163229,0.00029495,0.00030358,0.00163402,0.
 00149727,0.00006482,-0.00430623,-0.00135543,0.00567003,0.12948819,0.02
 450740,-0.22341913,0.00044212,-0.00046052,0.00078638,-0.00148666,0.000
 99510,0.00120737,-0.14044884,-0.02912168,0.23983597,0.00001022,0.00000
 843,0.00000313,-0.00001087,-0.00001997,-0.00001043,0.00004767,-0.00000
 891,0.00001512,0.00016876,0.00035677,-0.00006615,-0.00034637,-0.000025
 63,0.00000624,0.00009120,0.00008083,-0.00002174,0.00017714,-0.00003060
 ,0.00001029,-0.00017541,-0.00005671,0.00001470,0.00004445,0.00002634,-
 0.00000686,0.00006384,0.00001150,-0.00000609,-0.00000462,-0.00000371,0
 .00000052,0.00003291,-0.00000932,0.00000267,-0.00003260,-0.00000685,0.
 00000179,-0.00000566,-0.00000210,0.00000099,-0.00000314,0.00000269,-0.
 00000423,-0.00000580,0.00000723,0.00000027,0.00001957,0.00000119,0.000
 01970,0.00000617,-0.00000838,-0.00000779,-0.00000949,0.00001589,0.0000
 0014,-0.00000415,0.00000568,-0.00000807,-0.00008318,-0.00051555,0.0000
 7988,-0.00001392,0.00001377,-0.00000604,-0.00001181,-0.00000687,0.0000
 0165,-0.00001625,0.00006227,-0.00000814,0.00001585,0.00000646,-0.00000
 071,0.00002282,0.00002820,-0.00000575,0.00000059,-0.00000102,0.0000001
 9,-0.00000442,-0.00000712,0.00000018,-0.00001057,-0.00000482,0.0000009
 8,-0.00000606,-0.00000715,0.00000741,-0.00000603,-0.00000998,-0.000003
 45,-0.00000444,-0.00000600,0.00000227,-0.00068371,0.00353094,-0.000733
 93,0.00230390,-0.00039100,0.00020640,-0.00722814,-0.00284302,-0.000137
 46,0.00504924,0.03232244,-0.00559761,-0.05209320,-0.03237203,0.0059531
 1,0.00111170,-0.00088539,-0.00015552,0.00112058,-0.00069540,0.00063993
 ,-0.00252704,-0.01905337,0.00107291,0.05559940,-0.00001777,-0.00000646
 ,-0.00000726,0.00001317,0.00002446,0.00001819,-0.00014215,0.00006005,-
 0.00003773,-0.00008102,-0.00044776,0.00008615,0.00015606,0.00029278,-0
 .00007566,-0.00003593,-0.00031267,0.00007819,-0.00027276,-0.00039210,0
 .00008905,0.00036271,0.00004196,-0.00000694,-0.00008287,-0.00007361,0.
 00001793,-0.00010772,0.00010661,-0.00002593,0.00007215,0.00002096,-0.0
 0000333,-0.00007974,-0.00004196,0.00000982,0.00002791,-0.00002931,0.00
 000725,0.00001983,0.00000879,-0.00000382,0.00000606,-0.00000769,0.0000
 1360,0.00000998,-0.00002007,-0.00000258,-0.00003834,0.00000283,-0.0000
 3805,-0.00001389,0.00001579,0.00001836,0.00002052,-0.00003779,-0.00000
 268,0.00002157,-0.00001782,0.00002903,0.00001082,0.00074308,-0.0001274
 9,0.00013381,0.00071145,-0.00015670,0.00001009,0.00000178,-0.00000023,
 0.00009498,0.00005839,-0.00001839,0.00000702,0.00000775,-0.00000276,0.
 00039007,0.00005635,-0.00001378,-0.00000319,-0.00000722,0.00000162,-0.
 00008681,0.00004225,0.00003353,-0.00007346,-0.00001188,0.00000265,-0.0
 0006973,-0.00004672,0.00005469,-0.00006847,-0.00006667,-0.00002588,-0.
 00008599,0.00002020,-0.00004959,0.00178750,-0.00260725,0.00066643,0.00
 076025,-0.00114491,0.00043466,0.00099712,0.00255209,-0.00032255,-0.004
 09684,-0.01294910,0.00190057,-0.03229483,-0.29812110,0.04428775,0.0001
 9413,0.00051065,0.00049649,0.00019200,0.00019598,-0.00060386,-0.000635
 05,-0.00275375,0.00041580,0.03439224,0.32624954,0.00000384,0.00000129,
 0.00000186,-0.00000303,-0.00000495,-0.00000201,0.00003049,-0.00001279,
 0.00000948,0.00002637,0.00011284,-0.00001720,-0.00005178,-0.00005904,0
 .00001052,0.00001295,0.00006570,-0.00001509,0.00005828,0.00007176,0.00
 000159,-0.00007404,-0.00001251,-0.00000485,0.00001686,0.00001544,-0.00
 000266,0.00002228,-0.00001490,0.00002799,-0.00001433,-0.00000307,0.000
 00623,0.00001631,0.00000791,-0.00000268,-0.00000604,0.00000549,-0.0000
 0145,-0.00000373,-0.00000151,0.00000155,-0.00000128,0.00000243,-0.0000
 0382,-0.00000249,0.00000381,0.00000029,0.00000876,-0.00000064,0.000009
 38,0.00000219,-0.00000480,-0.00000548,-0.00000477,0.00000841,0.0000002
 2,-0.00000406,0.00000424,-0.00000661,-0.00000890,-0.00018091,0.0000270
 2,-0.00002262,-0.00013006,0.00000707,-0.00000240,-0.00000067,-0.000000
 42,-0.00001751,-0.00002278,-0.00004687,-0.00000113,-0.00000249,-0.0000
 0404,-0.00007640,-0.00001209,-0.00000494,0.00000058,0.00000140,-0.0000
 0032,0.00001681,-0.00000633,-0.00000473,0.00001414,0.00000236,0.000000
 26,0.00001364,0.00000927,-0.00001007,0.00001338,0.00001296,0.00000570,
 0.00001713,-0.00000525,0.00001280,-0.00038240,0.00078874,-0.00016162,0
 .00000603,0.00030063,0.00068184,-0.00086957,-0.00063734,0.00060355,0.0
 0127204,0.00492551,-0.00190583,0.00596981,0.04430093,-0.05873489,0.000
 21823,0.00017333,-0.00018417,-0.00010941,-0.00045196,0.00019822,0.0017
 2140,0.02667049,-0.00355293,-0.00581320,-0.05005796,0.05670545,0.00000
 288,0.00000330,0.00000502,-0.00000011,-0.00001544,-0.00002175,0.000002
 34,-0.00000110,0.00000100,0.00002688,0.00008896,0.00000974,-0.00006743
 ,-0.00002199,-0.00001112,0.00001784,0.00002769,0.00000007,-0.00000355,
 -0.00000720,0.00002155,0.00003125,0.00000485,-0.00000595,-0.00000660,0
 .00000520,0.00000062,-0.00002138,-0.00000973,0.00000710,0.00001060,-0.
 00000324,0.00000179,-0.00000704,0.00000326,-0.00000057,0.00000419,0.00
 000449,-0.00000016,0.00000097,-0.00000236,-0.00000236,0.00000011,-0.00
 000171,0.00000048,-0.00000264,0.00000742,0.00000108,0.00000495,-0.0000
 0051,0.00001211,-0.00000148,-0.00000180,0.00000219,-0.00000034,0.00000
 832,-0.00000015,-0.00000007,-0.00000105,0.00000069,-0.00000961,-0.0001
 2462,0.00000546,0.00000885,0.00001933,-0.00002284,0.00000027,0.0000010
 8,-0.00000217,0.00001967,-0.00001717,0.00000097,-0.00001008,-0.0000070
 4,0.00000310,-0.00002276,-0.00003295,-0.00000444,-0.00000058,0.0000013
 3,-0.00000097,0.00000379,0.00000634,0.00000078,0.00000689,0.00000470,0
 .00000035,0.00000496,0.00000685,-0.00000499,0.00000469,0.00001281,0.00
 000607,0.00000483,0.00000473,0.00000154,0.00061114,0.00043063,0.000336
 12,0.00130286,0.00037694,0.00071053,-0.00125193,-0.00183563,-0.0001708
 7,-0.01460308,-0.01245952,-0.02497322,-0.10434620,-0.05256611,-0.09814
 260,-0.00508669,0.00347790,-0.00046083,0.00080510,-0.00085618,0.000490
 22,0.00949047,0.00896591,0.01565573,-0.00259912,-0.00139343,-0.0019924
 5,0.11567517,0.00000253,-0.00000125,0.00000147,-0.00000324,0.00000108,
 -0.00000373,0.00004511,-0.00002229,0.00000891,-0.00002846,0.00005760,-
 0.00001635,0.00008001,-0.00009782,0.00003388,-0.00002180,0.00009690,-0
 .00002626,0.00005885,0.00021054,-0.00004799,-0.00011561,-0.00000053,-0
 .00000697,0.00002234,0.00002051,-0.00000449,0.00003179,-0.00006665,0.0
 0000589,-0.00004108,0.00000007,-0.00000292,0.00003174,0.00002186,-0.00
 000267,-0.00000044,0.00001427,-0.00000333,-0.00000702,-0.00000194,0.00
 000096,-0.00000126,0.00000199,-0.00000261,-0.00000124,0.00000400,0.000
 00043,0.00000785,-0.00000041,0.00000556,0.00000474,-0.00000308,-0.0000
 0330,-0.00000611,0.00000866,0.00000076,-0.00000839,0.00000575,-0.00000
 811,0.00001604,-0.00010918,0.00002364,-0.00004515,-0.00034745,0.000084
 19,-0.00000046,0.00000161,0.00000004,-0.00005468,-0.00002807,0.0000469
 4,-0.00000192,-0.00000086,-0.00000041,-0.00016782,-0.00000158,-0.00001
 377,0.00000172,0.00000266,-0.00000103,0.00003762,-0.00002218,-0.000012
 53,0.00002917,0.00000201,0.00000144,0.00002990,0.00001612,-0.00001865,
 0.00003018,0.00002552,0.00001294,0.00003921,-0.00001558,0.00003054,-0.
 00065613,0.00019348,-0.00026455,-0.00031542,-0.00049462,-0.00034993,0.
 00112277,0.00041744,0.00097175,0.00701576,0.00689744,0.01291660,-0.053
 74556,-0.09528248,-0.09117901,0.00311123,-0.00126239,0.00096308,-0.000
 80787,0.00055544,-0.00026520,0.00231634,0.00113059,0.00388252,-0.01390
 196,-0.01262789,-0.02586290,0.05589673,0.10070071,0.00000312,0.0000047
 8,-0.00000052,0.00000055,-0.00001800,-0.00000399,-0.00003064,0.0000154
 5,-0.00000707,0.00012364,0.00009408,-0.00000287,-0.00025195,0.00004933
 ,-0.00002938,0.00006737,-0.00002116,0.00001479,0.00014517,-0.00009266,
 0.00004624,-0.00014171,-0.00005810,0.00000676,0.00003755,0.00001108,0.
 00000003,0.00006537,0.00004230,0.00002508,-0.00001144,0.00000330,0.000
 00761,0.00002922,-0.00002093,0.00000900,-0.00003436,-0.00001434,0.0000
 0396,0.00000639,-0.00000050,-0.00000159,-0.00000033,-0.00000198,0.0000
 0045,-0.00000183,0.00000382,0.00000177,0.00000100,0.00000292,0.0000058
 4,-0.00000194,-0.00000148,-0.00000069,0.00000339,0.00000141,0.00000143
 ,0.00000933,-0.00000567,0.00000529,-0.00003294,-0.00009724,0.00000039,
 0.00001926,0.00013125,-0.00006077,-0.00001091,-0.00000842,-0.00000108,
 -0.00000093,0.00009327,-0.00008560,0.00002533,0.00001294,-0.00001477,0
 .00007906,0.00007785,-0.00007869,-0.00000008,-0.00000388,-0.00000036,-
 0.00001789,-0.00000210,0.00001761,-0.00002432,-0.00001233,0.00000997,-
 0.00001825,-0.00002569,0.00003578,-0.00001674,-0.00002937,-0.00000307,
 -0.00001154,-0.00002049,0.00002147,0.00086323,0.00060472,-0.00002802,0
 .00205480,0.00006754,0.00093921,-0.00247445,-0.00204158,-0.00007371,-0
 .00157653,-0.00109867,-0.00352613,-0.09841394,-0.08905597,-0.21652702,
 -0.00075705,0.00060623,0.00139321,-0.00012739,0.00039437,0.00071541,-0
 .01267242,-0.01161264,-0.02081931,0.00455268,0.00292138,0.00636167,0.1
 0854312,0.09910518,0.23164166\\-0.00000070,-0.00000230,0.00000161,-0.0
 0000107,-0.00000101,0.00000308,-0.00000346,-0.00000261,0.00000246,-0.0
 0000431,0.00000012,0.00000014,0.00000476,0.00000190,0.00000004,0.00000
 164,-0.00000050,0.00000212,-0.00000176,0.00000121,0.00000018,0.0000007
 5,0.00000079,0.00000024,-0.00000111,0.00000056,0.00000094,-0.00000024,
 0.00000085,-0.00000051,0.00000019,0.00000128,-0.00000065,-0.00000099,0
 .00000136,-0.00000003,-0.00000057,0.00000135,0.00000074,-0.00000052,-0
 .00000226,0.00000148,-0.00000076,-0.00000137,0.00000183,-0.00000045,-0
 .00000232,0.00000252,0.00000026,-0.00000106,-0.00000183,0.,-0.00000092
 ,0.00000201,-0.00000056,-0.00000155,0.00000201,0.00000027,-0.00000192,
 0.00000210,0.00000013,-0.00000118,-0.00000044,0.00000007,-0.00000053,-
 0.00000040,-0.00000103,0.00000075,0.00000138,0.00000036,0.00000045,-0.
 00000096,0.00000022,0.00000125,-0.00000116,-0.00000021,0.00000224,-0.0
 0000009,-0.00000135,0.00000158,0.00000115,-0.00000059,0.00000262,-0.00
 000087,-0.00000086,0.00000257,-0.00000031,-0.00000127,0.00000258,0.000
 00026,-0.00000102,0.00000151,0.00000044,-0.00000021,0.00000155,-0.0000
 0072,0.,-0.00000101,-0.00000062,0.00000169,-0.00000050,-0.00000061,0.0
 0000072,-0.00000107,-0.00000114,0.00000182,-0.00000035,-0.00000249,0.0
 0000109,-0.00000069,-0.00000237,0.00000132,-0.00000107,-0.00000204,0.0
 0000180,-0.00000127,-0.00000163,0.00000156,-0.00000001,-0.00000274,0.0
 0000231,-0.00000052,-0.00000290,0.00000205,-0.00000049,-0.00000224\\\@


 IT IS BY EATING THE LIGHT OF A STAR THAT WE EXIST, 
 IN THE FINAL ANALYSIS, 
 JUST AS IT IS BY PERCEIVING THE LIGHT OF STARS
 THAT WE DEFINE THE WORLD AROUND US.

                                    -- GILBERT GROSVENOR
 Job cpu time:       0 days  7 hours 33 minutes 44.7 seconds.
 File lengths (MBytes):  RWF=   1131 Int=      0 D2E=      0 Chk=     20 Scr=      1
 Normal termination of Gaussian 09 at Sun Feb 24 13:19:48 2019.
WARNING: pbs_rusage is deprecated and values produced may not be accurate


=============================================================================
                                     Resource usage:
                                       CPU time:              19:11:33
   JobId:    6062816.r-man2            Elapsed time:          02:24:54
   Project:             q95            Requested time:        48:00:00
   Service Units:     19.32 
                                       Max physical memory:     1569MB
                                       Max virtual memory:      3208MB
                                       Requested memory:           0MB

                                       Number of cpus:               8

                                       Max jobfs disk use:       1.1GB
                                       Requested jobfs:         24.0GB
=============================================================================

