 Entering Gaussian System, Link 0=/apps/gaussian/g09e01/g09/g09
 AtFile(1): /home/507/hio507/Basis/6-31pGd.gbs
 Initial command:
 /apps/gaussian/g09e01/g09/l1.exe "/jobfs/local/2044808.r-man2/Gau-8908.inp" -scrdir="/jobfs/local/2044808.r-man2/"
 Entering Link 1 = /apps/gaussian/g09e01/g09/l1.exe PID=      8909.
  
 Copyright (c) 1988,1990,1992,1993,1995,1998,2003,2009,2015,
            Gaussian, Inc.  All Rights Reserved.
  
 This is part of the Gaussian(R) 09 program.  It is based on
 the Gaussian(R) 03 system (copyright 2003, Gaussian, Inc.),
 the Gaussian(R) 98 system (copyright 1998, Gaussian, Inc.),
 the Gaussian(R) 94 system (copyright 1995, Gaussian, Inc.),
 the Gaussian 92(TM) system (copyright 1992, Gaussian, Inc.),
 the Gaussian 90(TM) system (copyright 1990, Gaussian, Inc.),
 the Gaussian 88(TM) system (copyright 1988, Gaussian, Inc.),
 the Gaussian 86(TM) system (copyright 1986, Carnegie Mellon
 University), and the Gaussian 82(TM) system (copyright 1983,
 Carnegie Mellon University). Gaussian is a federally registered
 trademark of Gaussian, Inc.
  
 This software contains proprietary and confidential information,
 including trade secrets, belonging to Gaussian, Inc.
  
 This software is provided under written license and may be
 used, copied, transmitted, or stored only in accord with that
 written license.
  
 The following legend is applicable only to US Government
 contracts under FAR:
  
                    RESTRICTED RIGHTS LEGEND
  
 Use, reproduction and disclosure by the US Government is
 subject to restrictions as set forth in subparagraphs (a)
 and (c) of the Commercial Computer Software - Restricted
 Rights clause in FAR 52.227-19.
  
 Gaussian, Inc.
 340 Quinnipiac St., Bldg. 40, Wallingford CT 06492
  
  
 ---------------------------------------------------------------
 Warning -- This program may not be used in any manner that
 competes with the business of Gaussian, Inc. or will provide
 assistance to any competitor of Gaussian, Inc.  The licensee
 of this program is prohibited from giving any competitor of
 Gaussian, Inc. access to this program.  By using this program,
 the user acknowledges that Gaussian, Inc. is engaged in the
 business of creating and licensing software in the field of
 computational chemistry and represents and warrants to the
 licensee that it is not a competitor of Gaussian, Inc. and that
 it will not use this program in any manner prohibited above.
 ---------------------------------------------------------------
  

 Cite this work as:
 Gaussian 09, Revision E.01,
 M. J. Frisch, G. W. Trucks, H. B. Schlegel, G. E. Scuseria, 
 M. A. Robb, J. R. Cheeseman, G. Scalmani, V. Barone, B. Mennucci, 
 G. A. Petersson, H. Nakatsuji, M. Caricato, X. Li, H. P. Hratchian, 
 A. F. Izmaylov, J. Bloino, G. Zheng, J. L. Sonnenberg, M. Hada, 
 M. Ehara, K. Toyota, R. Fukuda, J. Hasegawa, M. Ishida, T. Nakajima, 
 Y. Honda, O. Kitao, H. Nakai, T. Vreven, J. A. Montgomery, Jr., 
 J. E. Peralta, F. Ogliaro, M. Bearpark, J. J. Heyd, E. Brothers, 
 K. N. Kudin, V. N. Staroverov, T. Keith, R. Kobayashi, J. Normand, 
 K. Raghavachari, A. Rendell, J. C. Burant, S. S. Iyengar, J. Tomasi, 
 M. Cossi, N. Rega, J. M. Millam, M. Klene, J. E. Knox, J. B. Cross, 
 V. Bakken, C. Adamo, J. Jaramillo, R. Gomperts, R. E. Stratmann, 
 O. Yazyev, A. J. Austin, R. Cammi, C. Pomelli, J. W. Ochterski, 
 R. L. Martin, K. Morokuma, V. G. Zakrzewski, G. A. Voth, 
 P. Salvador, J. J. Dannenberg, S. Dapprich, A. D. Daniels, 
 O. Farkas, J. B. Foresman, J. V. Ortiz, J. Cioslowski, 
 and D. J. Fox, Gaussian, Inc., Wallingford CT, 2013.
 
 ******************************************
 Gaussian 09:  ES64L-G09RevE.01 30-Nov-2015
                 5-Nov-2018 
 ******************************************
 %chk=3TMF4Nitro_a1.M062X_6-31pGd_opt.chk
 %mem=196608000
 %nproc=4
 Will use up to    4 processors via shared memory.
 ----------------------------------------------------------------------
 # M062X/Gen 6D SCF=Tight INT(grid=ultrafine) OPT IOP(2/17=4) maxdisk=2
 684354560
 ----------------------------------------------------------------------
 1/14=-1,18=20,19=15,26=4,38=1/1,3;
 2/9=110,12=2,17=4,18=5,40=1/2;
 3/5=7,8=2,11=2,16=1,25=1,30=1,71=1,74=-55,75=-5/1,2,3;
 4//1;
 5/5=2,32=2,38=5/2;
 6/7=2,8=2,9=2,10=2,28=1/1;
 7//1,2,3,16;
 1/14=-1,18=20,19=15,26=4/3(2);
 2/9=110,17=4/2;
 99//99;
 2/9=110,17=4/2;
 3/5=7,6=1,8=2,11=2,16=1,25=1,30=1,71=1,74=-55,75=-5,82=7/1,2,3;
 4/5=5,16=3,69=1/1;
 5/5=2,32=2,38=5/2;
 7//1,2,3,16;
 1/14=-1,18=20,19=15,26=4/3(-5);
 2/9=110,17=4/2;
 6/7=2,8=2,9=2,10=2,19=2,28=1/1;
 99/9=1/99;
 -------------------------------
 3TMF4Nitro_a1.M062X_6-31pGd_opt
 -------------------------------
 Symbolic Z-matrix:
 Charge = -1 Multiplicity = 1
 C                    -1.88611   1.90578  -0.05616 
 C                    -0.50835   1.34297  -0.3904 
 C                     0.59871   2.19665   0.21042 
 N                     1.90417   1.63819  -0.10565 
 C                     3.05636   2.19898   0.35383 
 O                     3.01941   3.32896   0.90217 
 N                     4.15908   1.39945   0.20638 
 C                     5.38703   1.93129   0.17926 
 C                     5.6978    3.30931  -0.09243 
 C                     6.50544   1.06017   0.34182 
 C                     7.79292   1.52991   0.31838 
 C                     8.06718   2.89487   0.11536 
 C                     6.98705   3.78703  -0.12253 
 H                    -2.67915   1.29235  -0.49426 
 H                    -1.99637   2.92525  -0.44235 
 H                    -2.04402   1.93735   1.02761 
 H                    -0.37641   1.29425  -1.4782 
 H                    -0.42083   0.31771  -0.00877 
 H                     0.46954   2.26339   1.29987 
 H                     0.53827   3.21683  -0.18461 
 H                     1.95042   0.66833  -0.39473 
 H                     4.88186   3.98161  -0.31563 
 H                     6.31704   0.00506   0.51415 
 C                     7.15529   5.24397  -0.50952 
 F                     6.00123   5.76513  -0.97257 
 F                     8.04979   5.41584  -1.49965 
 F                     7.51727   6.03423   0.51635 
 N                     9.41969   3.30753   0.20759 
 O                     10.31309   2.45009   0.1904 
 O                     9.68246   4.50745   0.32179 
 H                     8.62212   0.85262   0.48761 
 

 GradGradGradGradGradGradGradGradGradGradGradGradGradGradGradGradGradGrad
 Berny optimization.
 Initialization pass.
                           ----------------------------
                           !    Initial Parameters    !
                           ! (Angstroms and Degrees)  !
 --------------------------                            --------------------------
 ! Name  Definition              Value          Derivative Info.                !
 --------------------------------------------------------------------------------
 ! R1    R(1,2)                  1.5254         estimate D2E/DX2                !
 ! R2    R(1,14)                 1.0941         estimate D2E/DX2                !
 ! R3    R(1,15)                 1.0957         estimate D2E/DX2                !
 ! R4    R(1,16)                 1.0957         estimate D2E/DX2                !
 ! R5    R(2,3)                  1.5216         estimate D2E/DX2                !
 ! R6    R(2,17)                 1.0969         estimate D2E/DX2                !
 ! R7    R(2,18)                 1.0975         estimate D2E/DX2                !
 ! R8    R(3,4)                  1.4547         estimate D2E/DX2                !
 ! R9    R(3,19)                 1.0991         estimate D2E/DX2                !
 ! R10   R(3,20)                 1.0957         estimate D2E/DX2                !
 ! R11   R(4,5)                  1.3613         estimate D2E/DX2                !
 ! R12   R(4,21)                 1.0131         estimate D2E/DX2                !
 ! R13   R(5,6)                  1.2565         estimate D2E/DX2                !
 ! R14   R(5,7)                  1.37           estimate D2E/DX2                !
 ! R15   R(7,8)                  1.3385         estimate D2E/DX2                !
 ! R16   R(8,9)                  1.4385         estimate D2E/DX2                !
 ! R17   R(8,10)                 1.4269         estimate D2E/DX2                !
 ! R18   R(9,13)                 1.3752         estimate D2E/DX2                !
 ! R19   R(9,22)                 1.0805         estimate D2E/DX2                !
 ! R20   R(10,11)                1.3707         estimate D2E/DX2                !
 ! R21   R(10,23)                1.0856         estimate D2E/DX2                !
 ! R22   R(11,12)                1.407          estimate D2E/DX2                !
 ! R23   R(11,31)                1.0839         estimate D2E/DX2                !
 ! R24   R(12,13)                1.421          estimate D2E/DX2                !
 ! R25   R(12,28)                1.4171         estimate D2E/DX2                !
 ! R26   R(13,24)                1.5168         estimate D2E/DX2                !
 ! R27   R(24,25)                1.3483         estimate D2E/DX2                !
 ! R28   R(24,26)                1.3454         estimate D2E/DX2                !
 ! R29   R(24,27)                1.3446         estimate D2E/DX2                !
 ! R30   R(28,29)                1.2384         estimate D2E/DX2                !
 ! R31   R(28,30)                1.2336         estimate D2E/DX2                !
 ! A1    A(2,1,14)             111.1045         estimate D2E/DX2                !
 ! A2    A(2,1,15)             110.9137         estimate D2E/DX2                !
 ! A3    A(2,1,16)             110.9499         estimate D2E/DX2                !
 ! A4    A(14,1,15)            107.913          estimate D2E/DX2                !
 ! A5    A(14,1,16)            107.9236         estimate D2E/DX2                !
 ! A6    A(15,1,16)            107.8974         estimate D2E/DX2                !
 ! A7    A(1,2,3)              111.3227         estimate D2E/DX2                !
 ! A8    A(1,2,17)             110.02           estimate D2E/DX2                !
 ! A9    A(1,2,18)             109.909          estimate D2E/DX2                !
 ! A10   A(3,2,17)             109.2084         estimate D2E/DX2                !
 ! A11   A(3,2,18)             109.1955         estimate D2E/DX2                !
 ! A12   A(17,2,18)            107.0844         estimate D2E/DX2                !
 ! A13   A(2,3,4)              110.5943         estimate D2E/DX2                !
 ! A14   A(2,3,19)             109.874          estimate D2E/DX2                !
 ! A15   A(2,3,20)             109.8699         estimate D2E/DX2                !
 ! A16   A(4,3,19)             110.1303         estimate D2E/DX2                !
 ! A17   A(4,3,20)             109.1855         estimate D2E/DX2                !
 ! A18   A(19,3,20)            107.1189         estimate D2E/DX2                !
 ! A19   A(3,4,5)              121.8765         estimate D2E/DX2                !
 ! A20   A(3,4,21)             118.0668         estimate D2E/DX2                !
 ! A21   A(5,4,21)             116.8753         estimate D2E/DX2                !
 ! A22   A(4,5,6)              119.5292         estimate D2E/DX2                !
 ! A23   A(4,5,7)              113.8607         estimate D2E/DX2                !
 ! A24   A(6,5,7)              126.5437         estimate D2E/DX2                !
 ! A25   A(5,7,8)              120.5791         estimate D2E/DX2                !
 ! A26   A(7,8,9)              125.6387         estimate D2E/DX2                !
 ! A27   A(7,8,10)             118.3066         estimate D2E/DX2                !
 ! A28   A(9,8,10)             115.9129         estimate D2E/DX2                !
 ! A29   A(8,9,13)             122.6444         estimate D2E/DX2                !
 ! A30   A(8,9,22)             118.1581         estimate D2E/DX2                !
 ! A31   A(13,9,22)            119.1602         estimate D2E/DX2                !
 ! A32   A(8,10,11)            121.6709         estimate D2E/DX2                !
 ! A33   A(8,10,23)            118.3869         estimate D2E/DX2                !
 ! A34   A(11,10,23)           119.9216         estimate D2E/DX2                !
 ! A35   A(10,11,12)           121.2006         estimate D2E/DX2                !
 ! A36   A(10,11,31)           120.1149         estimate D2E/DX2                !
 ! A37   A(12,11,31)           118.6589         estimate D2E/DX2                !
 ! A38   A(11,12,13)           119.0176         estimate D2E/DX2                !
 ! A39   A(11,12,28)           117.3336         estimate D2E/DX2                !
 ! A40   A(13,12,28)           123.6119         estimate D2E/DX2                !
 ! A41   A(9,13,12)            119.3959         estimate D2E/DX2                !
 ! A42   A(9,13,24)            116.31           estimate D2E/DX2                !
 ! A43   A(12,13,24)           124.1561         estimate D2E/DX2                !
 ! A44   A(13,24,25)           111.3433         estimate D2E/DX2                !
 ! A45   A(13,24,26)           112.5952         estimate D2E/DX2                !
 ! A46   A(13,24,27)           113.5614         estimate D2E/DX2                !
 ! A47   A(25,24,26)           105.4837         estimate D2E/DX2                !
 ! A48   A(25,24,27)           105.3832         estimate D2E/DX2                !
 ! A49   A(26,24,27)           107.9045         estimate D2E/DX2                !
 ! A50   A(12,28,29)           119.0791         estimate D2E/DX2                !
 ! A51   A(12,28,30)           119.5095         estimate D2E/DX2                !
 ! A52   A(29,28,30)           121.4036         estimate D2E/DX2                !
 ! D1    D(14,1,2,3)           179.6997         estimate D2E/DX2                !
 ! D2    D(14,1,2,17)           58.4933         estimate D2E/DX2                !
 ! D3    D(14,1,2,18)          -59.1853         estimate D2E/DX2                !
 ! D4    D(15,1,2,3)            59.6715         estimate D2E/DX2                !
 ! D5    D(15,1,2,17)          -61.5349         estimate D2E/DX2                !
 ! D6    D(15,1,2,18)         -179.2135         estimate D2E/DX2                !
 ! D7    D(16,1,2,3)           -60.2346         estimate D2E/DX2                !
 ! D8    D(16,1,2,17)          178.559          estimate D2E/DX2                !
 ! D9    D(16,1,2,18)           60.8805         estimate D2E/DX2                !
 ! D10   D(1,2,3,4)            179.3914         estimate D2E/DX2                !
 ! D11   D(1,2,3,19)            57.6043         estimate D2E/DX2                !
 ! D12   D(1,2,3,20)           -60.0057         estimate D2E/DX2                !
 ! D13   D(17,2,3,4)           -58.9292         estimate D2E/DX2                !
 ! D14   D(17,2,3,19)          179.2837         estimate D2E/DX2                !
 ! D15   D(17,2,3,20)           61.6737         estimate D2E/DX2                !
 ! D16   D(18,2,3,4)            57.86           estimate D2E/DX2                !
 ! D17   D(18,2,3,19)          -63.9272         estimate D2E/DX2                !
 ! D18   D(18,2,3,20)          178.4629         estimate D2E/DX2                !
 ! D19   D(2,3,4,5)           -177.9818         estimate D2E/DX2                !
 ! D20   D(2,3,4,21)           -18.7753         estimate D2E/DX2                !
 ! D21   D(19,3,4,5)           -56.3456         estimate D2E/DX2                !
 ! D22   D(19,3,4,21)          102.8608         estimate D2E/DX2                !
 ! D23   D(20,3,4,5)            61.0083         estimate D2E/DX2                !
 ! D24   D(20,3,4,21)         -139.7853         estimate D2E/DX2                !
 ! D25   D(3,4,5,6)            -10.408          estimate D2E/DX2                !
 ! D26   D(3,4,5,7)            166.819          estimate D2E/DX2                !
 ! D27   D(21,4,5,6)          -169.8482         estimate D2E/DX2                !
 ! D28   D(21,4,5,7)             7.3788         estimate D2E/DX2                !
 ! D29   D(4,5,7,8)            157.5307         estimate D2E/DX2                !
 ! D30   D(6,5,7,8)            -25.4727         estimate D2E/DX2                !
 ! D31   D(5,7,8,9)            -19.0784         estimate D2E/DX2                !
 ! D32   D(5,7,8,10)           165.4406         estimate D2E/DX2                !
 ! D33   D(7,8,9,13)          -179.0917         estimate D2E/DX2                !
 ! D34   D(7,8,9,22)            -1.3358         estimate D2E/DX2                !
 ! D35   D(10,8,9,13)           -3.5149         estimate D2E/DX2                !
 ! D36   D(10,8,9,22)          174.241          estimate D2E/DX2                !
 ! D37   D(7,8,10,11)          179.6521         estimate D2E/DX2                !
 ! D38   D(7,8,10,23)           -2.0004         estimate D2E/DX2                !
 ! D39   D(9,8,10,11)            3.7345         estimate D2E/DX2                !
 ! D40   D(9,8,10,23)         -177.918          estimate D2E/DX2                !
 ! D41   D(8,9,13,12)            0.3399         estimate D2E/DX2                !
 ! D42   D(8,9,13,24)          176.2475         estimate D2E/DX2                !
 ! D43   D(22,9,13,12)        -177.3945         estimate D2E/DX2                !
 ! D44   D(22,9,13,24)          -1.4868         estimate D2E/DX2                !
 ! D45   D(8,10,11,12)          -0.8073         estimate D2E/DX2                !
 ! D46   D(8,10,11,31)         177.3261         estimate D2E/DX2                !
 ! D47   D(23,10,11,12)       -179.1299         estimate D2E/DX2                !
 ! D48   D(23,10,11,31)         -0.9965         estimate D2E/DX2                !
 ! D49   D(10,11,12,13)         -2.5585         estimate D2E/DX2                !
 ! D50   D(10,11,12,28)        175.3121         estimate D2E/DX2                !
 ! D51   D(31,11,12,13)        179.2816         estimate D2E/DX2                !
 ! D52   D(31,11,12,28)         -2.8479         estimate D2E/DX2                !
 ! D53   D(11,12,13,9)           2.7614         estimate D2E/DX2                !
 ! D54   D(11,12,13,24)       -172.8048         estimate D2E/DX2                !
 ! D55   D(28,12,13,9)        -174.967          estimate D2E/DX2                !
 ! D56   D(28,12,13,24)          9.4668         estimate D2E/DX2                !
 ! D57   D(11,12,28,29)         14.3236         estimate D2E/DX2                !
 ! D58   D(11,12,28,30)       -164.6723         estimate D2E/DX2                !
 ! D59   D(13,12,28,29)       -167.9125         estimate D2E/DX2                !
 ! D60   D(13,12,28,30)         13.0917         estimate D2E/DX2                !
 ! D61   D(9,13,24,25)         -10.1155         estimate D2E/DX2                !
 ! D62   D(9,13,24,26)        -128.3491         estimate D2E/DX2                !
 ! D63   D(9,13,24,27)         108.6427         estimate D2E/DX2                !
 ! D64   D(12,13,24,25)        165.5754         estimate D2E/DX2                !
 ! D65   D(12,13,24,26)         47.3418         estimate D2E/DX2                !
 ! D66   D(12,13,24,27)        -75.6664         estimate D2E/DX2                !
 --------------------------------------------------------------------------------
 Trust Radius=3.00D-01 FncErr=1.00D-07 GrdErr=1.00D-06
 Number of steps in this run=    159 maximum allowed number of steps=    186.
 GradGradGradGradGradGradGradGradGradGradGradGradGradGradGradGradGradGrad

                          Input orientation:                          
 ---------------------------------------------------------------------
 Center     Atomic      Atomic             Coordinates (Angstroms)
 Number     Number       Type             X           Y           Z
 ---------------------------------------------------------------------
      1          6           0       -1.886108    1.905784   -0.056163
      2          6           0       -0.508347    1.342966   -0.390403
      3          6           0        0.598709    2.196649    0.210425
      4          7           0        1.904174    1.638193   -0.105651
      5          6           0        3.056356    2.198976    0.353830
      6          8           0        3.019412    3.328960    0.902168
      7          7           0        4.159081    1.399448    0.206379
      8          6           0        5.387028    1.931291    0.179262
      9          6           0        5.697798    3.309308   -0.092428
     10          6           0        6.505438    1.060171    0.341825
     11          6           0        7.792916    1.529912    0.318378
     12          6           0        8.067177    2.894873    0.115355
     13          6           0        6.987046    3.787025   -0.122529
     14          1           0       -2.679150    1.292350   -0.494260
     15          1           0       -1.996373    2.925248   -0.442353
     16          1           0       -2.044016    1.937355    1.027606
     17          1           0       -0.376413    1.294249   -1.478199
     18          1           0       -0.420831    0.317713   -0.008775
     19          1           0        0.469542    2.263385    1.299865
     20          1           0        0.538268    3.216829   -0.184609
     21          1           0        1.950420    0.668331   -0.394734
     22          1           0        4.881861    3.981610   -0.315627
     23          1           0        6.317041    0.005057    0.514151
     24          6           0        7.155295    5.243971   -0.509522
     25          9           0        6.001233    5.765133   -0.972574
     26          9           0        8.049792    5.415837   -1.499645
     27          9           0        7.517270    6.034234    0.516353
     28          7           0        9.419689    3.307533    0.207590
     29          8           0       10.313089    2.450090    0.190401
     30          8           0        9.682458    4.507446    0.321794
     31          1           0        8.622117    0.852621    0.487611
 ---------------------------------------------------------------------
                    Distance matrix (angstroms):
                    1          2          3          4          5
     1  C    0.000000
     2  C    1.525354   0.000000
     3  C    2.515946   1.521624   0.000000
     4  N    3.800038   2.447142   1.454653   0.000000
     5  C    4.968099   3.740822   2.461829   1.361295   0.000000
     6  O    5.196918   4.249706   2.760515   2.262332   1.256543
     7  N    6.072035   4.705765   3.648533   2.288879   1.370033
     8  C    7.276990   5.951983   4.795768   3.506759   2.352480
     9  C    7.712770   6.517019   5.227853   4.145405   2.899862
    10  C    8.443429   7.057571   6.016502   4.658967   3.632242
    11  C    9.693558   8.333564   7.225843   5.904982   4.783712
    12  C   10.003779   8.729481   7.501638   6.293703   5.064531
    13  C    9.070630   7.888352   6.591737   5.518455   4.266045
    14  H    1.094142   2.173874   3.472563   4.612752   5.868326
    15  H    1.095722   2.172679   2.773342   4.121183   5.166377
    16  H    1.095667   2.173091   2.778312   4.118492   5.151332
    17  H    2.162253   1.096851   2.148636   2.683890   3.994843
    18  H    2.161307   1.097471   2.148932   2.675575   3.970071
    19  H    2.741491   2.158806   1.099099   2.103453   2.755130
    20  H    2.759155   2.156181   1.095661   2.089025   2.768882
    21  H    4.045352   2.549645   2.128167   1.013084   2.031334
    22  H    7.083909   6.001865   4.669926   3.795038   2.637882
    23  H    8.439767   7.013854   6.131447   4.746018   3.933326
    24  C    9.648626   8.600200   7.265901   6.382712   5.178674
    25  F    8.828620   7.891079   6.581856   5.879548   4.811353
    26  F   10.636081   9.542560   8.294948   7.347274   6.222376
    27  F   10.285688   9.340275   7.917521   7.156739   5.885182
    28  N   11.395416  10.138196   8.890656   7.705049   6.460827
    29  O   12.213823  10.893418   9.717707   8.453205   7.262916
    30  O   11.863524  10.694563   9.373723   8.301628   7.016786
    31  H   10.574858   9.185680   8.139921   6.789686   5.727850
                    6          7          8          9         10
     6  O    0.000000
     7  N    2.346483   0.000000
     8  C    2.842829   1.338450   0.000000
     9  C    2.857159   2.470729   1.438514   0.000000
    10  C    4.196875   2.374625   1.426925   2.428883   0.000000
    11  C    5.134561   3.637901   2.443103   2.779304   1.370696
    12  C    5.127127   4.185428   2.848820   2.414309   2.420011
    13  C    4.123341   3.715655   2.468782   1.375238   2.807722
    14  H    6.210588   6.874864   8.119428   8.625708   9.225486
    15  H    5.208534   6.374836   7.475893   7.711694   8.739235
    16  H    5.252676   6.280300   7.479315   7.941815   8.621654
    17  H    4.619288   4.839377   6.030776   6.548043   7.122299
    18  H    4.661834   4.710842   6.030773   6.811333   6.974766
    19  H    2.792034   3.943957   5.054475   5.510636   6.228773
    20  H    2.711040   4.070139   5.029462   5.161182   6.366743
    21  H    3.147005   2.402925   3.706051   4.594452   4.630792
    22  H    2.318984   2.731751   2.168852   1.080538   3.406325
    23  H    4.698217   2.587632   2.165052   3.416061   1.085566
    24  C    4.771337   4.926477   3.817727   2.457882   4.318714
    25  F    4.282622   4.882895   4.049978   2.626368   4.911063
    26  F    5.952183   5.846327   4.695860   3.456820   4.974723
    27  F    5.262897   5.731908   4.635267   3.332614   5.078934
    28  N    6.437891   5.595962   4.261126   3.733964   3.682596
    29  O    7.380836   6.243070   4.953317   4.703101   4.056232
    30  O    6.791306   6.338822   5.010749   4.181462   4.688023
    31  H    6.139577   4.505197   3.424092   3.863081   2.131821
                   11         12         13         14         15
    11  C    0.000000
    12  C    1.406967   0.000000
    13  C    2.436880   1.420988   0.000000
    14  H   10.506235  10.882245   9.989841   0.000000
    15  H    9.917452  10.079038   9.030325   1.770659   0.000000
    16  H    9.870879  10.197317   9.290004   1.770734   1.771717
    17  H    8.367865   8.740460   7.891280   2.504144   2.521389
    18  H    8.309158   8.871497   8.180813   2.507112   3.077265
    19  H    7.425168   7.715304   6.842700   3.751806   3.090975
    20  H    7.465160   7.541758   6.474234   3.761819   2.564343
    21  H    5.948580   6.529349   5.930257   4.672496   4.546771
    22  H    3.858371   3.393079   2.122959   8.027011   6.960033
    23  H    2.131130   3.401919   3.893270   9.143602   8.863141
    24  C    3.858265   2.596201   1.516826  10.598671   9.441081
    25  F    4.776378   3.700015   2.367977   9.776687   8.503399
    26  F    4.297860   2.993959   2.383046  11.537944  10.404150
    27  F    4.517089   3.212286   2.395675  11.290428  10.054567
    28  N    2.412177   1.417069   2.501329  12.285579  11.440937
    29  O    2.685959   2.290761   3.598317  13.061676  12.334870
    30  O    3.526483   2.291754   2.825186  12.798911  11.810265
    31  H    1.083945   2.148796   3.414155  11.352359  10.858773
                   16         17         18         19         20
    16  H    0.000000
    17  H    3.077912   0.000000
    18  H    2.516357   1.764881   0.000000
    19  H    2.549195   3.061455   2.508175   0.000000
    20  H    3.126454   2.491251   3.058703   1.765629   0.000000
    21  H    4.425946   2.641936   2.427907   2.758418   2.921159
    22  H    7.345136   6.018549   6.452661   5.003066   4.412352
    23  H    8.596784   7.101676   6.765362   6.317487   6.648155
    24  C    9.895645   8.559513   9.050770   7.540363   6.928197
    25  F    9.131191   7.805051   8.476214   6.930067   6.079369
    26  F   10.971409   9.380239   9.998251   8.673835   7.936495
    27  F   10.414605   9.421036   9.796317   8.031418   7.558809
    28  N   11.574384  10.141933  10.286966   9.076808   8.890539
    29  O   12.396042  10.880517  10.945490   9.907634   9.812016
    30  O   12.025545  10.711932  10.942558   9.532589   9.248694
    31  H   10.734740   9.221333   9.072344   8.313513   8.449259
                   21         22         23         24         25
    21  H    0.000000
    22  H    4.424638   0.000000
    23  H    4.509255   4.308276   0.000000
    24  C    6.931116   2.607614   5.403406   0.000000
    25  F    6.536083   2.205794   5.957228   1.348290   0.000000
    26  F    7.807815   3.673513   6.027797   1.345365   2.143923
    27  F    7.785423   3.442505   6.147482   1.344605   2.141889
    28  N    7.944694   4.617361   4.541668   3.064559   4.372463
    29  O    8.570372   5.665674   4.695892   4.274030   5.561846
    30  O    8.662368   4.871195   5.624458   2.760455   4.099828
    31  H    6.732312   4.942193   2.456103   4.736010   5.756209
                   26         27         28         29         30
    26  F    0.000000
    27  F    2.174912   0.000000
    28  N    3.039114   3.339077   0.000000
    29  O    4.095659   4.557295   1.238413   0.000000
    30  O    2.609294   2.656497   1.233645   2.155846   0.000000
    31  H    5.009958   5.298172   2.596367   2.345129   3.809142
                   31
    31  H    0.000000
 Stoichiometry    C11H11F3N3O3(1-)
 Framework group  C1[X(C11H11F3N3O3)]
 Deg. of freedom    87
 Full point group                 C1      NOp   1
 Largest Abelian subgroup         C1      NOp   1
 Largest concise Abelian subgroup C1      NOp   1
                         Standard orientation:                         
 ---------------------------------------------------------------------
 Center     Atomic      Atomic             Coordinates (Angstroms)
 Number     Number       Type             X           Y           Z
 ---------------------------------------------------------------------
      1          6           0       -7.294616    0.644798   -0.010010
      2          6           0       -6.097524   -0.169236   -0.490660
      3          6           0       -4.819441    0.255314    0.217579
      4          7           0       -3.691468   -0.540047   -0.241872
      5          6           0       -2.441263   -0.378649    0.271998
      6          8           0       -2.200971    0.601996    1.019994
      7          7           0       -1.571908   -1.384443   -0.059043
      8          6           0       -0.249724   -1.178288   -0.031149
      9          6           0        0.399133    0.105350   -0.055254
     10          6           0        0.613169   -2.314030   -0.071412
     11          6           0        1.977407   -2.182351   -0.053452
     12          6           0        2.586825   -0.914920   -0.011221
     13          6           0        1.767159    0.245417   -0.042423
     14          1           0       -8.210555    0.340307   -0.525264
     15          1           0       -7.141688    1.713434   -0.197727
     16          1           0       -7.452661    0.511168    1.065932
     17          1           0       -5.968865   -0.044709   -1.572798
     18          1           0       -6.273869   -1.236880   -0.307687
     19          1           0       -4.940933    0.146923    1.304551
     20          1           0       -4.617991    1.313933    0.019546
     21          1           0       -3.885825   -1.419308   -0.706054
     22          1           0       -0.219931    0.988461   -0.121853
     23          1           0        0.164758   -3.302486   -0.089774
     24          6           0        2.299173    1.660991   -0.160214
     25          9           0        1.317843    2.529152   -0.478293
     26          9           0        3.220095    1.787845   -1.132746
     27          9           0        2.834930    2.130458    0.980192
     28          7           0        3.998350   -0.875270    0.107559
     29          8           0        4.648994   -1.908589   -0.098797
     30          8           0        4.551530    0.178769    0.431404
     31          1           0        2.608715   -3.063395   -0.041249
 ---------------------------------------------------------------------
 Rotational constants (GHZ):      0.7511084      0.1386309      0.1214673
 General basis read from cards:  (6D, 7F)
 There are   402 symmetry adapted cartesian basis functions of A   symmetry.
 There are   402 symmetry adapted basis functions of A   symmetry.
   402 basis functions,   684 primitive gaussians,   402 cartesian basis functions
    75 alpha electrons       75 beta electrons
       nuclear repulsion energy      1570.1780801337 Hartrees.
 NAtoms=   31 NActive=   31 NUniq=   31 SFac= 1.00D+00 NAtFMM=   60 NAOKFM=F Big=F
 Integral buffers will be    131072 words long.
 Raffenetti 2 integral format.
 Two-electron integral symmetry is turned on.
 One-electron integrals computed using PRISM.
 NBasis=   402 RedAO= T EigKep=  1.95D-06  NBF=   402
 NBsUse=   401 1.00D-06 EigRej=  3.67D-07 NBFU=   401
 ExpMin= 4.38D-02 ExpMax= 7.00D+03 ExpMxC= 1.05D+03 IAcc=3 IRadAn=         5 AccDes= 0.00D+00
 Harris functional with IExCor= 1009 and IRadAn=       5 diagonalized for initial guess.
 HarFok:  IExCor= 1009 AccDes= 0.00D+00 IRadAn=         5 IDoV= 1 UseB2=F ITyADJ=14
 ICtDFT=  3500011 ScaDFX=  1.000000  1.000000  1.000000  1.000000
 FoFCou: FMM=F IPFlag=           0 FMFlag=      100000 FMFlg1=           0
         NFxFlg=           0 DoJE=T BraDBF=F KetDBF=T FulRan=T
         wScrn=  0.000000 ICntrl=     500 IOpCl=  0 I1Cent=   200000004 NGrid=           0
         NMat0=    1 NMatS0=      1 NMatT0=    0 NMatD0=    1 NMtDS0=    0 NMtDT0=    0
 Petite list used in FoFCou.
 Requested convergence on RMS density matrix=1.00D-08 within 128 cycles.
 Requested convergence on MAX density matrix=1.00D-06.
 Requested convergence on             energy=1.00D-06.
 No special actions if energy rises.
 SCF Done:  E(RM062X) =  -1114.86595462     A.U. after   17 cycles
            NFock= 17  Conv=0.96D-08     -V/T= 2.0080

 **********************************************************************

            Population analysis using the SCF density.

 **********************************************************************

 Orbital symmetries:
       Occupied  (A) (A) (A) (A) (A) (A) (A) (A) (A) (A) (A) (A)
                 (A) (A) (A) (A) (A) (A) (A) (A) (A) (A) (A) (A)
                 (A) (A) (A) (A) (A) (A) (A) (A) (A) (A) (A) (A)
                 (A) (A) (A) (A) (A) (A) (A) (A) (A) (A) (A) (A)
                 (A) (A) (A) (A) (A) (A) (A) (A) (A) (A) (A) (A)
                 (A) (A) (A) (A) (A) (A) (A) (A) (A) (A) (A) (A)
                 (A) (A) (A)
       Virtual   (A) (A) (A) (A) (A) (A) (A) (A) (A) (A) (A) (A)
                 (A) (A) (A) (A) (A) (A) (A) (A) (A) (A) (A) (A)
                 (A) (A) (A) (A) (A) (A) (A) (A) (A) (A) (A) (A)
                 (A) (A) (A) (A) (A) (A) (A) (A) (A) (A) (A) (A)
                 (A) (A) (A) (A) (A) (A) (A) (A) (A) (A) (A) (A)
                 (A) (A) (A) (A) (A) (A) (A) (A) (A) (A) (A) (A)
                 (A) (A) (A) (A) (A) (A) (A) (A) (A) (A) (A) (A)
                 (A) (A) (A) (A) (A) (A) (A) (A) (A) (A) (A) (A)
                 (A) (A) (A) (A) (A) (A) (A) (A) (A) (A) (A) (A)
                 (A) (A) (A) (A) (A) (A) (A) (A) (A) (A) (A) (A)
                 (A) (A) (A) (A) (A) (A) (A) (A) (A) (A) (A) (A)
                 (A) (A) (A) (A) (A) (A) (A) (A) (A) (A) (A) (A)
                 (A) (A) (A) (A) (A) (A) (A) (A) (A) (A) (A) (A)
                 (A) (A) (A) (A) (A) (A) (A) (A) (A) (A) (A) (A)
                 (A) (A) (A) (A) (A) (A) (A) (A) (A) (A) (A) (A)
                 (A) (A) (A) (A) (A) (A) (A) (A) (A) (A) (A) (A)
                 (A) (A) (A) (A) (A) (A) (A) (A) (A) (A) (A) (A)
                 (A) (A) (A) (A) (A) (A) (A) (A) (A) (A) (A) (A)
                 (A) (A) (A) (A) (A) (A) (A) (A) (A) (A) (A) (A)
                 (A) (A) (A) (A) (A) (A) (A) (A) (A) (A) (A) (A)
                 (A) (A) (A) (A) (A) (A) (A) (A) (A) (A) (A) (A)
                 (A) (A) (A) (A) (A) (A) (A) (A) (A) (A) (A) (A)
                 (A) (A) (A) (A) (A) (A) (A) (A) (A) (A) (A) (A)
                 (A) (A) (A) (A) (A) (A) (A) (A) (A) (A) (A) (A)
                 (A) (A) (A) (A) (A) (A) (A) (A) (A) (A) (A) (A)
                 (A) (A) (A) (A) (A) (A) (A) (A) (A) (A) (A) (A)
                 (A) (A) (A) (A) (A) (A) (A) (A) (A) (A) (A) (A)
                 (A) (A)
 The electronic state is 1-A.
 Alpha  occ. eigenvalues --  -25.18457 -25.18116 -25.17768 -19.54592 -19.54411
 Alpha  occ. eigenvalues --  -19.47020 -14.88136 -14.66215 -14.60130 -10.69738
 Alpha  occ. eigenvalues --  -10.53467 -10.48407 -10.48222 -10.48145 -10.47795
 Alpha  occ. eigenvalues --  -10.47338 -10.47266 -10.45482 -10.43935 -10.43435
 Alpha  occ. eigenvalues --   -1.34924  -1.25551  -1.25281  -1.22713  -1.03645
 Alpha  occ. eigenvalues --   -1.02212  -0.90940  -0.89057  -0.85504  -0.80435
 Alpha  occ. eigenvalues --   -0.77601  -0.76213  -0.69974  -0.69028  -0.64723
 Alpha  occ. eigenvalues --   -0.60589  -0.59978  -0.58450  -0.57213  -0.55941
 Alpha  occ. eigenvalues --   -0.55409  -0.52447  -0.50005  -0.49208  -0.47584
 Alpha  occ. eigenvalues --   -0.47328  -0.46815  -0.45415  -0.44855  -0.44120
 Alpha  occ. eigenvalues --   -0.42018  -0.41223  -0.41106  -0.40258  -0.39716
 Alpha  occ. eigenvalues --   -0.39082  -0.38776  -0.37309  -0.36503  -0.35861
 Alpha  occ. eigenvalues --   -0.35174  -0.34040  -0.33422  -0.32320  -0.31405
 Alpha  occ. eigenvalues --   -0.29995  -0.26621  -0.25434  -0.24696  -0.24072
 Alpha  occ. eigenvalues --   -0.22291  -0.20980  -0.19515  -0.17712  -0.11979
 Alpha virt. eigenvalues --    0.06907   0.08810   0.10092   0.11761   0.12046
 Alpha virt. eigenvalues --    0.12517   0.12893   0.13348   0.14002   0.14590
 Alpha virt. eigenvalues --    0.14776   0.14920   0.15701   0.15876   0.16046
 Alpha virt. eigenvalues --    0.16366   0.17092   0.17596   0.18165   0.18898
 Alpha virt. eigenvalues --    0.19380   0.19744   0.20383   0.21069   0.22364
 Alpha virt. eigenvalues --    0.22445   0.23610   0.24141   0.24329   0.25125
 Alpha virt. eigenvalues --    0.25357   0.25632   0.26039   0.26727   0.27513
 Alpha virt. eigenvalues --    0.27960   0.28386   0.28646   0.29221   0.29693
 Alpha virt. eigenvalues --    0.29891   0.30345   0.30934   0.31206   0.31689
 Alpha virt. eigenvalues --    0.32185   0.32301   0.33253   0.33728   0.33918
 Alpha virt. eigenvalues --    0.34129   0.34476   0.34843   0.35217   0.35713
 Alpha virt. eigenvalues --    0.36419   0.36919   0.37128   0.37926   0.38058
 Alpha virt. eigenvalues --    0.38823   0.38868   0.39114   0.39516   0.39727
 Alpha virt. eigenvalues --    0.40332   0.40703   0.40924   0.41142   0.41615
 Alpha virt. eigenvalues --    0.42248   0.42476   0.43287   0.43464   0.44149
 Alpha virt. eigenvalues --    0.44567   0.44943   0.45474   0.45898   0.46059
 Alpha virt. eigenvalues --    0.46199   0.46805   0.47977   0.48351   0.48611
 Alpha virt. eigenvalues --    0.48845   0.49353   0.49741   0.50298   0.50757
 Alpha virt. eigenvalues --    0.51317   0.51748   0.52712   0.53240   0.54449
 Alpha virt. eigenvalues --    0.55052   0.55587   0.56449   0.56918   0.57753
 Alpha virt. eigenvalues --    0.57868   0.58520   0.59786   0.60700   0.61147
 Alpha virt. eigenvalues --    0.61998   0.62546   0.64017   0.64413   0.65757
 Alpha virt. eigenvalues --    0.67024   0.69756   0.71568   0.76312   0.76977
 Alpha virt. eigenvalues --    0.78554   0.80512   0.81026   0.83201   0.84460
 Alpha virt. eigenvalues --    0.85618   0.86883   0.87261   0.87996   0.88634
 Alpha virt. eigenvalues --    0.89825   0.90961   0.92323   0.93430   0.95762
 Alpha virt. eigenvalues --    0.95866   0.97428   0.97850   0.99338   0.99909
 Alpha virt. eigenvalues --    1.00972   1.01859   1.03007   1.03917   1.04875
 Alpha virt. eigenvalues --    1.05851   1.08172   1.09280   1.11141   1.12007
 Alpha virt. eigenvalues --    1.12573   1.14256   1.14664   1.15294   1.16707
 Alpha virt. eigenvalues --    1.17113   1.18624   1.20882   1.22210   1.22838
 Alpha virt. eigenvalues --    1.23557   1.24266   1.25351   1.26510   1.27445
 Alpha virt. eigenvalues --    1.27696   1.29592   1.30179   1.32575   1.32885
 Alpha virt. eigenvalues --    1.34856   1.35240   1.36473   1.38103   1.39860
 Alpha virt. eigenvalues --    1.41313   1.41601   1.42944   1.43982   1.46331
 Alpha virt. eigenvalues --    1.46964   1.47237   1.49455   1.50468   1.50909
 Alpha virt. eigenvalues --    1.52586   1.53636   1.54143   1.54814   1.56602
 Alpha virt. eigenvalues --    1.56945   1.58440   1.58666   1.61472   1.61857
 Alpha virt. eigenvalues --    1.63095   1.64054   1.64941   1.66647   1.67185
 Alpha virt. eigenvalues --    1.68225   1.70998   1.73499   1.75008   1.78048
 Alpha virt. eigenvalues --    1.78905   1.79829   1.81947   1.85124   1.86634
 Alpha virt. eigenvalues --    1.86780   1.87038   1.87389   1.88091   1.88699
 Alpha virt. eigenvalues --    1.89519   1.91263   1.92496   1.93406   1.94774
 Alpha virt. eigenvalues --    1.96057   1.98082   1.98250   1.98916   1.99922
 Alpha virt. eigenvalues --    2.00647   2.01144   2.02200   2.04090   2.04536
 Alpha virt. eigenvalues --    2.05168   2.06356   2.06885   2.07452   2.08458
 Alpha virt. eigenvalues --    2.08862   2.10589   2.11290   2.11953   2.12506
 Alpha virt. eigenvalues --    2.13371   2.13851   2.14622   2.15759   2.17133
 Alpha virt. eigenvalues --    2.19276   2.20652   2.22290   2.23685   2.23986
 Alpha virt. eigenvalues --    2.24187   2.25517   2.27116   2.27893   2.29583
 Alpha virt. eigenvalues --    2.30213   2.30602   2.32024   2.32594   2.34143
 Alpha virt. eigenvalues --    2.35936   2.37216   2.37329   2.38969   2.40178
 Alpha virt. eigenvalues --    2.41233   2.43904   2.44694   2.47527   2.47977
 Alpha virt. eigenvalues --    2.48478   2.52126   2.55360   2.56855   2.61074
 Alpha virt. eigenvalues --    2.63149   2.66771   2.68883   2.69752   2.70674
 Alpha virt. eigenvalues --    2.72745   2.73553   2.73768   2.75980   2.79798
 Alpha virt. eigenvalues --    2.81918   2.84278   2.86850   2.88077   2.88838
 Alpha virt. eigenvalues --    2.90301   2.91479   2.93458   2.96864   2.99840
 Alpha virt. eigenvalues --    3.03760   3.06612   3.09090   3.10300   3.15318
 Alpha virt. eigenvalues --    3.18667   3.21287   3.24670   3.27804   3.32312
 Alpha virt. eigenvalues --    3.37192   3.38485   3.44188   3.49421   3.54076
 Alpha virt. eigenvalues --    3.57089   4.28722   4.34543   4.36212   4.42953
 Alpha virt. eigenvalues --    4.45495   4.49115   4.50838   4.51770   4.55515
 Alpha virt. eigenvalues --    4.59545   4.63797   4.66651   4.69877   4.76106
 Alpha virt. eigenvalues --    4.80108   4.95977   4.97846   5.92428   6.29868
 Alpha virt. eigenvalues --    7.27539
          Condensed to atoms (all electrons):
               1          2          3          4          5          6
     1  C    5.633628  -0.011118  -0.072367   0.000162  -0.011907   0.001191
     2  C   -0.011118   6.339109  -0.531415  -0.052550   0.097943   0.021947
     3  C   -0.072367  -0.531415   6.492990   0.252194  -0.325696  -0.061106
     4  N    0.000162  -0.052550   0.252194   7.928180  -0.006250  -0.222017
     5  C   -0.011907   0.097943  -0.325696  -0.006250   6.584520   0.588531
     6  O    0.001191   0.021947  -0.061106  -0.222017   0.588531   8.494309
     7  N    0.006139  -0.007636   0.030987  -0.454765   0.222017  -0.125195
     8  C   -0.003296  -0.030994  -0.132923   0.022845  -0.332001  -0.080995
     9  C    0.001514   0.017405   0.056803   0.176797   1.049118   0.156218
    10  C   -0.002265  -0.019244  -0.110143  -0.165767  -2.099118  -0.145193
    11  C    0.000299  -0.002685   0.027649  -0.008501   0.344394   0.042112
    12  C   -0.000190  -0.000579  -0.026764  -0.024982  -0.396570  -0.015822
    13  C   -0.000368   0.003136  -0.031037   0.007700  -0.169834  -0.013142
    14  H    0.413400  -0.094609   0.033269   0.000678  -0.000707   0.000005
    15  H    0.415342  -0.057956  -0.011549   0.000091   0.001945  -0.000059
    16  H    0.419518  -0.059583  -0.012321   0.000738  -0.000149  -0.000039
    17  H   -0.036532   0.421456  -0.069523   0.003968  -0.002005  -0.000119
    18  H   -0.041760   0.440087  -0.091280   0.004216   0.000849  -0.000355
    19  H    0.011265  -0.095929   0.469396  -0.090167   0.001504   0.004043
    20  H   -0.012507  -0.019568   0.382854  -0.030262  -0.005492  -0.002622
    21  H    0.001112   0.011636  -0.081829   0.246922   0.052658   0.009108
    22  H    0.000013   0.000063   0.003961   0.001402   0.041537  -0.008297
    23  H    0.000002  -0.000003   0.000005   0.000192  -0.007965   0.000087
    24  C   -0.000012  -0.000157  -0.004211   0.009689  -0.217908  -0.019751
    25  F    0.000003   0.000019   0.000318  -0.000083   0.000949  -0.000977
    26  F   -0.000000  -0.000000  -0.000058  -0.000026  -0.002370  -0.000156
    27  F    0.000000  -0.000000   0.000028   0.000005   0.005504   0.000167
    28  N    0.000000   0.000006   0.000106  -0.000104   0.010505   0.000352
    29  O   -0.000000   0.000000  -0.000017  -0.000012  -0.000854  -0.000007
    30  O    0.000000   0.000000   0.000038  -0.000004   0.003361  -0.000008
    31  H   -0.000000   0.000000   0.000005   0.000001   0.002145  -0.000004
               7          8          9         10         11         12
     1  C    0.006139  -0.003296   0.001514  -0.002265   0.000299  -0.000190
     2  C   -0.007636  -0.030994   0.017405  -0.019244  -0.002685  -0.000579
     3  C    0.030987  -0.132923   0.056803  -0.110143   0.027649  -0.026764
     4  N   -0.454765   0.022845   0.176797  -0.165767  -0.008501  -0.024982
     5  C    0.222017  -0.332001   1.049118  -2.099118   0.344394  -0.396570
     6  O   -0.125195  -0.080995   0.156218  -0.145193   0.042112  -0.015822
     7  N    7.553761   0.357589  -0.259626   0.020675   0.061511   0.017857
     8  C    0.357589  15.592478   0.382287  -4.690793   0.810915  -2.048450
     9  C   -0.259626   0.382287  13.454235  -6.931033   0.459112  -4.869456
    10  C    0.020675  -4.690793  -6.931033  23.905771  -4.068853   0.604095
    11  C    0.061511   0.810915   0.459112  -4.068853  15.541584  -2.118571
    12  C    0.017857  -2.048450  -4.869456   0.604095  -2.118571  28.516409
    13  C   -0.000318  -3.008025   1.575834  -0.935238  -5.136334  -8.135510
    14  H    0.000013  -0.000013  -0.000003   0.000001  -0.000000  -0.000000
    15  H   -0.000012   0.000213  -0.000071   0.000020   0.000000  -0.000000
    16  H    0.000070  -0.000141   0.000040  -0.000015  -0.000000   0.000000
    17  H    0.001162  -0.002201   0.000737  -0.000467   0.000004  -0.000001
    18  H   -0.001597   0.000832  -0.000897   0.000804   0.000018   0.000002
    19  H    0.008562  -0.004248  -0.002180  -0.001968   0.000178  -0.000061
    20  H   -0.008267   0.002528   0.005720   0.000413  -0.000206   0.000019
    21  H    0.024460  -0.013865   0.014845  -0.013192  -0.001993   0.000542
    22  H   -0.005273  -0.152144   0.439049  -0.003225  -0.022014  -0.035703
    23  H   -0.008844   0.096204   0.056082   0.310343  -0.090669  -0.058623
    24  C    0.023599  -1.277170  -0.135918   0.998203  -0.562283  -3.069343
    25  F   -0.000393   0.111733   0.076759  -0.000695   0.007922  -0.041542
    26  F    0.000473   0.019811  -0.002484   0.030491   0.017682   0.071081
    27  F    0.000161   0.013408   0.015587  -0.024726   0.055625  -0.071360
    28  N   -0.000654   0.043111  -0.009798   0.008663   0.318702  -0.568358
    29  O   -0.000249   0.014070   0.013776   0.182237  -0.134243  -0.411935
    30  O    0.000104   0.039668   0.102183  -0.056648   0.213777  -0.323110
    31  H    0.000399  -0.000793  -0.001489  -0.143490   0.241214   0.116108
              13         14         15         16         17         18
     1  C   -0.000368   0.413400   0.415342   0.419518  -0.036532  -0.041760
     2  C    0.003136  -0.094609  -0.057956  -0.059583   0.421456   0.440087
     3  C   -0.031037   0.033269  -0.011549  -0.012321  -0.069523  -0.091280
     4  N    0.007700   0.000678   0.000091   0.000738   0.003968   0.004216
     5  C   -0.169834  -0.000707   0.001945  -0.000149  -0.002005   0.000849
     6  O   -0.013142   0.000005  -0.000059  -0.000039  -0.000119  -0.000355
     7  N   -0.000318   0.000013  -0.000012   0.000070   0.001162  -0.001597
     8  C   -3.008025  -0.000013   0.000213  -0.000141  -0.002201   0.000832
     9  C    1.575834  -0.000003  -0.000071   0.000040   0.000737  -0.000897
    10  C   -0.935238   0.000001   0.000020  -0.000015  -0.000467   0.000804
    11  C   -5.136334  -0.000000   0.000000  -0.000000   0.000004   0.000018
    12  C   -8.135510  -0.000000  -0.000000   0.000000  -0.000001   0.000002
    13  C   22.114887  -0.000000  -0.000003   0.000002  -0.000001  -0.000008
    14  H   -0.000000   0.512645  -0.027170  -0.027452  -0.002897  -0.002949
    15  H   -0.000003  -0.027170   0.499646  -0.030650  -0.004760   0.004152
    16  H    0.000002  -0.027452  -0.030650   0.501015   0.003976  -0.004858
    17  H   -0.000001  -0.002897  -0.004760   0.003976   0.510199  -0.037747
    18  H   -0.000008  -0.002949   0.004152  -0.004858  -0.037747   0.528483
    19  H   -0.000389  -0.000061  -0.000426   0.002589   0.004476  -0.006502
    20  H    0.000733  -0.000078   0.002744  -0.000269  -0.006214   0.004430
    21  H    0.001544  -0.000002   0.000001   0.000001  -0.000134   0.001579
    22  H    0.011366  -0.000000   0.000000   0.000000   0.000000  -0.000000
    23  H    0.004930  -0.000000  -0.000000   0.000000   0.000000  -0.000000
    24  C   -0.260989   0.000000   0.000000  -0.000000  -0.000006   0.000002
    25  F   -0.161633  -0.000000  -0.000000   0.000000   0.000000  -0.000000
    26  F   -0.179977  -0.000000  -0.000000   0.000000  -0.000000   0.000000
    27  F    0.066981   0.000000   0.000000  -0.000000   0.000000  -0.000000
    28  N    0.008402   0.000000  -0.000000   0.000000   0.000000  -0.000000
    29  O    0.222721  -0.000000   0.000000  -0.000000  -0.000000   0.000000
    30  O   -0.195564   0.000000   0.000000  -0.000000  -0.000000   0.000000
    31  H    0.108301  -0.000000   0.000000   0.000000   0.000000  -0.000000
              19         20         21         22         23         24
     1  C    0.011265  -0.012507   0.001112   0.000013   0.000002  -0.000012
     2  C   -0.095929  -0.019568   0.011636   0.000063  -0.000003  -0.000157
     3  C    0.469396   0.382854  -0.081829   0.003961   0.000005  -0.004211
     4  N   -0.090167  -0.030262   0.246922   0.001402   0.000192   0.009689
     5  C    0.001504  -0.005492   0.052658   0.041537  -0.007965  -0.217908
     6  O    0.004043  -0.002622   0.009108  -0.008297   0.000087  -0.019751
     7  N    0.008562  -0.008267   0.024460  -0.005273  -0.008844   0.023599
     8  C   -0.004248   0.002528  -0.013865  -0.152144   0.096204  -1.277170
     9  C   -0.002180   0.005720   0.014845   0.439049   0.056082  -0.135918
    10  C   -0.001968   0.000413  -0.013192  -0.003225   0.310343   0.998203
    11  C    0.000178  -0.000206  -0.001993  -0.022014  -0.090669  -0.562283
    12  C   -0.000061   0.000019   0.000542  -0.035703  -0.058623  -3.069343
    13  C   -0.000389   0.000733   0.001544   0.011366   0.004930  -0.260989
    14  H   -0.000061  -0.000078  -0.000002  -0.000000  -0.000000   0.000000
    15  H   -0.000426   0.002744   0.000001   0.000000  -0.000000   0.000000
    16  H    0.002589  -0.000269   0.000001   0.000000   0.000000  -0.000000
    17  H    0.004476  -0.006214  -0.000134   0.000000   0.000000  -0.000006
    18  H   -0.006502   0.004430   0.001579  -0.000000  -0.000000   0.000002
    19  H    0.535457  -0.043452   0.002001  -0.000002   0.000000  -0.000116
    20  H   -0.043452   0.509926   0.002776   0.000005  -0.000000   0.000346
    21  H    0.002001   0.002776   0.336520   0.000001   0.000005  -0.000071
    22  H   -0.000002   0.000005   0.000001   0.442852  -0.000109   0.022669
    23  H    0.000000  -0.000000   0.000005  -0.000109   0.502776   0.002825
    24  C   -0.000116   0.000346  -0.000071   0.022669   0.002825   8.634271
    25  F    0.000000  -0.000000   0.000000   0.005195   0.000001   0.113986
    26  F   -0.000000   0.000000   0.000000   0.000248  -0.000002   0.168457
    27  F    0.000000  -0.000000  -0.000000  -0.000274   0.000001   0.081552
    28  N    0.000000  -0.000000   0.000000   0.000080   0.000501  -0.217937
    29  O   -0.000000   0.000000   0.000000   0.000054  -0.000150   0.024331
    30  O   -0.000000   0.000000   0.000000  -0.000119   0.000057   0.165040
    31  H   -0.000000   0.000000  -0.000000   0.000011  -0.003739   0.004509
              25         26         27         28         29         30
     1  C    0.000003  -0.000000   0.000000   0.000000  -0.000000   0.000000
     2  C    0.000019  -0.000000  -0.000000   0.000006   0.000000   0.000000
     3  C    0.000318  -0.000058   0.000028   0.000106  -0.000017   0.000038
     4  N   -0.000083  -0.000026   0.000005  -0.000104  -0.000012  -0.000004
     5  C    0.000949  -0.002370   0.005504   0.010505  -0.000854   0.003361
     6  O   -0.000977  -0.000156   0.000167   0.000352  -0.000007  -0.000008
     7  N   -0.000393   0.000473   0.000161  -0.000654  -0.000249   0.000104
     8  C    0.111733   0.019811   0.013408   0.043111   0.014070   0.039668
     9  C    0.076759  -0.002484   0.015587  -0.009798   0.013776   0.102183
    10  C   -0.000695   0.030491  -0.024726   0.008663   0.182237  -0.056648
    11  C    0.007922   0.017682   0.055625   0.318702  -0.134243   0.213777
    12  C   -0.041542   0.071081  -0.071360  -0.568358  -0.411935  -0.323110
    13  C   -0.161633  -0.179977   0.066981   0.008402   0.222721  -0.195564
    14  H   -0.000000  -0.000000   0.000000   0.000000  -0.000000   0.000000
    15  H   -0.000000  -0.000000   0.000000  -0.000000   0.000000   0.000000
    16  H    0.000000   0.000000  -0.000000   0.000000  -0.000000  -0.000000
    17  H    0.000000  -0.000000   0.000000   0.000000  -0.000000  -0.000000
    18  H   -0.000000   0.000000  -0.000000  -0.000000   0.000000   0.000000
    19  H    0.000000  -0.000000   0.000000   0.000000  -0.000000  -0.000000
    20  H   -0.000000   0.000000  -0.000000  -0.000000   0.000000   0.000000
    21  H    0.000000   0.000000  -0.000000   0.000000   0.000000   0.000000
    22  H    0.005195   0.000248  -0.000274   0.000080   0.000054  -0.000119
    23  H    0.000001  -0.000002   0.000001   0.000501  -0.000150   0.000057
    24  C    0.113986   0.168457   0.081552  -0.217937   0.024331   0.165040
    25  F    9.331219  -0.040686  -0.047148   0.001190  -0.000025   0.000981
    26  F   -0.040686   9.297688  -0.053229  -0.000131  -0.004105  -0.027639
    27  F   -0.047148  -0.053229   9.244404  -0.005404  -0.000901  -0.015179
    28  N    0.001190  -0.000131  -0.005404   7.362523   0.233605   0.239278
    29  O   -0.000025  -0.004105  -0.000901   0.233605   7.988268  -0.058309
    30  O    0.000981  -0.027639  -0.015179   0.239278  -0.058309   7.989153
    31  H    0.000009   0.000014  -0.000005  -0.036860   0.014006  -0.001896
              31
     1  C   -0.000000
     2  C    0.000000
     3  C    0.000005
     4  N    0.000001
     5  C    0.002145
     6  O   -0.000004
     7  N    0.000399
     8  C   -0.000793
     9  C   -0.001489
    10  C   -0.143490
    11  C    0.241214
    12  C    0.116108
    13  C    0.108301
    14  H   -0.000000
    15  H    0.000000
    16  H    0.000000
    17  H    0.000000
    18  H   -0.000000
    19  H   -0.000000
    20  H    0.000000
    21  H   -0.000000
    22  H    0.000011
    23  H   -0.003739
    24  C    0.004509
    25  F    0.000009
    26  F    0.000014
    27  F   -0.000005
    28  N   -0.036860
    29  O    0.014006
    30  O   -0.001896
    31  H    0.468656
 Mulliken charges:
               1
     1  C   -0.711267
     2  C   -0.368780
     3  C   -0.188364
     4  N   -0.600289
     5  C    0.571345
     6  O   -0.622205
     7  N   -0.456708
     8  C    0.270358
     9  C    0.158854
    10  C   -0.649643
    11  C    0.003656
    12  C   -1.109185
    13  C    0.101833
    14  H    0.195928
    15  H    0.208501
    16  H    0.207528
    17  H    0.216630
    18  H    0.202499
    19  H    0.206031
    20  H    0.216445
    21  H    0.405375
    22  H    0.258653
    23  H    0.196093
    24  C    1.516394
    25  F   -0.357104
    26  F   -0.295081
    27  F   -0.265196
    28  N   -0.387779
    29  O   -0.082261
    30  O   -0.075162
    31  H    0.232899
 Sum of Mulliken charges =  -1.00000
 Mulliken charges with hydrogens summed into heavy atoms:
               1
     1  C   -0.099309
     2  C    0.050349
     3  C    0.234112
     4  N   -0.194914
     5  C    0.571345
     6  O   -0.622205
     7  N   -0.456708
     8  C    0.270358
     9  C    0.417507
    10  C   -0.453550
    11  C    0.236554
    12  C   -1.109185
    13  C    0.101833
    24  C    1.516394
    25  F   -0.357104
    26  F   -0.295081
    27  F   -0.265196
    28  N   -0.387779
    29  O   -0.082261
    30  O   -0.075162
 Electronic spatial extent (au):  <R**2>=           8465.2015
 Charge=             -1.0000 electrons
 Dipole moment (field-independent basis, Debye):
    X=             -7.7100    Y=             -0.2422    Z=             -1.9876  Tot=              7.9658
 Quadrupole moment (field-independent basis, Debye-Ang):
   XX=           -174.2258   YY=           -129.7068   ZZ=           -123.5331
   XY=              4.3390   XZ=              3.4269   YZ=             -2.5373
 Traceless Quadrupole moment (field-independent basis, Debye-Ang):
   XX=            -31.7372   YY=             12.7818   ZZ=             18.9555
   XY=              4.3390   XZ=              3.4269   YZ=             -2.5373
 Octapole moment (field-independent basis, Debye-Ang**2):
  XXX=           -196.9625  YYY=             38.4937  ZZZ=             -2.4967  XYY=             -3.5677
  XXY=             32.1707  XXZ=            -17.7930  XZZ=             24.1009  YZZ=             12.7550
  YYZ=             -0.6860  XYZ=              0.4443
 Hexadecapole moment (field-independent basis, Debye-Ang**3):
 XXXX=         -10715.7445 YYYY=          -1458.5169 ZZZZ=           -291.0044 XXXY=            361.4399
 XXXZ=            -13.3642 YYYX=             81.3060 YYYZ=             -5.6292 ZZZX=             -2.5564
 ZZZY=            -10.6521 XXYY=          -1933.4118 XXZZ=          -1620.6875 YYZZ=           -305.7666
 XXYZ=            -21.9104 YYXZ=             14.9007 ZZXY=             28.9901
 N-N= 1.570178080134D+03 E-N=-5.772819730866D+03  KE= 1.105981065505D+03
 Calling FoFJK, ICntrl=      2127 FMM=F ISym2X=0 I1Cent= 0 IOpClX= 0 NMat=1 NMatS=1 NMatT=0.
 ***** Axes restored to original set *****
 -------------------------------------------------------------------
 Center     Atomic                   Forces (Hartrees/Bohr)
 Number     Number              X              Y              Z
 -------------------------------------------------------------------
      1        6          -0.001193674   -0.001237399   -0.000538784
      2        6           0.000700879    0.001301940    0.000200957
      3        6           0.007664101   -0.002426755   -0.000648661
      4        7          -0.018885163   -0.008214390   -0.006807602
      5        6           0.019081645    0.027845773    0.017201596
      6        8          -0.004123096   -0.016875527   -0.010707176
      7        7          -0.000072717   -0.002517643   -0.002715162
      8        6          -0.007947879   -0.002435767    0.000234565
      9        6           0.000194468    0.000685994   -0.000670972
     10        6           0.000910358   -0.000470859   -0.000013734
     11        6          -0.000705758    0.001477518    0.000167575
     12        6          -0.002438268   -0.001679791   -0.000180287
     13        6          -0.000205920   -0.001180566   -0.000414005
     14        1          -0.000982760    0.000079845    0.000011179
     15        1           0.000135477   -0.000041165    0.000303220
     16        1           0.000033315    0.000341193   -0.000089035
     17        1           0.000175320   -0.000321205   -0.000412207
     18        1          -0.000614106   -0.000895025    0.000036085
     19        1          -0.000236678    0.001261489    0.000817762
     20        1           0.000927111    0.000713419    0.000840058
     21        1           0.002440970    0.001816854    0.001325933
     22        1          -0.001044602   -0.000453474    0.002023050
     23        1          -0.001851547    0.000280925   -0.000064603
     24        6           0.003770617   -0.000708275    0.003431192
     25        9          -0.001911889    0.001140783   -0.001262554
     26        9          -0.000348836    0.000283972   -0.001377026
     27        9          -0.000918019   -0.000049284   -0.000810880
     28        7           0.014594702    0.006887711    0.001122489
     29        8          -0.004160848   -0.001109994   -0.000117002
     30        8          -0.004137160   -0.005016308   -0.000388256
     31        1           0.001149960    0.001516010   -0.000497717
 -------------------------------------------------------------------
 Cartesian Forces:  Max     0.027845773 RMS     0.005565848

 GradGradGradGradGradGradGradGradGradGradGradGradGradGradGradGradGradGrad
 Berny optimization.
 FormGI is forming the generalized inverse of G from B-inverse, IUseBI=4.
 GSVD:  received Info=                   1 from GESDD.
 Internal  Forces:  Max     0.019727175 RMS     0.002657687
 Search for a local minimum.
 Step number   1 out of a maximum of  159
 All quantities printed in internal units (Hartrees-Bohrs-Radians)
 Mixed Optimization -- RFO/linear search
 Second derivative matrix not updated -- first step.
 ITU=  0
     Eigenvalues ---    0.00431   0.00480   0.00543   0.00969   0.01459
     Eigenvalues ---    0.01466   0.01468   0.01667   0.01699   0.01786
     Eigenvalues ---    0.01875   0.01961   0.02050   0.02088   0.02136
     Eigenvalues ---    0.02172   0.02204   0.02211   0.02274   0.02506
     Eigenvalues ---    0.03741   0.04453   0.04937   0.05558   0.05569
     Eigenvalues ---    0.05579   0.08151   0.09199   0.10135   0.10757
     Eigenvalues ---    0.12055   0.12681   0.15372   0.15989   0.15991
     Eigenvalues ---    0.15995   0.16000   0.16000   0.16000   0.21896
     Eigenvalues ---    0.21914   0.22155   0.22349   0.23433   0.24569
     Eigenvalues ---    0.24912   0.24930   0.24982   0.24983   0.25000
     Eigenvalues ---    0.25000   0.25000   0.25000   0.25000   0.25000
     Eigenvalues ---    0.25000   0.29857   0.30211   0.30674   0.33782
     Eigenvalues ---    0.33963   0.34033   0.34160   0.34166   0.34167
     Eigenvalues ---    0.34338   0.35330   0.35522   0.35929   0.37642
     Eigenvalues ---    0.38184   0.39677   0.41937   0.42905   0.43350
     Eigenvalues ---    0.45460   0.47744   0.50471   0.50970   0.52687
     Eigenvalues ---    0.55387   0.56019   0.56185   0.57554   0.80865
     Eigenvalues ---    0.87669   0.89584
 RFO step:  Lambda=-3.58022355D-03 EMin= 4.30567220D-03
 Linear search not attempted -- first point.
 Iteration  1 RMS(Cart)=  0.10028310 RMS(Int)=  0.00441982
 Iteration  2 RMS(Cart)=  0.00773422 RMS(Int)=  0.00004848
 Iteration  3 RMS(Cart)=  0.00005330 RMS(Int)=  0.00004482
 Iteration  4 RMS(Cart)=  0.00000000 RMS(Int)=  0.00004482
 Variable       Old X    -DE/DX   Delta X   Delta X   Delta X     New X
                                 (Linear)    (Quad)   (Total)
    R1        2.88250   0.00143   0.00000   0.00474   0.00474   2.88724
    R2        2.06763   0.00066   0.00000   0.00191   0.00191   2.06953
    R3        2.07062  -0.00016   0.00000  -0.00046  -0.00046   2.07016
    R4        2.07051  -0.00008   0.00000  -0.00024  -0.00024   2.07028
    R5        2.87545   0.00189   0.00000   0.00617   0.00617   2.88163
    R6        2.07275   0.00044   0.00000   0.00129   0.00129   2.07404
    R7        2.07392   0.00080   0.00000   0.00233   0.00233   2.07624
    R8        2.74890  -0.00628   0.00000  -0.01652  -0.01652   2.73238
    R9        2.07700   0.00092   0.00000   0.00268   0.00268   2.07968
   R10        2.07050   0.00031   0.00000   0.00090   0.00090   2.07140
   R11        2.57248   0.01313   0.00000   0.02475   0.02475   2.59723
   R12        1.91445  -0.00201   0.00000  -0.00438  -0.00438   1.91007
   R13        2.37452  -0.01973   0.00000  -0.02429  -0.02429   2.35023
   R14        2.58899  -0.00199   0.00000  -0.00388  -0.00388   2.58511
   R15        2.52930  -0.00499   0.00000  -0.00862  -0.00862   2.52069
   R16        2.71840   0.00076   0.00000   0.00209   0.00209   2.72049
   R17        2.69650   0.00004   0.00000   0.00006   0.00005   2.69655
   R18        2.59882   0.00282   0.00000   0.00579   0.00579   2.60462
   R19        2.04192   0.00009   0.00000   0.00024   0.00024   2.04216
   R20        2.59024   0.00212   0.00000   0.00396   0.00395   2.59419
   R21        2.05142   0.00004   0.00000   0.00011   0.00011   2.05153
   R22        2.65878  -0.00149   0.00000  -0.00351  -0.00351   2.65528
   R23        2.04836  -0.00014   0.00000  -0.00040  -0.00040   2.04796
   R24        2.68528   0.00140   0.00000   0.00332   0.00333   2.68860
   R25        2.67787   0.00627   0.00000   0.01449   0.01449   2.69237
   R26        2.86639   0.00071   0.00000   0.00228   0.00228   2.86867
   R27        2.54790   0.00251   0.00000   0.00450   0.00450   2.55240
   R28        2.54237   0.00082   0.00000   0.00145   0.00145   2.54382
   R29        2.54093  -0.00089   0.00000  -0.00158  -0.00158   2.53935
   R30        2.34026  -0.00223   0.00000  -0.00253  -0.00253   2.33773
   R31        2.33125  -0.00580   0.00000  -0.00645  -0.00645   2.32481
    A1        1.93914   0.00116   0.00000   0.00878   0.00877   1.94791
    A2        1.93581  -0.00029   0.00000  -0.00275  -0.00276   1.93305
    A3        1.93644  -0.00006   0.00000  -0.00105  -0.00107   1.93537
    A4        1.88344  -0.00030   0.00000  -0.00053  -0.00053   1.88291
    A5        1.88362  -0.00036   0.00000  -0.00038  -0.00039   1.88324
    A6        1.88316  -0.00019   0.00000  -0.00436  -0.00437   1.87879
    A7        1.94295   0.00170   0.00000   0.00895   0.00895   1.95190
    A8        1.92021  -0.00034   0.00000  -0.00113  -0.00114   1.91907
    A9        1.91827  -0.00096   0.00000  -0.00610  -0.00613   1.91215
   A10        1.90605  -0.00062   0.00000  -0.00185  -0.00185   1.90420
   A11        1.90582   0.00002   0.00000   0.00333   0.00334   1.90916
   A12        1.86897   0.00014   0.00000  -0.00366  -0.00367   1.86531
   A13        1.93023  -0.00014   0.00000   0.00131   0.00129   1.93153
   A14        1.91766   0.00032   0.00000   0.00598   0.00594   1.92361
   A15        1.91759   0.00088   0.00000   0.00550   0.00550   1.92309
   A16        1.92214   0.00044   0.00000   0.00604   0.00601   1.92814
   A17        1.90565  -0.00079   0.00000  -0.00924  -0.00923   1.89641
   A18        1.86958  -0.00073   0.00000  -0.00998  -0.00999   1.85959
   A19        2.12715  -0.00311   0.00000  -0.01502  -0.01507   2.11208
   A20        2.06065   0.00379   0.00000   0.01954   0.01943   2.08009
   A21        2.03986  -0.00088   0.00000  -0.01054  -0.01055   2.02931
   A22        2.08618  -0.00243   0.00000  -0.00944  -0.00946   2.07672
   A23        1.98724  -0.00711   0.00000  -0.02786  -0.02789   1.95936
   A24        2.20860   0.00955   0.00000   0.03787   0.03785   2.24645
   A25        2.10450  -0.00036   0.00000  -0.00142  -0.00142   2.10308
   A26        2.19281   0.00209   0.00000   0.00822   0.00823   2.20104
   A27        2.06484  -0.00071   0.00000  -0.00291  -0.00290   2.06194
   A28        2.02306  -0.00138   0.00000  -0.00525  -0.00527   2.01779
   A29        2.14055   0.00036   0.00000   0.00248   0.00238   2.14293
   A30        2.06225  -0.00146   0.00000  -0.00874  -0.00882   2.05343
   A31        2.07974   0.00112   0.00000   0.00708   0.00700   2.08674
   A32        2.12356   0.00060   0.00000   0.00225   0.00221   2.12577
   A33        2.06624  -0.00222   0.00000  -0.01275  -0.01276   2.05348
   A34        2.09303   0.00162   0.00000   0.01079   0.01078   2.10381
   A35        2.11535   0.00153   0.00000   0.00609   0.00606   2.12141
   A36        2.09640   0.00122   0.00000   0.00922   0.00922   2.10562
   A37        2.07099  -0.00275   0.00000  -0.01507  -0.01508   2.05591
   A38        2.07725  -0.00173   0.00000  -0.00716  -0.00716   2.07009
   A39        2.04786  -0.00155   0.00000  -0.00607  -0.00607   2.04178
   A40        2.15743   0.00328   0.00000   0.01301   0.01300   2.17044
   A41        2.08385   0.00064   0.00000   0.00298   0.00298   2.08683
   A42        2.02999  -0.00034   0.00000  -0.00153  -0.00153   2.02846
   A43        2.16693  -0.00030   0.00000  -0.00132  -0.00132   2.16562
   A44        1.94331  -0.00010   0.00000  -0.00282  -0.00282   1.94049
   A45        1.96516   0.00035   0.00000   0.00188   0.00186   1.96701
   A46        1.98202   0.00096   0.00000   0.00576   0.00574   1.98776
   A47        1.84104  -0.00103   0.00000  -0.00779  -0.00779   1.83324
   A48        1.83928  -0.00062   0.00000  -0.00325  -0.00325   1.83604
   A49        1.88329   0.00024   0.00000   0.00511   0.00508   1.88836
   A50        2.07832  -0.00345   0.00000  -0.01371  -0.01381   2.06451
   A51        2.08583  -0.00173   0.00000  -0.00696  -0.00706   2.07877
   A52        2.11889   0.00517   0.00000   0.02028   0.02018   2.13908
    D1        3.13635  -0.00015   0.00000  -0.00098  -0.00097   3.13538
    D2        1.02090  -0.00027   0.00000  -0.00381  -0.00381   1.01709
    D3       -1.03298   0.00035   0.00000   0.00500   0.00498  -1.02800
    D4        1.04146  -0.00034   0.00000  -0.00431  -0.00430   1.03716
    D5       -1.07399  -0.00047   0.00000  -0.00715  -0.00714  -1.08113
    D6       -3.12787   0.00015   0.00000   0.00166   0.00165  -3.12621
    D7       -1.05129   0.00013   0.00000   0.00369   0.00370  -1.04759
    D8        3.11644   0.00001   0.00000   0.00085   0.00086   3.11730
    D9        1.06256   0.00062   0.00000   0.00967   0.00965   1.07222
   D10        3.13097   0.00033   0.00000   0.01220   0.01222  -3.14000
   D11        1.00538  -0.00035   0.00000  -0.00022  -0.00022   1.00516
   D12       -1.04730  -0.00017   0.00000   0.00510   0.00511  -1.04219
   D13       -1.02851   0.00060   0.00000   0.01536   0.01537  -1.01313
   D14        3.12909  -0.00008   0.00000   0.00294   0.00293   3.13202
   D15        1.07641   0.00009   0.00000   0.00827   0.00827   1.08467
   D16        1.00985   0.00042   0.00000   0.01181   0.01181   1.02166
   D17       -1.11574  -0.00025   0.00000  -0.00061  -0.00063  -1.11637
   D18        3.11476  -0.00008   0.00000   0.00471   0.00470   3.11947
   D19       -3.10637   0.00021   0.00000  -0.00379  -0.00373  -3.11010
   D20       -0.32769  -0.00056   0.00000  -0.02462  -0.02470  -0.35239
   D21       -0.98342   0.00081   0.00000   0.00862   0.00870  -0.97472
   D22        1.79526   0.00004   0.00000  -0.01221  -0.01227   1.78299
   D23        1.06479  -0.00028   0.00000  -0.00546  -0.00539   1.05940
   D24       -2.43971  -0.00106   0.00000  -0.02629  -0.02636  -2.46607
   D25       -0.18165  -0.00013   0.00000  -0.01305  -0.01286  -0.19452
   D26        2.91154   0.00033   0.00000  -0.00011  -0.00006   2.91148
   D27       -2.96441  -0.00029   0.00000   0.00162   0.00157  -2.96284
   D28        0.12878   0.00017   0.00000   0.01456   0.01437   0.14316
   D29        2.74943   0.00213   0.00000   0.08201   0.08188   2.83131
   D30       -0.44458   0.00219   0.00000   0.09427   0.09440  -0.35018
   D31       -0.33298   0.00279   0.00000   0.09802   0.09801  -0.23497
   D32        2.88748   0.00280   0.00000   0.09726   0.09727   2.98476
   D33       -3.12574   0.00043   0.00000   0.01962   0.01962  -3.10612
   D34       -0.02331   0.00102   0.00000   0.04425   0.04415   0.02084
   D35       -0.06135   0.00044   0.00000   0.02044   0.02041  -0.04094
   D36        3.04108   0.00103   0.00000   0.04507   0.04495   3.08602
   D37        3.13552  -0.00025   0.00000  -0.01732  -0.01735   3.11817
   D38       -0.03491   0.00003   0.00000  -0.00503  -0.00509  -0.04001
   D39        0.06518  -0.00040   0.00000  -0.01861  -0.01861   0.04657
   D40       -3.10526  -0.00012   0.00000  -0.00632  -0.00635  -3.11161
   D41        0.00593  -0.00017   0.00000  -0.00816  -0.00816  -0.00223
   D42        3.07610  -0.00019   0.00000  -0.00621  -0.00618   3.06992
   D43       -3.09612  -0.00071   0.00000  -0.03268  -0.03280  -3.12892
   D44       -0.02595  -0.00073   0.00000  -0.03073  -0.03082  -0.05677
   D45       -0.01409   0.00012   0.00000   0.00483   0.00487  -0.00922
   D46        3.09492   0.00029   0.00000   0.01309   0.01321   3.10813
   D47       -3.12641  -0.00010   0.00000  -0.00726  -0.00735  -3.13375
   D48       -0.01739   0.00007   0.00000   0.00100   0.00099  -0.01640
   D49       -0.04465   0.00015   0.00000   0.00841   0.00840  -0.03626
   D50        3.05977   0.00013   0.00000   0.00246   0.00249   3.06226
   D51        3.12905  -0.00009   0.00000  -0.00017  -0.00014   3.12891
   D52       -0.04971  -0.00011   0.00000  -0.00612  -0.00605  -0.05576
   D53        0.04820  -0.00014   0.00000  -0.00675  -0.00675   0.04144
   D54       -3.01601  -0.00013   0.00000  -0.00888  -0.00891  -3.02492
   D55       -3.05375   0.00001   0.00000   0.00007   0.00010  -3.05365
   D56        0.16523   0.00002   0.00000  -0.00206  -0.00205   0.16317
   D57        0.24999  -0.00012   0.00000  -0.00739  -0.00736   0.24263
   D58       -2.87407   0.00033   0.00000   0.01757   0.01759  -2.85648
   D59       -2.93063  -0.00027   0.00000  -0.01413  -0.01415  -2.94477
   D60        0.22849   0.00018   0.00000   0.01083   0.01080   0.23930
   D61       -0.17655  -0.00030   0.00000  -0.00068  -0.00069  -0.17724
   D62       -2.24012   0.00085   0.00000   0.00989   0.00989  -2.23022
   D63        1.89617  -0.00051   0.00000  -0.00294  -0.00296   1.89321
   D64        2.88984  -0.00027   0.00000   0.00157   0.00158   2.89142
   D65        0.82627   0.00088   0.00000   0.01214   0.01216   0.83843
   D66       -1.32063  -0.00047   0.00000  -0.00069  -0.00069  -1.32132
         Item               Value     Threshold  Converged?
 Maximum Force            0.019727     0.000450     NO 
 RMS     Force            0.002658     0.000300     NO 
 Maximum Displacement     0.466255     0.001800     NO 
 RMS     Displacement     0.104694     0.001200     NO 
 Predicted change in Energy=-1.886996D-03
 GradGradGradGradGradGradGradGradGradGradGradGradGradGradGradGradGradGrad

                          Input orientation:                          
 ---------------------------------------------------------------------
 Center     Atomic      Atomic             Coordinates (Angstroms)
 Number     Number       Type             X           Y           Z
 ---------------------------------------------------------------------
      1          6           0       -1.901957    1.866111   -0.059023
      2          6           0       -0.517180    1.277722   -0.324653
      3          6           0        0.594517    2.205213    0.154078
      4          7           0        1.892346    1.625618   -0.111200
      5          6           0        3.046102    2.268681    0.268639
      6          8           0        2.978978    3.448787    0.655436
      7          7           0        4.141637    1.452476    0.198079
      8          6           0        5.371099    1.969579    0.181102
      9          6           0        5.707217    3.351703   -0.040850
     10          6           0        6.478125    1.077581    0.303704
     11          6           0        7.775319    1.525440    0.268243
     12          6           0        8.078662    2.886824    0.098070
     13          6           0        7.007872    3.805714   -0.084309
     14          1           0       -2.697255    1.199954   -0.409866
     15          1           0       -2.019418    2.828226   -0.569528
     16          1           0       -2.054543    2.037720    1.012182
     17          1           0       -0.390053    1.089016   -1.398342
     18          1           0       -0.426355    0.307390    0.182645
     19          1           0        0.478765    2.414714    1.228254
     20          1           0        0.529709    3.170606   -0.361025
     21          1           0        1.965127    0.629121   -0.263996
     22          1           0        4.894277    4.047682   -0.191122
     23          1           0        6.262312    0.022818    0.443268
     24          6           0        7.194970    5.273579   -0.423126
     25          9           0        6.036971    5.829538   -0.840577
     26          9           0        8.060232    5.466747   -1.436082
     27          9           0        7.592026    6.025885    0.617112
     28          7           0        9.452110    3.257712    0.175296
     29          8           0       10.304829    2.363064    0.122159
     30          8           0        9.744008    4.441840    0.336881
     31          1           0        8.601521    0.835490    0.394072
 ---------------------------------------------------------------------
                    Distance matrix (angstroms):
                    1          2          3          4          5
     1  C    0.000000
     2  C    1.527864   0.000000
     3  C    2.528396   1.524892   0.000000
     4  N    3.802275   2.443851   1.445912   0.000000
     5  C    4.975210   3.745794   2.455080   1.374395   0.000000
     6  O    5.180622   4.230511   2.735597   2.256645   1.243691
     7  N    6.063186   4.691308   3.626377   2.277047   1.367980
     8  C    7.277755   5.950318   4.782467   3.507916   2.345792
     9  C    7.752860   6.566967   5.243294   4.187787   2.889681
    10  C    8.424911   7.026321   5.992560   4.637010   3.633006
    11  C    9.688800   8.317358   7.213809   5.896049   4.787265
    12  C   10.033907   8.755364   7.515327   6.317036   5.073249
    13  C    9.118539   7.941972   6.614344   5.560769   4.264114
    14  H    1.095151   2.183126   3.487742   4.618964   5.881216
    15  H    1.095481   2.172728   2.782878   4.118037   5.164795
    16  H    1.095543   2.174445   2.789609   4.124288   5.159727
    17  H    2.164141   1.097533   2.150647   2.674700   3.997198
    18  H    2.159958   1.098701   2.155163   2.683364   3.988986
    19  H    2.761501   2.167067   1.100519   2.101194   2.744704
    20  H    2.775953   2.163403   1.096137   2.075134   2.746303
    21  H    4.065279   2.566361   2.130122   1.010767   2.034788
    22  H    7.139012   6.080656   4.690606   3.858027   2.606142
    23  H    8.384827   6.937291   6.080327   4.687538   3.926628
    24  C    9.720982   8.686417   7.301645   6.443815   5.169242
    25  F    8.907646   7.996381   6.614029   5.948349   4.780728
    26  F   10.682045   9.610161   8.300790   7.385960   6.186695
    27  F   10.387329   9.444110   7.986055   7.237344   5.907914
    28  N   11.441429  10.176298   8.919929   7.739240   6.482579
    29  O   12.218241  10.885472   9.711647   8.447968   7.260819
    30  O   11.933969  10.758311   9.420674   8.353472   7.041962
    31  H   10.563641   9.157666   8.126859   6.774410   5.738680
                    6          7          8          9         10
     6  O    0.000000
     7  N    2.355039   0.000000
     8  C    2.852243   1.333889   0.000000
     9  C    2.817362   2.472891   1.439619   0.000000
    10  C    4.241505   2.368729   1.426954   2.425829   0.000000
    11  C    5.182091   3.635092   2.446452   2.776296   1.372788
    12  C    5.160740   4.191362   2.859917   2.420570   2.424327
    13  C    4.111765   3.719244   2.474037   1.378303   2.806046
    14  H    6.197721   6.870503   8.126495   8.683395   9.203899
    15  H    5.183589   6.359285   7.477999   7.762372   8.719836
    16  H    5.239725   6.276777   7.472316   7.942314   8.615697
[...]
 011,-0.00250605,-0.00006047,0.00132038,0.00059528,-0.00024744,-0.00072
 855,-0.00431929,0.01466483,-0.00000801,0.00000273,-0.00001561,0.000011
 23,-0.00000412,-0.00000316,-0.00001294,-0.00001015,0.00001013,0.000004
 38,0.00001125,0.00002441,-0.00000731,-0.00002247,-0.00000045,-0.000023
 59,-0.00002267,0.00000626,0.00002477,0.00000740,-0.00001626,-0.0000155
 1,-0.00001237,0.00000545,0.00074578,0.00078891,0.00027538,0.00012814,-
 0.00006275,0.00013293,-0.11684196,-0.02217212,0.08783149,-0.06553207,0
 .00986458,0.04987213,0.17411940,0.00001235,-0.00002174,-0.00004292,-0.
 00007768,0.00003213,0.00001017,0.00031056,-0.00014391,-0.00002146,-0.0
 0083995,-0.00012830,0.00028266,0.00191608,-0.00060046,-0.00022614,-0.0
 0079687,0.00059525,-0.00005419,-0.00156384,-0.00065016,0.00067158,-0.0
 0034820,0.00087029,-0.00253061,0.00299842,-0.00404970,0.00157800,0.000
 57024,-0.00050556,0.00016887,-0.00091760,-0.00112746,-0.00037607,0.000
 42019,0.00183869,-0.00018354,-0.02101007,-0.00257341,0.03286592,-0.000
 03715,0.00000395,-0.00003322,-0.00000200,0.00001834,0.00001732,-0.0000
 1619,-0.00000169,0.00001195,0.00002730,-0.00000901,0.00003065,-0.00000
 056,-0.00000142,-0.00000125,-0.00007970,-0.00002856,-0.00000003,-0.000
 00207,0.00003697,-0.00001822,0.00006535,0.00004151,-0.00002926,0.00023
 113,0.00024545,0.00090600,0.00004668,-0.00006070,0.00016365,-0.0212446
 0,-0.09052246,0.04127362,0.01823272,0.01236762,-0.01532724,0.01146714,
 0.07596503,-0.00001084,0.00000447,0.00003481,0.00006893,-0.00003071,-0
 .00000921,-0.00031393,0.00009161,-0.00002881,0.00074734,0.00028250,-0.
 00021581,-0.00119642,-0.00055293,0.00028729,0.00072678,0.00033433,0.00
 003129,0.00058031,0.00100371,-0.00041309,0.00108929,-0.00122867,0.0015
 0010,-0.00249510,0.00503378,-0.00131503,-0.00115405,0.00052761,0.00002
 344,0.00073323,0.00204450,0.00010131,-0.00073034,-0.00152786,0.0010414
 4,0.02075815,0.00615632,-0.02052150,0.00004501,-0.00000219,0.00004419,
 -0.00000758,-0.00000327,-0.00001438,0.00001199,0.00000338,-0.00001073,
 -0.00002916,-0.00001550,-0.00004408,0.00000779,0.00002923,0.00000365,0
 .00007482,0.00003259,0.00000619,-0.00001944,-0.00002736,0.00002553,-0.
 00003544,-0.00002822,-0.00000147,-0.00072925,-0.00060652,-0.00052776,-
 0.00009760,0.00011510,-0.00015632,0.08344047,0.04542800,-0.22236449,0.
 03690360,-0.00940376,-0.00174600,-0.14041367,-0.03043270,0.31959894,0.
 00000481,0.00000053,0.00000290,0.00001768,0.00003258,-0.00001400,0.000
 06305,-0.00000996,-0.00000719,-0.00014073,-0.00022045,0.00011953,-0.00
 024189,0.00118426,-0.00022835,-0.00017944,-0.00082032,0.00031648,0.000
 78576,-0.00037998,-0.00013386,-0.00024499,0.00079749,0.00065460,0.0009
 2639,0.00024633,0.00032267,0.00141787,-0.00049893,-0.00022530,-0.00026
 165,-0.00188589,0.00067218,0.00044383,-0.00016582,-0.00025324,0.002590
 77,-0.01042137,-0.00798971,-0.00000146,0.00000461,-0.00000895,0.000009
 55,0.00000087,-0.00000568,-0.00001726,-0.00001273,0.00001252,0.0000008
 8,0.00000385,0.00002087,-0.00000469,-0.00001404,0.00000140,-0.00002611
 ,-0.00002453,0.00001111,0.00001890,0.00001495,-0.00001746,-0.00001908,
 -0.00000800,-0.00003777,0.00040756,0.00035291,-0.00082063,0.00007937,-
 0.00008090,-0.00002411,-0.10865077,-0.06088062,-0.05900297,-0.05897788
 ,-0.02035961,-0.05120069,0.01492878,0.00801077,0.00716296,0.15779439,0
 .00001801,-0.00003492,-0.00005384,-0.00008578,0.00006493,0.00000607,0.
 00041906,-0.00020260,-0.00003576,-0.00117712,-0.00025802,0.00049325,0.
 00263520,-0.00056677,-0.00024151,-0.00107186,0.00064963,0.00015248,-0.
 00217157,-0.00110841,0.00012866,0.00039105,0.00306322,0.00217936,0.003
 22673,-0.00523241,0.00053986,0.00128590,-0.00075014,-0.00027715,-0.000
 85039,-0.00200322,0.00162872,0.00029044,0.00195942,-0.00002891,-0.0244
 0661,-0.02552164,-0.02926929,-0.00004248,0.00000965,-0.00003991,0.0000
 0016,0.00002865,0.00001654,-0.00003224,-0.00001028,0.00002296,0.000033
 43,-0.00001603,0.00004556,-0.00000020,-0.00000085,0.00000158,-0.000119
 03,-0.00004889,0.00000947,-0.00000488,0.00006400,-0.00003333,0.0000660
 0,0.00006275,-0.00011621,0.00009279,-0.00036310,-0.00154734,0.00003145
 ,-0.00018476,-0.00012302,-0.05863209,-0.17215556,-0.08394616,-0.006735
 24,0.01902806,-0.00030131,0.00420653,0.00927750,-0.02103730,0.07824409
 ,0.17860139,0.00000440,-0.00000892,-0.00000276,0.00000758,0.00003492,-
 0.00001205,0.00005644,-0.00004163,-0.00004374,-0.00023038,-0.00012857,
 0.00017766,0.00035559,0.00026917,-0.00020362,-0.00021521,-0.00013733,0
 .00032707,-0.00021124,-0.00034477,0.00020910,-0.00019383,0.00015085,0.
 00001471,0.00050884,-0.00169307,0.00060898,0.00012363,-0.00006739,0.00
 004848,0.00020445,-0.00041513,0.00008582,0.00026807,-0.00002503,0.0003
 7798,-0.00501167,-0.00438434,0.00318920,0.00000311,0.00000655,-0.00000
 028,0.00000459,0.00000816,-0.00000608,-0.00001785,-0.00001194,0.000011
 77,-0.00000120,-0.00000611,0.00001310,-0.00000086,-0.00000040,0.000004
 49,-0.00002870,-0.00002041,0.00001372,0.00000158,0.00002008,-0.0000160
 1,0.00000124,0.00000568,-0.00005346,0.00031624,0.00016724,-0.00053351,
 0.00002241,-0.00007045,-0.00001720,-0.05588758,-0.08637837,-0.15386304
 ,-0.04407946,-0.00697206,-0.01520967,-0.00373883,-0.03218842,-0.072272
 37,0.10668482,0.13381226,0.23592810,-0.00011374,0.00017881,0.00053256,
 0.00098923,-0.00054148,-0.00022633,-0.00347354,0.00146996,0.00083289,0
 .01033936,0.00195745,-0.00485724,-0.02811013,0.01620362,0.00108862,0.0
 0450923,-0.01014686,0.00172609,0.03670314,0.00257589,-0.00548718,-0.02
 681116,-0.01325355,0.00668180,0.01562554,0.02508224,-0.00732685,0.0266
 3011,-0.00206527,-0.00302376,-0.03227113,-0.04794656,0.00930755,-0.145
 58568,-0.00302505,0.00854530,-0.05744022,-0.00223391,0.00944043,0.0003
 9026,-0.00009343,0.00033185,-0.00002990,-0.00011917,-0.00010780,0.0001
 9525,0.00007667,-0.00017075,-0.00023585,0.00000701,-0.00033935,0.00001
 537,0.00018468,0.00003249,0.00088238,0.00031488,-0.00006977,0.00007570
 ,-0.00036575,0.00023242,-0.00024342,-0.00070212,0.00083261,0.00006042,
 -0.00008115,0.00002436,0.00071124,0.00083221,0.00045958,0.01089097,0.0
 1272334,-0.00371064,-0.00225811,-0.00249226,0.00069827,-0.00575329,-0.
 00340770,0.00264197,-0.00585810,-0.00433256,-0.00090231,0.69644582,-0.
 00003557,0.00006864,0.00016090,0.00030408,-0.00012912,-0.00006420,-0.0
 0104507,0.00048642,0.00023559,0.00306068,0.00048904,-0.00138063,-0.008
 26087,0.00503196,0.00019183,0.00159122,-0.00326481,0.00047316,0.010637
 86,0.00059790,-0.00173873,-0.00631068,-0.00671365,0.00257664,0.0119619
 9,0.00211078,-0.00115269,0.00739401,-0.01053921,0.00199323,-0.04310796
 ,-0.00920805,0.00478459,-0.00594855,-0.11815805,0.00890629,0.00287583,
 0.01484086,-0.00344940,0.00011860,-0.00002057,0.00009666,0.00000241,-0
 .00005519,-0.00004516,0.00005284,0.00001414,-0.00004198,-0.00007670,0.
 00001785,-0.00009123,-0.00000069,0.00001650,0.00000364,0.00025663,0.00
 008935,-0.00001181,0.00003549,-0.00012279,0.00006046,-0.00009260,-0.00
 017964,0.00023975,0.00101905,0.00116780,-0.00010615,-0.00159222,-0.000
 13133,0.00077776,0.02663858,0.00980950,-0.00307734,-0.00578273,-0.0010
 4254,0.00014610,-0.01015050,-0.00138764,0.00250877,-0.00788175,-0.0043
 1546,-0.00225933,-0.05265629,0.97571370,0.00002149,-0.00002469,-0.0000
 8850,-0.00015058,0.00008196,0.00003313,0.00056712,-0.00021480,-0.00011
 036,-0.00166167,-0.00030585,0.00100596,0.00441015,-0.00256506,-0.00067
 039,-0.00081954,0.00142561,-0.00040195,-0.00589920,-0.00085944,0.00033
 245,0.00382616,0.00280736,-0.00324633,-0.00277347,-0.00185572,0.006913
 50,-0.00360970,0.00356301,0.00691928,0.01308767,0.00726636,-0.00981326
 ,0.00484855,0.00968831,-0.07125663,0.00430303,-0.00601113,-0.01124833,
 -0.00006635,0.00001428,-0.00005663,0.00000499,0.00001657,0.00001839,-0
 .00002906,-0.00001083,0.00002767,0.00004044,0.00000248,0.00004902,-0.0
 0000377,-0.00003475,-0.00000813,-0.00014765,-0.00003814,0.00001285,-0.
 00002676,0.00003311,-0.00003627,0.00005232,0.00013108,-0.00007731,0.00
 033175,0.00054999,0.00308571,0.00054660,0.00034441,0.00167624,-0.00237
 958,-0.00192977,-0.00009086,0.00057056,0.00025262,-0.00024055,0.000300
 61,0.00148209,-0.00240358,0.00060381,-0.00071507,-0.00029093,-0.064530
 82,0.01936883,0.25307437,0.00004616,-0.00006551,-0.00020047,-0.0003620
 6,0.00022784,0.00008007,0.00135422,-0.00055734,-0.00030135,-0.00398417
 ,-0.00093594,0.00185988,0.01008115,-0.00465970,-0.00055943,-0.00210583
 ,0.00288424,-0.00038850,-0.01243272,-0.00147868,0.00201485,0.00814495,
 0.00667895,-0.00298604,-0.00724454,-0.00523106,0.00156398,-0.00686206,
 0.00163583,0.00032165,0.00114618,0.00947659,0.00018771,-0.07225748,0.0
 3062094,0.01364533,0.00710571,-0.00823937,0.00188925,-0.00015087,0.000
 03850,-0.00013377,0.00001758,0.00004129,0.00003786,-0.00008360,-0.0000
 3532,0.00007267,0.00009201,0.00000079,0.00014395,-0.00001031,-0.000085
 35,-0.00001407,-0.00035166,-0.00013557,0.00003129,-0.00000836,0.000142
 95,-0.00009783,0.00007489,0.00025719,-0.00032100,-0.00029759,-0.000722
 38,0.00003634,-0.00016655,-0.00036974,0.00005121,-0.00032569,-0.004092
 51,0.00219834,-0.00019656,0.00122709,-0.00051537,0.00036998,0.00145899
 ,-0.00174582,0.00033038,0.00166047,0.00012160,-0.33305462,0.19731581,0
 .04008077,0.37972636,-0.00002330,0.00003180,0.00011426,0.00020861,-0.0
 0012998,-0.00006640,-0.00070156,0.00027213,0.00020966,0.00210590,0.000
 47538,-0.00107313,-0.00583299,0.00300347,0.00038880,0.00089874,-0.0017
 0756,0.00029360,0.00692789,0.00094722,-0.00109607,-0.00539411,-0.00305
 404,0.00115929,0.00188589,0.00474146,-0.00115411,0.00502456,0.00210746
 ,-0.00112253,-0.01029959,-0.01494584,0.00425425,0.03245860,0.01498439,
 -0.00500836,-0.00681653,0.00268996,0.00136089,0.00008096,-0.00002298,0
 .00006801,-0.00001175,-0.00001460,-0.00001652,0.00004144,0.00001867,-0
 .00003830,-0.00004662,-0.00000776,-0.00007391,0.00000731,0.00005911,0.
 00001091,0.00018207,0.00006448,-0.00001975,0.00001157,-0.00006578,0.00
 005072,-0.00001995,-0.00016366,0.00018170,-0.00005527,0.00002907,-0.00
 020501,0.00018867,0.00012261,0.00018492,-0.00650248,-0.00208222,-0.001
 00116,0.00129487,0.00004871,0.00022167,0.00256283,-0.00022159,0.000715
 85,0.00269557,0.00024000,0.00056046,0.18168173,-0.31768040,-0.03153979
 ,-0.25652563,0.41604470,-0.00000601,0.00000601,0.00002355,0.00003924,-
 0.00002644,-0.00000731,-0.00016073,0.00005874,0.00001510,0.00044695,0.
 00010372,-0.00022640,-0.00099816,0.00037293,0.00015655,0.00030825,-0.0
 0019824,0.00008828,0.00123488,0.00019296,-0.00011795,-0.00064171,-0.00
 066590,0.00055127,0.00075190,-0.00011122,-0.00084401,0.00078036,-0.000
 90007,-0.00039341,0.00067593,0.00037087,0.00115381,0.01351552,-0.00503
 747,0.01580016,0.00038891,0.00260650,0.00510403,0.00002037,-0.00000437
 ,0.00001886,-0.00000288,-0.00000278,-0.00000488,0.00000803,0.00000322,
 -0.00000829,-0.00001311,-0.00000392,-0.00001676,0.00000235,0.00001471,
 0.00000217,0.00004172,0.00001202,-0.00000304,0.00000263,-0.00000907,0.
 00001220,-0.00001803,-0.00002986,0.00000605,-0.00013006,-0.00015234,-0
 .00101662,-0.00004540,0.00003950,-0.00009064,-0.00051285,0.00066579,0.
 00054452,0.00015799,-0.00025257,0.00003190,0.00100873,-0.00061283,0.00
 060625,-0.00028519,0.00009748,-0.00026522,0.04225270,-0.03318748,-0.08
 941916,-0.06038920,0.04669397,0.04173801,0.00002714,-0.00003973,-0.000
 11277,-0.00020499,0.00011685,0.00003705,0.00077910,-0.00032894,-0.0001
 4967,-0.00227004,-0.00044421,0.00102588,0.00586090,-0.00307588,-0.0003
 1725,-0.00123566,0.00205311,-0.00029146,-0.00762564,-0.00026945,0.0010
 5639,0.00593830,0.00134130,-0.00109472,-0.00199224,-0.00304472,0.00090
 093,-0.00432552,-0.00157744,0.00137228,-0.00350428,0.00686355,-0.00144
 095,-0.01726606,-0.05627782,0.00520351,0.00531764,-0.00174893,-0.00111
 610,-0.00008618,0.00001986,-0.00007698,0.00000692,0.00002982,0.0000248
 9,-0.00004719,-0.00001908,0.00004012,0.00005338,-0.00000443,0.00007969
 ,-0.00000295,-0.00003613,-0.00000589,-0.00020244,-0.00007650,0.0000157
 4,-0.00001046,0.00008693,-0.00005531,0.00007428,0.00013934,-0.00017679
 ,-0.00007411,-0.00013039,0.00009232,-0.00072801,-0.00027009,0.00016676
 ,-0.00181610,-0.00461512,0.00167978,0.00031313,0.00081722,-0.00024560,
 -0.00452836,0.00458212,-0.00603841,-0.00513131,0.00705554,0.00184484,-
 0.16280560,-0.12059415,0.00904947,0.03616715,0.05783455,-0.00019105,0.
 15899212,0.00004699,-0.00008058,-0.00021391,-0.00039997,0.00017941,0.0
 0010121,0.00134460,-0.00059814,-0.00032311,-0.00394994,-0.00053009,0.0
 0182014,0.01099892,-0.00692812,-0.00036884,-0.00187157,0.00453527,-0.0
 0075557,-0.01414033,-0.00002452,0.00190683,0.00990779,0.00342068,-0.00
 215293,-0.00652612,-0.00638990,0.00250309,-0.00890206,0.00241414,0.001
 32036,0.00331492,0.01041170,-0.00159832,-0.05154675,-0.04196619,0.0067
 7916,0.01404559,-0.00230745,-0.00234380,-0.00015589,0.00003104,-0.0001
 2776,0.00000189,0.00006117,0.00005242,-0.00006968,-0.00002253,0.000059
 11,0.00009660,-0.00001325,0.00012268,0.00000017,-0.00004224,-0.0000090
 2,-0.00034108,-0.00011118,0.00002022,-0.00004945,0.00014947,-0.0000825
 3,0.00014604,0.00026474,-0.00031213,-0.00028004,-0.00026691,0.00022897
 ,-0.00036132,-0.00017038,-0.00017865,-0.01798465,-0.00989817,0.0016735
 4,0.00417110,0.00120124,-0.00012093,0.01090264,0.00086814,0.00038135,0
 .01233788,-0.00001989,0.00025603,-0.10509146,-0.53411502,0.00061429,0.
 03152184,-0.10904202,-0.00994732,0.11222099,0.68782600,-0.00000503,0.0
 0000735,0.00002459,0.00004758,-0.00001995,-0.00000960,-0.00016615,0.00
 006463,0.00002878,0.00047028,0.00008675,-0.00021383,-0.00129483,0.0007
 8074,0.00003281,0.00022978,-0.00049196,0.00012336,0.00177648,0.0000914
 9,-0.00017168,-0.00136356,-0.00021197,0.00073542,0.00045302,0.00045315
 ,-0.00077779,0.00138516,-0.00045060,-0.00099898,-0.00042697,-0.0004185
 3,0.00557464,0.00689569,0.00664198,0.01815698,-0.00083455,0.00116464,0
 .00063653,0.00002049,-0.00000335,0.00001768,-0.00000098,-0.00000452,-0
 .00000674,0.00000660,0.00000157,-0.00000639,-0.00001281,-0.00000153,-0
 .00001486,0.00000152,0.00000964,0.00000208,0.00003857,0.00001089,-0.00
 000164,0.00000515,-0.00001205,0.00000897,-0.00001220,-0.00003445,0.000
 02074,0.00003074,-0.00000193,-0.00028693,-0.00009819,-0.00016754,-0.00
 085433,0.00221248,-0.00014496,-0.00652736,-0.00049399,0.00008166,0.000
 81680,-0.00875961,0.00263801,-0.00115526,0.00344931,-0.00160311,0.0017
 9231,0.00588568,0.00381512,-0.08053804,0.00174222,-0.01418390,0.027068
 66,-0.01121345,0.00170537,0.03637883,0.00000059,-0.00000198,-0.0000058
 1,-0.00000603,0.00000928,0.00000368,0.00002416,-0.00003660,0.00002759,
 -0.00018773,0.00003916,0.00003042,-0.00009271,-0.00022186,-0.00008435,
 -0.00003168,0.00010541,-0.00000544,-0.00110287,0.00061356,0.00000757,-
 0.00178695,-0.00273420,0.00225235,-0.00039401,-0.00088130,0.00006876,-
 0.01624170,0.01832916,-0.00089814,-0.23693326,0.14659617,-0.00705001,0
 .00663759,-0.00231577,0.00043483,0.00078402,-0.00141698,0.00054157,-0.
 00000397,0.00000146,-0.00000325,0.00000119,-0.00000055,0.00000046,-0.0
 0000130,-0.00000046,0.00000172,0.00000260,0.00000103,0.00000307,-0.000
 00144,-0.00000560,-0.00000083,-0.00002210,0.00000116,-0.00000113,0.000
 00123,0.00000499,-0.00000376,0.00000821,0.00001450,-0.00000975,0.00001
 873,0.00006192,-0.00005145,0.00087191,-0.00055458,-0.00084520,0.000535
 88,-0.00000280,0.00018500,0.00010056,-0.00021327,0.00002147,-0.0001205
 3,-0.00000587,0.00002442,-0.00006459,0.00000519,-0.00001031,-0.0004195
 3,0.00027128,-0.00054734,-0.00476207,-0.00386197,0.00175790,0.00032708
 ,0.00061235,0.00003156,0.25285874,-0.00000020,-0.00000090,-0.00000094,
 0.00000082,0.00000084,0.00000245,-0.00000351,-0.00000879,0.00002129,-0
 .00004197,0.00004623,-0.00000593,-0.00020951,-0.00010662,-0.00014797,0
 .00002807,0.00003969,0.00001133,-0.00028090,0.00035929,-0.00006271,-0.
 00223239,-0.00021427,0.00240982,-0.00089472,-0.00001248,-0.00012716,-0
 .01027313,0.01199615,-0.00005502,0.14283985,-0.17127676,0.00953539,0.0
 2371997,-0.01412661,0.00092232,-0.00241480,-0.00487514,0.00212149,-0.0
 0000067,0.00000014,-0.00000048,-0.00000012,-0.00000038,0.00000035,0.00
 000050,0.00000065,-0.00000004,0.00000047,-0.00000021,-0.00000080,-0.00
 000038,-0.00000104,-0.00000068,-0.00000798,0.00000319,-0.00000050,-0.0
 0000096,0.00000006,0.00000068,0.00000730,0.00000638,0.00000063,0.00005
 826,0.00003652,-0.00008348,0.00014630,0.00042863,-0.00131949,0.0015408
 1,0.00078560,-0.00009544,0.00038984,-0.00076164,0.00019576,-0.00029902
 ,-0.00012707,0.00020390,-0.00026179,-0.00025625,-0.00013774,0.00526606
 ,-0.00339094,-0.00153730,-0.00205522,0.00325781,-0.00009654,-0.0006081
 4,0.00116357,0.00019736,-0.15441286,0.17703439,-0.00000056,0.00000066,
 0.00000332,0.00001281,-0.00000028,-0.00000339,0.00000132,0.00002043,0.
 00005061,0.00006465,-0.00000158,0.00003358,-0.00020778,-0.00006287,-0.
 00091078,0.00000902,-0.00004971,0.00014059,0.00032895,-0.00022624,-0.0
 0016560,0.00190264,0.00278934,0.00846248,-0.00018394,-0.00012622,-0.00
 104450,0.00588134,-0.00372503,0.00552153,-0.00621189,0.00872834,-0.040
 38793,-0.00627255,0.00429657,0.00423345,0.00091537,0.00193416,0.003058
 17,-0.00000013,-0.00000047,-0.00000107,0.00000044,-0.00000154,-0.00000
 002,0.00000148,0.00000094,-0.00000060,0.00000084,0.00000286,-0.0000013
 1,-0.00000135,-0.00000263,-0.00000004,-0.00000078,0.00000587,-0.000000
 36,-0.00000326,-0.00000398,0.00000079,0.00000804,-0.00000164,0.0000150
 9,-0.00001843,-0.00010732,-0.00034107,-0.00094242,-0.00123393,-0.00502
 526,-0.00038908,0.00014784,0.00133770,0.00002360,-0.00003246,-0.000251
 64,0.00002110,-0.00002239,-0.00010455,0.00021992,0.00023496,-0.0000125
 5,-0.00079437,0.00026681,-0.00315136,0.00157386,0.00013000,-0.00050768
 ,-0.00006325,-0.00100995,0.00014426,0.00412440,-0.01195055,0.02890815\
 \0.00000083,0.00000154,-0.00000096,-0.00000066,-0.00000133,-0.00000127
 ,-0.00000147,0.00000120,0.00000194,0.00000037,0.,0.00000047,-0.0000043
 8,0.00000459,0.00000117,0.00000169,-0.00000215,-0.00000027,0.00000318,
 0.00000038,-0.00000075,-0.00000253,-0.00000216,0.00000029,0.00000024,0
 .00000025,0.00000031,0.00000259,0.00000025,0.00000138,-0.00000243,-0.0
 0000053,0.00000155,0.00000353,0.00000025,-0.00000241,-0.00000108,0.,0.
 00000118,-0.00000042,-0.00000084,-0.00000024,0.,0.00000029,-0.00000113
 ,-0.00000045,0.00000056,0.00000058,0.00000061,-0.00000017,0.00000025,0
 .00000027,0.00000064,0.00000040,0.00000118,0.00000118,-0.00000024,-0.0
 0000066,0.00000202,-0.00000120,-0.00000019,0.00000158,0.00000163,0.000
 00020,0.00000080,-0.00000110,-0.00000088,0.00000012,0.00000171,0.00000
 259,-0.00000014,0.00000037,-0.00000300,-0.00000095,-0.00000269,0.00000
 109,-0.00000195,-0.00000190,0.00000205,-0.00000223,-0.00000220,-0.0000
 0262,-0.00000166,0.00000129,0.00000042,-0.00000130,0.00000117,-0.00000
 031,0.00000020,-0.00000072,0.00000025,-0.00000042,0.00000143\\\@


 IMAGINATION WILL OFTEN CARRY US TO WORLDS THAT NEVER WERE.
 BUT WITHOUT IT, WE GO NOWHERE. -- CARL SAGAN (COSMOS)
 Job cpu time:       0 days  3 hours 42 minutes  7.8 seconds.
 File lengths (MBytes):  RWF=    559 Int=      0 D2E=      0 Chk=     13 Scr=      1
 Normal termination of Gaussian 09 at Tue Nov  6 00:51:16 2018.
WARNING: pbs_rusage is deprecated and values produced may not be accurate


=============================================================================
                                     Resource usage:
                                       CPU time:              22:58:18
   JobId:    2044808.r-man2            Elapsed time:          05:46:50
   Project:             q95            Requested time:        40:00:00
   Service Units:     23.12 
                                       Max physical memory:      775MB
                                       Max virtual memory:      1660MB
                                       Requested memory:           0MB

                                       Number of cpus:               4

                                       Max jobfs disk use:       0.5GB
                                       Requested jobfs:         20.0GB
=============================================================================

