 Entering Gaussian System, Link 0=/apps/gaussian/g09e01/g09/g09
 AtFile(1): /home/507/hio507/Basis/6-31pGd.gbs
 Initial command:
 /apps/gaussian/g09e01/g09/l1.exe "/jobfs/local/1827585.r-man2/Gau-33244.inp" -scrdir="/jobfs/local/1827585.r-man2/"
 Entering Link 1 = /apps/gaussian/g09e01/g09/l1.exe PID=     33245.
  
 Copyright (c) 1988,1990,1992,1993,1995,1998,2003,2009,2015,
            Gaussian, Inc.  All Rights Reserved.
  
 This is part of the Gaussian(R) 09 program.  It is based on
 the Gaussian(R) 03 system (copyright 2003, Gaussian, Inc.),
 the Gaussian(R) 98 system (copyright 1998, Gaussian, Inc.),
 the Gaussian(R) 94 system (copyright 1995, Gaussian, Inc.),
 the Gaussian 92(TM) system (copyright 1992, Gaussian, Inc.),
 the Gaussian 90(TM) system (copyright 1990, Gaussian, Inc.),
 the Gaussian 88(TM) system (copyright 1988, Gaussian, Inc.),
 the Gaussian 86(TM) system (copyright 1986, Carnegie Mellon
 University), and the Gaussian 82(TM) system (copyright 1983,
 Carnegie Mellon University). Gaussian is a federally registered
 trademark of Gaussian, Inc.
  
 This software contains proprietary and confidential information,
 including trade secrets, belonging to Gaussian, Inc.
  
 This software is provided under written license and may be
 used, copied, transmitted, or stored only in accord with that
 written license.
  
 The following legend is applicable only to US Government
 contracts under FAR:
  
                    RESTRICTED RIGHTS LEGEND
  
 Use, reproduction and disclosure by the US Government is
 subject to restrictions as set forth in subparagraphs (a)
 and (c) of the Commercial Computer Software - Restricted
 Rights clause in FAR 52.227-19.
  
 Gaussian, Inc.
 340 Quinnipiac St., Bldg. 40, Wallingford CT 06492
  
  
 ---------------------------------------------------------------
 Warning -- This program may not be used in any manner that
 competes with the business of Gaussian, Inc. or will provide
 assistance to any competitor of Gaussian, Inc.  The licensee
 of this program is prohibited from giving any competitor of
 Gaussian, Inc. access to this program.  By using this program,
 the user acknowledges that Gaussian, Inc. is engaged in the
 business of creating and licensing software in the field of
 computational chemistry and represents and warrants to the
 licensee that it is not a competitor of Gaussian, Inc. and that
 it will not use this program in any manner prohibited above.
 ---------------------------------------------------------------
  

 Cite this work as:
 Gaussian 09, Revision E.01,
 M. J. Frisch, G. W. Trucks, H. B. Schlegel, G. E. Scuseria, 
 M. A. Robb, J. R. Cheeseman, G. Scalmani, V. Barone, B. Mennucci, 
 G. A. Petersson, H. Nakatsuji, M. Caricato, X. Li, H. P. Hratchian, 
 A. F. Izmaylov, J. Bloino, G. Zheng, J. L. Sonnenberg, M. Hada, 
 M. Ehara, K. Toyota, R. Fukuda, J. Hasegawa, M. Ishida, T. Nakajima, 
 Y. Honda, O. Kitao, H. Nakai, T. Vreven, J. A. Montgomery, Jr., 
 J. E. Peralta, F. Ogliaro, M. Bearpark, J. J. Heyd, E. Brothers, 
 K. N. Kudin, V. N. Staroverov, T. Keith, R. Kobayashi, J. Normand, 
 K. Raghavachari, A. Rendell, J. C. Burant, S. S. Iyengar, J. Tomasi, 
 M. Cossi, N. Rega, J. M. Millam, M. Klene, J. E. Knox, J. B. Cross, 
 V. Bakken, C. Adamo, J. Jaramillo, R. Gomperts, R. E. Stratmann, 
 O. Yazyev, A. J. Austin, R. Cammi, C. Pomelli, J. W. Ochterski, 
 R. L. Martin, K. Morokuma, V. G. Zakrzewski, G. A. Voth, 
 P. Salvador, J. J. Dannenberg, S. Dapprich, A. D. Daniels, 
 O. Farkas, J. B. Foresman, J. V. Ortiz, J. Cioslowski, 
 and D. J. Fox, Gaussian, Inc., Wallingford CT, 2013.
 
 ******************************************
 Gaussian 09:  ES64L-G09RevE.01 30-Nov-2015
                30-Oct-2018 
 ******************************************
 %chk=3TMF4Nitro.M062X_6-31pGd_opt_water.chk
 %mem=196608000
 %nproc=4
 Will use up to    4 processors via shared memory.
 ----------------------------------------------------------------------
 # M062X/Gen 6D SCF=Tight INT(grid=ultrafine) OPT IOP(2/17=4) SCRF=(SMD
 ,Solvent=h2o) maxdisk=2684354560
 ----------------------------------------------------------------------
 1/14=-1,18=20,19=15,26=4,38=1/1,3;
 2/9=110,12=2,17=4,18=5,40=1/2;
 3/5=7,8=2,11=2,16=1,25=1,30=1,70=32201,71=1,72=1,74=-55,75=-5/1,2,3;
 4//1;
 5/5=2,32=2,38=5,53=1/2;
 6/7=2,8=2,9=2,10=2,28=1/1;
 7//1,2,3,16;
 1/14=-1,18=20,19=15,26=4/3(2);
 2/9=110,17=4/2;
 99//99;
 2/9=110,17=4/2;
 3/5=7,6=1,8=2,11=2,16=1,25=1,30=1,70=32205,71=1,72=1,74=-55,75=-5,82=7/1,2,3;
 4/5=5,16=3,69=1/1;
 5/5=2,32=2,38=5,53=1/2;
 7//1,2,3,16;
 1/14=-1,18=20,19=15,26=4/3(-5);
 2/9=110,17=4/2;
 6/7=2,8=2,9=2,10=2,19=2,28=1/1;
 99/9=1/99;
 ----------------------------------
 3TMF4Nitro.M062X_6-31pGd_opt_water
 ----------------------------------
 Symbolic Z-matrix:
 Charge =  0 Multiplicity = 1
 C                    -2.03683   1.83126  -0.08111 
 C                    -0.67396   1.14733  -0.03117 
 C                     0.4666    2.17222  -0.04985 
 N                     1.75849   1.50968  -0.00004 
 C                     2.93005   2.20709  -0.00445 
 O                     2.89806   3.42626  -0.05236 
 N                     4.11671   1.52508   0.04624 
 C                     5.4559    2.05651   0.05278 
 C                     5.77938   3.43207  -0.00221 
 C                     6.51162   1.13946   0.11845 
 C                     7.83206   1.56439   0.13018 
 C                     8.17724   2.92102   0.07703 
 C                     7.1222    3.88695   0.00839 
 H                    -2.83858   1.06303  -0.0661 
 H                    -2.13494   2.42959  -1.01184 
 H                    -2.16677   2.49794   0.79787 
 H                    -0.57802   0.47079  -0.90831 
 H                    -0.61017   0.5395    0.89768 
 H                     0.36664   2.8471    0.82886 
 H                     0.40011   2.77737  -0.98095 
 H                     1.78953   0.47869   0.04068 
 H                     4.04375   0.49628   0.08649 
 H                     5.00713   4.17161  -0.05422 
 H                     6.31593   0.07581   0.1621 
 C                     7.38258   5.38625  -0.05389 
 F                     6.2127    6.1246   -0.11532 
 F                     8.1205    5.68823  -1.18448 
 F                     8.06697   5.79159   1.07803 
 N                     9.5774    3.24382   0.09552 
 O                     10.38738   2.36721   0.15457 
 O                     9.96235   4.37113   0.05384 
 H                     8.58371   0.85897   0.1796 
 

 GradGradGradGradGradGradGradGradGradGradGradGradGradGradGradGradGradGrad
 Berny optimization.
 Initialization pass.
                           ----------------------------
                           !    Initial Parameters    !
                           ! (Angstroms and Degrees)  !
 --------------------------                            --------------------------
 ! Name  Definition              Value          Derivative Info.                !
 --------------------------------------------------------------------------------
 ! R1    R(1,2)                  1.5257         estimate D2E/DX2                !
 ! R2    R(1,14)                 1.1105         estimate D2E/DX2                !
 ! R3    R(1,15)                 1.1108         estimate D2E/DX2                !
 ! R4    R(1,16)                 1.1108         estimate D2E/DX2                !
 ! R5    R(2,3)                  1.5335         estimate D2E/DX2                !
 ! R6    R(2,17)                 1.1119         estimate D2E/DX2                !
 ! R7    R(2,18)                 1.1119         estimate D2E/DX2                !
 ! R8    R(3,4)                  1.4527         estimate D2E/DX2                !
 ! R9    R(3,19)                 1.1125         estimate D2E/DX2                !
 ! R10   R(3,20)                 1.1125         estimate D2E/DX2                !
 ! R11   R(4,5)                  1.3634         estimate D2E/DX2                !
 ! R12   R(4,21)                 1.0323         estimate D2E/DX2                !
 ! R13   R(5,6)                  1.2205         estimate D2E/DX2                !
 ! R14   R(5,7)                  1.3696         estimate D2E/DX2                !
 ! R15   R(7,8)                  1.4408         estimate D2E/DX2                !
 ! R16   R(7,22)                 1.0322         estimate D2E/DX2                !
 ! R17   R(8,9)                  1.4142         estimate D2E/DX2                !
 ! R18   R(8,10)                 1.3999         estimate D2E/DX2                !
 ! R19   R(9,13)                 1.4178         estimate D2E/DX2                !
 ! R20   R(9,23)                 1.0705         estimate D2E/DX2                !
 ! R21   R(10,11)                1.3872         estimate D2E/DX2                !
 ! R22   R(10,24)                1.0824         estimate D2E/DX2                !
 ! R23   R(11,12)                1.4009         estimate D2E/DX2                !
 ! R24   R(11,32)                1.032          estimate D2E/DX2                !
 ! R25   R(12,13)                1.4321         estimate D2E/DX2                !
 ! R26   R(12,29)                1.437          estimate D2E/DX2                !
 ! R27   R(13,25)                1.523          estimate D2E/DX2                !
 ! R28   R(25,26)                1.3848         estimate D2E/DX2                !
 ! R29   R(25,27)                1.3835         estimate D2E/DX2                !
 ! R30   R(25,28)                1.3834         estimate D2E/DX2                !
 ! R31   R(29,30)                1.195          estimate D2E/DX2                !
 ! R32   R(29,31)                1.192          estimate D2E/DX2                !
 ! A1    A(2,1,14)             109.5345         estimate D2E/DX2                !
 ! A2    A(2,1,15)             110.3523         estimate D2E/DX2                !
 ! A3    A(2,1,16)             110.3426         estimate D2E/DX2                !
 ! A4    A(14,1,15)            108.6743         estimate D2E/DX2                !
 ! A5    A(14,1,16)            108.6652         estimate D2E/DX2                !
 ! A6    A(15,1,16)            109.2322         estimate D2E/DX2                !
 ! A7    A(1,2,3)              111.3705         estimate D2E/DX2                !
 ! A8    A(1,2,17)             108.9062         estimate D2E/DX2                !
 ! A9    A(1,2,18)             108.8841         estimate D2E/DX2                !
 ! A10   A(3,2,17)             109.4431         estimate D2E/DX2                !
 ! A11   A(3,2,18)             109.4425         estimate D2E/DX2                !
 ! A12   A(17,2,18)            108.7499         estimate D2E/DX2                !
 ! A13   A(2,3,4)              110.8667         estimate D2E/DX2                !
 ! A14   A(2,3,19)             109.2077         estimate D2E/DX2                !
 ! A15   A(2,3,20)             109.2261         estimate D2E/DX2                !
 ! A16   A(4,3,19)             109.2382         estimate D2E/DX2                !
 ! A17   A(4,3,20)             109.2649         estimate D2E/DX2                !
 ! A18   A(19,3,20)            109.0098         estimate D2E/DX2                !
 ! A19   A(3,4,5)              122.0558         estimate D2E/DX2                !
 ! A20   A(3,4,21)             118.9206         estimate D2E/DX2                !
 ! A21   A(5,4,21)             119.0236         estimate D2E/DX2                !
 ! A22   A(4,5,6)              119.245          estimate D2E/DX2                !
 ! A23   A(4,5,7)              119.318          estimate D2E/DX2                !
 ! A24   A(6,5,7)              121.437          estimate D2E/DX2                !
 ! A25   A(5,7,8)              128.4487         estimate D2E/DX2                !
 ! A26   A(5,7,22)             115.8826         estimate D2E/DX2                !
 ! A27   A(8,7,22)             115.6686         estimate D2E/DX2                !
 ! A28   A(7,8,9)              124.8351         estimate D2E/DX2                !
 ! A29   A(7,8,10)             117.357          estimate D2E/DX2                !
 ! A30   A(9,8,10)             117.808          estimate D2E/DX2                !
 ! A31   A(8,9,13)             121.8995         estimate D2E/DX2                !
 ! A32   A(8,9,23)             120.5874         estimate D2E/DX2                !
 ! A33   A(13,9,23)            117.5131         estimate D2E/DX2                !
 ! A34   A(8,10,11)            121.1693         estimate D2E/DX2                !
 ! A35   A(8,10,24)            120.6157         estimate D2E/DX2                !
 ! A36   A(11,10,24)           118.215          estimate D2E/DX2                !
 ! A37   A(10,11,12)           122.0652         estimate D2E/DX2                !
 ! A38   A(10,11,32)           118.9676         estimate D2E/DX2                !
 ! A39   A(12,11,32)           118.9672         estimate D2E/DX2                !
 ! A40   A(11,12,13)           118.2608         estimate D2E/DX2                !
 ! A41   A(11,12,29)           117.2027         estimate D2E/DX2                !
 ! A42   A(13,12,29)           124.5366         estimate D2E/DX2                !
 ! A43   A(9,13,12)            118.7972         estimate D2E/DX2                !
 ! A44   A(9,13,25)            118.5191         estimate D2E/DX2                !
 ! A45   A(12,13,25)           122.6837         estimate D2E/DX2                !
 ! A46   A(13,25,26)           112.4747         estimate D2E/DX2                !
 ! A47   A(13,25,27)           109.8457         estimate D2E/DX2                !
 ! A48   A(13,25,28)           109.8493         estimate D2E/DX2                !
 ! A49   A(26,25,27)           107.3364         estimate D2E/DX2                !
 ! A50   A(26,25,28)           107.338          estimate D2E/DX2                !
 ! A51   A(27,25,28)           109.9268         estimate D2E/DX2                !
 ! A52   A(12,29,30)           119.7545         estimate D2E/DX2                !
 ! A53   A(12,29,31)           121.7812         estimate D2E/DX2                !
 ! A54   A(30,29,31)           118.4643         estimate D2E/DX2                !
 ! D1    D(14,1,2,3)          -179.9962         estimate D2E/DX2                !
 ! D2    D(14,1,2,17)           59.2167         estimate D2E/DX2                !
 ! D3    D(14,1,2,18)          -59.2243         estimate D2E/DX2                !
 ! D4    D(15,1,2,3)            60.4015         estimate D2E/DX2                !
 ! D5    D(15,1,2,17)          -60.3856         estimate D2E/DX2                !
 ! D6    D(15,1,2,18)         -178.8266         estimate D2E/DX2                !
 ! D7    D(16,1,2,3)           -60.4111         estimate D2E/DX2                !
 ! D8    D(16,1,2,17)          178.8017         estimate D2E/DX2                !
 ! D9    D(16,1,2,18)           60.3607         estimate D2E/DX2                !
 ! D10   D(1,2,3,4)            179.9185         estimate D2E/DX2                !
 ! D11   D(1,2,3,19)            59.5065         estimate D2E/DX2                !
 ! D12   D(1,2,3,20)           -59.6244         estimate D2E/DX2                !
 ! D13   D(17,2,3,4)           -59.6097         estimate D2E/DX2                !
 ! D14   D(17,2,3,19)          179.9783         estimate D2E/DX2                !
 ! D15   D(17,2,3,20)           60.8474         estimate D2E/DX2                !
 ! D16   D(18,2,3,4)            59.4747         estimate D2E/DX2                !
 ! D17   D(18,2,3,19)          -60.9374         estimate D2E/DX2                !
 ! D18   D(18,2,3,20)          179.9318         estimate D2E/DX2                !
 ! D19   D(2,3,4,5)           -179.953          estimate D2E/DX2                !
 ! D20   D(2,3,4,21)            -0.001          estimate D2E/DX2                !
 ! D21   D(19,3,4,5)           -59.5591         estimate D2E/DX2                !
 ! D22   D(19,3,4,21)          120.3929         estimate D2E/DX2                !
 ! D23   D(20,3,4,5)            59.6129         estimate D2E/DX2                !
 ! D24   D(20,3,4,21)         -120.4351         estimate D2E/DX2                !
 ! D25   D(3,4,5,6)             -0.0399         estimate D2E/DX2                !
 ! D26   D(3,4,5,7)            179.8978         estimate D2E/DX2                !
 ! D27   D(21,4,5,6)          -179.9919         estimate D2E/DX2                !
 ! D28   D(21,4,5,7)            -0.0542         estimate D2E/DX2                !
 ! D29   D(4,5,7,8)           -179.9481         estimate D2E/DX2                !
 ! D30   D(4,5,7,22)            -0.0512         estimate D2E/DX2                !
 ! D31   D(6,5,7,8)             -0.0118         estimate D2E/DX2                !
 ! D32   D(6,5,7,22)           179.8851         estimate D2E/DX2                !
 ! D33   D(5,7,8,9)             -0.3947         estimate D2E/DX2                !
 ! D34   D(5,7,8,10)           179.6091         estimate D2E/DX2                !
 ! D35   D(22,7,8,9)           179.7082         estimate D2E/DX2                !
 ! D36   D(22,7,8,10)           -0.288          estimate D2E/DX2                !
 ! D37   D(7,8,9,13)           179.976          estimate D2E/DX2                !
 ! D38   D(7,8,9,23)            -0.0494         estimate D2E/DX2                !
 ! D39   D(10,8,9,13)           -0.0278         estimate D2E/DX2                !
 ! D40   D(10,8,9,23)          179.9468         estimate D2E/DX2                !
 ! D41   D(7,8,10,11)         -179.9617         estimate D2E/DX2                !
 ! D42   D(7,8,10,24)            0.0034         estimate D2E/DX2                !
 ! D43   D(9,8,10,11)            0.0419         estimate D2E/DX2                !
 ! D44   D(9,8,10,24)         -179.993          estimate D2E/DX2                !
 ! D45   D(8,9,13,12)           -0.0074         estimate D2E/DX2                !
 ! D46   D(8,9,13,25)          179.9916         estimate D2E/DX2                !
 ! D47   D(23,9,13,12)        -179.9828         estimate D2E/DX2                !
 ! D48   D(23,9,13,25)           0.0162         estimate D2E/DX2                !
 ! D49   D(8,10,11,12)          -0.0206         estimate D2E/DX2                !
 ! D50   D(8,10,11,32)         179.9802         estimate D2E/DX2                !
 ! D51   D(24,10,11,12)       -179.9866         estimate D2E/DX2                !
 ! D52   D(24,10,11,32)          0.0143         estimate D2E/DX2                !
 ! D53   D(10,11,12,13)         -0.0158         estimate D2E/DX2                !
 ! D54   D(10,11,12,29)        179.9873         estimate D2E/DX2                !
 ! D55   D(32,11,12,13)        179.9834         estimate D2E/DX2                !
 ! D56   D(32,11,12,29)         -0.0135         estimate D2E/DX2                !
 ! D57   D(11,12,13,9)           0.029          estimate D2E/DX2                !
 ! D58   D(11,12,13,25)       -179.9699         estimate D2E/DX2                !
 ! D59   D(29,12,13,9)        -179.9743         estimate D2E/DX2                !
 ! D60   D(29,12,13,25)          0.0268         estimate D2E/DX2                !
 ! D61   D(11,12,29,30)         -0.0167         estimate D2E/DX2                !
 ! D62   D(11,12,29,31)       -179.9905         estimate D2E/DX2                !
 ! D63   D(13,12,29,30)        179.9866         estimate D2E/DX2                !
 ! D64   D(13,12,29,31)          0.0127         estimate D2E/DX2                !
 ! D65   D(9,13,25,26)          -0.0207         estimate D2E/DX2                !
 ! D66   D(9,13,25,27)        -119.5026         estimate D2E/DX2                !
 ! D67   D(9,13,25,28)         119.4655         estimate D2E/DX2                !
 ! D68   D(12,13,25,26)        179.9782         estimate D2E/DX2                !
 ! D69   D(12,13,25,27)         60.4964         estimate D2E/DX2                !
 ! D70   D(12,13,25,28)        -60.5356         estimate D2E/DX2                !
 --------------------------------------------------------------------------------
 Trust Radius=3.00D-01 FncErr=1.00D-07 GrdErr=1.00D-06
 Number of steps in this run=    166 maximum allowed number of steps=    192.
 GradGradGradGradGradGradGradGradGradGradGradGradGradGradGradGradGradGrad

                          Input orientation:                          
 ---------------------------------------------------------------------
 Center     Atomic      Atomic             Coordinates (Angstroms)
 Number     Number       Type             X           Y           Z
 ---------------------------------------------------------------------
      1          6           0       -2.036830    1.831260   -0.081110
      2          6           0       -0.673960    1.147330   -0.031170
      3          6           0        0.466600    2.172220   -0.049850
      4          7           0        1.758490    1.509680   -0.000040
      5          6           0        2.930050    2.207090   -0.004450
      6          8           0        2.898060    3.426260   -0.052360
      7          7           0        4.116710    1.525080    0.046240
      8          6           0        5.455900    2.056510    0.052780
      9          6           0        5.779380    3.432070   -0.002210
     10          6           0        6.511620    1.139460    0.118450
     11          6           0        7.832060    1.564390    0.130180
     12          6           0        8.177240    2.921020    0.077030
     13          6           0        7.122200    3.886950    0.008390
     14          1           0       -2.838580    1.063030   -0.066100
     15          1           0       -2.134940    2.429590   -1.011840
     16          1           0       -2.166770    2.497940    0.797870
     17          1           0       -0.578020    0.470790   -0.908310
     18          1           0       -0.610170    0.539500    0.897680
     19          1           0        0.366640    2.847100    0.828860
     20          1           0        0.400110    2.777370   -0.980950
     21          1           0        1.789530    0.478690    0.040680
     22          1           0        4.043750    0.496280    0.086490
     23          1           0        5.007130    4.171610   -0.054220
     24          1           0        6.315930    0.075810    0.162100
     25          6           0        7.382580    5.386250   -0.053890
     26          9           0        6.212700    6.124600   -0.115320
     27          9           0        8.120500    5.688230   -1.184480
     28          9           0        8.066970    5.791590    1.078030
     29          7           0        9.577400    3.243820    0.095520
     30          8           0       10.387380    2.367210    0.154570
     31          8           0        9.962350    4.371130    0.053840
     32          1           0        8.583710    0.858970    0.179600
 ---------------------------------------------------------------------
                    Distance matrix (angstroms):
                    1          2          3          4          5
     1  C    0.000000
     2  C    1.525670   0.000000
     3  C    2.526736   1.533501   0.000000
     4  N    3.809782   2.459488   1.452728   0.000000
     5  C    4.981669   3.756686   2.464115   1.363434   0.000000
     6  O    5.186327   4.237133   2.735803   2.230389   1.220530
     7  N    6.162469   4.806163   3.708278   2.358724   1.369624
     8  C    7.497311   6.197487   4.991697   3.738001   2.530982
     9  C    7.978844   6.845909   5.460323   4.456809   3.101494
    10  C    8.578718   7.187142   6.134915   4.768999   3.739329
    11  C    9.874758   8.517767   7.392690   6.075212   4.945795
    12  C   10.273257   9.027814   7.747953   6.572532   5.296163
    13  C    9.387316   8.263607   6.873187   5.866930   4.516217
    14  H    1.110498   2.166542   3.486371   4.619190   5.881306
    15  H    1.110803   2.177238   2.785619   4.126593   5.168991
    16  H    1.110834   2.177139   2.785563   4.125650   5.167774
    17  H    2.159459   1.111884   2.173258   2.713582   4.017245
    18  H    2.159174   1.111885   2.173251   2.712508   4.015950
    19  H    2.763448   2.170649   1.112469   2.100717   2.770395
    20  H    2.764690   2.170884   1.112463   2.101052   2.771167
    21  H    4.060210   2.553630   2.150903   1.032261   2.071277
    22  H    6.227657   4.763874   3.952640   2.501376   2.043396
    23  H    7.422623   6.435960   4.961249   4.200294   2.859384
    24  H    8.538698   7.074183   6.217276   4.780432   4.004282
    25  C   10.067968   9.103669   7.626322   6.830892   5.471245
    26  F    9.299929   8.497434   6.974472   6.414886   5.112237
    27  F   10.920851   9.964558   8.498935   7.703139   6.360155
    28  F   10.913963   9.960087   8.493384   7.700254   6.356756
    29  N   11.701148  10.464306   9.174755   8.009477   6.728452
    30  O   12.437997  11.129953   9.924801   8.672774   7.460744
    31  O   12.265785  11.114459   9.747575   8.688735   7.357969
    32  H   10.668139   9.264558   8.225858   6.858522   5.815082
                    6          7          8          9         10
     6  O    0.000000
     7  N    2.260379   0.000000
     8  C    2.903414   1.440795   0.000000
     9  C    2.881762   2.530500   1.414153   0.000000
    10  C    4.279772   2.426831   1.399942   2.409729   0.000000
    11  C    5.276764   3.716506   2.427820   2.778354   1.387179
    12  C    5.304880   4.293891   2.855461   2.452995   2.439254
    13  C    4.249622   3.822673   2.475689   1.417813   2.816669
    14  H    6.204360   6.971526   8.354612   8.937878   9.352333
    15  H    5.219678   6.404748   7.674207   8.041193   8.815043
    16  H    5.218924   6.402619   7.671709   8.040773   8.810308
    17  H    4.642261   4.905424   6.312400   7.071544   7.194745
    18  H    4.641512   4.903031   6.309705   7.071288   7.189370
    19  H    2.742273   4.052562   5.208445   5.507324   6.417281
    20  H    2.742826   4.054191   5.210494   5.506642   6.421992
    21  H    3.150502   2.551613   3.991482   4.964191   4.768731
    22  H    3.149074   1.032169   2.104667   3.411619   2.550507
    23  H    2.236901   2.794112   2.164831   1.070511   3.389283
    24  H    4.790965   2.636357   2.162123   3.402847   1.082382
    25  C    4.894127   5.058119   3.848460   2.528189   4.338606
    26  F    4.274557   5.057159   4.141299   2.729520   4.999562
    27  F    5.802765   5.905660   4.671220   3.459604   4.997742
    28  F    5.795705   5.905273   4.671150   3.459382   4.998222
    29  N    6.683467   5.725001   4.289323   3.803938   3.718584
    30  O    7.566659   6.327892   4.942306   4.732037   4.065734
    31  O    7.127991   6.501659   5.066119   4.287448   4.728150
    32  H    6.242708   4.518360   3.351624   3.810271   2.091882
                   11         12         13         14         15
    11  C    0.000000
    12  C    1.400864   0.000000
    13  C    2.431670   1.432076   0.000000
    14  H   10.684215  11.172328  10.353609   0.000000
    15  H   10.069452  10.381146   9.426527   1.804721   0.000000
    16  H   10.064488  10.377724   9.425370   1.804644   1.811280
    17  H    8.544230   9.144895   8.473717   2.483988   2.504319
    18  H    8.538776   9.141317   8.472650   2.483700   3.089277
    19  H    7.606970   7.847049   6.884188   3.775883   3.133751
    20  H    7.611820   7.850077   6.884508   3.776907   2.558981
    21  H    6.139945   6.838796   6.328874   4.666075   4.507247
    22  H    3.936250   4.792201   4.580349   6.907312   6.566599
    23  H    3.848614   3.410396   2.135058   8.439110   7.413557
    24  H    2.124980   3.401019   3.898524   9.210414   8.850741
    25  C    3.852600   2.593450   1.523016  11.097860  10.012127
    26  F    4.845422   3.762890   2.418589  10.370515   9.172783
    27  F    4.337924   3.041723   2.379948  11.947581  10.762090
    28  F    4.338528   3.042093   2.379994  11.941496  10.943015
    29  N    2.422374   1.437007   2.539530  12.607082  11.792715
    30  O    2.678577   2.279789   3.604494  13.291937  12.576681
    31  O    3.524451   2.299994   2.881484  13.222016  12.298361
    32  H    1.032007   2.104231   3.366599  11.426754  10.898433
                   16         17         18         19         20
    16  H    0.000000
    17  H    3.089420   0.000000
    18  H    2.503688   1.807583   0.000000
    19  H    2.557546   3.091438   2.506773   0.000000
    20  H    3.135467   2.506457   3.091598   1.811462   0.000000
    21  H    4.505887   2.550674   2.548864   2.873188   2.873699
    22  H    6.563784   4.727688   4.724285   4.427031   4.429324
    23  H    7.415664   6.754216   6.756656   4.905946   4.901772
    24  H    8.844609   6.987727   6.980469   6.596868   6.603175
    25  C   10.012887   9.394835   9.395772   7.513318   7.511364
    26  F    9.176170   8.871769   8.875307   6.768301   6.763096
    27  F   10.951511  10.147029  10.347435   8.499877   8.253421
    28  F   10.754350  10.343709  10.144444   8.247860   8.491505
    29  N   11.788773  10.574967  10.570875   9.248420   9.251974
    30  O   12.571301  11.178825  11.173130  10.054859  10.059980
    31  O   12.295445  11.279973  11.277040   9.746844   9.749220
    32  H   10.892259   9.234258   9.227412   8.479059   8.485190
                   21         22         23         24         25
    21  H    0.000000
    22  H    2.254754   0.000000
    23  H    4.898940   3.802098   0.000000
    24  H    4.545916   2.311993   4.305268   0.000000
    25  C    7.441458   5.922778   2.667979   5.420809   0.000000
    26  F    7.173916   6.035152   2.295932   6.056028   1.384758
    27  F    8.289843   6.722470   3.642897   6.047232   1.383456
    28  F    8.289105   6.723820   3.642656   6.047744   1.383450
    29  N    8.264374   6.178215   4.665896   4.547297   3.070760
    30  O    8.803551   6.614125   5.678604   4.671967   4.264608
    31  O    9.052417   7.074274   4.960412   5.635412   2.774399
    32  H    6.806232   4.555376   4.880592   2.399265   4.689722
                   26         27         28         29         30
    26  F    0.000000
    27  F    2.230072   0.000000
    28  F    2.230089   2.265502   0.000000
    29  N    4.434473   3.120272   3.120554   0.000000
    30  O    5.623057   4.238039   4.238332   1.194989   0.000000
    31  O    4.142843   2.580814   2.580530   1.191953   2.050974
    32  H    5.782346   5.039547   5.040331   2.584956   2.351306
                   31         32
    31  O    0.000000
    32  H    3.775147   0.000000
 Stoichiometry    C11H12F3N3O3
 Framework group  C1[X(C11H12F3N3O3)]
 Deg. of freedom    90
 Full point group                 C1      NOp   1
 Largest Abelian subgroup         C1      NOp   1
 Largest concise Abelian subgroup C1      NOp   1
                         Standard orientation:                         
 ---------------------------------------------------------------------
 Center     Atomic      Atomic             Coordinates (Angstroms)
 Number     Number       Type             X           Y           Z
 ---------------------------------------------------------------------
      1          6           0       -7.502868    0.678758    0.008440
      2          6           0       -6.364170   -0.336597   -0.001087
      3          6           0       -4.996666    0.357338    0.002474
      4          7           0       -3.920950   -0.618983   -0.004730
      5          6           0       -2.608490   -0.249666   -0.002315
      6          8           0       -2.322973    0.936974    0.005412
      7          7           0       -1.639437   -1.217540   -0.007309
      8          6           0       -0.208150   -1.052305   -0.004951
      9          6           0        0.461191    0.193413   -0.004713
     10          6           0        0.573517   -2.213696   -0.002820
     11          6           0        1.959068   -2.146585    0.000319
     12          6           0        2.644459   -0.924841    0.001087
     13          6           0        1.876125    0.283669   -0.001823
     14          1           0       -8.476549    0.144771    0.005661
     15          1           0       -7.450100    1.326881   -0.892135
     16          1           0       -7.447557    1.312491    0.919086
     17          1           0       -6.454858   -0.971119   -0.909626
     18          1           0       -6.452563   -0.984897    0.897902
     19          1           0       -4.910278    0.991224    0.912591
     20          1           0       -4.911596    1.003863   -0.898827
     21          1           0       -4.158545   -1.623508   -0.011143
     22          1           0       -1.976889   -2.192977   -0.011910
     23          1           0       -0.092767    1.109448   -0.007144
     24          1           0        0.108528   -3.191109   -0.003019
     25          6           0        2.516628    1.665455   -0.001969
     26          9           0        1.578327    2.683851   -0.005517
     27          9           0        3.297949    1.820840   -1.133050
     28          9           0        3.292518    1.823683    1.132443
     29          7           0        4.080506   -0.977234    0.004705
     30          8           0        4.635336   -2.035609    0.007203
     31          8           0        4.744805    0.012441    0.005766
     32          1           0        2.501978   -3.024242    0.002133
 ---------------------------------------------------------------------
 Rotational constants (GHZ):      0.7739529      0.1288822      0.1131410
 General basis read from cards:  (6D, 7F)
 There are   404 symmetry adapted cartesian basis functions of A   symmetry.
 There are   404 symmetry adapted basis functions of A   symmetry.
   404 basis functions,   688 primitive gaussians,   404 cartesian basis functions
    75 alpha electrons       75 beta electrons
       nuclear repulsion energy      1571.7560936551 Hartrees.
 NAtoms=   32 NActive=   32 NUniq=   32 SFac= 1.00D+00 NAtFMM=   60 NAOKFM=F Big=F
 Integral buffers will be    131072 words long.
 Raffenetti 2 integral format.
 Two-electron integral symmetry is turned on.
 ------------------------------------------------------------------------------
 Polarizable Continuum Model (PCM)
 =================================
 Model                : PCM (using non-symmetric T matrix).
 Atomic radii         : SMD-Coulomb.
 Polarization charges : Total charges.
 Charge compensation  : None.
 Solution method      : On-the-fly selection.
 Cavity type          : VdW (van der Waals Surface) (Alpha=1.000).
 Cavity algorithm     : GePol (No added spheres)
                        Default sphere list used, NSphG=   32.
                        Lebedev-Laikov grids with approx.  5.0 points / Ang**2.
                        Smoothing algorithm: York/Karplus (Gamma=1.0000).
                        Polarization charges: spherical gaussians, with
                                              point-specific exponents (IZeta= 3).
                        Self-potential: point-specific (ISelfS= 7).
                        Self-field    : sphere-specific E.n sum rule (ISelfD= 2).
 1st derivatives      : Analytical E(r).r(x)/FMM algorithm (CHGder, D1EAlg=3).
                        Cavity 1st derivative terms included.
 Solvent              : Water, Eps=  78.355300 Eps(inf)=   1.777849
 ------------------------------------------------------------------------------
 ------------------------------------------------------------------------------
 Atomic radii for non-electrostatic terms: SMD-CDS.
 ------------------------------------------------------------------------------
 Nuclear repulsion after PCM non-electrostatic terms =     1571.7710773189 Hartrees.
 One-electron integrals computed using PRISM.
 NBasis=   404 RedAO= T EigKep=  1.59D-06  NBF=   404
 NBsUse=   403 1.00D-06 EigRej=  2.90D-07 NBFU=   403
 ExpMin= 4.38D-02 ExpMax= 7.00D+03 ExpMxC= 1.05D+03 IAcc=3 IRadAn=         5 AccDes= 0.00D+00
 Harris functional with IExCor= 1009 and IRadAn=       5 diagonalized for initial guess.
 HarFok:  IExCor= 1009 AccDes= 0.00D+00 IRadAn=         5 IDoV= 1 UseB2=F ITyADJ=14
 ICtDFT=  3500011 ScaDFX=  1.000000  1.000000  1.000000  1.000000
 FoFCou: FMM=F IPFlag=           0 FMFlag=      100000 FMFlg1=           0
         NFxFlg=           0 DoJE=T BraDBF=F KetDBF=T FulRan=T
         wScrn=  0.000000 ICntrl=     500 IOpCl=  0 I1Cent=   200000004 NGrid=           0
         NMat0=    1 NMatS0=      1 NMatT0=    0 NMatD0=    1 NMtDS0=    0 NMtDT0=    0
 Petite list used in FoFCou.
 Requested convergence on RMS density matrix=1.00D-08 within 128 cycles.
 Requested convergence on MAX density matrix=1.00D-06.
 Requested convergence on             energy=1.00D-06.
 No special actions if energy rises.
 Inv3:  Mode=1 IEnd=    17409843.
 Iteration    1 A*A^-1 deviation from unit magnitude is 4.22D-15 for    603.
 Iteration    1 A*A^-1 deviation from orthogonality  is 4.01D-15 for   2398   1616.
 Iteration    1 A^-1*A deviation from unit magnitude is 4.66D-15 for   2409.
 Iteration    1 A^-1*A deviation from orthogonality  is 9.89D-12 for   2406   2057.
 Error on total polarization charges =  0.05486
 SCF Done:  E(RM062X) =  -1115.39169330     A.U. after   16 cycles
            NFock= 16  Conv=0.36D-08     -V/T= 2.0085
 SMD-CDS (non-electrostatic) energy       (kcal/mol) =       9.40
 (included in total energy above)

 **********************************************************************

            Population analysis using the SCF density.

 **********************************************************************

 Orbital symmetries:
       Occupied  (A) (A) (A) (A) (A) (A) (A) (A) (A) (A) (A) (A)
                 (A) (A) (A) (A) (A) (A) (A) (A) (A) (A) (A) (A)
                 (A) (A) (A) (A) (A) (A) (A) (A) (A) (A) (A) (A)
                 (A) (A) (A) (A) (A) (A) (A) (A) (A) (A) (A) (A)
                 (A) (A) (A) (A) (A) (A) (A) (A) (A) (A) (A) (A)
                 (A) (A) (A) (A) (A) (A) (A) (A) (A) (A) (A) (A)
                 (A) (A) (A)
       Virtual   (A) (A) (A) (A) (A) (A) (A) (A) (A) (A) (A) (A)
                 (A) (A) (A) (A) (A) (A) (A) (A) (A) (A) (A) (A)
                 (A) (A) (A) (A) (A) (A) (A) (A) (A) (A) (A) (A)
                 (A) (A) (A) (A) (A) (A) (A) (A) (A) (A) (A) (A)
                 (A) (A) (A) (A) (A) (A) (A) (A) (A) (A) (A) (A)
                 (A) (A) (A) (A) (A) (A) (A) (A) (A) (A) (A) (A)
                 (A) (A) (A) (A) (A) (A) (A) (A) (A) (A) (A) (A)
                 (A) (A) (A) (A) (A) (A) (A) (A) (A) (A) (A) (A)
                 (A) (A) (A) (A) (A) (A) (A) (A) (A) (A) (A) (A)
                 (A) (A) (A) (A) (A) (A) (A) (A) (A) (A) (A) (A)
                 (A) (A) (A) (A) (A) (A) (A) (A) (A) (A) (A) (A)
                 (A) (A) (A) (A) (A) (A) (A) (A) (A) (A) (A) (A)
                 (A) (A) (A) (A) (A) (A) (A) (A) (A) (A) (A) (A)
                 (A) (A) (A) (A) (A) (A) (A) (A) (A) (A) (A) (A)
                 (A) (A) (A) (A) (A) (A) (A) (A) (A) (A) (A) (A)
                 (A) (A) (A) (A) (A) (A) (A) (A) (A) (A) (A) (A)
                 (A) (A) (A) (A) (A) (A) (A) (A) (A) (A) (A) (A)
                 (A) (A) (A) (A) (A) (A) (A) (A) (A) (A) (A) (A)
                 (A) (A) (A) (A) (A) (A) (A) (A) (A) (A) (A) (A)
                 (A) (A) (A) (A) (A) (A) (A) (A) (A) (A) (A) (A)
                 (A) (A) (A) (A) (A) (A) (A) (A) (A) (A) (A) (A)
                 (A) (A) (A) (A) (A) (A) (A) (A) (A) (A) (A) (A)
                 (A) (A) (A) (A) (A) (A) (A) (A) (A) (A) (A) (A)
                 (A) (A) (A) (A) (A) (A) (A) (A) (A) (A) (A) (A)
                 (A) (A) (A) (A) (A) (A) (A) (A) (A) (A) (A) (A)
                 (A) (A) (A) (A) (A) (A) (A) (A) (A) (A) (A) (A)
                 (A) (A) (A) (A) (A) (A) (A) (A) (A) (A) (A) (A)
                 (A) (A) (A) (A)
 The electronic state is 1-A.
 Alpha  occ. eigenvalues --  -25.31719 -25.31178 -25.31178 -19.69410 -19.69225
 Alpha  occ. eigenvalues --  -19.62305 -15.03589 -14.81971 -14.78992 -10.83996
 Alpha  occ. eigenvalues --  -10.69660 -10.64722 -10.63807 -10.62854 -10.59188
 Alpha  occ. eigenvalues --  -10.58905 -10.58272 -10.58219 -10.54626 -10.53480
 Alpha  occ. eigenvalues --   -1.45448  -1.41813  -1.37554  -1.37531  -1.20873
 Alpha  occ. eigenvalues --   -1.19608  -1.06424  -1.03163  -1.00855  -0.92819
 Alpha  occ. eigenvalues --   -0.90948  -0.87594  -0.83664  -0.81004  -0.76991
 Alpha  occ. eigenvalues --   -0.74329  -0.71584  -0.69193  -0.69071  -0.69008
 Alpha  occ. eigenvalues --   -0.67687  -0.67003  -0.66032  -0.65130  -0.63880
 Alpha  occ. eigenvalues --   -0.62400  -0.59704  -0.57759  -0.57430  -0.55990
 Alpha  occ. eigenvalues --   -0.55512  -0.54876  -0.54215  -0.54119  -0.52644
 Alpha  occ. eigenvalues --   -0.52606  -0.52395  -0.51151  -0.50351  -0.48790
 Alpha  occ. eigenvalues --   -0.47961  -0.46249  -0.45494  -0.44591  -0.42153
 Alpha  occ. eigenvalues --   -0.41761  -0.40176  -0.39848  -0.39524  -0.38995
 Alpha  occ. eigenvalues --   -0.38893  -0.36207  -0.34330  -0.32921  -0.29783
 Alpha virt. eigenvalues --   -0.07275  -0.01469   0.01394   0.02457   0.02674
 Alpha virt. eigenvalues --    0.03204   0.04013   0.04057   0.04157   0.04760
 Alpha virt. eigenvalues --    0.05590   0.05715   0.05951   0.07049   0.07583
 Alpha virt. eigenvalues --    0.07672   0.08357   0.08797   0.09041   0.09122
 Alpha virt. eigenvalues --    0.09631   0.10441   0.10713   0.10848   0.11799
 Alpha virt. eigenvalues --    0.12521   0.12652   0.13265   0.13782   0.14075
 Alpha virt. eigenvalues --    0.14097   0.14187   0.15444   0.15532   0.15881
 Alpha virt. eigenvalues --    0.16690   0.17068   0.17557   0.18243   0.18326
 Alpha virt. eigenvalues --    0.19253   0.19851   0.20034   0.20202   0.20719
 Alpha virt. eigenvalues --    0.21218   0.21594   0.22252   0.22516   0.22755
 Alpha virt. eigenvalues --    0.22766   0.23624   0.23638   0.23812   0.24200
 Alpha virt. eigenvalues --    0.24772   0.24890   0.25395   0.25707   0.26125
 Alpha virt. eigenvalues --    0.26400   0.27120   0.27215   0.27631   0.28195
 Alpha virt. eigenvalues --    0.28328   0.29193   0.29750   0.30116   0.30501
 Alpha virt. eigenvalues --    0.30890   0.31258   0.31821   0.31955   0.32601
 Alpha virt. eigenvalues --    0.32643   0.32907   0.32918   0.32989   0.33495
 Alpha virt. eigenvalues --    0.34512   0.34552   0.35103   0.35781   0.36532
 Alpha virt. eigenvalues --    0.36957   0.38414   0.38485   0.38544   0.38873
 Alpha virt. eigenvalues --    0.38914   0.39910   0.40324   0.41411   0.42000
 Alpha virt. eigenvalues --    0.42377   0.42910   0.43836   0.45082   0.45496
 Alpha virt. eigenvalues --    0.46392   0.46798   0.48105   0.48497   0.48756
 Alpha virt. eigenvalues --    0.49286   0.50966   0.52097   0.52437   0.54136
 Alpha virt. eigenvalues --    0.54773   0.56715   0.58903   0.59740   0.65041
 Alpha virt. eigenvalues --    0.66596   0.69084   0.69181   0.70301   0.71870
 Alpha virt. eigenvalues --    0.72917   0.73192   0.75215   0.75438   0.76146
 Alpha virt. eigenvalues --    0.76472   0.76632   0.77962   0.79034   0.79594
 Alpha virt. eigenvalues --    0.81350   0.82102   0.82709   0.85082   0.86715
 Alpha virt. eigenvalues --    0.86883   0.87556   0.88657   0.89618   0.89868
 Alpha virt. eigenvalues --    0.92256   0.94220   0.97439   0.98357   0.98372
 Alpha virt. eigenvalues --    1.00493   1.00533   1.02376   1.03815   1.04095
 Alpha virt. eigenvalues --    1.05627   1.05646   1.07469   1.09479   1.11401
 Alpha virt. eigenvalues --    1.11988   1.12738   1.14267   1.14477   1.15837
 Alpha virt. eigenvalues --    1.16266   1.17025   1.18007   1.19072   1.19990
 Alpha virt. eigenvalues --    1.20950   1.21946   1.23040   1.24566   1.24807
 Alpha virt. eigenvalues --    1.25222   1.26978   1.27846   1.29862   1.30522
 Alpha virt. eigenvalues --    1.31665   1.33235   1.33755   1.34221   1.37439
 Alpha virt. eigenvalues --    1.37775   1.38745   1.39016   1.40867   1.42051
 Alpha virt. eigenvalues --    1.43102   1.43989   1.44322   1.45365   1.45413
 Alpha virt. eigenvalues --    1.47171   1.48260   1.49077   1.50015   1.51046
 Alpha virt. eigenvalues --    1.53377   1.56390   1.57476   1.58838   1.60810
 Alpha virt. eigenvalues --    1.63756   1.64295   1.65956   1.67564   1.69912
 Alpha virt. eigenvalues --    1.70013   1.71046   1.72519   1.73572   1.74379
 Alpha virt. eigenvalues --    1.74435   1.75944   1.77749   1.79086   1.79931
 Alpha virt. eigenvalues --    1.83188   1.83981   1.84898   1.84930   1.85408
 Alpha virt. eigenvalues --    1.86174   1.87101   1.87417   1.87731   1.87959
 Alpha virt. eigenvalues --    1.88774   1.90396   1.91077   1.92537   1.93504
 Alpha virt. eigenvalues --    1.93562   1.95007   1.95907   1.96893   1.97301
 Alpha virt. eigenvalues --    1.98510   1.99820   2.01245   2.01936   2.02721
 Alpha virt. eigenvalues --    2.03713   2.03960   2.05360   2.05902   2.06094
 Alpha virt. eigenvalues --    2.06414   2.09728   2.10325   2.10922   2.12415
 Alpha virt. eigenvalues --    2.13834   2.14243   2.15990   2.20172   2.20354
 Alpha virt. eigenvalues --    2.20802   2.22036   2.23270   2.24433   2.25080
 Alpha virt. eigenvalues --    2.26915   2.28611   2.29641   2.30624   2.31576
 Alpha virt. eigenvalues --    2.36357   2.36510   2.38324   2.40394   2.40890
 Alpha virt. eigenvalues --    2.41747   2.43225   2.47376   2.48482   2.50476
 Alpha virt. eigenvalues --    2.54431   2.55538   2.58453   2.60413   2.62501
 Alpha virt. eigenvalues --    2.65694   2.66417   2.68514   2.71902   2.72269
 Alpha virt. eigenvalues --    2.74168   2.74413   2.76359   2.77898   2.79149
 Alpha virt. eigenvalues --    2.81870   2.84372   2.86088   2.90377   2.94111
 Alpha virt. eigenvalues --    2.98977   3.00426   3.05786   3.10969   3.12626
 Alpha virt. eigenvalues --    3.14721   3.18995   3.23872   3.26604   3.28796
 Alpha virt. eigenvalues --    3.35092   3.40097   3.43647   4.14547   4.23707
 Alpha virt. eigenvalues --    4.26701   4.29826   4.30762   4.36446   4.39544
 Alpha virt. eigenvalues --    4.42472   4.42978   4.48892   4.51044   4.55565
 Alpha virt. eigenvalues --    4.59361   4.64223   4.68925   4.80262   4.89835
 Alpha virt. eigenvalues --    5.57979   6.18417   7.12458
          Condensed to atoms (all electrons):
               1          2          3          4          5          6
     1  C    5.648898  -0.045136   0.014813  -0.003375  -0.043751  -0.003352
     2  C   -0.045136   6.111938  -0.323443  -0.082942   0.109339   0.015441
     3  C    0.014813  -0.323443   6.676062   0.288351  -0.479782  -0.079047
     4  N   -0.003375  -0.082942   0.288351   7.531307   0.467733  -0.207338
     5  C   -0.043751   0.109339  -0.479782   0.467733   6.134412   0.602069
     6  O   -0.003352   0.015441  -0.079047  -0.207338   0.602069   8.489153
     7  N   -0.002564   0.010807  -0.095118  -0.306173   0.122344  -0.090947
     8  C   -0.009509   0.003390  -0.413652  -0.153062  -1.125733  -0.352882
     9  C    0.002206   0.003660   0.084866   0.036155   1.068779   0.384314
    10  C   -0.001982   0.005691  -0.130275  -0.081333  -1.680917  -0.096044
    11  C   -0.000011  -0.000353   0.013184   0.007168   0.131015   0.006147
    12  C   -0.000151   0.000239  -0.028191  -0.011507  -0.350722  -0.018806
    13  C    0.000317   0.000072   0.008948   0.026473   0.221431   0.063435
    14  H    0.412966  -0.087866   0.027520   0.000495  -0.002023   0.000007
    15  H    0.415375  -0.062752  -0.009205   0.000477   0.000134  -0.000051
    16  H    0.415659  -0.062956  -0.009274   0.000476   0.000125  -0.000051
    17  H   -0.036320   0.427696  -0.076905   0.006098  -0.004828  -0.000185
    18  H   -0.036627   0.428086  -0.077205   0.006107  -0.004645  -0.000186
    19  H    0.003443  -0.043070   0.427774  -0.053105  -0.025521   0.004106
    20  H    0.002892  -0.042328   0.424928  -0.052882  -0.023479   0.004043
    21  H   -0.003410   0.000867  -0.059015   0.248009   0.016558   0.008953
    22  H   -0.000076   0.000591  -0.003525   0.009095  -0.025595   0.006861
    23  H    0.000009   0.000009   0.003132   0.000295   0.015678   0.000878
    24  H   -0.000001   0.000004  -0.000374   0.000762  -0.012050  -0.000018
    25  C   -0.000003   0.000394  -0.004364   0.004472  -0.130203   0.006602
    26  F   -0.000000   0.000011   0.000079  -0.000021   0.001961  -0.000531
    27  F    0.000000  -0.000001   0.000037   0.000004   0.003195  -0.000012
    28  F    0.000000  -0.000001   0.000038   0.000004   0.003312  -0.000011
    29  N    0.000001  -0.000002   0.000260   0.000000   0.009729   0.000077
    30  O    0.000000   0.000000   0.000008   0.000002   0.001295   0.000002
    31  O   -0.000000   0.000000  -0.000002  -0.000000  -0.000106   0.000008
    32  H    0.000000   0.000000   0.000028   0.000018   0.003227   0.000002
               7          8          9         10         11         12
     1  C   -0.002564  -0.009509   0.002206  -0.001982  -0.000011  -0.000151
     2  C    0.010807   0.003390   0.003660   0.005691  -0.000353   0.000239
     3  C   -0.095118  -0.413652   0.084866  -0.130275   0.013184  -0.028191
     4  N   -0.306173  -0.153062   0.036155  -0.081333   0.007168  -0.011507
     5  C    0.122344  -1.125733   1.068779  -1.680917   0.131015  -0.350722
     6  O   -0.090947  -0.352882   0.384314  -0.096044   0.006147  -0.018806
     7  N    7.674640  -0.140848  -0.232954   0.296744   0.104428  -0.000147
     8  C   -0.140848  17.825972  -3.638231   1.209838  -0.514424  -2.034630
     9  C   -0.232954  -3.638231  14.116959  -6.344625  -0.870332  -2.879973
    10  C    0.296744   1.209838  -6.344625  17.837101  -0.707862  -0.444991
    11  C    0.104428  -0.514424  -0.870332  -0.707862  11.872674  -1.188646
    12  C   -0.000147  -2.034630  -2.879973  -0.444991  -1.188646  23.725620
    13  C    0.059374  -4.142128   2.788598  -2.867445  -3.108856  -6.037316
    14  H    0.000008  -0.000041   0.000004  -0.000003  -0.000000  -0.000000
    15  H    0.000018   0.000016  -0.000028   0.000003   0.000000  -0.000000
    16  H    0.000019   0.000016  -0.000026   0.000003   0.000000  -0.000000
    17  H    0.000112  -0.000618  -0.000085   0.000096   0.000002   0.000001
    18  H    0.000086  -0.000565  -0.000125   0.000108   0.000002   0.000001
    19  H   -0.000220  -0.005641   0.003367  -0.000981  -0.000028   0.000005
    20  H   -0.000302  -0.004962   0.003144  -0.000877  -0.000031   0.000008
    21  H    0.017852   0.015316   0.001367  -0.002222  -0.000252  -0.000051
    22  H    0.245265  -0.016768   0.033035  -0.041030   0.020264  -0.002512
    23  H   -0.015606   0.096694   0.324007   0.040172  -0.019437  -0.072091
    24  H   -0.010651  -0.006768   0.040759   0.335168  -0.025955  -0.048218
    25  C   -0.004981  -1.147375  -0.176506   0.689404  -0.510920  -2.248785
    26  F   -0.001187   0.127128   0.029347   0.003463   0.010953   0.033688
    27  F    0.000268   0.029585   0.044408  -0.018089   0.048784  -0.092457
    28  F    0.000271   0.030035   0.044841  -0.018765   0.049365  -0.093051
    29  N    0.000520   0.010229  -0.053881   0.016556   0.161617  -0.326629
    30  O   -0.000060   0.055989   0.038553   0.100290   0.048965  -0.639661
    31  O    0.000045   0.020402   0.078436  -0.003305   0.189524  -0.275609
    32  H    0.000752   0.023482  -0.001920  -0.116105   0.267560   0.058413
              13         14         15         16         17         18
     1  C    0.000317   0.412966   0.415375   0.415659  -0.036320  -0.036627
     2  C    0.000072  -0.087866  -0.062752  -0.062956   0.427696   0.428086
     3  C    0.008948   0.027520  -0.009205  -0.009274  -0.076905  -0.077205
     4  N    0.026473   0.000495   0.000477   0.000476   0.006098   0.006107
     5  C    0.221431  -0.002023   0.000134   0.000125  -0.004828  -0.004645
     6  O    0.063435   0.000007  -0.000051  -0.000051  -0.000185  -0.000186
     7  N    0.059374   0.000008   0.000018   0.000019   0.000112   0.000086
     8  C   -4.142128  -0.000041   0.000016   0.000016  -0.000618  -0.000565
     9  C    2.788598   0.000004  -0.000028  -0.000026  -0.000085  -0.000125
    10  C   -2.867445  -0.000003   0.000003   0.000003   0.000096   0.000108
    11  C   -3.108856  -0.000000   0.000000   0.000000   0.000002   0.000002
    12  C   -6.037316  -0.000000  -0.000000  -0.000000   0.000001   0.000001
    13  C   19.673858  -0.000000   0.000000   0.000000  -0.000003  -0.000005
    14  H   -0.000000   0.480642  -0.023773  -0.023785  -0.003011  -0.003014
    15  H    0.000000  -0.023773   0.486437  -0.028267  -0.004558   0.003765
    16  H    0.000000  -0.023785  -0.028267   0.486453   0.003763  -0.004564
    17  H   -0.000003  -0.003011  -0.004558   0.003763   0.488634  -0.030602
    18  H   -0.000005  -0.003014   0.003765  -0.004564  -0.030602   0.488680
    19  H    0.000187  -0.000056  -0.000324   0.002586   0.003623  -0.005254
    20  H    0.000187  -0.000057   0.002578  -0.000322  -0.005265   0.003622
    21  H   -0.000097  -0.000004   0.000000   0.000000   0.000598   0.000598
    22  H    0.008234  -0.000000  -0.000000  -0.000000   0.000001   0.000001
    23  H   -0.089521  -0.000000   0.000000   0.000000  -0.000000  -0.000000
    24  H    0.026956   0.000000  -0.000000  -0.000000   0.000000   0.000000
    25  C   -0.940078  -0.000000  -0.000000  -0.000000  -0.000000  -0.000000
    26  F   -0.175856   0.000000   0.000000   0.000000  -0.000000  -0.000000
    27  F    0.048633  -0.000000  -0.000000   0.000000   0.000000  -0.000000
    28  F    0.049377  -0.000000   0.000000  -0.000000  -0.000000   0.000000
    29  N    0.009525   0.000000   0.000000   0.000000   0.000000   0.000000
    30  O    0.299671  -0.000000  -0.000000  -0.000000  -0.000000  -0.000000
    31  O   -0.248383  -0.000000  -0.000000  -0.000000  -0.000000  -0.000000
    32  H    0.102322  -0.000000   0.000000   0.000000   0.000000   0.000000
              19         20         21         22         23         24
     1  C    0.003443   0.002892  -0.003410  -0.000076   0.000009  -0.000001
     2  C   -0.043070  -0.042328   0.000867   0.000591   0.000009   0.000004
     3  C    0.427774   0.424928  -0.059015  -0.003525   0.003132  -0.000374
     4  N   -0.053105  -0.052882   0.248009   0.009095   0.000295   0.000762
     5  C   -0.025521  -0.023479   0.016558  -0.025595   0.015678  -0.012050
     6  O    0.004106   0.004043   0.008953   0.006861   0.000878  -0.000018
     7  N   -0.000220  -0.000302   0.017852   0.245265  -0.015606  -0.010651
     8  C   -0.005641  -0.004962   0.015316  -0.016768   0.096694  -0.006768
     9  C    0.003367   0.003144   0.001367   0.033035   0.324007   0.040759
    10  C   -0.000981  -0.000877  -0.002222  -0.041030   0.040172   0.335168
    11  C   -0.000028  -0.000031  -0.000252   0.020264  -0.019437  -0.025955
    12  C    0.000005   0.000008  -0.000051  -0.002512  -0.072091  -0.048218
    13  C    0.000187   0.000187  -0.000097   0.008234  -0.089521   0.026956
    14  H   -0.000056  -0.000057  -0.000004  -0.000000  -0.000000   0.000000
    15  H   -0.000324   0.002578   0.000000  -0.000000   0.000000  -0.000000
    16  H    0.002586  -0.000322   0.000000  -0.000000   0.000000  -0.000000
    17  H    0.003623  -0.005265   0.000598   0.000001  -0.000000   0.000000
    18  H   -0.005254   0.003622   0.000598   0.000001  -0.000000   0.000000
    19  H    0.490631  -0.037876   0.002043   0.000005   0.000000   0.000000
    20  H   -0.037876   0.490578   0.002040   0.000005  -0.000000   0.000000
    21  H    0.002043   0.002040   0.263784   0.002079  -0.000000   0.000003
    22  H    0.000005   0.000005   0.002079   0.248295  -0.000128   0.004378
    23  H    0.000000  -0.000000  -0.000000  -0.000128   0.397540  -0.000091
    24  H    0.000000   0.000000   0.000003   0.004378  -0.000091   0.407782
    25  C   -0.000011  -0.000008   0.000008   0.000993   0.005823   0.005130
    26  F   -0.000000  -0.000000   0.000000  -0.000001   0.007799  -0.000000
    27  F   -0.000000   0.000000  -0.000000  -0.000000  -0.000036   0.000001
    28  F    0.000000  -0.000000  -0.000000  -0.000000  -0.000037   0.000001
    29  N    0.000000   0.000000  -0.000000  -0.000022  -0.000021  -0.000034
    30  O   -0.000000  -0.000000   0.000000   0.000002   0.000042  -0.000030
    31  O   -0.000000  -0.000000  -0.000000  -0.000001  -0.000073   0.000055
    32  H   -0.000000  -0.000000  -0.000000  -0.000009   0.000008  -0.003393
              25         26         27         28         29         30
     1  C   -0.000003  -0.000000   0.000000   0.000000   0.000001   0.000000
     2  C    0.000394   0.000011  -0.000001  -0.000001  -0.000002   0.000000
     3  C   -0.004364   0.000079   0.000037   0.000038   0.000260   0.000008
     4  N    0.004472  -0.000021   0.000004   0.000004   0.000000   0.000002
     5  C   -0.130203   0.001961   0.003195   0.003312   0.009729   0.001295
     6  O    0.006602  -0.000531  -0.000012  -0.000011   0.000077   0.000002
     7  N   -0.004981  -0.001187   0.000268   0.000271   0.000520  -0.000060
     8  C   -1.147375   0.127128   0.029585   0.030035   0.010229   0.055989
     9  C   -0.176506   0.029347   0.044408   0.044841  -0.053881   0.038553
    10  C    0.689404   0.003463  -0.018089  -0.018765   0.016556   0.100290
    11  C   -0.510920   0.010953   0.048784   0.049365   0.161617   0.048965
    12  C   -2.248785   0.033688  -0.092457  -0.093051  -0.326629  -0.639661
    13  C   -0.940078  -0.175856   0.048633   0.049377   0.009525   0.299671
    14  H   -0.000000   0.000000  -0.000000  -0.000000   0.000000  -0.000000
    15  H   -0.000000   0.000000  -0.000000   0.000000   0.000000  -0.000000
    16  H   -0.000000   0.000000   0.000000  -0.000000   0.000000  -0.000000
    17  H   -0.000000  -0.000000   0.000000  -0.000000   0.000000  -0.000000
    18  H   -0.000000  -0.000000  -0.000000   0.000000   0.000000  -0.000000
    19  H   -0.000011  -0.000000  -0.000000   0.000000   0.000000  -0.000000
    20  H   -0.000008  -0.000000   0.000000  -0.000000   0.000000  -0.000000
    21  H    0.000008   0.000000  -0.000000  -0.000000  -0.000000   0.000000
    22  H    0.000993  -0.000001  -0.000000  -0.000000  -0.000022   0.000002
    23  H    0.005823   0.007799  -0.000036  -0.000037  -0.000021   0.000042
    24  H    0.005130  -0.000000   0.000001   0.000001  -0.000034  -0.000030
    25  C    8.665860   0.097487   0.079950   0.078997  -0.290756   0.011578
    26  F    0.097487   9.274010  -0.035751  -0.035801   0.000098   0.000057
    27  F    0.079950  -0.035751   9.233699  -0.043347  -0.005403  -0.001685
    28  F    0.078997  -0.035801  -0.043347   9.233597  -0.005415  -0.001683
    29  N   -0.290756   0.000098  -0.005403  -0.005415   7.036450   0.343719
    30  O    0.011578   0.000057  -0.001685  -0.001683   0.343719   7.913600
    31  O    0.193943   0.000853  -0.018970  -0.018969   0.349570  -0.099033
    32  H   -0.000059   0.000007  -0.000012  -0.000012  -0.044852   0.019860
              31         32
     1  C   -0.000000   0.000000
     2  C    0.000000   0.000000
     3  C   -0.000002   0.000028
     4  N   -0.000000   0.000018
     5  C   -0.000106   0.003227
     6  O    0.000008   0.000002
     7  N    0.000045   0.000752
     8  C    0.020402   0.023482
     9  C    0.078436  -0.001920
    10  C   -0.003305  -0.116105
    11  C    0.189524   0.267560
    12  C   -0.275609   0.058413
    13  C   -0.248383   0.102322
    14  H   -0.000000  -0.000000
    15  H   -0.000000   0.000000
    16  H   -0.000000   0.000000
    17  H   -0.000000   0.000000
    18  H   -0.000000   0.000000
    19  H   -0.000000  -0.000000
    20  H   -0.000000  -0.000000
    21  H   -0.000000  -0.000000
    22  H   -0.000001  -0.000009
    23  H   -0.000073   0.000008
    24  H    0.000055  -0.003393
    25  C    0.193943  -0.000059
    26  F    0.000853   0.000007
    27  F   -0.018970  -0.000012
    28  F   -0.018969  -0.000012
    29  N    0.349570  -0.044852
    30  O   -0.099033   0.019860
    31  O    7.957998  -0.002163
    32  H   -0.002163   0.407457
 Mulliken charges:
               1
     1  C   -0.730313
     2  C   -0.367387
     3  C   -0.180652
     4  N   -0.681763
     5  C    0.997019
     6  O   -0.742636
     7  N   -0.631796
     8  C    0.259749
     9  C    1.071880
    10  C   -1.977786
    11  C    0.015456
    12  C   -1.023832
    13  C    0.222089
    14  H    0.221991
    15  H    0.220155
    16  H    0.220147
    17  H    0.231757
    18  H    0.231738
    19  H    0.234317
    20  H    0.234363
    21  H    0.484972
    22  H    0.510564
    23  H    0.304955
    24  H    0.286584
    25  C    1.613409
    26  F   -0.337794
    27  F   -0.272800
    28  F   -0.272746
    29  N   -0.211334
    30  O   -0.091481
    31  O   -0.124217
    32  H    0.285390
 Sum of Mulliken charges =  -0.00000
 Mulliken charges with hydrogens summed into heavy atoms:
               1
     1  C   -0.068021
     2  C    0.096109
     3  C    0.288029
     4  N   -0.196791
     5  C    0.997019
     6  O   -0.742636
     7  N   -0.121232
     8  C    0.259749
     9  C    1.376835
    10  C   -1.691201
    11  C    0.300846
    12  C   -1.023832
    13  C    0.222089
    25  C    1.613409
    26  F   -0.337794
    27  F   -0.272800
    28  F   -0.272746
    29  N   -0.211334
    30  O   -0.091481
    31  O   -0.124217
 Electronic spatial extent (au):  <R**2>=           8961.9671
 Charge=             -0.0000 electrons
 Dipole moment (field-independent basis, Debye):
    X=            -12.5609    Y=             -8.9970    Z=             -0.0513  Tot=             15.4508
 Quadrupole moment (field-independent basis, Debye-Ang):
   XX=           -130.3770   YY=           -107.8024   ZZ=           -117.3704
   XY=             15.9328   XZ=              0.0358   YZ=              0.0452
 Traceless Quadrupole moment (field-independent basis, Debye-Ang):
   XX=            -11.8604   YY=             10.7142   ZZ=              1.1462
   XY=             15.9328   XZ=              0.0358   YZ=              0.0452
 Octapole moment (field-independent basis, Debye-Ang**2):
  XXX=           -344.9769  YYY=            -26.0735  ZZZ=              0.0629  XYY=            -19.7957
  XXY=            -18.6282  XXZ=             -0.6253  XZZ=             18.7486  YZZ=             11.8450
  YYZ=             -0.2225  XYZ=              0.0038
 Hexadecapole moment (field-independent basis, Debye-Ang**3):
 XXXX=         -10116.0666 YYYY=          -1299.1950 ZZZZ=           -212.7185 XXXY=            447.2281
 XXXZ=             -0.4633 YYYX=            156.4279 YYYZ=              0.2639 ZZZX=              0.0977
 ZZZY=             -0.1134 XXYY=          -1942.9090 XXZZ=          -1662.7584 YYZZ=           -280.9008
 XXYZ=              0.5864 YYXZ=              0.4481 ZZXY=             10.6883
 N-N= 1.571771077319D+03 E-N=-5.755810984381D+03  KE= 1.106029483705D+03
 D1PCM: PCM CHGder 1st derivatives, ID1Alg=3 FixD1E=F DoIter=F DoCFld=F I1PDM=0.
 Calling FoFJK, ICntrl=      2127 FMM=F ISym2X=0 I1Cent= 0 IOpClX= 0 NMat=1 NMatS=1 NMatT=0.
 ***** Axes restored to original set *****
 -------------------------------------------------------------------
 Center     Atomic                   Forces (Hartrees/Bohr)
 Number     Number              X              Y              Z
 -------------------------------------------------------------------
      1        6          -0.004932213    0.001795860   -0.000145790
      2        6           0.004661102   -0.005720572    0.000298022
      3        6          -0.006779040    0.007004062   -0.000337473
      4        7           0.021212850   -0.028269932    0.001434430
      5        6          -0.021136043   -0.004009992   -0.000141743
      6        8           0.003385442    0.034922158   -0.001334806
      7        7           0.032009356   -0.015472100    0.001177935
      8        6          -0.023879627   -0.004541980   -0.000277809
      9        6           0.021535734    0.004928880    0.000258454
     10        6           0.002151883    0.001872429   -0.000019628
     11        6          -0.027565633    0.032747962   -0.002151359
     12        6          -0.037284640    0.001608681   -0.000984496
     13        6          -0.005547306   -0.017216467    0.000672401
     14        1           0.006044383    0.009168844   -0.000250991
     15        1          -0.000946725   -0.004357541    0.009240110
     16        1          -0.000616122   -0.005051955   -0.008929980
     17        1           0.001100630    0.004208919    0.009091693
     18        1           0.001459481    0.003498079   -0.009338439
     19        1           0.000861005   -0.004066996   -0.009726669
     20        1           0.000500742   -0.003331166    0.010027119
     21        1          -0.002131988    0.014114226   -0.000576839
     22        1           0.005450340    0.011903113   -0.000351811
     23        1          -0.006656201    0.003671815   -0.000306581
     24        1          -0.002081682   -0.002179224    0.000045555
     25        6           0.002875446    0.006792792   -0.000253700
     26        9           0.036007021   -0.018109056    0.001693953
     27        9          -0.022045649    0.003756003    0.031443498
     28        9          -0.020536917    0.000824530   -0.032663763
     29        7          -0.006945350   -0.001310666   -0.000045563
     30        8           0.023037277   -0.062255695    0.003340353
     31        8          -0.004484858    0.062236751   -0.002941574
     32        1           0.031277301   -0.029161762    0.002055493
 -------------------------------------------------------------------
 Cartesian Forces:  Max     0.062255695 RMS     0.016169253

 GradGradGradGradGradGradGradGradGradGradGradGradGradGradGradGradGradGrad
 Berny optimization.
 FormGI is forming the generalized inverse of G from B-inverse, IUseBI=4.
 GSVD:  received Info=                   1 from GESDD.
 Internal  Forces:  Max     0.061441974 RMS     0.012551920
 Search for a local minimum.
 Step number   1 out of a maximum of  166
 All quantities printed in internal units (Hartrees-Bohrs-Radians)
 Mixed Optimization -- RFO/linear search
 Second derivative matrix not updated -- first step.
 ITU=  0
     Eigenvalues ---    0.00323   0.00426   0.00461   0.00994   0.01152
     Eigenvalues ---    0.01202   0.01202   0.01242   0.01467   0.01624
     Eigenvalues ---    0.01649   0.01731   0.01783   0.01878   0.01970
     Eigenvalues ---    0.02094   0.02134   0.02141   0.02145   0.02175
     Eigenvalues ---    0.02189   0.03741   0.04447   0.04929   0.05552
     Eigenvalues ---    0.05673   0.05791   0.08055   0.09158   0.10820
     Eigenvalues ---    0.11117   0.11992   0.12653   0.16000   0.16000
     Eigenvalues ---    0.16000   0.16000   0.16000   0.16000   0.16000
     Eigenvalues ---    0.16000   0.21966   0.22000   0.22000   0.22001
     Eigenvalues ---    0.22359   0.23482   0.24589   0.25000   0.25000
     Eigenvalues ---    0.25000   0.25000   0.25000   0.25000   0.25000
     Eigenvalues ---    0.25000   0.25000   0.25000   0.29102   0.29827
     Eigenvalues ---    0.30078   0.32340   0.32341   0.32401   0.32401
     Eigenvalues ---    0.32512   0.32515   0.32547   0.35708   0.37166
     Eigenvalues ---    0.37890   0.39113   0.39477   0.39999   0.40281
     Eigenvalues ---    0.42438   0.42452   0.42476   0.42546   0.44562
     Eigenvalues ---    0.44970   0.47039   0.48243   0.48476   0.48477
     Eigenvalues ---    0.51049   0.52259   0.95149   1.07382   1.08973
 RFO step:  Lambda=-4.88589310D-02 EMin= 3.22792349D-03
 Linear search not attempted -- first point.
 Maximum step size (   0.300) exceeded in Quadratic search.
    -- Step size scaled by   0.874
 Iteration  1 RMS(Cart)=  0.07993605 RMS(Int)=  0.00144057
 Iteration  2 RMS(Cart)=  0.00230052 RMS(Int)=  0.00029500
 Iteration  3 RMS(Cart)=  0.00000475 RMS(Int)=  0.00029498
 Iteration  4 RMS(Cart)=  0.00000001 RMS(Int)=  0.00029498
 Variable       Old X    -DE/DX   Delta X   Delta X   Delta X     New X
                                 (Linear)    (Quad)   (Total)
    R1        2.88310   0.00108   0.00000   0.00272   0.00272   2.88582
    R2        2.09854  -0.01070   0.00000  -0.02499  -0.02499   2.07355
    R3        2.09911  -0.01001   0.00000  -0.02339  -0.02339   2.07572
    R4        2.09917  -0.01003   0.00000  -0.02344  -0.02344   2.07573
    R5        2.89790  -0.00737   0.00000  -0.01895  -0.01895   2.87894
    R6        2.10116  -0.00963   0.00000  -0.02258  -0.02258   2.07858
    R7        2.10116  -0.00963   0.00000  -0.02256  -0.02256   2.07860
    R8        2.74526   0.00019   0.00000   0.00039   0.00039   2.74565
    R9        2.10226  -0.01023   0.00000  -0.02402  -0.02402   2.07824
   R10        2.10225  -0.01024   0.00000  -0.02403  -0.02403   2.07822
   R11        2.57652  -0.01190   0.00000  -0.01819  -0.01819   2.55832
   R12        1.95069  -0.01418   0.00000  -0.02619  -0.02619   1.92450
   R13        2.30647   0.03485   0.00000   0.03044   0.03044   2.33691
   R14        2.58821   0.00756   0.00000   0.01180   0.01180   2.60002
   R15        2.72271  -0.04332   0.00000  -0.08535  -0.08535   2.63736
   R16        1.95052  -0.01226   0.00000  -0.02264  -0.02264   1.92788
   R17        2.67236  -0.01156   0.00000  -0.02140  -0.02142   2.65094
   R18        2.64551  -0.00434   0.00000  -0.00670  -0.00671   2.63880
   R19        2.67928  -0.02839   0.00000  -0.05331  -0.05332   2.62596
   R20        2.02297   0.00736   0.00000   0.01529   0.01529   2.03826
   R21        2.62139  -0.00763   0.00000  -0.01149  -0.01148   2.60991
   R22        2.04541   0.00252   0.00000   0.00542   0.00542   2.05082
   R23        2.64725  -0.00781   0.00000  -0.01310  -0.01308   2.63417
   R24        1.95021   0.04281   0.00000   0.07899   0.07899   2.02920
   R25        2.70623  -0.01442   0.00000  -0.02853  -0.02852   2.67771
   R26        2.71555   0.01102   0.00000   0.02145   0.02145   2.73700
   R27        2.87808  -0.00725   0.00000  -0.01813  -0.01813   2.85995
   R28        2.61681  -0.04014   0.00000  -0.06603  -0.06603   2.55078
   R29        2.61435  -0.03664   0.00000  -0.06000  -0.06000   2.55435
   R30        2.61434  -0.03664   0.00000  -0.06001  -0.06001   2.55433
   R31        2.25820   0.06144   0.00000   0.04783   0.04783   2.30603
   R32        2.25246   0.05752   0.00000   0.04415   0.04415   2.29662
    A1        1.91174   0.00279   0.00000   0.01236   0.01229   1.92403
    A2        1.92601   0.00212   0.00000   0.00850   0.00846   1.93447
    A3        1.92584   0.00211   0.00000   0.00849   0.00845   1.93429
    A4        1.89672  -0.00228   0.00000  -0.00886  -0.00893   1.88780
    A5        1.89656  -0.00227   0.00000  -0.00879  -0.00885   1.88771
    A6        1.90646  -0.00262   0.00000  -0.01228  -0.01230   1.89416
    A7        1.94378  -0.00221   0.00000  -0.00544  -0.00542   1.93836
    A8        1.90077   0.00198   0.00000   0.01096   0.01094   1.91171
    A9        1.90039   0.00202   0.00000   0.01117   0.01115   1.91154
   A10        1.91014  -0.00005   0.00000  -0.00280  -0.00279   1.90735
   A11        1.91013  -0.00007   0.00000  -0.00287  -0.00286   1.90727
   A12        1.89804  -0.00165   0.00000  -0.01111  -0.01119   1.88686
   A13        1.93499  -0.00412   0.00000  -0.01182  -0.01180   1.92319
   A14        1.90603   0.00179   0.00000   0.00718   0.00719   1.91322
   A15        1.90636   0.00177   0.00000   0.00700   0.00701   1.91336
   A16        1.90657   0.00141   0.00000   0.00521   0.00523   1.91180
   A17        1.90703   0.00139   0.00000   0.00502   0.00504   1.91207
   A18        1.90258  -0.00224   0.00000  -0.01271  -0.01272   1.88986
   A19        2.13027  -0.00398   0.00000  -0.01294  -0.01294   2.11733
   A20        2.07556   0.00033   0.00000  -0.00048  -0.00048   2.07508
   A21        2.07735   0.00365   0.00000   0.01342   0.01342   2.09078
   A22        2.08122   0.01794   0.00000   0.05247   0.05247   2.13369
   A23        2.08249  -0.02597   0.00000  -0.07595  -0.07595   2.00654
   A24        2.11948   0.00803   0.00000   0.02348   0.02348   2.14296
   A25        2.24185  -0.00631   0.00000  -0.02053  -0.02053   2.22133
   A26        2.02253   0.00764   0.00000   0.02903   0.02903   2.05157
   A27        2.01880  -0.00133   0.00000  -0.00851  -0.00851   2.01029
   A28        2.17878  -0.00665   0.00000  -0.02018  -0.02017   2.15862
   A29        2.04827  -0.00087   0.00000  -0.00328  -0.00327   2.04500
   A30        2.05614   0.00752   0.00000   0.02346   0.02343   2.07957
   A31        2.12755  -0.00326   0.00000  -0.01281  -0.01285   2.11470
   A32        2.10465  -0.00034   0.00000  -0.00186  -0.00184   2.10280
   A33        2.05099   0.00361   0.00000   0.01467   0.01469   2.06568
   A34        2.11480  -0.00666   0.00000  -0.01697  -0.01697   2.09784
   A35        2.10514   0.00164   0.00000   0.00142   0.00142   2.10656
   A36        2.06324   0.00502   0.00000   0.01555   0.01555   2.07879
   A37        2.13044  -0.00636   0.00000  -0.01674  -0.01670   2.11373
   A38        2.07638   0.00332   0.00000   0.00897   0.00895   2.08533
   A39        2.07637   0.00304   0.00000   0.00777   0.00775   2.08412
   A40        2.06404   0.00637   0.00000   0.01878   0.01881   2.08285
   A41        2.04557  -0.00959   0.00000  -0.02812  -0.02814   2.01744
   A42        2.17357   0.00322   0.00000   0.00934   0.00933   2.18290
   A43        2.07340   0.00239   0.00000   0.00428   0.00428   2.07768
   A44        2.06855  -0.01705   0.00000  -0.04851  -0.04851   2.02004
   A45        2.14123   0.01466   0.00000   0.04423   0.04423   2.18546
   A46        1.96305  -0.00189   0.00000  -0.01181  -0.01155   1.95151
   A47        1.91717   0.01807   0.00000   0.05594   0.05464   1.97181
   A48        1.91723   0.01806   0.00000   0.05590   0.05460   1.97183
   A49        1.87337  -0.01177   0.00000  -0.04052  -0.04027   1.83310
   A50        1.87340  -0.01178   0.00000  -0.04059  -0.04034   1.83306
   A51        1.91858  -0.01244   0.00000  -0.02397  -0.02641   1.89218
   A52        2.09011  -0.01982   0.00000  -0.05796  -0.05796   2.03215
   A53        2.12548  -0.01755   0.00000  -0.05131  -0.05131   2.07417
   A54        2.06759   0.03737   0.00000   0.10927   0.10927   2.17686
    D1       -3.14153  -0.00000   0.00000  -0.00005  -0.00005  -3.14158
    D2        1.03353   0.00015   0.00000  -0.00035  -0.00033   1.03319
    D3       -1.03366  -0.00016   0.00000   0.00030   0.00028  -1.03338
    D4        1.05421  -0.00026   0.00000  -0.00214  -0.00216   1.05205
    D5       -1.05393  -0.00010   0.00000  -0.00245  -0.00244  -1.05637
    D6       -3.12111  -0.00041   0.00000  -0.00179  -0.00183  -3.12294
    D7       -1.05437   0.00026   0.00000   0.00212   0.00213  -1.05224
    D8        3.12068   0.00041   0.00000   0.00182   0.00185   3.12253
    D9        1.05349   0.00010   0.00000   0.00247   0.00246   1.05596
   D10        3.14017   0.00002   0.00000   0.00022   0.00022   3.14039
   D11        1.03858  -0.00030   0.00000  -0.00346  -0.00346   1.03513
   D12       -1.04064   0.00031   0.00000   0.00355   0.00354  -1.03710
   D13       -1.04039   0.00105   0.00000   0.00858   0.00857  -1.03181
   D14        3.14121   0.00073   0.00000   0.00490   0.00490  -3.13707
   D15        1.06199   0.00134   0.00000   0.01191   0.01189   1.07388
   D16        1.03803  -0.00103   0.00000  -0.00836  -0.00836   1.02967
   D17       -1.06356  -0.00136   0.00000  -0.01204  -0.01203  -1.07559
   D18        3.14040  -0.00075   0.00000  -0.00503  -0.00503   3.13537
   D19       -3.14077  -0.00002   0.00000  -0.00015  -0.00015  -3.14093
   D20       -0.00002  -0.00001   0.00000  -0.00015  -0.00015  -0.00017
   D21       -1.03950   0.00053   0.00000   0.00470   0.00469  -1.03481
   D22        2.10125   0.00053   0.00000   0.00470   0.00470   2.10595
   D23        1.04044  -0.00053   0.00000  -0.00465  -0.00465   1.03579
   D24       -2.10199  -0.00053   0.00000  -0.00465  -0.00465  -2.10664
   D25       -0.00070  -0.00002   0.00000  -0.00023  -0.00023  -0.00093
   D26        3.13981   0.00003   0.00000   0.00045   0.00045   3.14026
   D27       -3.14145  -0.00002   0.00000  -0.00023  -0.00023   3.14150
   D28       -0.00095   0.00004   0.00000   0.00045   0.00045  -0.00049
   D29       -3.14069  -0.00003   0.00000  -0.00042  -0.00042  -3.14110
   D30       -0.00089  -0.00004   0.00000  -0.00042  -0.00041  -0.00131
   D31       -0.00021   0.00003   0.00000   0.00029   0.00029   0.00008
   D32        3.13959   0.00002   0.00000   0.00029   0.00029   3.13988
   D33       -0.00689   0.00001   0.00000   0.00015   0.00015  -0.00674
   D34        3.13477   0.00003   0.00000   0.00038   0.00038   3.13515
   D35        3.13650   0.00001   0.00000   0.00012   0.00012   3.13662
   D36       -0.00503   0.00002   0.00000   0.00035   0.00034  -0.00468
   D37        3.14117   0.00002   0.00000   0.00027   0.00027   3.14144
   D38       -0.00086   0.00002   0.00000   0.00031   0.00031  -0.00055
   D39       -0.00049   0.00000   0.00000   0.00004   0.00004  -0.00045
   D40        3.14066   0.00001   0.00000   0.00008   0.00008   3.14074
   D41       -3.14092  -0.00003   0.00000  -0.00033  -0.00033  -3.14126
   D42        0.00006  -0.00001   0.00000  -0.00017  -0.00017  -0.00011
   D43        0.00073  -0.00001   0.00000  -0.00012  -0.00012   0.00061
   D44       -3.14147   0.00000   0.00000   0.00005   0.00005  -3.14142
   D45       -0.00013   0.00000   0.00000   0.00006   0.00006  -0.00007
   D46        3.14145   0.00000   0.00000   0.00000   0.00000   3.14145
   D47       -3.14129   0.00000   0.00000   0.00003   0.00003  -3.14126
   D48        0.00028  -0.00000   0.00000  -0.00003  -0.00003   0.00025
   D49       -0.00036   0.00001   0.00000   0.00010   0.00010  -0.00026
   D50        3.14125   0.00000   0.00000   0.00004   0.00004   3.14128
   D51       -3.14136  -0.00000   0.00000  -0.00006  -0.00006  -3.14142
   D52        0.00025  -0.00001   0.00000  -0.00012  -0.00012   0.00013
   D53       -0.00028   0.00000   0.00000   0.00002   0.00002  -0.00026
   D54        3.14137  -0.00000   0.00000  -0.00003  -0.00003   3.14134
   D55        3.14130   0.00001   0.00000   0.00008   0.00008   3.14138
   D56       -0.00024   0.00000   0.00000   0.00003   0.00003  -0.00020
   D57        0.00051  -0.00001   0.00000  -0.00009  -0.00009   0.00042
   D58       -3.14107  -0.00000   0.00000  -0.00002  -0.00002  -3.14109
   D59       -3.14114  -0.00000   0.00000  -0.00004  -0.00004  -3.14118
   D60        0.00047   0.00000   0.00000   0.00003   0.00003   0.00050
   D61       -0.00029   0.00003   0.00000   0.00042   0.00042   0.00013
   D62       -3.14143  -0.00002   0.00000  -0.00033  -0.00033   3.14143
   D63        3.14136   0.00003   0.00000   0.00037   0.00037  -3.14146
   D64        0.00022  -0.00003   0.00000  -0.00038  -0.00038  -0.00016
   D65       -0.00036   0.00001   0.00000   0.00013   0.00013  -0.00024
   D66       -2.08571   0.00382   0.00000   0.02091   0.02191  -2.06380
   D67        2.08507  -0.00381   0.00000  -0.02077  -0.02177   2.06329
   D68        3.14121   0.00001   0.00000   0.00006   0.00007   3.14128
   D69        1.05586   0.00381   0.00000   0.02085   0.02185   1.07771
   D70       -1.05655  -0.00382   0.00000  -0.02083  -0.02183  -1.07838
         Item               Value     Threshold  Converged?
 Maximum Force            0.061442     0.000450     NO 
 RMS     Force            0.012552     0.000300     NO 
 Maximum Displacement     0.282005     0.001800     NO 
 RMS     Displacement     0.080791     0.001200     NO 
 Predicted change in Energy=-2.631509D-02
 GradGradGradGradGradGradGradGradGradGradGradGradGradGradGradGradGradGrad

                          Input orientation:                          
 ---------------------------------------------------------------------
 Center     Atomic      Atomic             Coordinates (Angstroms)
 Number     Number       Type             X           Y           Z
 ---------------------------------------------------------------------
      1          6           0       -1.959258    1.804741   -0.079660
[...]
 .00106318,-0.00073563,-0.00005811,-0.00020843,0.00041583,-0.00178144,0
 .00233731,-0.00519654,0.00195187,0.00000895,-0.00062047,0.00022116,-0.
 00058783,-0.00063104,-0.00062742,-0.00044726,0.00155095,-0.00012483,-0
 .03259172,-0.00564091,0.02532436,-0.00000860,0.00000215,0.00000031,-0.
 00000077,0.00000114,-0.00000083,-0.00000043,0.00000088,0.00000099,0.00
 000005,-0.00000327,-0.00000125,0.00000102,-0.00000301,0.00000037,-0.00
 002799,0.00001101,0.00000543,-0.00003012,0.00001178,-0.00000213,0.0000
 0838,0.00004900,0.00000719,-0.00018975,0.00007736,0.00004097,0.0002239
 1,0.00027553,0.00069606,-0.00002960,-0.00004002,0.00010116,-0.04087638
 ,-0.09272979,0.03610024,0.02314449,0.01197787,-0.00996348,0.03391990,0
 .08266420,0.00000492,0.00001299,0.00000066,0.00000776,-0.00002781,-0.0
 0000265,-0.00006946,0.00005456,0.00000528,0.00035200,0.00009319,0.0000
 2468,-0.00079671,0.00035132,-0.00000981,0.00035094,-0.00015348,-0.0000
 2892,0.00080724,0.00061006,0.00002665,0.00041389,-0.00097254,0.0005232
 3,-0.00100282,0.00441971,-0.00110302,-0.00034091,0.00031197,-0.0000906
 9,0.00025412,0.00076887,0.00015679,0.00040210,-0.00136042,0.00058078,0
 .01919084,0.00457057,-0.00583069,0.00000665,-0.00000142,-0.00000029,0.
 00000058,-0.00000115,0.00000040,-0.00000011,-0.00000050,-0.00000008,-0
 .00000002,0.00000331,0.00000182,-0.00000004,0.00000210,-0.00000060,0.0
 0002026,-0.00000822,-0.00000299,0.00002325,-0.00000919,0.00000159,-0.0
 0000527,-0.00003746,-0.00000693,0.00015889,-0.00006274,-0.00001218,-0.
 00042032,-0.00009375,-0.00013297,0.00000337,0.00005232,-0.00003444,0.0
 9266818,0.04239633,-0.14594887,0.01355106,-0.00692875,0.01390402,-0.15
 481728,-0.03804999,0.21709599,-0.00000128,-0.00000394,-0.00000036,-0.0
 0000212,0.00000828,0.00000117,0.00002035,-0.00001795,-0.00000141,-0.00
 008882,-0.00003507,-0.00000873,0.00016841,0.00000166,0.00000475,-0.000
 13601,-0.00001273,0.00001536,-0.00004120,-0.00007125,-0.00001889,0.000
 19814,0.00076969,0.00061105,0.00026273,0.00012119,0.00048525,0.0009391
 8,-0.00041972,-0.00006471,-0.00030521,-0.00134199,0.00036651,-0.001541
 38,-0.00029841,-0.00067452,0.00656590,-0.00963050,-0.00975518,-0.00000
 209,0.00000017,0.00000002,0.00000004,0.00000025,0.00000015,-0.00000005
 ,0.00000041,0.00000014,0.00000011,-0.00000082,-0.00000030,0.00000009,-
 0.00000116,0.00000041,-0.00000459,0.00000285,0.00000102,-0.00000413,0.
 00000189,0.00000021,-0.00000142,0.00000906,-0.00000195,-0.00001264,0.0
 0000824,-0.00003377,0.00025779,0.00012712,-0.00040702,0.00001949,-0.00
 001429,-0.00002187,-0.07796672,-0.02878631,-0.04205465,-0.03000561,-0.
 00721411,-0.05690527,0.00588425,0.01290857,0.03469042,0.10283184,-0.00
 000764,-0.00002176,-0.00000205,-0.00001471,0.00004795,0.00000305,0.000
 11733,-0.00009859,-0.00000443,-0.00058079,-0.00013990,-0.00002778,0.00
 129632,-0.00063231,-0.00002001,-0.00058609,0.00029177,0.00006952,-0.00
 130409,-0.00066361,0.00005241,0.00014684,0.00174175,0.00211609,0.00224
 417,-0.00464302,0.00000505,0.00110628,-0.00108759,-0.00020441,-0.00129
 662,-0.00198165,0.00139200,-0.00111409,0.00163664,0.00009946,-0.013738
 50,-0.02060918,-0.03724386,-0.00001075,0.00000275,0.00000030,-0.000000
 75,0.00000111,-0.00000096,-0.00000098,0.00000134,0.00000156,0.00000036
 ,-0.00000360,-0.00000118,0.00000045,-0.00000473,0.00000106,-0.00003671
 ,0.00001456,0.00000773,-0.00003552,0.00001365,-0.00000317,0.00000972,0
 .00006248,-0.00000081,-0.00016691,0.00009619,-0.00006660,0.00032503,-0
 .00007964,-0.00113475,-0.00003747,-0.00006486,-0.00012407,-0.02789346,
 -0.13632735,-0.08716713,0.00135933,0.01863870,0.00755282,0.00801956,0.
 01181445,-0.01125037,0.02831872,0.13599058,-0.00000403,-0.00001116,-0.
 00000100,-0.00000783,0.00002463,0.00000124,0.00006386,-0.00005199,-0.0
 0001280,-0.00031286,-0.00008756,-0.00000787,0.00069622,-0.00030320,-0.
 00000760,-0.00035826,0.00013705,0.00005934,-0.00072324,-0.00037509,0.0
 0004667,0.00014885,0.00053827,0.00054506,0.00090814,-0.00235898,-0.000
 00002,0.00038162,-0.00032843,-0.00006737,-0.00001521,-0.00104369,0.000
 36361,-0.00130045,0.00008075,-0.00002159,-0.00551147,-0.01097895,-0.00
 774133,-0.00000570,0.00000151,0.00000008,0.00000017,0.00000012,-0.0000
 0003,-0.00000092,0.00000111,0.00000107,0.00000029,-0.00000070,0.000000
 10,-0.00000019,-0.00000346,0.00000100,-0.00002032,0.00000866,0.0000047
 3,-0.00001811,0.00000673,-0.00000017,0.00000376,0.00003302,-0.00000382
 ,-0.00010776,0.00005108,-0.00002172,0.00057722,0.00004446,-0.00037700,
 -0.00000507,-0.00005451,-0.00003270,-0.04014193,-0.09226856,-0.1979238
 8,-0.04930151,-0.00176156,-0.04880752,0.02374048,-0.01916325,-0.073212
 82,0.07254131,0.12775300,0.32651609,0.00008267,0.00022157,0.00001775,0
 .00011709,-0.00051895,-0.00003950,-0.00119973,0.00069313,0.00001734,0.
 00626240,0.00144443,0.00026474,-0.01644514,0.01165768,-0.00021701,0.00
 243697,-0.00565071,-0.00020092,0.02981166,0.00355351,0.00122110,-0.024
 97011,-0.01343957,-0.00037991,0.01723418,0.02293801,-0.00119470,0.0197
 1877,-0.00478018,-0.00064831,-0.03096729,-0.03857117,-0.00620149,-0.13
 996292,-0.00517415,-0.00645470,-0.05349465,0.00231298,0.00298999,0.000
 11342,-0.00002584,-0.00000327,0.00000809,-0.00001247,0.00000659,0.0000
 0628,-0.00001129,-0.00000906,-0.00001053,0.00004314,0.00002216,-0.0000
 0797,0.00004761,-0.00001402,0.00049769,-0.00010307,-0.00005607,0.00046
 741,-0.00011602,0.00003303,-0.00009814,-0.00074130,-0.00008480,0.00061
 564,-0.00189823,0.00038372,-0.00052903,-0.00040238,-0.00067867,0.00068
 885,0.00076830,0.00042471,0.00119968,0.01183051,-0.00080247,0.00135340
 ,-0.00349394,0.00098052,-0.00204801,-0.00219032,0.00022951,-0.00280912
 ,-0.00277765,-0.00193841,0.70144824,0.00001655,0.00004609,0.00000628,0
 .00002448,-0.00010921,-0.00000621,-0.00026841,0.00015761,-0.00000449,0
 .00134282,0.00036053,0.00004979,-0.00341914,0.00221057,-0.00006122,0.0
 0077248,-0.00097969,-0.00006447,0.00596973,0.00108404,0.00020858,-0.00
 381849,-0.00742467,0.00073140,0.00995795,0.00098020,0.00034705,0.00204
 637,-0.00861397,0.00009263,-0.04092165,-0.00598235,-0.00454243,-0.0049
 6920,-0.11592490,0.00354645,0.01055142,0.01684674,0.00244783,0.0000239
 8,-0.00000598,-0.00000055,0.00000167,-0.00000218,0.00000177,0.00000209
 ,-0.00000279,-0.00000316,-0.00000238,0.00000812,0.00000227,-0.00000124
 ,0.00001086,-0.00000246,0.00010926,-0.00002288,-0.00001296,0.00009639,
 -0.00002817,0.00000880,-0.00001520,-0.00015316,-0.00001881,0.00024906,
 -0.00038767,0.00009256,0.00083272,0.00081360,-0.00035664,-0.00164749,0
 .00006923,0.00002718,0.01523475,-0.00029123,0.00162050,-0.00242921,0.0
 0032603,-0.00050947,-0.00701691,0.00154666,-0.00196780,-0.00397518,-0.
 00004406,-0.00156450,-0.04985185,0.84411964,0.00000445,0.00001306,-0.0
 0000253,0.00000972,-0.00003318,-0.00000281,-0.00007864,0.00004158,0.00
 007192,0.00040373,0.00005245,0.00011681,-0.00099715,0.00093500,-0.0003
 2480,-0.00014533,-0.00046708,-0.00007534,0.00195660,0.00010223,-0.0010
 1231,-0.00126853,-0.00081250,-0.00139187,0.00069268,0.00279916,0.00738
 915,0.00075435,0.00100595,0.00837620,0.00294635,-0.00140409,-0.0029037
 9,-0.01174059,0.00587912,-0.07903280,-0.00500240,-0.00279582,-0.006209
 99,0.00000674,-0.00000172,-0.00000047,-0.00000003,-0.00000012,0.000000
 20,0.00000121,-0.00000119,-0.00000111,-0.00000062,0.00000051,-0.000000
 51,-0.00000151,0.00000398,-0.00000084,0.00001316,-0.00001661,-0.000017
 00,0.00004617,0.00000388,-0.00000648,-0.00000952,-0.00005448,0.0000353
 3,-0.00002953,-0.00013803,0.00010756,-0.00008399,-0.00001639,0.0019559
 7,0.00025301,0.00009306,0.00091743,0.00485563,0.00016695,-0.00181661,-
 0.00072054,0.00002574,-0.00011862,-0.00313122,0.00214502,-0.00262884,-
 0.00221878,-0.00125803,-0.00104445,-0.01497195,0.24461250,0.34665408,-
 0.00003180,-0.00008521,-0.00000631,-0.00004598,0.00019811,0.00001420,0
 .00046285,-0.00028239,-0.00002082,-0.00239443,-0.00059226,-0.00012507,
 0.00605956,-0.00406136,0.00014861,-0.00121380,0.00191386,0.00012666,-0
 .01059028,-0.00139061,-0.00019285,0.00825658,0.00646975,-0.00024612,-0
 .00778860,-0.00458920,-0.00128593,-0.00431298,0.00209657,-0.00069437,-
 0.00011481,0.00698854,0.00301016,-0.06455168,0.03374391,0.01326200,0.0
 0482310,-0.00910182,0.00081992,-0.00004379,0.00000969,0.00000134,-0.00
 000295,0.00000497,-0.00000243,-0.00000232,0.00000430,0.00000323,0.0000
 0303,-0.00001702,-0.00000895,0.00000271,-0.00001833,0.00000560,-0.0001
 8027,0.00004298,0.00002289,-0.00017708,0.00004536,-0.00001072,0.000031
 39,0.00027881,0.00002828,-0.00025892,0.00068425,-0.00014514,-0.0003004
 7,-0.00062942,-0.00006188,-0.00029567,-0.00028945,-0.00004972,0.001629
 39,-0.00573453,0.00159839,-0.00103663,0.00177898,-0.00066702,-0.000487
 42,0.00164280,-0.00141994,-0.00029470,0.00203619,0.00070268,-0.3418421
 1,0.18215082,0.07730955,0.37747630,0.00001355,0.00003621,0.00000310,0.
 00001677,-0.00008557,-0.00000796,-0.00018808,0.00009185,-0.00000356,0.
 00097512,0.00024017,0.00006486,-0.00267121,0.00181123,-0.00003118,0.00
 039037,-0.00088345,-0.00003927,0.00478814,0.00080305,0.00014252,-0.004
 83370,-0.00184731,-0.00044017,0.00199789,0.00333093,0.00050472,0.00348
 304,0.00057254,0.00034590,-0.00750283,-0.00972021,-0.00008523,0.025673
 00,0.01238509,-0.00443950,-0.00527953,0.00196761,-0.00014381,0.0000186
 2,-0.00000407,-0.00000050,0.00000139,-0.00000217,0.00000085,0.00000087
 ,-0.00000171,-0.00000110,-0.00000127,0.00000827,0.00000495,-0.00000140
 ,0.00000785,-0.00000271,0.00008136,-0.00001479,-0.00000785,0.00008021,
 -0.00001490,0.00000376,-0.00001588,-0.00012419,-0.00001376,0.00011524,
 -0.00032766,0.00004653,-0.00004344,0.00004304,-0.00001372,0.00012042,0
 .00007007,0.00021619,-0.00371573,0.00134858,-0.00196132,0.00084392,-0.
 00053504,0.00041028,0.00160156,-0.00081985,0.00127364,0.00187897,-0.00
 117165,0.00044090,0.19176835,-0.28463440,-0.08705796,-0.25346961,0.381
 07605,0.00000306,0.00000882,0.00000065,0.00000346,-0.00001883,-0.00000
 109,-0.00003902,0.00002311,-0.00000813,0.00020353,0.00005889,-0.000007
 97,-0.00053743,0.00029891,0.00000859,0.00020710,-0.00012832,0.00000562
 ,0.00091410,0.00014136,0.00016386,-0.00102581,-0.00016424,0.00021902,0
 .00048307,-0.00020998,-0.00093601,0.00113495,-0.00048754,-0.00061687,-
 0.00231878,-0.00217934,0.00021068,0.01055447,-0.00468949,0.01815909,-0
 .00064058,0.00189563,0.00368915,0.00000425,-0.00000101,-0.00000006,0.0
 0000063,-0.00000072,0.00000037,0.,-0.00000023,-0.00000010,-0.00000043,
 0.00000236,0.00000152,-0.00000005,0.00000136,-0.00000067,0.00002028,-0
 .00000031,0.00000179,0.00001417,-0.00000649,0.00000252,-0.00000267,-0.
 00002383,-0.00001493,0.00003444,-0.00006214,-0.00000728,0.00003340,0.0
 0004213,-0.00060930,-0.00003941,0.00001178,-0.00001862,-0.00268671,0.0
 0050789,-0.00022549,0.00056943,-0.00032495,0.00018326,0.00165822,-0.00
 081934,0.00105132,0.00112136,-0.00022595,0.00005069,0.08453328,-0.0857
 7691,-0.11649324,-0.11425124,0.15214871,0.09574585,-0.00002127,-0.0000
 5721,-0.00000458,-0.00003233,0.00013263,0.00000999,0.00031167,-0.00019
 575,-0.00001027,-0.00162985,-0.00037546,-0.00005811,0.00414882,-0.0029
 0333,0.00001613,-0.00076963,0.00141247,0.00008295,-0.00737847,-0.00063
 582,-0.00034548,0.00634167,0.00180110,0.00020024,-0.00255265,-0.003246
 52,0.00017874,-0.00456368,-0.00101573,0.00115982,-0.00328852,0.0068582
 8,-0.00179646,-0.01803043,-0.05039813,-0.01943532,0.00484481,-0.002745
 03,-0.00130490,-0.00002928,0.00000667,0.00000084,-0.00000200,0.0000031
 9,-0.00000176,-0.00000169,0.00000307,0.00000256,0.00000264,-0.00001064
 ,-0.00000508,0.00000192,-0.00001244,0.00000348,-0.00012452,0.00002887,
 0.00001562,-0.00011578,0.00003168,-0.00000877,0.00002421,0.00018689,0.
 00001623,-0.00011360,0.00046210,-0.00008313,0.00002424,-0.00012665,0.0
 0017335,-0.00087707,-0.00019597,0.00012038,0.00061094,-0.00385691,0.00
 254446,-0.00065694,0.00102629,-0.00059108,-0.00159591,0.00384541,-0.00
 428087,-0.00386749,0.00467603,0.00006358,-0.16627846,-0.11188100,-0.04
 941929,0.03936977,0.04689267,0.01985174,0.15578842,-0.00002322,-0.0000
 6431,-0.00000713,-0.00003466,0.00015096,0.00001156,0.00034108,-0.00019
 280,0.00001022,-0.00177281,-0.00038913,-0.00005950,0.00467417,-0.00336
 338,-0.00001217,-0.00071433,0.00162813,0.00006692,-0.00859528,-0.00084
 422,-0.00048967,0.00741432,0.00376719,0.00011640,-0.00539796,-0.005213
 63,0.00066370,-0.00551706,0.00148611,0.00118732,0.00185840,0.00754903,
 0.00017067,-0.03952452,-0.02623477,-0.01992064,0.00922478,-0.00373328,
 -0.00134640,-0.00003259,0.00000800,0.00000078,-0.00000248,0.00000346,-
 0.00000228,-0.00000239,0.00000356,0.00000351,0.00000327,-0.00001211,-0
 .00000522,0.00000253,-0.00001409,0.00000373,-0.00014946,0.00002694,0.0
 0001482,-0.00013392,0.00003196,-0.00001052,0.00003069,0.00021316,0.000
 02480,-0.00011974,0.00056120,-0.00008796,0.00001587,-0.00005127,0.0002
 8860,-0.00037671,-0.00017391,-0.00009929,-0.01038069,-0.00255285,-0.00
 212656,0.00170972,0.00027891,0.00042562,0.00915965,-0.00343709,0.00593
 391,0.00782194,-0.00255447,0.00141741,-0.12038268,-0.44214130,-0.16279
 025,0.04054587,-0.10564092,-0.06032135,0.11034427,0.58016668,-0.000007
 04,-0.00001952,-0.00000127,-0.00001102,0.00004439,0.00000355,0.0000983
 1,-0.00005777,-0.00000931,-0.00051971,-0.00010086,-0.00002343,0.001318
 38,-0.00096422,0.00001922,-0.00020354,0.00046341,0.00002939,-0.0023589
 7,-0.00022763,-0.00002536,0.00198456,0.00128360,0.00026335,-0.00149208
 ,-0.00186541,-0.00068227,-0.00094628,-0.00081443,-0.00064344,-0.002348
 42,0.00317451,0.00278963,-0.01248643,-0.02159511,0.01292308,0.00403855
 ,-0.00008293,0.00012600,-0.00000967,0.00000236,0.00000025,-0.00000063,
 0.00000085,-0.00000061,-0.00000092,0.00000121,0.00000125,0.00000086,-0
 .00000320,-0.00000113,0.00000053,-0.00000480,0.00000125,-0.00004129,0.
 00000960,0.00000658,-0.00003969,0.00000800,-0.00000206,0.00001049,0.00
 006159,0.00000004,-0.00001064,0.00016195,-0.00002398,0.00007069,-0.000
 00646,-0.00010360,-0.00037208,-0.00006079,-0.00038981,0.00028222,-0.00
 082232,-0.00184878,-0.00015404,0.00029452,0.00017573,-0.00492385,0.003
 99348,-0.00428589,0.00217070,-0.00048182,0.00162937,-0.05932750,-0.159
 24547,-0.14826242,0.02169259,-0.06163064,-0.00111812,0.05356957,0.2381
 0894,0.13956299,-0.00000390,-0.00001030,-0.00000093,-0.00001149,0.0000
 2291,0.00000222,0.00002887,-0.00006122,-0.00000259,-0.00023590,0.00006
 893,0.00001400,0.00016259,-0.00056860,-0.00009165,-0.00001053,0.000192
 05,0.00001128,-0.00096213,0.00119016,-0.00002257,-0.00315197,-0.002419
 94,-0.00030357,-0.00039653,-0.00077011,0.00008031,-0.01531623,0.019269
 85,-0.00249710,-0.21446926,0.15044744,-0.02266421,0.00967386,-0.005556
 12,0.00082981,-0.00004772,-0.00208882,-0.00019888,-0.00000450,0.000001
 22,0.00000010,-0.00000015,0.00000053,-0.00000031,-0.00000010,0.0000004
 8,0.00000046,0.00000069,-0.00000124,-0.00000099,0.00000020,-0.00000149
 ,0.00000085,-0.00000957,0.00000553,0.00000290,-0.00000870,0.00000588,-
 0.00000187,0.00000893,0.00001970,0.00000148,0.00003700,0.00007110,0.00
 002351,0.00004661,0.00011324,0.00002444,0.00144622,0.00015722,0.000264
 75,0.00052400,-0.00005519,0.00003828,0.00014049,-0.00031418,0.00011344
 ,-0.00006198,0.00000907,0.00001778,-0.00006376,-0.00005361,-0.00005492
 ,-0.00139925,0.00083480,0.00056627,-0.00214798,-0.00301878,0.00019719,
 0.00046044,0.00001393,0.00001633,0.22577178,-0.00000205,-0.00000403,-0
 .00000071,-0.00000650,0.00000935,0.00000148,0.00000579,-0.00003158,0.0
 0000249,-0.00009621,0.00005049,0.00001027,-0.00007403,-0.00021336,-0.0
 0007306,-0.00000431,0.00005381,0.00000328,-0.00035004,0.00073277,-0.00
 001440,-0.00297979,-0.00037155,0.00045520,-0.00062835,0.00013225,-0.00
 013436,-0.00906638,0.01189882,-0.00107711,0.14885540,-0.19908276,0.019
 83384,0.02078526,-0.01544899,0.00256951,-0.00295360,-0.00407519,0.0004
 4971,-0.00000189,0.00000063,0.00000004,0.00000003,0.00000018,-0.000000
 04,0.00000004,0.00000013,0.00000005,0.00000046,-0.00000035,-0.00000023
 ,0.00000003,-0.00000042,0.00000016,-0.00000294,0.00000213,0.00000096,-
 0.00000145,0.00000232,-0.00000073,0.00000448,0.00000719,-0.00000017,0.
 00004242,-0.00000113,0.00002251,0.00008951,0.00005522,-0.00001640,0.00
 037677,0.00058780,-0.00036877,0.00115105,0.00065531,0.00006988,0.00027
 904,-0.00067517,0.00021664,-0.00019571,-0.00008348,0.00007075,-0.00015
 559,-0.00022598,-0.00018311,0.00286257,-0.00183134,-0.00103275,-0.0003
 7455,0.00203535,0.00030003,-0.00005503,0.00073827,0.00037494,-0.157504
 43,0.20508333,-0.00000041,-0.00000115,-0.00000024,-0.00000074,0.000002
 20,0.00000330,0.00000611,-0.00001017,0.00003191,-0.00003006,-0.0000055
 7,0.00001143,0.00005322,0.00003090,-0.00040507,-0.00004997,-0.00000878
 ,0.00004253,-0.00003354,-0.00001113,-0.00020809,-0.00032645,0.00091714
 ,0.00779813,-0.00034696,-0.00029544,-0.00124274,0.00016289,0.00073363,
 0.00544859,-0.02256739,0.02027414,-0.04249474,-0.00273459,0.00047078,0
 .00494333,-0.00002281,0.00032896,0.00451012,-0.00000058,0.00000016,-0.
 00000025,-0.00000039,0.00000030,-0.00000017,0.00000023,-0.00000018,-0.
 00000010,0.00000021,-0.00000044,-0.00000033,-0.00000006,0.,-0.00000001
 ,-0.00000856,0.00000087,-0.00000073,0.00000571,0.00000074,-0.00000127,
 0.00000209,0.00000376,-0.00000617,-0.00000136,-0.00000072,0.00010889,0
 .00005228,-0.00003400,-0.00033752,0.00025442,-0.00034576,-0.00472904,-
 0.00021650,0.00009743,0.00101680,0.00015401,-0.00028092,-0.00014332,-0
 .00001879,0.00000453,-0.00004055,0.00015757,0.00016332,0.00006466,0.00
 209836,0.00034196,-0.00427779,0.00044242,0.00027334,0.00056392,-0.0006
 6456,-0.00117000,-0.00011022,0.02363419,-0.02147989,0.02945476\\0.0000
 0287,-0.00001276,0.00000110,-0.00000314,-0.00000769,-0.00000135,0.0000
 0068,-0.00000779,-0.00000162,-0.00000390,-0.00000686,0.00000630,0.0000
 0618,0.00000045,-0.00000086,0.00000137,0.00000216,-0.00000080,0.000005
 86,0.00000542,-0.00000165,-0.00000194,-0.00000053,0.00000199,0.0000009
 6,0.00000628,0.00000218,0.00000392,0.00000540,-0.00000199,0.00000097,0
 .00000359,-0.00000086,0.00000396,0.00000395,-0.00000169,-0.00000366,0.
 00000591,0.00000131,0.00000259,-0.00001243,-0.00000066,-0.00000085,-0.
 00001137,-0.00000029,-0.00000010,-0.00001133,0.00000019,0.00000369,-0.
 00000935,-0.00000089,0.00000587,-0.00000867,0.00000007,0.00000053,-0.0
 0000750,0.00000078,-0.00000112,-0.00000822,-0.00000044,0.00000243,-0.0
 0000587,-0.00000076,0.00000320,-0.00000042,0.00000123,-0.00000455,0.00
 000091,-0.00000077,0.00000466,0.00000407,-0.00000174,0.00000750,0.0000
 1097,0.00003561,-0.00001901,0.00001136,-0.00000975,-0.00000233,0.00000
 619,-0.00000352,-0.00001106,0.00000022,-0.00002047,-0.00000419,-0.0000
 0697,-0.00000292,0.00000237,0.00001257,0.00000058,-0.00000443,0.000027
 17,0.00000253,0.00000071,0.00001115,-0.00000083\\\@


 ARTHROPOD AXIOM: A COMPUTER SYSTEM IS LIKE A SPIDER'S WEB.
 YOU CANNOT PULL ON ONE END WITHOUT MAKING THE OTHER END MOVE.
     -- GREG WETTSTEIN
 Job cpu time:       0 days  4 hours 40 minutes 16.8 seconds.
 File lengths (MBytes):  RWF=    677 Int=      0 D2E=      0 Chk=     23 Scr=      1
 Normal termination of Gaussian 09 at Tue Oct 30 18:08:00 2018.
WARNING: pbs_rusage is deprecated and values produced may not be accurate


=============================================================================
                                     Resource usage:
                                       CPU time:              25:37:04
   JobId:    1827585.r-man2            Elapsed time:          06:26:39
   Project:             q95            Requested time:        40:00:00
   Service Units:     25.78 
                                       Max physical memory:     1048MB
                                       Max virtual memory:      1707MB
                                       Requested memory:           0MB

                                       Number of cpus:               4

                                       Max jobfs disk use:       0.7GB
                                       Requested jobfs:         20.0GB
=============================================================================

