 Entering Gaussian System, Link 0=/apps/gaussian/g09e01/g09/g09
 AtFile(1): /home/507/hio507/Basis/6-31pGd.gbs
 Initial command:
 /apps/gaussian/g09e01/g09/l1.exe "/jobfs/local/1827751.r-man2/Gau-22280.inp" -scrdir="/jobfs/local/1827751.r-man2/"
 Entering Link 1 = /apps/gaussian/g09e01/g09/l1.exe PID=     22281.
  
 Copyright (c) 1988,1990,1992,1993,1995,1998,2003,2009,2015,
            Gaussian, Inc.  All Rights Reserved.
  
 This is part of the Gaussian(R) 09 program.  It is based on
 the Gaussian(R) 03 system (copyright 2003, Gaussian, Inc.),
 the Gaussian(R) 98 system (copyright 1998, Gaussian, Inc.),
 the Gaussian(R) 94 system (copyright 1995, Gaussian, Inc.),
 the Gaussian 92(TM) system (copyright 1992, Gaussian, Inc.),
 the Gaussian 90(TM) system (copyright 1990, Gaussian, Inc.),
 the Gaussian 88(TM) system (copyright 1988, Gaussian, Inc.),
 the Gaussian 86(TM) system (copyright 1986, Carnegie Mellon
 University), and the Gaussian 82(TM) system (copyright 1983,
 Carnegie Mellon University). Gaussian is a federally registered
 trademark of Gaussian, Inc.
  
 This software contains proprietary and confidential information,
 including trade secrets, belonging to Gaussian, Inc.
  
 This software is provided under written license and may be
 used, copied, transmitted, or stored only in accord with that
 written license.
  
 The following legend is applicable only to US Government
 contracts under FAR:
  
                    RESTRICTED RIGHTS LEGEND
  
 Use, reproduction and disclosure by the US Government is
 subject to restrictions as set forth in subparagraphs (a)
 and (c) of the Commercial Computer Software - Restricted
 Rights clause in FAR 52.227-19.
  
 Gaussian, Inc.
 340 Quinnipiac St., Bldg. 40, Wallingford CT 06492
  
  
 ---------------------------------------------------------------
 Warning -- This program may not be used in any manner that
 competes with the business of Gaussian, Inc. or will provide
 assistance to any competitor of Gaussian, Inc.  The licensee
 of this program is prohibited from giving any competitor of
 Gaussian, Inc. access to this program.  By using this program,
 the user acknowledges that Gaussian, Inc. is engaged in the
 business of creating and licensing software in the field of
 computational chemistry and represents and warrants to the
 licensee that it is not a competitor of Gaussian, Inc. and that
 it will not use this program in any manner prohibited above.
 ---------------------------------------------------------------
  

 Cite this work as:
 Gaussian 09, Revision E.01,
 M. J. Frisch, G. W. Trucks, H. B. Schlegel, G. E. Scuseria, 
 M. A. Robb, J. R. Cheeseman, G. Scalmani, V. Barone, B. Mennucci, 
 G. A. Petersson, H. Nakatsuji, M. Caricato, X. Li, H. P. Hratchian, 
 A. F. Izmaylov, J. Bloino, G. Zheng, J. L. Sonnenberg, M. Hada, 
 M. Ehara, K. Toyota, R. Fukuda, J. Hasegawa, M. Ishida, T. Nakajima, 
 Y. Honda, O. Kitao, H. Nakai, T. Vreven, J. A. Montgomery, Jr., 
 J. E. Peralta, F. Ogliaro, M. Bearpark, J. J. Heyd, E. Brothers, 
 K. N. Kudin, V. N. Staroverov, T. Keith, R. Kobayashi, J. Normand, 
 K. Raghavachari, A. Rendell, J. C. Burant, S. S. Iyengar, J. Tomasi, 
 M. Cossi, N. Rega, J. M. Millam, M. Klene, J. E. Knox, J. B. Cross, 
 V. Bakken, C. Adamo, J. Jaramillo, R. Gomperts, R. E. Stratmann, 
 O. Yazyev, A. J. Austin, R. Cammi, C. Pomelli, J. W. Ochterski, 
 R. L. Martin, K. Morokuma, V. G. Zakrzewski, G. A. Voth, 
 P. Salvador, J. J. Dannenberg, S. Dapprich, A. D. Daniels, 
 O. Farkas, J. B. Foresman, J. V. Ortiz, J. Cioslowski, 
 and D. J. Fox, Gaussian, Inc., Wallingford CT, 2013.
 
 ******************************************
 Gaussian 09:  ES64L-G09RevE.01 30-Nov-2015
                30-Oct-2018 
 ******************************************
 %chk=34TFM.M062X_6-31pGd_opt.chk
 %mem=196608000
 %nproc=8
 Will use up to    8 processors via shared memory.
 ----------------------------------------------------------------------
 # M062X/Gen 6D SCF=Tight INT(grid=ultrafine) OPT IOP(2/17=4) maxdisk=2
 684354560
 ----------------------------------------------------------------------
 1/14=-1,18=20,19=15,26=4,38=1/1,3;
 2/9=110,12=2,17=4,18=5,40=1/2;
 3/5=7,8=2,11=2,16=1,25=1,30=1,71=1,74=-55,75=-5/1,2,3;
 4//1;
 5/5=2,32=2,38=5/2;
 6/7=2,8=2,9=2,10=2,28=1/1;
 7//1,2,3,16;
 1/14=-1,18=20,19=15,26=4/3(2);
 2/9=110,17=4/2;
 99//99;
 2/9=110,17=4/2;
 3/5=7,6=1,8=2,11=2,16=1,25=1,30=1,71=1,74=-55,75=-5,82=7/1,2,3;
 4/5=5,16=3,69=1/1;
 5/5=2,32=2,38=5/2;
 7//1,2,3,16;
 1/14=-1,18=20,19=15,26=4/3(-5);
 2/9=110,17=4/2;
 6/7=2,8=2,9=2,10=2,19=2,28=1/1;
 99/9=1/99;
 -----------------------
 34TFM.M062X_6-31pGd_opt
 -----------------------
 Symbolic Z-matrix:
 Charge =  0 Multiplicity = 1
 C                    -1.96889   1.89374  -0.09711 
 C                    -0.61309   1.20077   0.00275 
 C                     0.53496   2.21451  -0.06469 
 N                     1.82308   1.54997   0.03386 
 C                     2.99583   2.24445  -0.00104 
 O                     2.96489   3.45872  -0.11949 
 N                     4.182     1.56684   0.09974 
 C                     5.52064   2.10058   0.08678 
 C                     5.84122   3.46984  -0.05409 
 C                     6.57791   1.19325   0.22374 
 C                     7.90075   1.6189    0.22355 
 C                     8.23604   2.97503   0.08553 
 C                     7.18125   3.92905  -0.05791 
 H                    -2.77886   1.13596  -0.04554 
 H                    -2.05346   2.43994  -1.06072 
 H                    -2.09869   2.6106    0.74158 
 H                    -0.51624   0.47499  -0.83395 
 H                    -0.56189   0.64629   0.96512 
 H                     0.43216   2.93917   0.77313 
 H                     0.47979   2.76591  -1.02934 
 H                     1.85028   0.52297   0.13423 
 H                     4.10896   0.54222   0.2007 
 H                     5.06868   4.20213  -0.16362 
 H                     6.37791   0.13441   0.33403 
 H                     8.6789    0.87235   0.33383 
 C                     7.43697   5.42119  -0.21508 
 C                     9.72833   3.28082   0.10514 
 F                     10.04824   4.6138   -0.03105 
 F                     10.34227   2.59504  -0.92796 
 F                     10.26196   2.84249   1.30417 
 F                     6.26539   6.14922  -0.33824 
 F                     8.18542   5.65129  -1.35549 
 F                     8.1048    5.90246   0.89667 
 

 GradGradGradGradGradGradGradGradGradGradGradGradGradGradGradGradGradGrad
 Berny optimization.
 Initialization pass.
                           ----------------------------
                           !    Initial Parameters    !
                           ! (Angstroms and Degrees)  !
 --------------------------                            --------------------------
 ! Name  Definition              Value          Derivative Info.                !
 --------------------------------------------------------------------------------
 ! R1    R(1,2)                  1.5259         estimate D2E/DX2                !
 ! R2    R(1,14)                 1.1104         estimate D2E/DX2                !
 ! R3    R(1,15)                 1.1109         estimate D2E/DX2                !
 ! R4    R(1,16)                 1.1109         estimate D2E/DX2                !
 ! R5    R(2,3)                  1.533          estimate D2E/DX2                !
 ! R6    R(2,17)                 1.1118         estimate D2E/DX2                !
 ! R7    R(2,18)                 1.1119         estimate D2E/DX2                !
 ! R8    R(3,4)                  1.4528         estimate D2E/DX2                !
 ! R9    R(3,19)                 1.1125         estimate D2E/DX2                !
 ! R10   R(3,20)                 1.1125         estimate D2E/DX2                !
 ! R11   R(4,5)                  1.3634         estimate D2E/DX2                !
 ! R12   R(4,21)                 1.0323         estimate D2E/DX2                !
 ! R13   R(5,6)                  1.2204         estimate D2E/DX2                !
 ! R14   R(5,7)                  1.3698         estimate D2E/DX2                !
 ! R15   R(7,8)                  1.4412         estimate D2E/DX2                !
 ! R16   R(7,22)                 1.0322         estimate D2E/DX2                !
 ! R17   R(8,9)                  1.4133         estimate D2E/DX2                !
 ! R18   R(8,10)                 1.3999         estimate D2E/DX2                !
 ! R19   R(9,13)                 1.4165         estimate D2E/DX2                !
 ! R20   R(9,23)                 1.0701         estimate D2E/DX2                !
 ! R21   R(10,11)                1.3896         estimate D2E/DX2                !
 ! R22   R(10,24)                1.0832         estimate D2E/DX2                !
 ! R23   R(11,12)                1.4038         estimate D2E/DX2                !
 ! R24   R(11,25)                1.084          estimate D2E/DX2                !
 ! R25   R(12,13)                1.4294         estimate D2E/DX2                !
 ! R26   R(12,27)                1.5234         estimate D2E/DX2                !
 ! R27   R(13,26)                1.522          estimate D2E/DX2                !
 ! R28   R(26,31)                1.3848         estimate D2E/DX2                !
 ! R29   R(26,32)                1.3834         estimate D2E/DX2                !
 ! R30   R(26,33)                1.3833         estimate D2E/DX2                !
 ! R31   R(27,28)                1.3776         estimate D2E/DX2                !
 ! R32   R(27,29)                1.3837         estimate D2E/DX2                !
 ! R33   R(27,30)                1.3837         estimate D2E/DX2                !
 ! A1    A(2,1,14)             109.5829         estimate D2E/DX2                !
 ! A2    A(2,1,15)             110.347          estimate D2E/DX2                !
 ! A3    A(2,1,16)             110.3319         estimate D2E/DX2                !
 ! A4    A(14,1,15)            108.6815         estimate D2E/DX2                !
 ! A5    A(14,1,16)            108.668          estimate D2E/DX2                !
 ! A6    A(15,1,16)            109.1899         estimate D2E/DX2                !
 ! A7    A(1,2,3)              111.2357         estimate D2E/DX2                !
 ! A8    A(1,2,17)             108.9411         estimate D2E/DX2                !
 ! A9    A(1,2,18)             108.9073         estimate D2E/DX2                !
 ! A10   A(3,2,17)             109.47           estimate D2E/DX2                !
 ! A11   A(3,2,18)             109.4728         estimate D2E/DX2                !
 ! A12   A(17,2,18)            108.7724         estimate D2E/DX2                !
 ! A13   A(2,3,4)              111.0098         estimate D2E/DX2                !
 ! A14   A(2,3,19)             109.1719         estimate D2E/DX2                !
 ! A15   A(2,3,20)             109.1933         estimate D2E/DX2                !
 ! A16   A(4,3,19)             109.1962         estimate D2E/DX2                !
 ! A17   A(4,3,20)             109.2391         estimate D2E/DX2                !
 ! A18   A(19,3,20)            109.0009         estimate D2E/DX2                !
 ! A19   A(3,4,5)              121.866          estimate D2E/DX2                !
 ! A20   A(3,4,21)             119.0163         estimate D2E/DX2                !
 ! A21   A(5,4,21)             119.1177         estimate D2E/DX2                !
 ! A22   A(4,5,6)              119.1752         estimate D2E/DX2                !
 ! A23   A(4,5,7)              119.4064         estimate D2E/DX2                !
 ! A24   A(6,5,7)              121.4183         estimate D2E/DX2                !
 ! A25   A(5,7,8)              128.3507         estimate D2E/DX2                !
 ! A26   A(5,7,22)             115.9116         estimate D2E/DX2                !
 ! A27   A(8,7,22)             115.7375         estimate D2E/DX2                !
 ! A28   A(7,8,9)              124.7772         estimate D2E/DX2                !
 ! A29   A(7,8,10)             117.4246         estimate D2E/DX2                !
 ! A30   A(9,8,10)             117.7983         estimate D2E/DX2                !
 ! A31   A(8,9,13)             121.9323         estimate D2E/DX2                !
 ! A32   A(8,9,23)             120.6267         estimate D2E/DX2                !
 ! A33   A(13,9,23)            117.441          estimate D2E/DX2                !
 ! A34   A(8,10,11)            121.3584         estimate D2E/DX2                !
 ! A35   A(8,10,24)            120.2695         estimate D2E/DX2                !
 ! A36   A(11,10,24)           118.3721         estimate D2E/DX2                !
 ! A37   A(10,11,12)           121.5534         estimate D2E/DX2                !
 ! A38   A(10,11,25)           118.1895         estimate D2E/DX2                !
 ! A39   A(12,11,25)           120.2571         estimate D2E/DX2                !
 ! A40   A(11,12,13)           118.5794         estimate D2E/DX2                !
 ! A41   A(11,12,27)           115.2531         estimate D2E/DX2                !
 ! A42   A(13,12,27)           126.1675         estimate D2E/DX2                !
 ! A43   A(9,13,12)            118.7782         estimate D2E/DX2                !
 ! A44   A(9,13,26)            118.4915         estimate D2E/DX2                !
 ! A45   A(12,13,26)           122.7303         estimate D2E/DX2                !
 ! A46   A(13,26,31)           112.4845         estimate D2E/DX2                !
 ! A47   A(13,26,32)           109.822          estimate D2E/DX2                !
 ! A48   A(13,26,33)           109.8278         estimate D2E/DX2                !
 ! A49   A(31,26,32)           107.2752         estimate D2E/DX2                !
 ! A50   A(31,26,33)           107.2774         estimate D2E/DX2                !
 ! A51   A(32,26,33)           110.0884         estimate D2E/DX2                !
 ! A52   A(12,27,28)           114.862          estimate D2E/DX2                !
 ! A53   A(12,27,29)           108.9985         estimate D2E/DX2                !
 ! A54   A(12,27,30)           108.9865         estimate D2E/DX2                !
 ! A55   A(28,27,29)           107.6215         estimate D2E/DX2                !
 ! A56   A(28,27,30)           107.6161         estimate D2E/DX2                !
 ! A57   A(29,27,30)           108.595          estimate D2E/DX2                !
 ! D1    D(14,1,2,3)           179.9971         estimate D2E/DX2                !
 ! D2    D(14,1,2,17)           59.2385         estimate D2E/DX2                !
 ! D3    D(14,1,2,18)          -59.263          estimate D2E/DX2                !
 ! D4    D(15,1,2,3)            60.3588         estimate D2E/DX2                !
 ! D5    D(15,1,2,17)          -60.3998         estimate D2E/DX2                !
 ! D6    D(15,1,2,18)         -178.9013         estimate D2E/DX2                !
 ! D7    D(16,1,2,3)           -60.3905         estimate D2E/DX2                !
 ! D8    D(16,1,2,17)          178.8509         estimate D2E/DX2                !
 ! D9    D(16,1,2,18)           60.3494         estimate D2E/DX2                !
 ! D10   D(1,2,3,4)            179.8701         estimate D2E/DX2                !
 ! D11   D(1,2,3,19)            59.4434         estimate D2E/DX2                !
 ! D12   D(1,2,3,20)           -59.636          estimate D2E/DX2                !
 ! D13   D(17,2,3,4)           -59.6828         estimate D2E/DX2                !
 ! D14   D(17,2,3,19)          179.8905         estimate D2E/DX2                !
 ! D15   D(17,2,3,20)           60.8111         estimate D2E/DX2                !
 ! D16   D(18,2,3,4)            59.4634         estimate D2E/DX2                !
 ! D17   D(18,2,3,19)          -60.9633         estimate D2E/DX2                !
 ! D18   D(18,2,3,20)          179.9573         estimate D2E/DX2                !
 ! D19   D(2,3,4,5)           -179.95           estimate D2E/DX2                !
 ! D20   D(2,3,4,21)            -0.0223         estimate D2E/DX2                !
 ! D21   D(19,3,4,5)           -59.5377         estimate D2E/DX2                !
 ! D22   D(19,3,4,21)          120.39           estimate D2E/DX2                !
 ! D23   D(20,3,4,5)            59.5832         estimate D2E/DX2                !
 ! D24   D(20,3,4,21)         -120.4891         estimate D2E/DX2                !
 ! D25   D(3,4,5,6)             -0.0623         estimate D2E/DX2                !
 ! D26   D(3,4,5,7)            179.8217         estimate D2E/DX2                !
 ! D27   D(21,4,5,6)          -179.9899         estimate D2E/DX2                !
 ! D28   D(21,4,5,7)            -0.106          estimate D2E/DX2                !
 ! D29   D(4,5,7,8)           -179.9324         estimate D2E/DX2                !
 ! D30   D(4,5,7,22)            -0.1239         estimate D2E/DX2                !
 ! D31   D(6,5,7,8)             -0.0512         estimate D2E/DX2                !
 ! D32   D(6,5,7,22)           179.7574         estimate D2E/DX2                !
 ! D33   D(5,7,8,9)             -0.8168         estimate D2E/DX2                !
 ! D34   D(5,7,8,10)           179.1957         estimate D2E/DX2                !
 ! D35   D(22,7,8,9)           179.3744         estimate D2E/DX2                !
 ! D36   D(22,7,8,10)           -0.6131         estimate D2E/DX2                !
 ! D37   D(7,8,9,13)           179.9611         estimate D2E/DX2                !
 ! D38   D(7,8,9,23)            -0.0966         estimate D2E/DX2                !
 ! D39   D(10,8,9,13)           -0.0515         estimate D2E/DX2                !
 ! D40   D(10,8,9,23)          179.8908         estimate D2E/DX2                !
 ! D41   D(7,8,10,11)         -179.9356         estimate D2E/DX2                !
 ! D42   D(7,8,10,24)            0.0059         estimate D2E/DX2                !
 ! D43   D(9,8,10,11)            0.076          estimate D2E/DX2                !
 ! D44   D(9,8,10,24)         -179.9824         estimate D2E/DX2                !
 ! D45   D(8,9,13,12)           -0.0117         estimate D2E/DX2                !
 ! D46   D(8,9,13,26)          179.9847         estimate D2E/DX2                !
 ! D47   D(23,9,13,12)        -179.9558         estimate D2E/DX2                !
 ! D48   D(23,9,13,26)           0.0406         estimate D2E/DX2                !
 ! D49   D(8,10,11,12)          -0.0372         estimate D2E/DX2                !
 ! D50   D(8,10,11,25)         179.951          estimate D2E/DX2                !
 ! D51   D(24,10,11,12)       -179.9798         estimate D2E/DX2                !
 ! D52   D(24,10,11,25)          0.0084         estimate D2E/DX2                !
 ! D53   D(10,11,12,13)         -0.0284         estimate D2E/DX2                !
 ! D54   D(10,11,12,27)        179.9773         estimate D2E/DX2                !
 ! D55   D(25,11,12,13)        179.9836         estimate D2E/DX2                !
 ! D56   D(25,11,12,27)         -0.0107         estimate D2E/DX2                !
 ! D57   D(11,12,13,9)           0.0515         estimate D2E/DX2                !
 ! D58   D(11,12,13,26)       -179.9448         estimate D2E/DX2                !
 ! D59   D(27,12,13,9)        -179.9548         estimate D2E/DX2                !
 ! D60   D(27,12,13,26)          0.0489         estimate D2E/DX2                !
 ! D61   D(11,12,27,28)        179.9918         estimate D2E/DX2                !
 ! D62   D(11,12,27,29)         59.1672         estimate D2E/DX2                !
 ! D63   D(11,12,27,30)        -59.1994         estimate D2E/DX2                !
 ! D64   D(13,12,27,28)         -0.002          estimate D2E/DX2                !
 ! D65   D(13,12,27,29)       -120.8265         estimate D2E/DX2                !
 ! D66   D(13,12,27,30)        120.8068         estimate D2E/DX2                !
 ! D67   D(9,13,26,31)          -0.0306         estimate D2E/DX2                !
 ! D68   D(9,13,26,32)        -119.4255         estimate D2E/DX2                !
 ! D69   D(9,13,26,33)         119.371          estimate D2E/DX2                !
 ! D70   D(12,13,26,31)        179.9657         estimate D2E/DX2                !
 ! D71   D(12,13,26,32)         60.5708         estimate D2E/DX2                !
 ! D72   D(12,13,26,33)        -60.6327         estimate D2E/DX2                !
 --------------------------------------------------------------------------------
 Trust Radius=3.00D-01 FncErr=1.00D-07 GrdErr=1.00D-06
 Number of steps in this run=    172 maximum allowed number of steps=    198.
 GradGradGradGradGradGradGradGradGradGradGradGradGradGradGradGradGradGrad

                          Input orientation:                          
 ---------------------------------------------------------------------
 Center     Atomic      Atomic             Coordinates (Angstroms)
 Number     Number       Type             X           Y           Z
 ---------------------------------------------------------------------
      1          6           0       -1.968890    1.893740   -0.097110
      2          6           0       -0.613090    1.200770    0.002750
      3          6           0        0.534960    2.214510   -0.064690
      4          7           0        1.823080    1.549970    0.033860
      5          6           0        2.995830    2.244450   -0.001040
      6          8           0        2.964890    3.458720   -0.119490
      7          7           0        4.182000    1.566840    0.099740
      8          6           0        5.520640    2.100580    0.086780
      9          6           0        5.841220    3.469840   -0.054090
     10          6           0        6.577910    1.193250    0.223740
     11          6           0        7.900750    1.618900    0.223550
     12          6           0        8.236040    2.975030    0.085530
     13          6           0        7.181250    3.929050   -0.057910
     14          1           0       -2.778860    1.135960   -0.045540
     15          1           0       -2.053460    2.439940   -1.060720
     16          1           0       -2.098690    2.610600    0.741580
     17          1           0       -0.516240    0.474990   -0.833950
     18          1           0       -0.561890    0.646290    0.965120
     19          1           0        0.432160    2.939170    0.773130
     20          1           0        0.479790    2.765910   -1.029340
     21          1           0        1.850280    0.522970    0.134230
     22          1           0        4.108960    0.542220    0.200700
     23          1           0        5.068680    4.202130   -0.163620
     24          1           0        6.377910    0.134410    0.334030
     25          1           0        8.678900    0.872350    0.333830
     26          6           0        7.436970    5.421190   -0.215080
     27          6           0        9.728330    3.280820    0.105140
     28          9           0       10.048240    4.613800   -0.031050
     29          9           0       10.342270    2.595040   -0.927960
     30          9           0       10.261960    2.842490    1.304170
     31          9           0        6.265390    6.149220   -0.338240
     32          9           0        8.185420    5.651290   -1.355490
     33          9           0        8.104800    5.902460    0.896670
 ---------------------------------------------------------------------
                    Distance matrix (angstroms):
                    1          2          3          4          5
     1  C    0.000000
     2  C    1.525901   0.000000
     3  C    2.524522   1.533048   0.000000
     4  N    3.809773   2.461266   1.452783   0.000000
     5  C    4.978019   3.756805   2.461875   1.363401   0.000000
     6  O    5.176084   4.232638   2.730498   2.229478   1.220426
     7  N    6.162715   4.810021   3.707751   2.359900   1.369785
     8  C    7.494642   6.199949   4.989281   3.738706   2.530430
     9  C    7.967670   6.841785   5.452739   4.454109   3.098490
    10  C    8.581458   7.194399   6.135422   4.771971   3.739899
    11  C    9.878672   8.526961   7.395451   6.081020   4.949747
    12  C   10.263681   9.025628   7.739999   6.569591   5.291601
    13  C    9.373851   8.258264   6.863881   5.863312   4.512078
    14  H    1.110379   2.167278   3.484973   4.621208   5.880287
    15  H    1.110869   2.177424   2.782591   4.125253   5.162990
    16  H    1.110917   2.177268   2.782637   4.123843   5.161365
    17  H    2.160087   1.111847   2.173180   2.716817   4.019871
    18  H    2.159656   1.111857   2.173224   2.715136   4.018078
    19  H    2.759580   2.169808   1.112494   2.100251   2.766655
    20  H    2.761479   2.170083   1.112491   2.100793   2.767631
    21  H    4.064307   2.558299   2.151963   1.032251   2.072215
    22  H    6.233423   4.771858   3.954802   2.503726   2.043855
    23  H    7.406786   6.427935   4.951266   4.196054   2.855810
    24  H    8.541089   7.079615   6.214971   4.779162   4.000376
    25  H   10.705343   9.303685   8.263412   6.895754   5.855944
    26  C   10.046244   9.091912   7.612040   6.823788   5.464542
    27  C   11.780910  10.549031   9.256560   8.092830   6.812627
    28  F   12.321303  11.194368   9.811229   8.777501   7.439839
    29  F   12.359077  11.082875   9.852582   8.636774   7.412980
    30  F   12.347364  11.075001   9.842899   8.631280   7.406610
    31  F    9.272034   8.480384   6.956623   6.405129   5.104014
    32  F   10.900124   9.953176   8.485703   7.696135   6.353970
    33  F   10.887454   9.945179   8.475120   7.690814   6.347322
                    6          7          8          9         10
     6  O    0.000000
     7  N    2.260228   0.000000
     8  C    2.901543   1.441181   0.000000
     9  C    2.877095   2.529443   1.413325   0.000000
    10  C    4.278326   2.428030   1.399938   2.408893   0.000000
    11  C    5.278762   3.721175   2.432210   2.782935   1.389634
    12  C    5.297265   4.291671   2.852729   2.449386   2.437876
    13  C    4.242958   3.821046   2.474240   1.416534   2.815661
    14  H    6.196075   6.975696   8.356417   8.930445   9.360819
    15  H    5.206502   6.402338   7.668045   8.024959   8.815022
    16  H    5.205823   6.399098   7.664403   8.025806   8.806840
    17  H    4.640190   4.912980   6.319352   7.070686   7.208437
    18  H    4.639431   4.909255   6.315347   7.071849   7.198997
    19  H    2.735219   4.049450   5.202590   5.497621   6.412512
    20  H    2.735605   4.052030   5.205627   5.494685   6.421101
    21  H    3.150454   2.554951   3.995328   4.964586   4.775748
    22  H    3.149189   1.032170   2.105779   3.411246   2.553446
    23  H    2.231712   2.792904   2.164135   1.070076   3.388389
    24  H    4.785961   2.632255   2.159136   3.400554   1.083193
    25  H    6.288459   4.556229   3.397674   3.866505   2.128205
    26  C    4.884662   5.054696   3.845763   2.525887   4.336591
    27  C    6.769507   5.805130   4.370121   3.894959   3.781159
    28  F    7.177456   6.611645   5.179703   4.359839   4.879372
    29  F    7.471633   6.329478   4.952000   4.667802   4.178736
    30  F    7.460146   6.328021   4.951019   4.667053   4.178462
    31  F    4.263794   5.052776   4.138451   2.727588   4.997512
    32  F    5.795601   5.901508   4.667841   3.456536   4.995215
    33  F    5.781273   5.900937   4.667772   3.456209   4.996087
                   11         12         13         14         15
    11  C    0.000000
    12  C    1.403765   0.000000
    13  C    2.435917   1.429444   0.000000
    14  H   10.693910  11.168141  10.344336   0.000000
    15  H   10.070241  10.366968   9.407600   1.804760   0.000000
    16  H   10.061840  10.361943   9.407166   1.804647   1.810927
    17  H    8.559939   9.148664   8.472551   2.485542   2.505095
    18  H    8.550566   9.143319   8.472268   2.485189   3.089658
    19  H    7.604274   7.834196   6.871732   3.772590   3.128984
    20  H    7.612885   7.838755   6.870672   3.774043   2.554329
    21  H    6.149571   6.840534   6.329103   4.673009   4.510196
    22  H    3.941755   4.792141   4.580007   6.917747   6.570231
    23  H    3.852739   3.405880   2.132768   8.426104   7.391548
    24  H    2.129544   3.403457   3.898495   9.219198   8.851486
    25  H    1.083982   2.163109   3.426344  11.467069  10.935523
    26  C    3.855502   2.590864   1.522031  11.079491   9.983547
    27  C    2.473064   1.523424   2.633326  12.690663  11.869157
    28  F    3.694044   2.446064   2.947751  13.290225  12.338437
    29  F    2.870513   2.368071   3.539579  13.231464  12.397411
    30  F    2.870579   2.367911   3.539301  13.221080  12.546885
    31  F    4.849104   3.760123   2.417962  10.344898   9.136958
    32  F    4.339882   3.039978   2.378693  11.929778  10.734725
    33  F    4.340923   3.040562   2.378763  11.918949  10.909201
                   16         17         18         19         20
    16  H    0.000000
    17  H    3.089866   0.000000
    18  H    2.504044   1.807783   0.000000
    19  H    2.552284   3.091011   2.506451   0.000000
    20  H    3.131906   2.505707   3.091239   1.811404   0.000000
    21  H    4.507930   2.557360   2.554242   2.873548   2.874529
    22  H    6.565491   4.739989   4.734132   4.426274   4.430426
    23  H    7.397537   6.747759   6.754359   4.895905   4.885705
    24  H    8.840269   7.000677   6.987211   6.588735   6.600863
    25  H   10.924478   9.277511   9.265087   8.513134   8.524624
    26  C    9.987163   9.386237   9.390117   7.496956   7.491054
    27  C   11.863079  10.663292  10.656873   9.326399   9.332077
    28  F   12.335221  11.374649  11.371383   9.793880   9.796250
    29  F   12.552493  11.063936  11.237530  10.060935   9.864481
    30  F   12.375619  11.240383  11.049614   9.844609  10.056937
    31  F    9.145801   8.856248   8.865255   6.750269   6.737772
    32  F   10.927324  10.138292  10.341697   8.485261   8.234593
    33  F   10.722481  10.333190  10.136248   8.225920   8.466891
                   21         22         23         24         25
    21  H    0.000000
    22  H    2.259740   0.000000
    23  H    4.897247   3.801149   0.000000
    24  H    4.548663   2.309160   4.302102   0.000000
    25  H    6.840465   4.583782   4.936454   2.416425   0.000000
    26  C    7.438124   5.920547   2.664123   5.419702   4.747172
    27  C    8.346871   6.251910   4.757455   4.601913   2.637106
    28  F    9.163447   7.204618   4.998306   5.802546   4.000835
    29  F    8.805431   6.658986   5.565762   4.833577   2.706765
    30  F    8.803709   6.660953   5.565356   4.833292   2.707229
    31  F    7.167364   6.031509   2.292110   6.053309   5.841410
    32  F    8.285706   6.718768   3.637951   6.046283   5.092700
    33  F    8.284881   6.721851   3.637769   6.047240   5.093956
                   26         27         28         29         30
    26  C    0.000000
    27  C    3.151834   0.000000
    28  F    2.739430   1.377580   0.000000
    29  F    4.115348   1.383659   2.228518   0.000000
    30  F    4.115627   1.383679   2.228459   2.247240   0.000000
    31  F    1.384845   4.518435   4.094122   5.440672   5.441006
    32  F    1.383350   3.183259   2.510105   3.765030   4.390349
    33  F    1.383331   3.183609   2.509635   4.390282   3.766007
                   31         32         33
    31  F    0.000000
    32  F    2.229181   0.000000
    33  F    2.229198   2.267556   0.000000
 Stoichiometry    C12H12F6N2O
 Framework group  C1[X(C12H12F6N2O)]
 Deg. of freedom    93
 Full point group                 C1      NOp   1
 Largest Abelian subgroup         C1      NOp   1
 Largest concise Abelian subgroup C1      NOp   1
                         Standard orientation:                         
 ---------------------------------------------------------------------
 Center     Atomic      Atomic             Coordinates (Angstroms)
 Number     Number       Type             X           Y           Z
 ---------------------------------------------------------------------
      1          6           0       -7.803417    0.564264    0.015798
      2          6           0       -6.647111   -0.431213   -0.003014
      3          6           0       -5.293938    0.289259    0.005859
      4          7           0       -4.196781   -0.662897   -0.009040
      5          6           0       -2.894197   -0.260268   -0.003672
      6          8           0       -2.640512    0.933384    0.012988
      7          7           0       -1.899205   -1.201640   -0.014640
      8          6           0       -0.472880   -0.995289   -0.010258
      9          6           0        0.158741    0.269046   -0.009711
     10          6           0        0.343172   -2.132774   -0.006533
     11          6           0        1.728886   -2.028625   -0.000849
     12          6           0        2.371746   -0.780713    0.000633
     13          6           0        1.569008    0.402037   -0.004479
     14          1           0       -8.768053    0.014383    0.008826
     15          1           0       -7.761961    1.221390   -0.878908
     16          1           0       -7.758124    1.191235    0.931764
     17          1           0       -6.726518   -1.059380   -0.916964
     18          1           0       -6.722954   -1.088450    0.890582
     19          1           0       -5.220574    0.917597    0.920983
     20          1           0       -5.222686    0.944702   -0.890218
     21          1           0       -4.410338   -1.672720   -0.022976
     22          1           0       -2.209656   -2.185965   -0.024630
     23          1           0       -0.421357    1.168229   -0.014213
     24          1           0       -0.098680   -3.121750   -0.007089
     25          1           0        2.311103   -2.942970    0.002658
     26          6           0        2.166270    1.801986   -0.004623
     27          6           0        3.894225   -0.833935    0.007584
     28          9           0        4.516721    0.394976    0.008816
     29          9           0        4.326041   -1.521089   -1.113070
     30          9           0        4.315624   -1.517935    1.134143
     31          9           0        1.197169    2.791228   -0.010801
     32          9           0        2.942812    1.980572   -1.135440
     33          9           0        2.933052    1.985107    1.132090
 ---------------------------------------------------------------------
 Rotational constants (GHZ):      0.6778720      0.1150104      0.1023830
 General basis read from cards:  (6D, 7F)
 There are   423 symmetry adapted cartesian basis functions of A   symmetry.
 There are   423 symmetry adapted basis functions of A   symmetry.
   423 basis functions,   720 primitive gaussians,   423 cartesian basis functions
    80 alpha electrons       80 beta electrons
       nuclear repulsion energy      1752.3870866664 Hartrees.
 NAtoms=   33 NActive=   33 NUniq=   33 SFac= 1.00D+00 NAtFMM=   60 NAOKFM=F Big=F
 Integral buffers will be    131072 words long.
 Raffenetti 2 integral format.
 Two-electron integral symmetry is turned on.
 One-electron integrals computed using PRISM.
 NBasis=   423 RedAO= T EigKep=  1.01D-06  NBF=   423
 NBsUse=   422 1.00D-06 EigRej=  2.30D-07 NBFU=   422
 ExpMin= 4.38D-02 ExpMax= 7.00D+03 ExpMxC= 1.05D+03 IAcc=3 IRadAn=         5 AccDes= 0.00D+00
 Harris functional with IExCor= 1009 and IRadAn=       5 diagonalized for initial guess.
 HarFok:  IExCor= 1009 AccDes= 0.00D+00 IRadAn=         5 IDoV= 1 UseB2=F ITyADJ=14
 ICtDFT=  3500011 ScaDFX=  1.000000  1.000000  1.000000  1.000000
 FoFCou: FMM=F IPFlag=           0 FMFlag=      100000 FMFlg1=           0
         NFxFlg=           0 DoJE=T BraDBF=F KetDBF=T FulRan=T
         wScrn=  0.000000 ICntrl=     500 IOpCl=  0 I1Cent=   200000004 NGrid=           0
         NMat0=    1 NMatS0=      1 NMatT0=    0 NMatD0=    1 NMtDS0=    0 NMtDT0=    0
 Petite list used in FoFCou.
 Requested convergence on RMS density matrix=1.00D-08 within 128 cycles.
 Requested convergence on MAX density matrix=1.00D-06.
 Requested convergence on             energy=1.00D-06.
 No special actions if energy rises.
 SCF Done:  E(RM062X) =  -1247.89494565     A.U. after   16 cycles
            NFock= 16  Conv=0.57D-08     -V/T= 2.0087

 **********************************************************************

            Population analysis using the SCF density.

 **********************************************************************

 Orbital symmetries:
       Occupied  (A) (A) (A) (A) (A) (A) (A) (A) (A) (A) (A) (A)
                 (A) (A) (A) (A) (A) (A) (A) (A) (A) (A) (A) (A)
                 (A) (A) (A) (A) (A) (A) (A) (A) (A) (A) (A) (A)
                 (A) (A) (A) (A) (A) (A) (A) (A) (A) (A) (A) (A)
                 (A) (A) (A) (A) (A) (A) (A) (A) (A) (A) (A) (A)
                 (A) (A) (A) (A) (A) (A) (A) (A) (A) (A) (A) (A)
                 (A) (A) (A) (A) (A) (A) (A) (A)
       Virtual   (A) (A) (A) (A) (A) (A) (A) (A) (A) (A) (A) (A)
                 (A) (A) (A) (A) (A) (A) (A) (A) (A) (A) (A) (A)
                 (A) (A) (A) (A) (A) (A) (A) (A) (A) (A) (A) (A)
                 (A) (A) (A) (A) (A) (A) (A) (A) (A) (A) (A) (A)
                 (A) (A) (A) (A) (A) (A) (A) (A) (A) (A) (A) (A)
                 (A) (A) (A) (A) (A) (A) (A) (A) (A) (A) (A) (A)
                 (A) (A) (A) (A) (A) (A) (A) (A) (A) (A) (A) (A)
                 (A) (A) (A) (A) (A) (A) (A) (A) (A) (A) (A) (A)
                 (A) (A) (A) (A) (A) (A) (A) (A) (A) (A) (A) (A)
                 (A) (A) (A) (A) (A) (A) (A) (A) (A) (A) (A) (A)
                 (A) (A) (A) (A) (A) (A) (A) (A) (A) (A) (A) (A)
                 (A) (A) (A) (A) (A) (A) (A) (A) (A) (A) (A) (A)
                 (A) (A) (A) (A) (A) (A) (A) (A) (A) (A) (A) (A)
                 (A) (A) (A) (A) (A) (A) (A) (A) (A) (A) (A) (A)
                 (A) (A) (A) (A) (A) (A) (A) (A) (A) (A) (A) (A)
                 (A) (A) (A) (A) (A) (A) (A) (A) (A) (A) (A) (A)
                 (A) (A) (A) (A) (A) (A) (A) (A) (A) (A) (A) (A)
                 (A) (A) (A) (A) (A) (A) (A) (A) (A) (A) (A) (A)
                 (A) (A) (A) (A) (A) (A) (A) (A) (A) (A) (A) (A)
                 (A) (A) (A) (A) (A) (A) (A) (A) (A) (A) (A) (A)
                 (A) (A) (A) (A) (A) (A) (A) (A) (A) (A) (A) (A)
                 (A) (A) (A) (A) (A) (A) (A) (A) (A) (A) (A) (A)
                 (A) (A) (A) (A) (A) (A) (A) (A) (A) (A) (A) (A)
                 (A) (A) (A) (A) (A) (A) (A) (A) (A) (A) (A) (A)
                 (A) (A) (A) (A) (A) (A) (A) (A) (A) (A) (A) (A)
                 (A) (A) (A) (A) (A) (A) (A) (A) (A) (A) (A) (A)
                 (A) (A) (A) (A) (A) (A) (A) (A) (A) (A) (A) (A)
                 (A) (A) (A) (A) (A) (A) (A) (A) (A) (A) (A) (A)
                 (A) (A) (A) (A) (A) (A)
 The electronic state is 1-A.
 Alpha  occ. eigenvalues --  -25.30437 -25.30431 -25.30428 -25.30359 -25.30017
 Alpha  occ. eigenvalues --  -25.30014 -19.61771 -14.83397 -14.80805 -10.82891
 Alpha  occ. eigenvalues --  -10.82857 -10.69983 -10.64865 -10.62100 -10.61382
 Alpha  occ. eigenvalues --  -10.60165 -10.59877 -10.59502 -10.58940 -10.57327
 Alpha  occ. eigenvalues --  -10.55975  -1.44781  -1.44141  -1.36827  -1.36666
 Alpha  occ. eigenvalues --   -1.36356  -1.36108  -1.19483  -1.07305  -1.04619
 Alpha  occ. eigenvalues --   -0.99881  -0.91472  -0.90381  -0.89358  -0.83059
 Alpha  occ. eigenvalues --   -0.81191  -0.78938  -0.74623  -0.73744  -0.70104
 Alpha  occ. eigenvalues --   -0.69786  -0.68427  -0.68199  -0.67816  -0.67594
 Alpha  occ. eigenvalues --   -0.67363  -0.65667  -0.64352  -0.60428  -0.57631
 Alpha  occ. eigenvalues --   -0.57122  -0.57071  -0.56737  -0.56405  -0.56288
 Alpha  occ. eigenvalues --   -0.55299  -0.54847  -0.54027  -0.53449  -0.52805
 Alpha  occ. eigenvalues --   -0.52644  -0.52165  -0.51762  -0.51080  -0.50814
 Alpha  occ. eigenvalues --   -0.50410  -0.49180  -0.48977  -0.48221  -0.46506
 Alpha  occ. eigenvalues --   -0.45363  -0.44628  -0.44183  -0.41934  -0.41885
 Alpha  occ. eigenvalues --   -0.39806  -0.35521  -0.34553  -0.33474  -0.30445
 Alpha virt. eigenvalues --   -0.03024  -0.01882  -0.01440   0.01095   0.02062
 Alpha virt. eigenvalues --    0.02822   0.03148   0.03286   0.04418   0.04834
 Alpha virt. eigenvalues --    0.05017   0.05304   0.05997   0.06480   0.06626
 Alpha virt. eigenvalues --    0.07179   0.07363   0.07913   0.08350   0.08636
 Alpha virt. eigenvalues --    0.08728   0.09279   0.09435   0.10856   0.11172
 Alpha virt. eigenvalues --    0.11567   0.11921   0.12115   0.12440   0.13275
 Alpha virt. eigenvalues --    0.13392   0.13664   0.14016   0.14704   0.15156
 Alpha virt. eigenvalues --    0.15646   0.15869   0.16802   0.17031   0.17646
 Alpha virt. eigenvalues --    0.18240   0.18731   0.19098   0.19663   0.20095
 Alpha virt. eigenvalues --    0.20317   0.20372   0.20984   0.21061   0.21142
 Alpha virt. eigenvalues --    0.21680   0.22156   0.22642   0.23252   0.23385
 Alpha virt. eigenvalues --    0.23555   0.23745   0.24193   0.24825   0.24924
 Alpha virt. eigenvalues --    0.25150   0.25895   0.26342   0.26824   0.27280
 Alpha virt. eigenvalues --    0.27711   0.28191   0.28586   0.29170   0.29646
 Alpha virt. eigenvalues --    0.29822   0.30484   0.30838   0.30894   0.31227
 Alpha virt. eigenvalues --    0.31836   0.32178   0.32233   0.33189   0.33924
 Alpha virt. eigenvalues --    0.34081   0.34647   0.34843   0.36145   0.36864
 Alpha virt. eigenvalues --    0.37331   0.37930   0.38189   0.38376   0.39157
 Alpha virt. eigenvalues --    0.39606   0.40092   0.40210   0.40722   0.41304
 Alpha virt. eigenvalues --    0.41806   0.42215   0.43029   0.43258   0.44312
 Alpha virt. eigenvalues --    0.44383   0.44642   0.45362   0.46198   0.47024
 Alpha virt. eigenvalues --    0.47352   0.47850   0.48916   0.50002   0.51445
 Alpha virt. eigenvalues --    0.51918   0.52354   0.53061   0.54119   0.54429
 Alpha virt. eigenvalues --    0.57564   0.58711   0.60442   0.63075   0.65873
 Alpha virt. eigenvalues --    0.67482   0.67711   0.69571   0.71790   0.72288
 Alpha virt. eigenvalues --    0.73591   0.74045   0.75059   0.75349   0.75706
 Alpha virt. eigenvalues --    0.77836   0.77885   0.79241   0.80140   0.80999
 Alpha virt. eigenvalues --    0.81631   0.82688   0.84568   0.84605   0.86132
 Alpha virt. eigenvalues --    0.86749   0.87219   0.87303   0.88121   0.90207
 Alpha virt. eigenvalues --    0.90874   0.91163   0.93206   0.94921   0.96108
 Alpha virt. eigenvalues --    0.97364   0.98233   1.00480   1.01375   1.02311
 Alpha virt. eigenvalues --    1.03410   1.03850   1.04535   1.08423   1.09036
 Alpha virt. eigenvalues --    1.09077   1.10362   1.10924   1.12916   1.13972
 Alpha virt. eigenvalues --    1.15360   1.16428   1.17372   1.19026   1.20139
 Alpha virt. eigenvalues --    1.20334   1.21202   1.23530   1.24837   1.27638
 Alpha virt. eigenvalues --    1.27966   1.29566   1.29853   1.32037   1.34412
 Alpha virt. eigenvalues --    1.34919   1.37535   1.38069   1.40313   1.41671
 Alpha virt. eigenvalues --    1.43014   1.43396   1.45159   1.47230   1.47584
 Alpha virt. eigenvalues --    1.48042   1.50241   1.51659   1.52751   1.54380
 Alpha virt. eigenvalues --    1.56012   1.56710   1.58565   1.63053   1.63693
 Alpha virt. eigenvalues --    1.64546   1.65752   1.65994   1.67443   1.68114
 Alpha virt. eigenvalues --    1.69008   1.69853   1.73302   1.73369   1.73751
 Alpha virt. eigenvalues --    1.74218   1.75620   1.76097   1.76778   1.77470
 Alpha virt. eigenvalues --    1.77684   1.78968   1.79691   1.80819   1.81463
 Alpha virt. eigenvalues --    1.82392   1.82504   1.83654   1.85425   1.85870
 Alpha virt. eigenvalues --    1.86265   1.86781   1.87157   1.87500   1.88124
 Alpha virt. eigenvalues --    1.88168   1.89344   1.89470   1.89646   1.90608
 Alpha virt. eigenvalues --    1.91146   1.91916   1.92670   1.93357   1.95852
 Alpha virt. eigenvalues --    1.96717   1.96868   1.97241   1.98323   2.00474
 Alpha virt. eigenvalues --    2.01656   2.01822   2.02933   2.03336   2.03967
 Alpha virt. eigenvalues --    2.04201   2.04924   2.05811   2.07360   2.07537
 Alpha virt. eigenvalues --    2.08206   2.09255   2.09364   2.10299   2.12249
 Alpha virt. eigenvalues --    2.13848   2.14526   2.15070   2.15991   2.18420
 Alpha virt. eigenvalues --    2.18800   2.19943   2.22616   2.23739   2.24577
 Alpha virt. eigenvalues --    2.25264   2.27052   2.29077   2.29151   2.30801
 Alpha virt. eigenvalues --    2.33953   2.34189   2.35964   2.36849   2.37866
 Alpha virt. eigenvalues --    2.38041   2.39907   2.41466   2.43223   2.45077
 Alpha virt. eigenvalues --    2.48658   2.53395   2.54454   2.55644   2.55674
 Alpha virt. eigenvalues --    2.62127   2.62242   2.64100   2.64349   2.67320
 Alpha virt. eigenvalues --    2.70224   2.72633   2.73297   2.75072   2.75964
 Alpha virt. eigenvalues --    2.78011   2.79688   2.79992   2.83006   2.84015
 Alpha virt. eigenvalues --    2.87131   2.89431   2.92509   2.99248   3.02207
 Alpha virt. eigenvalues --    3.10668   3.13726   3.14419   3.18154   3.25838
 Alpha virt. eigenvalues --    3.27557   3.28982   3.29716   3.34319   3.39354
 Alpha virt. eigenvalues --    3.40998   4.13399   4.23976   4.25977   4.31504
 Alpha virt. eigenvalues --    4.34526   4.39960   4.40244   4.43255   4.46831
 Alpha virt. eigenvalues --    4.49493   4.56493   4.60628   4.63008   4.68805
 Alpha virt. eigenvalues --    4.80440   5.41988   5.88026   6.23241   6.42129
 Alpha virt. eigenvalues --    6.92987   7.12257
          Condensed to atoms (all electrons):
               1          2          3          4          5          6
     1  C    5.540710   0.010532  -0.013909  -0.005655  -0.023715  -0.002503
     2  C    0.010532   6.141543  -0.405221  -0.084869   0.127944   0.020074
     3  C   -0.013909  -0.405221   6.808301   0.371889  -0.522266  -0.101671
     4  N   -0.005655  -0.084869   0.371889   7.739766   0.364788  -0.203475
     5  C   -0.023715   0.127944  -0.522266   0.364788   6.509869   0.653898
     6  O   -0.002503   0.020074  -0.101671  -0.203475   0.653898   8.269591
     7  N   -0.001757   0.020816  -0.147324  -0.438303   0.063077  -0.065360
     8  C   -0.006763   0.021068  -0.412460  -0.248804  -1.344979  -0.455950
     9  C    0.000320  -0.003286   0.013203   0.088111   0.910134   0.490885
    10  C   -0.001443   0.007530  -0.076056  -0.118418  -1.430048  -0.109596
    11  C    0.000008  -0.000815   0.010190   0.013524   0.143230   0.008377
    12  C   -0.000301   0.001322  -0.051399  -0.021726  -0.522914  -0.007129
    13  C    0.000404  -0.001059   0.015539   0.033383   0.207563   0.070613
    14  H    0.410513  -0.084226   0.027018   0.000560  -0.002610   0.000009
    15  H    0.416758  -0.065733  -0.007162   0.000552   0.000203  -0.000061
    16  H    0.417134  -0.066143  -0.007232   0.000544   0.000319  -0.000062
    17  H   -0.028365   0.412999  -0.076129   0.007431  -0.003769  -0.000237
    18  H   -0.028340   0.412798  -0.074872   0.007503  -0.004816  -0.000238
    19  H    0.005981  -0.056159   0.427513  -0.057466  -0.009097   0.000800
    20  H    0.004947  -0.055178   0.423316  -0.057064  -0.005843   0.000682
    21  H   -0.002028   0.002877  -0.096056   0.226202   0.043470   0.008559
    22  H   -0.000138  -0.000029   0.000633   0.026430  -0.025612   0.007004
    23  H   -0.000001  -0.000005   0.000912   0.000310  -0.008409   0.001686
    24  H   -0.000000  -0.000001  -0.000148   0.001309  -0.004493   0.000025
    25  H    0.000000   0.000000   0.000031   0.000011   0.003646  -0.000000
    26  C    0.000120  -0.000264   0.015576   0.011354   0.186054   0.006170
    27  C   -0.000017   0.000102  -0.004475  -0.000640  -0.193682   0.000369
    28  F    0.000000   0.000000   0.000004   0.000001   0.000659   0.000003
    29  F   -0.000000   0.000000  -0.000001  -0.000000   0.000014  -0.000001
    30  F   -0.000000   0.000000  -0.000001  -0.000000   0.000070  -0.000001
    31  F   -0.000000   0.000012  -0.000057  -0.000028  -0.001125  -0.000654
    32  F    0.000000  -0.000001   0.000001   0.000003  -0.000081   0.000004
    33  F    0.000000  -0.000001   0.000004   0.000003   0.000168   0.000006
               7          8          9         10         11         12
     1  C   -0.001757  -0.006763   0.000320  -0.001443   0.000008  -0.000301
     2  C    0.020816   0.021068  -0.003286   0.007530  -0.000815   0.001322
     3  C   -0.147324  -0.412460   0.013203  -0.076056   0.010190  -0.051399
     4  N   -0.438303  -0.248804   0.088111  -0.118418   0.013524  -0.021726
     5  C    0.063077  -1.344979   0.910134  -1.430048   0.143230  -0.522914
     6  O   -0.065360  -0.455950   0.490885  -0.109596   0.008377  -0.007129
     7  N    7.874731  -0.091254  -0.276882   0.348169   0.038327  -0.026492
     8  C   -0.091254  19.004305  -4.406700   1.206014   0.183861  -1.368351
     9  C   -0.276882  -4.406700  15.968428  -7.427091   0.661683  -2.700365
    10  C    0.348169   1.206014  -7.427091  18.177213  -2.243081  -1.468747
    11  C    0.038327   0.183861   0.661683  -2.243081  18.328993   2.114292
    12  C   -0.026492  -1.368351  -2.700365  -1.468747   2.114292  29.658645
    13  C    0.094145  -4.274043   1.300101   0.000686 -11.500673 -12.332927
    14  H    0.000010  -0.000048   0.000002  -0.000001   0.000000  -0.000000
    15  H    0.000011  -0.000005  -0.000033  -0.000001   0.000000  -0.000000
    16  H    0.000014  -0.000002  -0.000028  -0.000002   0.000000  -0.000000
    17  H    0.000123  -0.000639  -0.000101   0.000017   0.000005  -0.000004
    18  H    0.000038  -0.000664  -0.000169   0.000013   0.000007  -0.000006
    19  H    0.000558  -0.005652   0.004002  -0.001239  -0.000003   0.000007
    20  H    0.000497  -0.005207   0.004220  -0.001137  -0.000013   0.000034
    21  H    0.036418   0.021916   0.001468   0.000812  -0.000215   0.000511
    22  H    0.224618  -0.025783   0.088292  -0.105133   0.036565   0.004238
    23  H   -0.017115   0.092060   0.285154   0.072471  -0.045429  -0.059349
    24  H   -0.012787   0.080116   0.060512   0.138741   0.038481  -0.037620
    25  H    0.000455  -0.028200  -0.016325  -0.068906   0.171448   0.135660
    26  C    0.010168  -1.592782   1.147986   0.538551  -0.416351  -2.889329
    27  C   -0.016907  -0.458318  -1.212781  -0.303010  -1.854783  -3.001982
    28  F    0.000034   0.020652   0.067471  -0.003770   0.045910  -0.006585
    29  F   -0.000000   0.004790  -0.004672   0.030309  -0.082868   0.271918
    30  F   -0.000003   0.005435  -0.003646   0.029314  -0.081245   0.273753
    31  F   -0.001258   0.136968   0.054710   0.004877   0.013765   0.051410
    32  F    0.000159   0.029754  -0.005405  -0.008151  -0.000736  -0.167653
    33  F    0.000173   0.030339  -0.002707  -0.009394   0.000184  -0.169506
              13         14         15         16         17         18
     1  C    0.000404   0.410513   0.416758   0.417134  -0.028365  -0.028340
     2  C   -0.001059  -0.084226  -0.065733  -0.066143   0.412999   0.412798
     3  C    0.015539   0.027018  -0.007162  -0.007232  -0.076129  -0.074872
     4  N    0.033383   0.000560   0.000552   0.000544   0.007431   0.007503
     5  C    0.207563  -0.002610   0.000203   0.000319  -0.003769  -0.004816
     6  O    0.070613   0.000009  -0.000061  -0.000062  -0.000237  -0.000238
     7  N    0.094145   0.000010   0.000011   0.000014   0.000123   0.000038
     8  C   -4.274043  -0.000048  -0.000005  -0.000002  -0.000639  -0.000664
     9  C    1.300101   0.000002  -0.000033  -0.000028  -0.000101  -0.000169
    10  C    0.000686  -0.000001  -0.000001  -0.000002   0.000017   0.000013
    11  C  -11.500673   0.000000   0.000000   0.000000   0.000005   0.000007
    12  C  -12.332927  -0.000000  -0.000000  -0.000000  -0.000004  -0.000006
    13  C   32.658434  -0.000000   0.000001   0.000001   0.000005   0.000003
    14  H   -0.000000   0.489726  -0.023946  -0.023968  -0.003072  -0.003075
    15  H    0.000001  -0.023946   0.491849  -0.027726  -0.004850   0.003956
    16  H    0.000001  -0.023968  -0.027726   0.491869   0.003951  -0.004861
    17  H    0.000005  -0.003072  -0.004850   0.003951   0.511395  -0.034061
    18  H    0.000003  -0.003075   0.003956  -0.004861  -0.034061   0.511656
    19  H    0.000250  -0.000060  -0.000334   0.002718   0.003892  -0.005369
    20  H    0.000303  -0.000061   0.002708  -0.000329  -0.005387   0.003892
    21  H   -0.000739  -0.000003   0.000001   0.000001   0.001026   0.001026
    22  H    0.002546  -0.000000  -0.000000  -0.000000   0.000002   0.000002
    23  H   -0.029825  -0.000000  -0.000000  -0.000000  -0.000000  -0.000000
    24  H    0.019202   0.000000  -0.000000  -0.000000   0.000000   0.000000
    25  H    0.147115  -0.000000   0.000000   0.000000  -0.000000  -0.000000
    26  C   -1.864149   0.000000   0.000000   0.000000   0.000000   0.000000
    27  C    2.435260  -0.000000  -0.000000  -0.000000  -0.000000  -0.000000
    28  F   -0.086575  -0.000000  -0.000000  -0.000000  -0.000000  -0.000000
    29  F   -0.125002  -0.000000  -0.000000  -0.000000  -0.000000  -0.000000
    30  F   -0.125174  -0.000000  -0.000000  -0.000000  -0.000000  -0.000000
    31  F   -0.274350   0.000000   0.000000   0.000000  -0.000000  -0.000000
    32  F    0.236128  -0.000000   0.000000   0.000000   0.000000   0.000000
    33  F    0.235184  -0.000000   0.000000   0.000000   0.000000   0.000000
              19         20         21         22         23         24
     1  C    0.005981   0.004947  -0.002028  -0.000138  -0.000001  -0.000000
     2  C   -0.056159  -0.055178   0.002877  -0.000029  -0.000005  -0.000001
     3  C    0.427513   0.423316  -0.096056   0.000633   0.000912  -0.000148
     4  N   -0.057466  -0.057064   0.226202   0.026430   0.000310   0.001309
     5  C   -0.009097  -0.005843   0.043470  -0.025612  -0.008409  -0.004493
     6  O    0.000800   0.000682   0.008559   0.007004   0.001686   0.000025
     7  N    0.000558   0.000497   0.036418   0.224618  -0.017115  -0.012787
     8  C   -0.005652  -0.005207   0.021916  -0.025783   0.092060   0.080116
     9  C    0.004002   0.004220   0.001468   0.088292   0.285154   0.060512
    10  C   -0.001239  -0.001137   0.000812  -0.105133   0.072471   0.138741
    11  C   -0.000003  -0.000013  -0.000215   0.036565  -0.045429   0.038481
    12  C    0.000007   0.000034   0.000511   0.004238  -0.059349  -0.037620
    13  C    0.000250   0.000303  -0.000739   0.002546  -0.029825   0.019202
    14  H   -0.000060  -0.000061  -0.000003  -0.000000  -0.000000   0.000000
    15  H   -0.000334   0.002708   0.000001  -0.000000  -0.000000  -0.000000
    16  H    0.002718  -0.000329   0.000001  -0.000000  -0.000000  -0.000000
    17  H    0.003892  -0.005387   0.001026   0.000002  -0.000000   0.000000
    18  H   -0.005369   0.003892   0.001026   0.000002  -0.000000   0.000000
    19  H    0.491854  -0.034716   0.002796   0.000005  -0.000001   0.000000
    20  H   -0.034716   0.491776   0.002791   0.000005  -0.000001   0.000000
    21  H    0.002796   0.002791   0.346709   0.002587  -0.000001   0.000005
    22  H    0.000005   0.000005   0.002587   0.346062  -0.000138   0.006780
    23  H   -0.000001  -0.000001  -0.000001  -0.000138   0.392883  -0.000113
    24  H    0.000000   0.000000   0.000005   0.006780  -0.000113   0.496299
    25  H   -0.000000  -0.000000  -0.000000  -0.000009   0.000011  -0.004115
    26  C   -0.000010  -0.000014  -0.000075   0.000681  -0.011137   0.004972
    27  C   -0.000001  -0.000000   0.000011   0.001368   0.008334   0.003941
    28  F   -0.000000  -0.000000  -0.000000  -0.000000   0.000042   0.000012
    29  F    0.000000  -0.000000   0.000000   0.000000   0.000010   0.000008
    30  F   -0.000000   0.000000   0.000000   0.000000   0.000010   0.000008
    31  F    0.000000   0.000000   0.000000  -0.000001   0.008708  -0.000002
    32  F   -0.000000   0.000000  -0.000000  -0.000000  -0.000137   0.000001
    33  F    0.000000  -0.000000  -0.000000  -0.000000  -0.000142   0.000001
              25         26         27         28         29         30
     1  C    0.000000   0.000120  -0.000017   0.000000  -0.000000  -0.000000
     2  C    0.000000  -0.000264   0.000102   0.000000   0.000000   0.000000
     3  C    0.000031   0.015576  -0.004475   0.000004  -0.000001  -0.000001
     4  N    0.000011   0.011354  -0.000640   0.000001  -0.000000  -0.000000
     5  C    0.003646   0.186054  -0.193682   0.000659   0.000014   0.000070
     6  O   -0.000000   0.006170   0.000369   0.000003  -0.000001  -0.000001
     7  N    0.000455   0.010168  -0.016907   0.000034  -0.000000  -0.000003
     8  C   -0.028200  -1.592782  -0.458318   0.020652   0.004790   0.005435
     9  C   -0.016325   1.147986  -1.212781   0.067471  -0.004672  -0.003646
    10  C   -0.068906   0.538551  -0.303010  -0.003770   0.030309   0.029314
    11  C    0.171448  -0.416351  -1.854783   0.045910  -0.082868  -0.081245
    12  C    0.135660  -2.889329  -3.001982  -0.006585   0.271918   0.273753
    13  C    0.147115  -1.864149   2.435260  -0.086575  -0.125002  -0.125174
    14  H   -0.000000   0.000000  -0.000000  -0.000000  -0.000000  -0.000000
    15  H    0.000000   0.000000  -0.000000  -0.000000  -0.000000  -0.000000
    16  H    0.000000   0.000000  -0.000000  -0.000000  -0.000000  -0.000000
    17  H   -0.000000   0.000000  -0.000000  -0.000000  -0.000000  -0.000000
    18  H   -0.000000   0.000000  -0.000000  -0.000000  -0.000000  -0.000000
    19  H   -0.000000  -0.000010  -0.000001  -0.000000   0.000000  -0.000000
    20  H   -0.000000  -0.000014  -0.000000  -0.000000  -0.000000   0.000000
    21  H   -0.000000  -0.000075   0.000011  -0.000000   0.000000   0.000000
    22  H   -0.000009   0.000681   0.001368  -0.000000   0.000000   0.000000
    23  H    0.000011  -0.011137   0.008334   0.000042   0.000010   0.000010
    24  H   -0.004115   0.004972   0.003941   0.000012   0.000008   0.000008
    25  H    0.451322   0.009152  -0.049995   0.000616  -0.000405  -0.000413
    26  C    0.009152  11.238027  -2.335317   0.185925   0.011764   0.012219
    27  C   -0.049995  -2.335317  11.301300  -0.093522   0.031117   0.026835
    28  F    0.000616   0.185925  -0.093522   9.268840  -0.035676  -0.035720
    29  F   -0.000405   0.011764   0.031117  -0.035676   9.211259  -0.050757
    30  F   -0.000413   0.012219   0.026835  -0.035720  -0.050757   9.211166
    31  F    0.000009   0.129959   0.007830   0.000344  -0.000006  -0.000006
    32  F    0.000002  -0.000767   0.064132  -0.011619  -0.000835   0.000186
    33  F    0.000002   0.000872   0.061974  -0.011695   0.000184  -0.000840
              31         32         33
     1  C   -0.000000   0.000000   0.000000
     2  C    0.000012  -0.000001  -0.000001
     3  C   -0.000057   0.000001   0.000004
     4  N   -0.000028   0.000003   0.000003
     5  C   -0.001125  -0.000081   0.000168
     6  O   -0.000654   0.000004   0.000006
     7  N   -0.001258   0.000159   0.000173
     8  C    0.136968   0.029754   0.030339
     9  C    0.054710  -0.005405  -0.002707
    10  C    0.004877  -0.008151  -0.009394
    11  C    0.013765  -0.000736   0.000184
    12  C    0.051410  -0.167653  -0.169506
    13  C   -0.274350   0.236128   0.235184
    14  H    0.000000  -0.000000  -0.000000
    15  H    0.000000   0.000000   0.000000
    16  H    0.000000   0.000000   0.000000
    17  H   -0.000000   0.000000   0.000000
    18  H   -0.000000   0.000000   0.000000
    19  H    0.000000  -0.000000   0.000000
    20  H    0.000000   0.000000  -0.000000
    21  H    0.000000  -0.000000  -0.000000
    22  H   -0.000001  -0.000000  -0.000000
    23  H    0.008708  -0.000137  -0.000142
    24  H   -0.000002   0.000001   0.000001
    25  H    0.000009   0.000002   0.000002
    26  C    0.129959  -0.000767   0.000872
    27  C    0.007830   0.064132   0.061974
    28  F    0.000344  -0.011619  -0.011695
    29  F   -0.000006  -0.000835   0.000184
    30  F   -0.000006   0.000186  -0.000840
    31  F    9.264718  -0.034118  -0.034242
    32  F   -0.034118   9.200885  -0.046527
    33  F   -0.034242  -0.046527   9.201063
 Mulliken charges:
               1
     1  C   -0.692492
     2  C   -0.356626
     3  C   -0.117689
     4  N   -0.657226
     5  C    0.888355
     6  O   -0.591818
     7  N   -0.617097
     8  C   -0.110672
     9  C    0.913509
    10  C   -1.179492
    11  C    0.417361
    12  C   -1.679404
    13  C   -0.842349
    14  H    0.213233
    15  H    0.213813
    16  H    0.213802
    17  H    0.215765
    18  H    0.215577
    19  H    0.229732
    20  H    0.229779
    21  H    0.399931
    22  H    0.409023
    23  H    0.309211
    24  H    0.208865
    25  H    0.248888
    26  C    1.600644
    27  C    1.582858
    28  F   -0.305348
    29  F   -0.261148
    30  F   -0.261191
    31  F   -0.327463
    32  F   -0.255226
    33  F   -0.255105
 Sum of Mulliken charges =  -0.00000
 Mulliken charges with hydrogens summed into heavy atoms:
               1
     1  C   -0.051644
     2  C    0.074716
     3  C    0.341822
     4  N   -0.257295
     5  C    0.888355
     6  O   -0.591818
     7  N   -0.208074
     8  C   -0.110672
     9  C    1.222721
    10  C   -0.970626
    11  C    0.666250
    12  C   -1.679404
    13  C   -0.842349
    26  C    1.600644
    27  C    1.582858
    28  F   -0.305348
    29  F   -0.261148
    30  F   -0.261191
    31  F   -0.327463
    32  F   -0.255226
    33  F   -0.255105
 Electronic spatial extent (au):  <R**2>=           9833.2827
 Charge=             -0.0000 electrons
 Dipole moment (field-independent basis, Debye):
    X=             -7.1593    Y=             -6.0490    Z=             -0.0586  Tot=              9.3728
 Quadrupole moment (field-independent basis, Debye-Ang):
   XX=           -110.8072   YY=           -114.5223   ZZ=           -124.5771
   XY=              8.8622   XZ=              0.1305   YZ=              0.0473
 Traceless Quadrupole moment (field-independent basis, Debye-Ang):
   XX=              5.8283   YY=              2.1133   ZZ=             -7.9416
   XY=              8.8622   XZ=              0.1305   YZ=              0.0473
 Octapole moment (field-independent basis, Debye-Ang**2):
  XXX=           -130.0009  YYY=            -18.3238  ZZZ=              0.2241  XYY=             14.3347
  XXY=            -23.9933  XXZ=             -0.3739  XZZ=             25.7027  YZZ=             15.2901
  YYZ=             -0.2538  XYZ=             -0.1116
 Hexadecapole moment (field-independent basis, Debye-Ang**3):
 XXXX=          -9760.6281 YYYY=          -1367.3516 ZZZZ=           -292.4367 XXXY=            178.5551
 XXXZ=              1.7211 YYYX=             60.2099 YYYZ=              0.1495 ZZZX=              0.0801
 ZZZY=             -0.2513 XXYY=          -1970.0125 XXZZ=          -1820.9274 YYZZ=           -305.9901
 XXYZ=              0.2983 YYXZ=              1.3272 ZZXY=              6.9251
 N-N= 1.752387086666D+03 E-N=-6.436544979786D+03  KE= 1.237100726048D+03
 Calling FoFJK, ICntrl=      2127 FMM=F ISym2X=0 I1Cent= 0 IOpClX= 0 NMat=1 NMatS=1 NMatT=0.
 ***** Axes restored to original set *****
 -------------------------------------------------------------------
 Center     Atomic                   Forces (Hartrees/Bohr)
 Number     Number              X              Y              Z
 -------------------------------------------------------------------
      1        6          -0.006105227    0.001252594   -0.000251164
      2        6           0.005396386   -0.005421406    0.000643500
      3        6          -0.005916986    0.006865578   -0.000727526
      4        7           0.012147358   -0.037656425    0.003890972
      5        6          -0.014157310    0.030401767   -0.003112769
      6        8           0.003257940    0.011221045   -0.001136630
      7        7           0.026546774   -0.025524081    0.003117946
      8        6          -0.014857510    0.000850121   -0.000499384
      9        6           0.014285143    0.001285896    0.000267954
     10        6           0.000149702    0.002063620   -0.000169967
     11        6          -0.004154034    0.009204157   -0.001222925
     12        6          -0.007626755    0.012642841   -0.001693341
     13        6          -0.003245359   -0.025543997    0.002737512
     14        1           0.006038535    0.009560876   -0.000771333
     15        1          -0.001143473   -0.003997366    0.009960941
     16        1          -0.000650919   -0.005810261   -0.009105845
     17        1           0.000631197    0.004037002    0.008390530
     18        1           0.001110578    0.002377293   -0.008947406
     19        1           0.002048594   -0.004217617   -0.010031691
     20        1           0.001523413   -0.002265532    0.010735896
     21        1          -0.004406795    0.016875984   -0.001772686
     22        1           0.006830780    0.016075070   -0.001391246
     23        1          -0.009120232    0.003096124   -0.000558229
     24        1          -0.001457835   -0.002620207    0.000253527
     25        1           0.002705796    0.001264367   -0.000045510
     26        6           0.001233747    0.012478597   -0.001318770
     27        6           0.007548100    0.008929326   -0.000685287
     28        9          -0.002657529   -0.043684111    0.004732114
     29        9          -0.007100054    0.016937753    0.029375924
     30        9          -0.004846829    0.010040674   -0.032801512
     31        9           0.035898924   -0.019472524    0.003448575
     32        9          -0.021134158    0.003102282    0.032734096
     33        9          -0.018771963   -0.004349443   -0.034046263
 -------------------------------------------------------------------
 Cartesian Forces:  Max     0.043684111 RMS     0.012990031

 GradGradGradGradGradGradGradGradGradGradGradGradGradGradGradGradGradGrad
 Berny optimization.
 FormGI is forming the generalized inverse of G from B-inverse, IUseBI=4.
 GSVD:  received Info=                   1 from GESDD.
 Internal  Forces:  Max     0.043354948 RMS     0.010098825
 Search for a local minimum.
 Step number   1 out of a maximum of  172
 All quantities printed in internal units (Hartrees-Bohrs-Radians)
 Mixed Optimization -- RFO/linear search
 Second derivative matrix not updated -- first step.
 ITU=  0
     Eigenvalues ---    0.00329   0.00423   0.00456   0.00475   0.00994
     Eigenvalues ---    0.01147   0.01249   0.01299   0.01467   0.01620
     Eigenvalues ---    0.01727   0.01803   0.01892   0.01970   0.02091
     Eigenvalues ---    0.02115   0.02121   0.02133   0.02165   0.02176
     Eigenvalues ---    0.03755   0.04435   0.04933   0.05553   0.05673
     Eigenvalues ---    0.05783   0.08033   0.09179   0.10331   0.10838
     Eigenvalues ---    0.11121   0.11402   0.11975   0.12669   0.16000
     Eigenvalues ---    0.16000   0.16000   0.16000   0.16000   0.16000
     Eigenvalues ---    0.16000   0.16000   0.21964   0.22000   0.22000
     Eigenvalues ---    0.22004   0.22360   0.23482   0.24591   0.25000
     Eigenvalues ---    0.25000   0.25000   0.25000   0.25000   0.25000
     Eigenvalues ---    0.25000   0.25000   0.25000   0.25000   0.25000
     Eigenvalues ---    0.29144   0.29805   0.30039   0.30172   0.32337
     Eigenvalues ---    0.32338   0.32404   0.32405   0.32503   0.32508
     Eigenvalues ---    0.32560   0.35518   0.35611   0.37220   0.37883
     Eigenvalues ---    0.39392   0.39424   0.40328   0.42440   0.42452
     Eigenvalues ---    0.42703   0.44384   0.44843   0.46670   0.48227
     Eigenvalues ---    0.48436   0.48439   0.48495   0.48498   0.49547
     Eigenvalues ---    0.51018   0.52266   0.95195
 RFO step:  Lambda=-3.93725128D-02 EMin= 3.28787594D-03
 Linear search not attempted -- first point.
 Maximum step size (   0.300) exceeded in Quadratic search.
    -- Step size scaled by   0.943
 Iteration  1 RMS(Cart)=  0.07519444 RMS(Int)=  0.00129328
 Iteration  2 RMS(Cart)=  0.00219174 RMS(Int)=  0.00022684
 Iteration  3 RMS(Cart)=  0.00000390 RMS(Int)=  0.00022682
 Iteration  4 RMS(Cart)=  0.00000000 RMS(Int)=  0.00022682
 Variable       Old X    -DE/DX   Delta X   Delta X   Delta X     New X
                                 (Linear)    (Quad)   (Total)
    R1        2.88353   0.00212   0.00000   0.00593   0.00593   2.88946
    R2        2.09831  -0.01097   0.00000  -0.02833  -0.02833   2.06998
    R3        2.09924  -0.01052   0.00000  -0.02721  -0.02721   2.07202
    R4        2.09933  -0.01055   0.00000  -0.02729  -0.02729   2.07204
    R5        2.89704  -0.00528   0.00000  -0.01504  -0.01504   2.88200
    R6        2.10109  -0.00889   0.00000  -0.02308  -0.02308   2.07801
    R7        2.10110  -0.00888   0.00000  -0.02304  -0.02304   2.07807
    R8        2.74536  -0.00150   0.00000  -0.00339  -0.00339   2.74197
    R9        2.10231  -0.01049   0.00000  -0.02727  -0.02727   2.07504
   R10        2.10230  -0.01051   0.00000  -0.02731  -0.02731   2.07499
   R11        2.57646   0.00024   0.00000   0.00041   0.00041   2.57686
   R12        1.95067  -0.01708   0.00000  -0.03472  -0.03472   1.91595
   R13        2.30627   0.01119   0.00000   0.01065   0.01065   2.31692
   R14        2.58852   0.01185   0.00000   0.02033   0.02033   2.60885
   R15        2.72344  -0.03590   0.00000  -0.07807  -0.07807   2.64537
   R16        1.95052  -0.01658   0.00000  -0.03370  -0.03370   1.91682
   R17        2.67080  -0.01661   0.00000  -0.03324  -0.03323   2.63756
   R18        2.64550  -0.00603   0.00000  -0.01067  -0.01069   2.63481
   R19        2.67686  -0.02081   0.00000  -0.04283  -0.04280   2.63406
   R20        2.02215   0.00876   0.00000   0.02007   0.02007   2.04222
   R21        2.62603  -0.00618   0.00000  -0.01042  -0.01045   2.61558
   R22        2.04694   0.00286   0.00000   0.00681   0.00681   2.05375
   R23        2.65273  -0.01094   0.00000  -0.02086  -0.02087   2.63186
   R24        2.04843   0.00107   0.00000   0.00255   0.00255   2.05098
   R25        2.70126  -0.01707   0.00000  -0.03661  -0.03660   2.66466
   R26        2.87885  -0.00847   0.00000  -0.02349  -0.02349   2.85536
   R27        2.87622  -0.00863   0.00000  -0.02386  -0.02386   2.85236
   R28        2.61698  -0.04091   0.00000  -0.07396  -0.07396   2.54302
   R29        2.61415  -0.03790   0.00000  -0.06817  -0.06817   2.54599
   R30        2.61412  -0.03794   0.00000  -0.06822  -0.06822   2.54589
   R31        2.60325  -0.04335   0.00000  -0.07644  -0.07644   2.52681
   R32        2.61474  -0.03348   0.00000  -0.06027  -0.06027   2.55446
   R33        2.61477  -0.03347   0.00000  -0.06027  -0.06027   2.55451
    A1        1.91258   0.00340   0.00000   0.01717   0.01706   1.92964
    A2        1.92592   0.00219   0.00000   0.00978   0.00971   1.93563
    A3        1.92566   0.00218   0.00000   0.00978   0.00972   1.93538
    A4        1.89685  -0.00258   0.00000  -0.01115  -0.01126   1.88559
    A5        1.89662  -0.00256   0.00000  -0.01102  -0.01112   1.88549
    A6        1.90572  -0.00280   0.00000  -0.01530  -0.01532   1.89040
    A7        1.94143  -0.00094   0.00000  -0.00081  -0.00081   1.94062
    A8        1.90138   0.00131   0.00000   0.00922   0.00922   1.91060
    A9        1.90079   0.00136   0.00000   0.00952   0.00952   1.91031
   A10        1.91061  -0.00008   0.00000  -0.00195  -0.00197   1.90864
   A11        1.91066  -0.00012   0.00000  -0.00209  -0.00211   1.90855
   A12        1.89844  -0.00155   0.00000  -0.01416  -0.01420   1.88423
   A13        1.93749  -0.00416   0.00000  -0.01271  -0.01266   1.92483
   A14        1.90541   0.00271   0.00000   0.01457   0.01455   1.91996
   A15        1.90578   0.00270   0.00000   0.01437   0.01435   1.92014
   A16        1.90583   0.00076   0.00000   0.00116   0.00121   1.90704
   A17        1.90658   0.00072   0.00000   0.00073   0.00078   1.90736
   A18        1.90242  -0.00273   0.00000  -0.01838  -0.01846   1.88396
   A19        2.12696  -0.00663   0.00000  -0.02410  -0.02410   2.10286
   A20        2.07723  -0.00055   0.00000  -0.00621  -0.00621   2.07101
   A21        2.07900   0.00718   0.00000   0.03032   0.03032   2.10932
   A22        2.08000   0.01647   0.00000   0.05365   0.05365   2.13365
   A23        2.08403  -0.02477   0.00000  -0.08070  -0.08070   2.00333
   A24        2.11915   0.00830   0.00000   0.02705   0.02705   2.14620
   A25        2.24014  -0.00895   0.00000  -0.03255  -0.03255   2.20759
   A26        2.02304   0.01001   0.00000   0.04245   0.04245   2.06549
   A27        2.02000  -0.00106   0.00000  -0.00990  -0.00990   2.01010
   A28        2.17777  -0.00785   0.00000  -0.02648  -0.02648   2.15130
   A29        2.04945   0.00150   0.00000   0.00401   0.00401   2.05346
   A30        2.05597   0.00635   0.00000   0.02247   0.02247   2.07843
   A31        2.12812  -0.00525   0.00000  -0.02049  -0.02045   2.10767
   A32        2.10533  -0.00146   0.00000  -0.00908  -0.00909   2.09624
   A33        2.04973   0.00671   0.00000   0.02956   0.02954   2.07928
   A34        2.11810  -0.00662   0.00000  -0.01992  -0.01996   2.09814
   A35        2.09910   0.00234   0.00000   0.00538   0.00540   2.10450
   A36        2.06598   0.00428   0.00000   0.01454   0.01457   2.08055
   A37        2.12151  -0.00086   0.00000  -0.00014  -0.00018   2.12133
   A38        2.06280   0.00329   0.00000   0.01359   0.01360   2.07640
   A39        2.09888  -0.00243   0.00000  -0.01344  -0.01342   2.08546
   A40        2.06960  -0.00127   0.00000  -0.00448  -0.00447   2.06514
   A41        2.01155  -0.00994   0.00000  -0.03222  -0.03223   1.97932
   A42        2.20204   0.01121   0.00000   0.03670   0.03669   2.23873
   A43        2.07307   0.00765   0.00000   0.02255   0.02260   2.09567
   A44        2.06807  -0.01526   0.00000  -0.04854  -0.04856   2.01951
   A45        2.14205   0.00761   0.00000   0.02599   0.02596   2.16801
   A46        1.96322  -0.00220   0.00000  -0.01120  -0.01102   1.95220
   A47        1.91676   0.01447   0.00000   0.04914   0.04828   1.96503
   A48        1.91686   0.01448   0.00000   0.04917   0.04831   1.96516
   A49        1.87231  -0.00830   0.00000  -0.03099  -0.03083   1.84148
   A50        1.87234  -0.00830   0.00000  -0.03098  -0.03082   1.84153
   A51        1.92140  -0.01159   0.00000  -0.02978  -0.03143   1.88998
   A52        2.00472   0.01029   0.00000   0.03800   0.03725   2.04197
   A53        1.90238   0.00971   0.00000   0.02952   0.02904   1.93143
   A54        1.90217   0.00975   0.00000   0.02969   0.02921   1.93138
   A55        1.87835  -0.00913   0.00000  -0.02551  -0.02618   1.85216
   A56        1.87826  -0.00912   0.00000  -0.02543  -0.02611   1.85214
   A57        1.89534  -0.01333   0.00000  -0.05298  -0.05310   1.84224
    D1        3.14154  -0.00000   0.00000  -0.00007  -0.00007   3.14147
    D2        1.03391  -0.00017   0.00000  -0.00318  -0.00318   1.03073
    D3       -1.03433   0.00015   0.00000   0.00306   0.00306  -1.03127
    D4        1.05346  -0.00032   0.00000  -0.00318  -0.00321   1.05026
    D5       -1.05417  -0.00049   0.00000  -0.00629  -0.00631  -1.06049
    D6       -3.12242  -0.00016   0.00000  -0.00004  -0.00007  -3.12249
    D7       -1.05401   0.00033   0.00000   0.00320   0.00322  -1.05079
    D8        3.12154   0.00016   0.00000   0.00008   0.00011   3.12165
    D9        1.05330   0.00049   0.00000   0.00633   0.00635   1.05965
   D10        3.13933   0.00004   0.00000   0.00038   0.00039   3.13971
   D11        1.03748  -0.00005   0.00000  -0.00253  -0.00250   1.03499
   D12       -1.04084   0.00006   0.00000   0.00264   0.00260  -1.03824
   D13       -1.04166   0.00102   0.00000   0.01009   0.01008  -1.03158
   D14        3.13968   0.00093   0.00000   0.00717   0.00720  -3.13630
   D15        1.06135   0.00105   0.00000   0.01234   0.01230   1.07365
   D16        1.03783  -0.00099   0.00000  -0.00961  -0.00960   1.02823
   D17       -1.06401  -0.00107   0.00000  -0.01253  -0.01248  -1.07649
   D18        3.14085  -0.00096   0.00000  -0.00736  -0.00738   3.13346
   D19       -3.14072  -0.00002   0.00000  -0.00022  -0.00022  -3.14094
   D20       -0.00039  -0.00001   0.00000  -0.00010  -0.00010  -0.00049
   D21       -1.03913   0.00122   0.00000   0.01064   0.01064  -1.02849
   D22        2.10120   0.00123   0.00000   0.01076   0.01076   2.11196
   D23        1.03992  -0.00122   0.00000  -0.01055  -0.01055   1.02937
   D24       -2.10293  -0.00121   0.00000  -0.01043  -0.01043  -2.11336
   D25       -0.00109  -0.00006   0.00000  -0.00086  -0.00087  -0.00195
   D26        3.13848   0.00005   0.00000   0.00086   0.00086   3.13934
   D27       -3.14142  -0.00006   0.00000  -0.00096  -0.00096   3.14081
   D28       -0.00185   0.00005   0.00000   0.00076   0.00077  -0.00108
   D29       -3.14041  -0.00004   0.00000  -0.00066  -0.00065  -3.14107
   D30       -0.00216  -0.00005   0.00000  -0.00066  -0.00066  -0.00282
   D31       -0.00089   0.00008   0.00000   0.00113   0.00112   0.00023
   D32        3.13736   0.00007   0.00000   0.00113   0.00112   3.13848
   D33       -0.01426   0.00004   0.00000   0.00073   0.00074  -0.01352
   D34        3.12756   0.00006   0.00000   0.00105   0.00105   3.12860
   D35        3.13067   0.00003   0.00000   0.00065   0.00065   3.13133
   D36       -0.01070   0.00005   0.00000   0.00097   0.00096  -0.00974
   D37        3.14091   0.00003   0.00000   0.00053   0.00053   3.14145
   D38       -0.00169   0.00008   0.00000   0.00122   0.00121  -0.00047
   D39       -0.00090   0.00001   0.00000   0.00021   0.00022  -0.00068
   D40        3.13969   0.00006   0.00000   0.00090   0.00090   3.14058
   D41       -3.14047  -0.00005   0.00000  -0.00079  -0.00080  -3.14127
   D42        0.00010  -0.00002   0.00000  -0.00039  -0.00040  -0.00030
   D43        0.00133  -0.00003   0.00000  -0.00049  -0.00049   0.00083
   D44       -3.14129  -0.00000   0.00000  -0.00009  -0.00010  -3.14138
   D45       -0.00020   0.00001   0.00000   0.00013   0.00013  -0.00007
   D46        3.14133   0.00000   0.00000   0.00007   0.00007   3.14140
   D47       -3.14082  -0.00003   0.00000  -0.00052  -0.00052  -3.14134
   D48        0.00071  -0.00003   0.00000  -0.00058  -0.00058   0.00013
   D49       -0.00065   0.00003   0.00000   0.00042   0.00042  -0.00023
   D50        3.14074   0.00002   0.00000   0.00029   0.00029   3.14102
   D51       -3.14124   0.00000   0.00000   0.00004   0.00003  -3.14121
   D52        0.00015  -0.00000   0.00000  -0.00010  -0.00010   0.00005
   D53       -0.00050   0.00000   0.00000  -0.00003  -0.00003  -0.00052
   D54        3.14120  -0.00000   0.00000  -0.00009  -0.00009   3.14111
   D55        3.14131   0.00001   0.00000   0.00011   0.00010   3.14141
   D56       -0.00019   0.00000   0.00000   0.00004   0.00004  -0.00015
   D57        0.00090  -0.00001   0.00000  -0.00023  -0.00023   0.00067
   D58       -3.14063  -0.00001   0.00000  -0.00016  -0.00016  -3.14079
   D59       -3.14080  -0.00001   0.00000  -0.00016  -0.00016  -3.14097
   D60        0.00085  -0.00001   0.00000  -0.00009  -0.00009   0.00076
   D61        3.14145  -0.00001   0.00000  -0.00007  -0.00007   3.14138
   D62        1.03266  -0.00241   0.00000  -0.01480  -0.01499   1.01767
   D63       -1.03323   0.00242   0.00000   0.01487   0.01507  -1.01816
   D64       -0.00003  -0.00001   0.00000  -0.00013  -0.00013  -0.00017
   D65       -2.10882  -0.00241   0.00000  -0.01486  -0.01506  -2.12388
   D66        2.10848   0.00241   0.00000   0.01480   0.01500   2.12348
   D67       -0.00053  -0.00001   0.00000  -0.00016  -0.00016  -0.00070
   D68       -2.08437   0.00207   0.00000   0.01283   0.01352  -2.07085
   D69        2.08342  -0.00208   0.00000  -0.01312  -0.01380   2.06961
   D70        3.14099  -0.00001   0.00000  -0.00023  -0.00023   3.14077
   D71        1.05716   0.00206   0.00000   0.01277   0.01345   1.07061
   D72       -1.05824  -0.00208   0.00000  -0.01318  -0.01387  -1.07211
         Item               Value     Threshold  Converged?
 Maximum Force            0.043355     0.000450     NO 
 RMS     Force            0.010099     0.000300     NO 
[...]
 9690,0.00069352,0.00070503,-0.00054500,-0.00907062,-0.00596713,-0.0045
 2487,-0.05581002,-0.22789130,-0.09329397,0.04445148,0.33447413,-0.0000
 0223,-0.00001685,0.00000036,-0.00000571,0.00002274,-0.00001315,0.00009
 078,-0.00005632,-0.00001790,-0.00028651,-0.00005323,0.00005162,0.00063
 791,-0.00037140,-0.00000419,-0.00015994,0.00021956,0.00004431,-0.00079
 297,0.00009039,0.00002147,0.00045498,0.00050861,-0.00013093,-0.0005893
 0,-0.00022253,-0.00002511,0.00033182,-0.00081902,0.00014010,-0.0032336
 9,0.00041170,-0.00046589,-0.00228196,-0.01373020,0.00325874,0.00144552
 ,0.00002321,0.00078065,-0.00001151,-0.00000183,-0.00000039,0.00000184,
 0.00000146,-0.00000010,0.00000044,0.00000697,0.00000237,0.00000026,0.0
 0000309,0.00000496,0.00000184,-0.00000461,0.00000244,-0.00000654,0.000
 00690,-0.00000079,-0.00001948,0.00000897,-0.00000476,0.00002232,0.0000
 3068,-0.00002472,0.00003747,0.00001427,-0.00003785,-0.00001817,-0.0000
 6512,-0.00007120,-0.00030299,-0.00010093,0.00000723,0.00007694,0.00009
 807,-0.00012898,-0.00015392,-0.00175932,-0.00577775,-0.03405947,-0.090
 53210,-0.12481150,0.03216052,0.14838889,0.17112991,-0.00001178,-0.0000
 7489,0.00001392,-0.00002126,0.00012700,-0.00003045,0.00043925,-0.00025
 352,-0.00002372,-0.00145087,-0.00038430,0.00014122,0.00325323,-0.00153
 398,0.00036426,-0.00067658,0.00083195,-0.00008953,-0.00470249,-0.00023
 043,-0.00012684,0.00327175,0.00147121,0.00028673,-0.00164913,-0.002209
 55,-0.00130171,-0.00200404,-0.00029526,-0.00200539,-0.00205443,0.00376
 361,0.00069633,-0.01921109,-0.01031978,0.03913670,0.00278561,-0.001362
 58,0.00029153,-0.00005604,-0.00000902,0.00000307,0.00000541,0.00001648
 ,-0.00001086,0.00000875,0.00001637,0.00000127,-0.00000045,-0.00001633,
 0.00000117,0.00001302,-0.00000431,-0.00000085,-0.00001336,0.00002312,-
 0.00000934,-0.00011743,0.00005611,-0.00004158,0.00006347,0.00016150,-0
 .00006178,-0.00003390,0.00017717,-0.00003133,-0.00007391,-0.00014701,-
 0.00010108,-0.00041321,-0.00027737,-0.00013347,-0.00008892,-0.00022350
 ,0.00107661,-0.00231624,-0.00338340,0.00210220,-0.12337563,-0.01528147
 ,0.08611100,0.01461618,0.00625840,0.00383321,0.11597366,-0.00000241,-0
 .00002267,0.00000368,-0.00000901,0.00003530,-0.00000983,0.00013310,-0.
 00008311,-0.00000365,-0.00042793,-0.00008004,0.00003142,0.00101409,-0.
 00063649,0.00009965,-0.00018423,0.00036507,-0.00002208,-0.00149472,-0.
 00005032,-0.00001723,0.00074617,0.00125868,-0.00005203,-0.00146678,-0.
 00076982,-0.00056854,0.00006901,0.00068043,-0.00057906,0.00087905,0.00
 011763,-0.00048090,-0.00958143,0.00926039,0.00995883,0.00056469,-0.001
 57786,0.00119035,-0.00001512,-0.00000144,0.00000045,0.00000063,0.00000
 400,-0.00000457,0.00000140,0.00000560,0.00000245,0.00000035,-0.0000018
 3,0.00000324,0.00000446,-0.00000103,-0.00000239,-0.00000682,0.00000671
 ,-0.00000009,-0.00003721,0.00001584,-0.00001535,0.00002192,0.00004529,
 -0.00001505,-0.00000928,0.00005171,-0.00001072,-0.00012480,-0.00016565
 ,-0.00012703,0.00002986,-0.00003836,0.00005146,0.00027484,0.00029643,0
 .00021982,-0.00457647,-0.00254123,0.00233652,-0.01479600,-0.07547442,0
 .02836630,0.01242312,-0.00183856,-0.04724512,0.00971987,0.08675145,0.0
 0000592,0.00004179,-0.00001115,0.00001412,-0.00007259,0.00000966,-0.00
 025182,0.00015097,-0.00001495,0.00082258,0.00020354,-0.00003372,-0.001
 80841,0.00081932,-0.00025133,0.00041632,-0.00044198,0.00011403,0.00259
 128,0.00008939,0.00016828,-0.00175584,-0.00104933,-0.00026853,0.001583
 56,0.00085425,0.00071769,0.00111529,0.00018358,0.00098609,0.00171280,-
 0.00133279,-0.00003403,0.01493521,0.00521161,-0.01278290,-0.00119213,0
 .00144518,-0.00009319,0.00003040,0.00000379,-0.00000272,-0.00000084,-0
 .00001139,0.00001070,-0.00000520,-0.00000561,-0.00000016,0.00000025,0.
 00001456,0.00000124,-0.00000888,-0.00000215,0.00000720,0.00000493,-0.0
 0001016,0.00000595,0.00007218,-0.00003633,0.00003216,-0.00003101,-0.00
 008258,0.00000283,-0.00000552,-0.00009556,-0.00004171,0.00013652,0.000
 15322,-0.00000092,0.00028917,0.00017909,0.00000164,-0.00029109,-0.0003
 8843,-0.00090188,0.00318790,0.00188600,-0.00668843,0.08562814,0.025614
 35,-0.23752748,0.01219069,-0.03257512,-0.06274911,-0.11029891,-0.04104
 402,0.37052779,-0.00001172,-0.00006531,0.00001125,-0.00001415,0.000110
 87,-0.00003274,0.00038047,-0.00021311,-0.00002449,-0.00123751,-0.00042
 352,0.00017650,0.00250313,-0.00058066,0.00021159,-0.00082810,0.0002551
 4,-0.00002177,-0.00307992,-0.00026820,-0.00022748,0.00206734,0.0016797
 9,-0.00022075,-0.00255937,0.00114206,0.00032754,-0.00063710,0.00083817
 ,0.00015868,-0.00259522,0.00091173,-0.00083911,-0.03216763,0.03582546,
 -0.02116050,-0.00389179,-0.00658895,-0.00092011,-0.00005180,-0.0000100
 2,0.00000242,0.00000703,0.00001417,-0.00000568,0.00000905,0.00001575,-
 0.00000072,-0.00000149,-0.00001513,-0.00000027,0.00000904,-0.00000664,
 0.00000543,-0.00000686,0.00001990,-0.00001306,-0.00008800,0.00004866,-
 0.00002987,0.00005085,0.00013706,-0.00006851,-0.00006065,0.00012424,-0
 .00003732,-0.00038919,-0.00045887,0.00029890,-0.00015117,-0.00020136,-
 0.00005534,-0.00428825,-0.00110064,-0.00084736,-0.00009600,-0.00360832
 ,0.00017709,-0.16405110,0.07994979,-0.05315560,0.01260467,0.01595731,0
 .00537248,0.01839249,-0.00143053,-0.00566726,0.17967478,0.00000464,0.0
 0001181,-0.00000155,-0.00000335,-0.00002638,0.00000681,-0.00006809,0.0
 0001991,0.00001698,0.00025931,0.00018270,-0.00006912,-0.00056015,-0.00
 012734,-0.00006043,0.00017930,0.00011222,-0.00000259,0.00077802,0.0004
 9657,0.00006108,-0.00119318,-0.00036866,0.00010245,0.00003441,0.000047
 88,-0.00020865,0.00029309,0.00185414,-0.00066071,-0.00331465,-0.006023
 24,-0.00041518,0.00805092,-0.00241057,0.00598345,0.00068275,0.00212529
 ,0.00040161,0.00001210,0.00000359,-0.00000068,-0.00000336,-0.00000308,
 -0.00000261,-0.00000362,-0.00000210,0.00000352,0.00000109,0.00000713,0
 .00000529,-0.00000038,0.00000233,-0.00000712,-0.00000113,-0.00000360,0
 .00000669,0.00001525,-0.00000884,-0.00000141,0.00000218,-0.00004319,0.
 00003601,0.00010985,-0.00006191,0.00002467,0.00009131,0.00007086,-0.00
 011871,0.00019996,0.00005945,0.00002080,-0.00268866,0.00223973,-0.0005
 2479,-0.00447493,-0.00070859,-0.00050140,0.08668402,-0.16340214,0.0563
 3736,0.02913200,-0.08006866,0.00142396,0.00643950,-0.01296285,0.041269
 36,-0.12468952,0.25871263,-0.00000312,-0.00001225,0.00000042,0.0000001
 8,0.00002012,-0.00001018,0.00006380,-0.00003283,-0.00001859,-0.0002222
 6,-0.00011063,0.00004968,0.00044471,-0.00001250,-0.00001551,-0.0001609
 9,-0.00001345,0.00005936,-0.00051951,-0.00010418,0.00000990,0.00057906
 ,-0.00018232,0.00003645,0.00003353,0.00077570,-0.00043740,-0.00050947,
 -0.00027468,0.00030981,0.00071547,0.00195441,0.00029598,-0.00792334,0.
 00919658,0.00351488,-0.00183321,-0.00155690,0.00136491,-0.00001041,-0.
 00000271,-0.00000015,0.00000262,0.00000144,0.00000218,0.00000164,0.000
 00450,-0.00000066,-0.00000087,-0.00000119,-0.00000021,0.00000075,-0.00
 000370,0.00000584,0.00000021,0.00000657,-0.00000338,-0.00001219,0.0000
 0645,0.00000171,0.00000552,0.00002994,-0.00003471,-0.00002499,0.000019
 71,-0.00003385,-0.00010049,-0.00014677,-0.00019007,-0.00009894,-0.0000
 4412,-0.00002166,-0.00048237,-0.00078537,-0.00044437,0.00152526,-0.000
 51482,-0.00157392,-0.05560585,0.05416538,-0.10656780,0.00779498,-0.009
 04481,0.01744435,-0.01893975,0.04981710,-0.05712960,0.07676525,-0.1037
 7661,0.14177509,-0.00000598,-0.00000433,-0.00000058,0.00003235,0.00000
 770,0.00000182,-0.00000396,0.00005391,-0.00004918,0.00000327,-0.000452
 77,0.00007284,-0.00081788,0.00235703,-0.00008905,-0.00009211,-0.001534
 36,0.00022918,0.00148874,-0.00021293,0.00001904,0.00089327,-0.00074894
 ,0.00061461,-0.00440627,-0.00281460,0.00147616,0.00011966,-0.00028646,
 -0.00006693,-0.00044634,-0.00000279,0.00015095,0.00290545,0.00130680,-
 0.00050490,-0.00788840,0.00882596,-0.00739721,-0.00001363,-0.00001284,
 0.00000280,0.00000985,0.00000724,0.00001093,0.00000883,0.00000415,-0.0
 0001170,-0.00000726,-0.00001557,-0.00001001,-0.00000873,-0.00001157,0.
 00001693,0.00003119,0.00001313,-0.00002501,0.00003438,0.00001190,0.000
 03867,-0.00005550,0.00000555,-0.00007094,-0.00001548,-0.00000312,-0.00
 001924,0.00216892,-0.00191497,0.00023312,0.00023173,-0.00010799,-0.000
 00806,0.00007158,0.00025604,0.00006962,-0.19188480,0.08920315,-0.06577
 967,-0.00022525,-0.00461372,0.00091621,-0.00003038,0.00181787,-0.00001
 797,0.00008412,0.00119532,-0.00048137,-0.00030532,0.00108015,-0.000453
 69,0.30142261,-0.00000156,-0.00005249,0.00000959,-0.00003971,0.0000760
 5,-0.00002889,0.00032528,-0.00024056,0.00002902,-0.00097069,0.00001760
 ,0.00004235,0.00252357,-0.00187811,0.00018231,-0.00087992,0.00130642,-
 0.00012025,-0.00276957,0.00024155,-0.00007535,0.00282750,0.00163915,-0
 .00031655,-0.00040732,-0.00408130,0.00141974,0.00014028,-0.00050502,0.
 00019628,0.00200164,-0.00177306,-0.00030200,-0.00588934,-0.00488219,0.
 00174359,0.03818421,-0.02426994,0.02000732,-0.00002917,0.00000475,-0.0
 0000079,-0.00000402,0.00000462,-0.00001739,-0.00000210,0.00001133,0.00
 001376,0.00000327,0.00000530,0.00001393,0.00001383,0.00000344,-0.00001
 424,-0.00002689,0.00000670,0.00001244,-0.00009298,0.00003113,-0.000059
 32,0.00007937,0.00008094,0.00000599,0.00000463,0.00005504,0.00000384,0
 .00005875,-0.00489091,0.00142384,-0.00005839,-0.00013882,0.00004797,-0
 .00027695,-0.00079100,-0.00012863,0.08118937,-0.14686439,0.04886281,-0
 .00342236,-0.00071819,0.00013958,0.00064647,0.00082844,0.00033005,0.00
 083320,0.00025449,-0.00058937,0.00099230,-0.00011923,0.00022361,-0.118
 14288,0.15307339,-0.00000125,0.00000991,-0.00000836,0.00001879,-0.0000
 1734,0.00000770,-0.00008674,0.00007357,-0.00005586,0.00025736,-0.00007
 605,0.00003296,-0.00076912,0.00083092,-0.00013495,0.00022853,-0.000579
 66,0.00025001,0.00097357,-0.00010777,0.00012465,-0.00075515,-0.0000463
 3,0.00009605,-0.00091246,0.00034991,0.00055828,0.00042913,0.00000922,0
 .00002709,-0.00107211,-0.00001518,-0.00030728,0.00208114,0.00238974,0.
 00075998,-0.01296279,0.00924939,0.00194780,0.00000352,-0.00000447,0.00
 000086,0.00000509,-0.00000097,0.00001071,0.00000109,0.00000167,-0.0000
 0422,-0.00000203,0.00000165,-0.00000325,-0.00000715,-0.00000943,0.0000
 1177,0.00000776,0.00000337,-0.00000687,0.00003872,-0.00000771,0.000035
 01,-0.00002550,-0.00000890,-0.00003983,-0.00000613,-0.00002196,-0.0000
 2630,0.00031930,0.00130019,-0.00088444,0.00006229,0.00001917,-0.000037
 75,0.00009996,0.00023994,-0.00016652,-0.06262368,0.05076721,-0.1082689
 0,0.00081741,-0.00111763,-0.00159470,-0.00012848,0.00080564,0.00070460
 ,-0.00034886,-0.00005502,0.00085810,-0.00032741,0.00034515,0.00005842,
 0.11035656,-0.06387489,0.13775866,-0.00000711,-0.00004078,0.00001049,0
 .00000311,0.00006531,-0.00001539,0.00023972,-0.00011705,-0.00000110,-0
 .00070124,-0.00041718,0.00007264,0.00093282,0.00096453,0.00008755,-0.0
 0056723,-0.00067979,0.00000638,-0.00012377,-0.00049765,-0.00001079,-0.
 00009897,0.00043682,-0.00111722,0.00117554,-0.00328630,0.00108628,0.00
 058331,-0.00059759,0.00020661,-0.00003123,-0.00141710,-0.00067663,-0.0
 0050080,0.00041442,-0.00057449,-0.01539910,-0.00767633,0.01769376,-0.0
 0003604,-0.00001077,0.00000305,0.00000618,0.00001317,-0.00000470,0.000
 00932,0.00000936,-0.00000441,-0.00000453,-0.00001841,-0.00000329,0.000
 00344,-0.00000422,0.00000284,0.00001634,0.00001750,-0.00001717,-0.0000
 3961,0.00003849,-0.00001213,0.00000911,0.00005972,-0.00003341,-0.00009
 544,-0.00001376,0.00004791,0.00086412,0.00085402,0.00039761,0.00010201
 ,-0.00006074,0.00013624,-0.00011717,-0.00029844,0.00009450,-0.20207444
 ,-0.05004791,0.10300817,-0.00471009,-0.00909569,0.00560599,-0.00099416
 ,0.00551213,-0.00425263,-0.00121899,0.00632917,-0.00320052,0.00060594,
 0.00175619,-0.00100142,-0.08150242,0.01158863,0.01784302,0.29934451,-0
 .00000467,-0.00005010,0.00000917,-0.00002114,0.00007488,-0.00002427,0.
 00029674,-0.00019237,0.00000864,-0.00088266,-0.00016319,0.00006163,0.0
 0189133,-0.00073285,0.00012921,-0.00067609,0.00047018,-0.00003103,-0.0
 0157554,-0.00044383,-0.00008376,-0.00014590,0.00000957,-0.00154266,0.0
 0227071,-0.00531466,0.00210235,-0.00058851,-0.00039572,0.00021706,-0.0
 0016850,0.00029894,-0.00046774,-0.00015489,0.00127347,-0.00076345,-0.0
 3524176,-0.00502717,0.02384203,-0.00003394,-0.00000280,0.00000089,0.00
 000115,0.00000869,-0.00001108,0.00000311,0.00001202,0.00000590,-0.0000
 0007,-0.00000439,0.00000734,0.00000917,-0.00000172,-0.00000567,-0.0000
 0960,0.00001402,-0.00000131,-0.00007048,0.00003603,-0.00003643,0.00005
 653,0.00007724,-0.00001100,-0.00013343,-0.00000795,-0.00000385,0.00012
 429,0.00011325,0.00064043,-0.00002194,-0.00007021,0.00004860,-0.000006
 76,-0.00010685,0.00001661,-0.04642204,-0.09834967,0.03744313,-0.002784
 60,-0.00201865,-0.00013143,0.00273982,0.00042661,0.00260335,0.00466652
 ,-0.00356721,-0.00007411,0.00067152,0.00012370,0.00007327,0.02345671,0
 .01338920,-0.00909859,0.03814370,0.08617114,0.00000365,0.00002658,-0.0
 0001116,0.00000593,-0.00004485,0.00000994,-0.00017087,0.00009523,-0.00
 002902,0.00051062,0.00020698,-0.00001570,-0.00085932,-0.00021705,-0.00
 014280,0.00039275,0.00016186,0.00011354,0.00048427,0.00049366,0.000078
 38,0.00072015,-0.00068647,0.00022010,-0.00095592,0.00419496,-0.0008724
 2,-0.00026428,0.00021002,-0.00004539,0.00007643,0.00051732,0.00001000,
 0.00001101,-0.00141080,0.00112042,0.01962853,0.00447079,-0.00316066,0.
 00002178,0.00000423,-0.00000178,-0.00000107,-0.00000868,0.00000816,-0.
 00000531,-0.00000326,0.00000162,0.00000193,0.00001368,0.00000210,-0.00
 000509,-0.00000317,0.00000441,-0.00000767,-0.00000845,0.00000833,0.000
 04044,-0.00002622,0.00002312,-0.00001415,-0.00003844,-0.00000279,0.000
 12082,0.00000656,-0.00002877,-0.00032852,-0.00018864,-0.00021065,-0.00
 003055,0.00005688,-0.00003636,0.00003310,0.00010977,-0.00009093,0.1000
 8302,0.04098597,-0.14977201,0.00201907,0.00070245,-0.00654824,-0.00357
 088,0.00315173,-0.00210199,-0.00082158,-0.00161952,0.00323759,-0.00039
 240,-0.00011355,0.00082825,0.00563172,-0.00593923,0.01750681,-0.161942
 04,-0.03562552,0.20699969,-0.00000352,-0.00001889,0.00000300,0.0000038
 1,0.00002853,-0.00000792,0.00010294,-0.00004618,-0.00001471,-0.0002971
 2,-0.00021124,0.00005773,0.00035517,0.00055462,0.00001107,-0.00022556,
 -0.00038224,0.00003593,-0.00001798,-0.00007783,-0.00003505,0.00043155,
 0.00102488,0.00040822,-0.00005793,0.00036394,0.00043294,0.00092195,-0.
 00046722,0.00003303,-0.00026130,-0.00123053,0.00076191,-0.00140124,-0.
 00038353,-0.00064653,0.00860658,-0.00889029,-0.00889106,-0.00001690,-0
 .00000587,0.00000124,0.00000384,0.00000552,0.00000004,0.00000431,0.000
 00595,-0.00000195,-0.00000216,-0.00000659,-0.00000084,0.00000045,-0.00
 000458,0.00000399,0.00000816,0.00000886,-0.00000839,-0.00001214,0.0000
 1568,0.00000019,0.00000190,0.00002963,-0.00003215,0.00001586,0.0000008
 2,-0.00003089,0.00030833,0.00034983,-0.00033896,0.00005489,-0.00004180
 ,-0.00006052,-0.00009896,-0.00020432,0.00012275,-0.08019829,-0.0245184
 3,-0.03653242,-0.00241676,-0.00510441,-0.00206363,-0.00397806,0.006193
 61,0.00172665,0.00058281,0.00075569,0.00026152,0.00020758,0.00119497,-
 0.00003013,-0.02179626,-0.00839843,-0.05351439,0.00432686,0.01461121,0
 .03958441,0.09484718,-0.00000542,-0.00006418,0.00000575,-0.00002647,0.
 00009038,-0.00003292,0.00035949,-0.00024218,-0.00002268,-0.00107571,-0
 .00018644,0.00011158,0.00234394,-0.00097524,0.00005961,-0.00085157,0.0
 0065199,0.00011283,-0.00194507,-0.00006376,0.00009548,0.00081044,0.001
 11480,0.00210862,0.00244774,-0.00357629,0.00002656,0.00017018,-0.00101
 488,-0.00009917,-0.00088627,-0.00058698,0.00165743,-0.00136730,0.00091
 937,0.00019349,-0.01232472,-0.02332825,-0.03860639,-0.00004178,-0.0000
 0312,0.00000069,0.00000267,0.00000886,-0.00000958,0.00000175,0.0000189
 6,0.00000954,0.00000014,0.00000177,0.00001289,0.00000990,-0.00000809,-
 0.00000302,-0.00001593,0.00001928,-0.00000034,-0.00008036,0.00004171,-
 0.00003438,0.00007434,0.00009828,-0.00003822,-0.00003541,-0.00001300,-
 0.00009539,0.00012503,-0.00037501,-0.00127909,-0.00001886,-0.00011149,
 -0.00019504,-0.00005734,-0.00027345,0.00008330,-0.02464026,-0.14550211
 ,-0.09686273,-0.00390232,-0.00336815,-0.00220585,0.00431515,0.00010073
 ,0.00078572,0.00144472,0.00066383,-0.00030849,0.00096687,0.00027046,0.
 00032506,0.00127725,0.02017565,0.00864525,0.00807656,0.01395039,-0.009
 47480,0.02484862,0.14156614,-0.00000498,-0.00003252,-0.00000483,-0.000
 00422,0.00004142,-0.00001932,0.00014968,-0.00009709,-0.00006914,-0.000
 48244,-0.00016894,0.00010535,0.00092994,-0.00009650,-0.00009663,-0.000
 41781,0.00004860,0.00032640,-0.00067517,-0.00017659,0.00015172,0.00011
 514,0.00016412,0.00057297,0.00066202,-0.00197630,0.00051586,0.00019259
 ,-0.00028369,-0.00005958,0.00004048,-0.00078017,0.00070124,-0.00101699
 ,-0.00001362,0.00044792,-0.00503632,-0.01200454,-0.00770762,-0.0000218
 4,-0.00000423,0.00000024,0.00000570,0.00000323,0.00000476,0.00000038,0
 .00001444,0.00000324,-0.00000088,0.00000604,0.00000813,0.00000014,-0.0
 0001498,0.00000927,-0.00000898,0.00001568,-0.00000576,-0.00001928,0.00
 001932,0.00000919,0.00002613,0.00005346,-0.00006001,-0.00006290,-0.000
 02197,-0.00008766,0.00044559,0.00017392,-0.00094833,0.00001459,-0.0000
 9226,-0.00009048,-0.00005513,-0.00024333,-0.00001081,-0.03468300,-0.09
 693731,-0.21772125,-0.00172788,-0.00308109,-0.00582490,0.00030345,0.00
 277858,0.00277321,0.00031779,-0.00020907,0.00185089,0.00054061,0.00041
 993,0.00072483,-0.04485564,-0.00324113,-0.04921024,0.02656432,-0.01929
 771,-0.06710182,0.05876490,0.13503431,0.34081316\\-0.00000016,0.000000
 46,-0.00000184,0.00000038,0.00000013,-0.00000058,0.00000446,-0.0000006
 8,0.00000216,-0.00000048,0.00000143,-0.00000994,-0.00000295,0.00000031
 ,0.00000372,-0.00000488,-0.00000385,-0.00000143,0.00000531,0.00000080,
 -0.00000055,-0.00000241,-0.00001332,-0.00000209,0.00001311,0.00001307,
 0.00000166,-0.00001327,0.00000050,0.00000294,0.00000800,0.00001215,0.0
 0000389,0.00000272,-0.00000694,0.00000319,-0.00001229,-0.00000014,-0.0
 0000430,-0.00000025,0.00000054,-0.00000082,0.00000037,-0.00000123,-0.0
 0000252,-0.00000007,0.00000130,-0.00000270,-0.00000004,-0.00000045,0.0
 0000081,-0.00000080,0.00000211,0.00000141,0.00000003,0.00000090,-0.000
 00183,-0.00000048,-0.00000121,-0.00000217,0.00000040,0.00000066,0.0000
 0479,-0.00000047,0.00000225,0.00000936,0.00000113,-0.00000121,-0.00000
 217,0.00000146,-0.00000017,0.00000315,-0.00000135,-0.00000115,0.000004
 07,-0.00000830,0.00000294,0.00001159,-0.00000337,0.00000957,-0.0000047
 1,-0.00000182,0.00000075,0.00000077,0.00000108,-0.00000293,0.00000582,
 0.00000377,-0.00000586,0.00000410,-0.00000099,-0.00000370,-0.00000618,
 0.00000999,-0.00000218,-0.00000965,0.00000218,-0.00000490,-0.00000997\
 \\@


 DIATOMIC MOLECULES ARE PECULIAR BECAUSE THEY ONLY HAVE TWO ENDS,
 AND THESE ENDS ARE VERY CLOSE TOGETHER.
 KLAUS RUEDENBERG, REV.MOD.PHYS. PG 176, 32, (1960)
 Job cpu time:       0 days  4 hours 23 minutes 49.7 seconds.
 File lengths (MBytes):  RWF=    657 Int=      0 D2E=      0 Chk=     15 Scr=      1
 Normal termination of Gaussian 09 at Tue Oct 30 12:57:01 2018.
WARNING: pbs_rusage is deprecated and values produced may not be accurate


=============================================================================
                                     Resource usage:
                                       CPU time:              25:02:42
   JobId:    1827751.r-man2            Elapsed time:          03:11:15
   Project:             q95            Requested time:        42:00:00
   Service Units:     25.50 
                                       Max physical memory:     1513MB
                                       Max virtual memory:      2459MB
                                       Requested memory:           0MB

                                       Number of cpus:               8

                                       Max jobfs disk use:       0.6GB
                                       Requested jobfs:         20.0GB
=============================================================================

