 Entering Gaussian System, Link 0=/apps/gaussian/g09e01/g09/g09
 AtFile(1): /home/507/hio507/Basis/6-31pGd.gbs
 Initial command:
 /apps/gaussian/g09e01/g09/l1.exe "/jobfs/local/5980170.r-man2/Gau-2803.inp" -scrdir="/jobfs/local/5980170.r-man2/"
 Entering Link 1 = /apps/gaussian/g09e01/g09/l1.exe PID=      2804.
  
 Copyright (c) 1988,1990,1992,1993,1995,1998,2003,2009,2015,
            Gaussian, Inc.  All Rights Reserved.
  
 This is part of the Gaussian(R) 09 program.  It is based on
 the Gaussian(R) 03 system (copyright 2003, Gaussian, Inc.),
 the Gaussian(R) 98 system (copyright 1998, Gaussian, Inc.),
 the Gaussian(R) 94 system (copyright 1995, Gaussian, Inc.),
 the Gaussian 92(TM) system (copyright 1992, Gaussian, Inc.),
 the Gaussian 90(TM) system (copyright 1990, Gaussian, Inc.),
 the Gaussian 88(TM) system (copyright 1988, Gaussian, Inc.),
 the Gaussian 86(TM) system (copyright 1986, Carnegie Mellon
 University), and the Gaussian 82(TM) system (copyright 1983,
 Carnegie Mellon University). Gaussian is a federally registered
 trademark of Gaussian, Inc.
  
 This software contains proprietary and confidential information,
 including trade secrets, belonging to Gaussian, Inc.
  
 This software is provided under written license and may be
 used, copied, transmitted, or stored only in accord with that
 written license.
  
 The following legend is applicable only to US Government
 contracts under FAR:
  
                    RESTRICTED RIGHTS LEGEND
  
 Use, reproduction and disclosure by the US Government is
 subject to restrictions as set forth in subparagraphs (a)
 and (c) of the Commercial Computer Software - Restricted
 Rights clause in FAR 52.227-19.
  
 Gaussian, Inc.
 340 Quinnipiac St., Bldg. 40, Wallingford CT 06492
  
  
 ---------------------------------------------------------------
 Warning -- This program may not be used in any manner that
 competes with the business of Gaussian, Inc. or will provide
 assistance to any competitor of Gaussian, Inc.  The licensee
 of this program is prohibited from giving any competitor of
 Gaussian, Inc. access to this program.  By using this program,
 the user acknowledges that Gaussian, Inc. is engaged in the
 business of creating and licensing software in the field of
 computational chemistry and represents and warrants to the
 licensee that it is not a competitor of Gaussian, Inc. and that
 it will not use this program in any manner prohibited above.
 ---------------------------------------------------------------
  

 Cite this work as:
 Gaussian 09, Revision E.01,
 M. J. Frisch, G. W. Trucks, H. B. Schlegel, G. E. Scuseria, 
 M. A. Robb, J. R. Cheeseman, G. Scalmani, V. Barone, B. Mennucci, 
 G. A. Petersson, H. Nakatsuji, M. Caricato, X. Li, H. P. Hratchian, 
 A. F. Izmaylov, J. Bloino, G. Zheng, J. L. Sonnenberg, M. Hada, 
 M. Ehara, K. Toyota, R. Fukuda, J. Hasegawa, M. Ishida, T. Nakajima, 
 Y. Honda, O. Kitao, H. Nakai, T. Vreven, J. A. Montgomery, Jr., 
 J. E. Peralta, F. Ogliaro, M. Bearpark, J. J. Heyd, E. Brothers, 
 K. N. Kudin, V. N. Staroverov, T. Keith, R. Kobayashi, J. Normand, 
 K. Raghavachari, A. Rendell, J. C. Burant, S. S. Iyengar, J. Tomasi, 
 M. Cossi, N. Rega, J. M. Millam, M. Klene, J. E. Knox, J. B. Cross, 
 V. Bakken, C. Adamo, J. Jaramillo, R. Gomperts, R. E. Stratmann, 
 O. Yazyev, A. J. Austin, R. Cammi, C. Pomelli, J. W. Ochterski, 
 R. L. Martin, K. Morokuma, V. G. Zakrzewski, G. A. Voth, 
 P. Salvador, J. J. Dannenberg, S. Dapprich, A. D. Daniels, 
 O. Farkas, J. B. Foresman, J. V. Ortiz, J. Cioslowski, 
 and D. J. Fox, Gaussian, Inc., Wallingford CT, 2013.
 
 ******************************************
 Gaussian 09:  ES64L-G09RevE.01 30-Nov-2015
                21-Feb-2019 
 ******************************************
 %chk=34TFM.M062X_6-31pGd_opt_Pentadecane.chk
 %mem=196608000
 %nproc=8
 Will use up to    8 processors via shared memory.
 ----------------------------------------------------------------------
 # M062X/Gen 6D SCF=Tight INT(grid=ultrafine) OPT IOP(2/17=4) SCRF=(SMD
 ,Solvent=n-Pentadecane) maxdisk=2684354560
 ----------------------------------------------------------------------
 1/14=-1,18=20,19=15,26=4,38=1/1,3;
 2/9=110,12=2,17=4,18=5,40=1/2;
 3/5=7,8=2,11=2,16=1,25=1,30=1,70=32201,71=1,72=151,74=-55,75=-5/1,2,3;
 4//1;
 5/5=2,32=2,38=5,53=151/2;
 6/7=2,8=2,9=2,10=2,28=1/1;
 7//1,2,3,16;
 1/14=-1,18=20,19=15,26=4/3(2);
 2/9=110,17=4/2;
 99//99;
 2/9=110,17=4/2;
 3/5=7,6=1,8=2,11=2,16=1,25=1,30=1,70=32205,71=1,72=151,74=-55,75=-5,82=7/1,2,3;
 4/5=5,16=3,69=1/1;
 5/5=2,32=2,38=5,53=151/2;
 7//1,2,3,16;
 1/14=-1,18=20,19=15,26=4/3(-5);
 2/9=110,17=4/2;
 6/7=2,8=2,9=2,10=2,19=2,28=1/1;
 99/9=1/99;
 -----------------------------------
 34TFM.M062X_6-31pGd_opt_Pentadecane
 -----------------------------------
 Symbolic Z-matrix:
 Charge =  0 Multiplicity = 1
 C                    -1.91421   1.87119  -0.02758 
 C                    -0.54175   1.21671   0.11311 
 C                     0.58098   2.21546  -0.13568 
 N                     1.88045   1.56831   0.00399 
 C                     3.00978   2.34779   0.0415 
 O                     2.97752   3.56386   0.08717 
 N                     4.18935   1.60521   0.0563 
 C                     5.49698   2.0936    0.08252 
 C                     5.82126   3.44421  -0.11105 
 C                     6.53009   1.17331   0.28638 
 C                     7.8523    1.58927   0.30191 
 C                     8.18678   2.92886   0.11611 
 C                     7.15101   3.85074  -0.09839 
 H                    -2.71557   1.1498    0.15384 
 H                    -2.05342   2.28249  -1.03296 
 H                    -2.03137   2.69104   0.68876 
 H                    -0.45846   0.38413  -0.59947 
 H                    -0.42433   0.79128   1.11678 
 H                     0.54194   3.02933   0.59323 
 H                     0.47956   2.66966  -1.13148 
 H                     1.95888   0.63557  -0.38253 
 H                     4.09837   0.61117   0.22069 
 H                     5.03384   4.16754  -0.26663 
 H                     6.29919   0.1215    0.43632 
 H                     8.63821   0.86135   0.46832 
 C                     7.40957   5.3323   -0.29044 
 C                     9.65152   3.29644   0.1252 
 F                     9.89672   4.42364   0.8063 
 F                     10.14387   3.45822  -1.1148 
 F                     10.38726   2.32603   0.70156 
 F                     6.34987   5.94996  -0.83509 
 F                     8.45252   5.56125  -1.10114 
 F                     7.65882   5.94768   0.87649 
 

 GradGradGradGradGradGradGradGradGradGradGradGradGradGradGradGradGradGrad
 Berny optimization.
 Initialization pass.
                           ----------------------------
                           !    Initial Parameters    !
                           ! (Angstroms and Degrees)  !
 --------------------------                            --------------------------
 ! Name  Definition              Value          Derivative Info.                !
 --------------------------------------------------------------------------------
 ! R1    R(1,2)                  1.527          estimate D2E/DX2                !
 ! R2    R(1,14)                 1.0934         estimate D2E/DX2                !
 ! R3    R(1,15)                 1.0951         estimate D2E/DX2                !
 ! R4    R(1,16)                 1.095          estimate D2E/DX2                !
 ! R5    R(2,3)                  1.5231         estimate D2E/DX2                !
 ! R6    R(2,17)                 1.099          estimate D2E/DX2                !
 ! R7    R(2,18)                 1.0964         estimate D2E/DX2                !
 ! R8    R(3,4)                  1.4584         estimate D2E/DX2                !
 ! R9    R(3,19)                 1.0933         estimate D2E/DX2                !
 ! R10   R(3,20)                 1.0992         estimate D2E/DX2                !
 ! R11   R(4,5)                  1.3727         estimate D2E/DX2                !
 ! R12   R(4,21)                 1.0127         estimate D2E/DX2                !
 ! R13   R(5,6)                  1.2174         estimate D2E/DX2                !
 ! R14   R(5,7)                  1.3939         estimate D2E/DX2                !
 ! R15   R(7,8)                  1.3961         estimate D2E/DX2                !
 ! R16   R(7,22)                 1.0116         estimate D2E/DX2                !
 ! R17   R(8,9)                  1.4024         estimate D2E/DX2                !
 ! R18   R(8,10)                 1.3985         estimate D2E/DX2                !
 ! R19   R(9,13)                 1.3906         estimate D2E/DX2                !
 ! R20   R(9,23)                 1.0805         estimate D2E/DX2                !
 ! R21   R(10,11)                1.3862         estimate D2E/DX2                !
 ! R22   R(10,24)                1.0872         estimate D2E/DX2                !
 ! R23   R(11,12)                1.3932         estimate D2E/DX2                !
 ! R24   R(11,25)                1.0841         estimate D2E/DX2                !
 ! R25   R(12,13)                1.4031         estimate D2E/DX2                !
 ! R26   R(12,27)                1.5102         estimate D2E/DX2                !
 ! R27   R(13,26)                1.5162         estimate D2E/DX2                !
 ! R28   R(26,31)                1.3421         estimate D2E/DX2                !
 ! R29   R(26,32)                1.3407         estimate D2E/DX2                !
 ! R30   R(26,33)                1.3426         estimate D2E/DX2                !
 ! R31   R(27,28)                1.3396         estimate D2E/DX2                !
 ! R32   R(27,29)                1.3439         estimate D2E/DX2                !
 ! R33   R(27,30)                1.3473         estimate D2E/DX2                !
 ! A1    A(2,1,14)             111.141          estimate D2E/DX2                !
 ! A2    A(2,1,15)             111.0882         estimate D2E/DX2                !
 ! A3    A(2,1,16)             110.9029         estimate D2E/DX2                !
 ! A4    A(14,1,15)            107.8755         estimate D2E/DX2                !
 ! A5    A(14,1,16)            107.88           estimate D2E/DX2                !
 ! A6    A(15,1,16)            107.8053         estimate D2E/DX2                !
 ! A7    A(1,2,3)              111.4951         estimate D2E/DX2                !
 ! A8    A(1,2,17)             109.4546         estimate D2E/DX2                !
 ! A9    A(1,2,18)             110.2979         estimate D2E/DX2                !
 ! A10   A(3,2,17)             109.571          estimate D2E/DX2                !
 ! A11   A(3,2,18)             108.9669         estimate D2E/DX2                !
 ! A12   A(17,2,18)            106.945          estimate D2E/DX2                !
 ! A13   A(2,3,4)              110.4982         estimate D2E/DX2                !
 ! A14   A(2,3,19)             110.6663         estimate D2E/DX2                !
 ! A15   A(2,3,20)             110.5436         estimate D2E/DX2                !
 ! A16   A(4,3,19)             107.3559         estimate D2E/DX2                !
 ! A17   A(4,3,20)             110.63           estimate D2E/DX2                !
 ! A18   A(19,3,20)            107.0444         estimate D2E/DX2                !
 ! A19   A(3,4,5)              118.9262         estimate D2E/DX2                !
 ! A20   A(3,4,21)             116.1778         estimate D2E/DX2                !
 ! A21   A(5,4,21)             118.016          estimate D2E/DX2                !
 ! A22   A(4,5,6)              123.124          estimate D2E/DX2                !
 ! A23   A(4,5,7)              113.2016         estimate D2E/DX2                !
 ! A24   A(6,5,7)              123.6553         estimate D2E/DX2                !
 ! A25   A(5,7,8)              127.3321         estimate D2E/DX2                !
 ! A26   A(5,7,22)             116.6848         estimate D2E/DX2                !
 ! A27   A(8,7,22)             115.1454         estimate D2E/DX2                !
 ! A28   A(7,8,9)              123.4275         estimate D2E/DX2                !
 ! A29   A(7,8,10)             117.6745         estimate D2E/DX2                !
 ! A30   A(9,8,10)             118.8849         estimate D2E/DX2                !
 ! A31   A(8,9,13)             120.0932         estimate D2E/DX2                !
 ! A32   A(8,9,23)             119.7415         estimate D2E/DX2                !
 ! A33   A(13,9,23)            120.165          estimate D2E/DX2                !
 ! A34   A(8,10,11)            120.5842         estimate D2E/DX2                !
 ! A35   A(8,10,24)            119.9888         estimate D2E/DX2                !
 ! A36   A(11,10,24)           119.4269         estimate D2E/DX2                !
 ! A37   A(10,11,12)           121.0678         estimate D2E/DX2                !
 ! A38   A(10,11,25)           119.4549         estimate D2E/DX2                !
 ! A39   A(12,11,25)           119.4759         estimate D2E/DX2                !
 ! A40   A(11,12,13)           118.3539         estimate D2E/DX2                !
 ! A41   A(11,12,27)           117.782          estimate D2E/DX2                !
 ! A42   A(13,12,27)           123.8473         estimate D2E/DX2                !
 ! A43   A(9,13,12)            121.0126         estimate D2E/DX2                !
 ! A44   A(9,13,26)            116.5901         estimate D2E/DX2                !
 ! A45   A(12,13,26)           122.3783         estimate D2E/DX2                !
 ! A46   A(13,26,31)           111.4984         estimate D2E/DX2                !
 ! A47   A(13,26,32)           112.0944         estimate D2E/DX2                !
 ! A48   A(13,26,33)           111.6822         estimate D2E/DX2                !
 ! A49   A(31,26,32)           106.8736         estimate D2E/DX2                !
 ! A50   A(31,26,33)           106.7607         estimate D2E/DX2                !
 ! A51   A(32,26,33)           107.6312         estimate D2E/DX2                !
 ! A52   A(12,27,28)           112.6681         estimate D2E/DX2                !
 ! A53   A(12,27,29)           112.2757         estimate D2E/DX2                !
 ! A54   A(12,27,30)           110.9103         estimate D2E/DX2                !
 ! A55   A(28,27,29)           107.5037         estimate D2E/DX2                !
 ! A56   A(28,27,30)           106.7744         estimate D2E/DX2                !
 ! A57   A(29,27,30)           106.3411         estimate D2E/DX2                !
 ! D1    D(14,1,2,3)          -179.9003         estimate D2E/DX2                !
 ! D2    D(14,1,2,17)           58.7058         estimate D2E/DX2                !
 ! D3    D(14,1,2,18)          -58.6951         estimate D2E/DX2                !
 ! D4    D(15,1,2,3)            59.9778         estimate D2E/DX2                !
 ! D5    D(15,1,2,17)          -61.4161         estimate D2E/DX2                !
 ! D6    D(15,1,2,18)         -178.817          estimate D2E/DX2                !
 ! D7    D(16,1,2,3)           -59.8966         estimate D2E/DX2                !
 ! D8    D(16,1,2,17)          178.7095         estimate D2E/DX2                !
 ! D9    D(16,1,2,18)           61.3085         estimate D2E/DX2                !
 ! D10   D(1,2,3,4)           -179.9974         estimate D2E/DX2                !
 ! D11   D(1,2,3,19)            61.2266         estimate D2E/DX2                !
 ! D12   D(1,2,3,20)           -57.1915         estimate D2E/DX2                !
 ! D13   D(17,2,3,4)           -58.6712         estimate D2E/DX2                !
 ! D14   D(17,2,3,19)         -177.4472         estimate D2E/DX2                !
 ! D15   D(17,2,3,20)           64.1347         estimate D2E/DX2                !
 ! D16   D(18,2,3,4)            58.0254         estimate D2E/DX2                !
 ! D17   D(18,2,3,19)          -60.7506         estimate D2E/DX2                !
 ! D18   D(18,2,3,20)         -179.1686         estimate D2E/DX2                !
 ! D19   D(2,3,4,5)           -169.059          estimate D2E/DX2                !
 ! D20   D(2,3,4,21)            40.5208         estimate D2E/DX2                !
 ! D21   D(19,3,4,5)           -48.2889         estimate D2E/DX2                !
 ! D22   D(19,3,4,21)          161.2909         estimate D2E/DX2                !
 ! D23   D(20,3,4,5)            68.1855         estimate D2E/DX2                !
 ! D24   D(20,3,4,21)          -82.2347         estimate D2E/DX2                !
 ! D25   D(3,4,5,6)              6.9594         estimate D2E/DX2                !
 ! D26   D(3,4,5,7)           -174.5767         estimate D2E/DX2                !
 ! D27   D(21,4,5,6)           156.8399         estimate D2E/DX2                !
 ! D28   D(21,4,5,7)           -24.6962         estimate D2E/DX2                !
 ! D29   D(4,5,7,8)            179.446          estimate D2E/DX2                !
 ! D30   D(4,5,7,22)           -11.6114         estimate D2E/DX2                !
 ! D31   D(6,5,7,8)             -2.0995         estimate D2E/DX2                !
 ! D32   D(6,5,7,22)           166.843          estimate D2E/DX2                !
 ! D33   D(5,7,8,9)            -10.2975         estimate D2E/DX2                !
 ! D34   D(5,7,8,10)           171.0404         estimate D2E/DX2                !
 ! D35   D(22,7,8,9)          -179.3852         estimate D2E/DX2                !
 ! D36   D(22,7,8,10)            1.9526         estimate D2E/DX2                !
 ! D37   D(7,8,9,13)          -178.657          estimate D2E/DX2                !
 ! D38   D(7,8,9,23)             1.5483         estimate D2E/DX2                !
 ! D39   D(10,8,9,13)           -0.0102         estimate D2E/DX2                !
 ! D40   D(10,8,9,23)         -179.8049         estimate D2E/DX2                !
 ! D41   D(7,8,10,11)          178.9617         estimate D2E/DX2                !
 ! D42   D(7,8,10,24)           -1.1527         estimate D2E/DX2                !
 ! D43   D(9,8,10,11)            0.2369         estimate D2E/DX2                !
 ! D44   D(9,8,10,24)         -179.8775         estimate D2E/DX2                !
 ! D45   D(8,9,13,12)           -0.4707         estimate D2E/DX2                !
 ! D46   D(8,9,13,26)         -178.9212         estimate D2E/DX2                !
 ! D47   D(23,9,13,12)         179.3232         estimate D2E/DX2                !
 ! D48   D(23,9,13,26)           0.8726         estimate D2E/DX2                !
 ! D49   D(8,10,11,12)           0.0148         estimate D2E/DX2                !
 ! D50   D(8,10,11,25)         179.5783         estimate D2E/DX2                !
 ! D51   D(24,10,11,12)       -179.8714         estimate D2E/DX2                !
 ! D52   D(24,10,11,25)         -0.308          estimate D2E/DX2                !
 ! D53   D(10,11,12,13)         -0.4831         estimate D2E/DX2                !
 ! D54   D(10,11,12,27)       -179.0504         estimate D2E/DX2                !
 ! D55   D(25,11,12,13)        179.9536         estimate D2E/DX2                !
 ! D56   D(25,11,12,27)          1.3863         estimate D2E/DX2                !
 ! D57   D(11,12,13,9)           0.7114         estimate D2E/DX2                !
 ! D58   D(11,12,13,26)        179.0707         estimate D2E/DX2                !
 ! D59   D(27,12,13,9)         179.1852         estimate D2E/DX2                !
 ! D60   D(27,12,13,26)         -2.4555         estimate D2E/DX2                !
 ! D61   D(11,12,27,28)       -137.883          estimate D2E/DX2                !
 ! D62   D(11,12,27,29)        100.5619         estimate D2E/DX2                !
 ! D63   D(11,12,27,30)        -18.2536         estimate D2E/DX2                !
 ! D64   D(13,12,27,28)         43.6351         estimate D2E/DX2                !
 ! D65   D(13,12,27,29)        -77.92           estimate D2E/DX2                !
 ! D66   D(13,12,27,30)        163.2645         estimate D2E/DX2                !
 ! D67   D(9,13,26,31)         -18.6647         estimate D2E/DX2                !
 ! D68   D(9,13,26,32)        -138.4388         estimate D2E/DX2                !
 ! D69   D(9,13,26,33)         100.685          estimate D2E/DX2                !
 ! D70   D(12,13,26,31)        162.9078         estimate D2E/DX2                !
 ! D71   D(12,13,26,32)         43.1337         estimate D2E/DX2                !
 ! D72   D(12,13,26,33)        -77.7425         estimate D2E/DX2                !
 --------------------------------------------------------------------------------
 Trust Radius=3.00D-01 FncErr=1.00D-07 GrdErr=1.00D-06
 Number of steps in this run=    172 maximum allowed number of steps=    198.
 GradGradGradGradGradGradGradGradGradGradGradGradGradGradGradGradGradGrad

                          Input orientation:                          
 ---------------------------------------------------------------------
 Center     Atomic      Atomic             Coordinates (Angstroms)
 Number     Number       Type             X           Y           Z
 ---------------------------------------------------------------------
      1          6           0       -1.914214    1.871194   -0.027584
      2          6           0       -0.541749    1.216714    0.113111
      3          6           0        0.580977    2.215460   -0.135678
      4          7           0        1.880449    1.568307    0.003989
      5          6           0        3.009783    2.347791    0.041504
      6          8           0        2.977516    3.563865    0.087170
      7          7           0        4.189351    1.605210    0.056302
      8          6           0        5.496981    2.093598    0.082516
      9          6           0        5.821257    3.444208   -0.111052
     10          6           0        6.530087    1.173313    0.286375
     11          6           0        7.852295    1.589268    0.301908
     12          6           0        8.186782    2.928856    0.116111
     13          6           0        7.151008    3.850739   -0.098390
     14          1           0       -2.715574    1.149801    0.153839
     15          1           0       -2.053425    2.282487   -1.032957
     16          1           0       -2.031369    2.691043    0.688761
     17          1           0       -0.458459    0.384133   -0.599470
     18          1           0       -0.424333    0.791278    1.116779
     19          1           0        0.541940    3.029330    0.593229
     20          1           0        0.479558    2.669657   -1.131483
     21          1           0        1.958877    0.635569   -0.382534
     22          1           0        4.098373    0.611174    0.220689
     23          1           0        5.033843    4.167536   -0.266632
     24          1           0        6.299195    0.121504    0.436320
     25          1           0        8.638214    0.861348    0.468318
     26          6           0        7.409572    5.332300   -0.290436
     27          6           0        9.651524    3.296444    0.125202
     28          9           0        9.896718    4.423641    0.806302
     29          9           0       10.143868    3.458220   -1.114800
     30          9           0       10.387256    2.326031    0.701560
     31          9           0        6.349871    5.949958   -0.835090
     32          9           0        8.452523    5.561247   -1.101137
     33          9           0        7.658815    5.947678    0.876489
 ---------------------------------------------------------------------
                    Distance matrix (angstroms):
                    1          2          3          4          5
     1  C    0.000000
     2  C    1.527023   0.000000
     3  C    2.521147   1.523123   0.000000
     4  N    3.806863   2.450014   1.458404   0.000000
     5  C    4.947490   3.727981   2.438852   1.372734   0.000000
     6  O    5.177579   4.230250   2.758850   2.278755   1.217359
     7  N    6.109934   4.747364   3.664645   2.309789   1.393925
     8  C    7.415348   6.102140   4.922352   3.655324   2.500490
     9  C    7.894228   6.745355   5.382467   4.366028   3.021554
    10  C    8.478904   7.074091   6.054428   4.674922   3.719126
    11  C    9.776132   8.404429   7.311338   5.979310   4.908472
    12  C   10.157234   8.894868   7.643336   6.452402   5.210040
    13  C    9.279108   8.133961   6.770586   5.744455   4.407739
    14  H    1.093390   2.175237   3.476593   4.617471   5.850429
    15  H    1.095132   2.175893   2.783824   4.130457   5.176369
    16  H    1.095001   2.173473   2.780329   4.126956   5.094111
    17  H    2.158154   1.099046   2.156221   2.690153   4.036769
    18  H    2.166917   1.096417   2.146531   2.674715   3.920728
    19  H    2.785566   2.165750   1.093258   2.067220   2.618997
    20  H    2.754320   2.168670   1.099185   2.112999   2.807407
    21  H    4.080881   2.614675   2.110829   1.012695   2.053270
    22  H    6.148210   4.680703   3.882371   2.425335   2.057419
    23  H    7.321599   6.319714   4.863719   4.095500   2.739204
    24  H    8.410512   6.935594   6.116359   4.669632   3.991549
    25  H   10.612231   9.193703   8.192527   6.810490   5.837030
    26  C    9.948936   8.962388   7.507886   6.695187   5.326877
    27  C   11.654225  10.403280   9.138457   7.961831   6.709670
    28  F   12.112326  10.941960   9.620104   8.547351   7.233529
    29  F   12.210570  10.987016   9.692884   8.550295   7.311994
    30  F   12.331451  11.000909   9.842575   8.568927   7.406973
    31  F    9.251134   8.414102   6.907661   6.314955   4.990011
    32  F   11.056140  10.062121   8.607417   7.768979   6.423032
    33  F   10.444039   9.498106   8.065341   7.302716   5.938846
                    6          7          8          9         10
     6  O    0.000000
     7  N    2.303437   0.000000
     8  C    2.917089   1.396103   0.000000
     9  C    2.853151   2.464353   1.402416   0.000000
    10  C    4.286628   2.391341   1.398496   2.411919   0.000000
    11  C    5.263898   3.671204   2.418675   2.781448   1.386181
    12  C    5.247907   4.211302   2.816703   2.431645   2.419827
    13  C    4.187453   3.719911   2.419933   1.390563   2.775284
    14  H    6.184127   6.920615   8.266916   8.843752   9.246641
    15  H    5.311024   6.373181   7.634696   8.013121   8.754860
    16  H    5.119829   6.346368   7.576313   7.929103   8.704248
    17  H    4.731606   4.850073   6.233348   7.002674   7.088533
    18  H    4.507761   4.803455   6.150422   6.895869   7.014234
    19  H    2.544376   3.952216   5.068416   5.342220   6.276692
    20  H    2.919678   4.038124   5.194244   5.493173   6.392047
    21  H    3.135788   2.471396   3.854906   4.783318   4.651082
    22  H    3.161096   1.011636   2.042737   3.332335   2.496707
    23  H    2.172113   2.717162   2.153514   1.080477   3.392630
    24  H    4.796384   2.607151   2.158212   3.401235   1.087242
    25  H    6.284296   4.529400   3.396267   3.865499   2.138838
    26  C    4.786760   4.937737   3.779721   2.473826   4.289917
    27  C    6.679472   5.718422   4.325378   3.840390   3.778496
    28  F    7.009402   6.409375   5.030970   4.290712   4.708414
    29  F    7.267221   6.345187   4.988920   4.437643   4.499279
    30  F    7.537503   6.272955   4.934778   4.770640   4.047084
    31  F    4.232822   4.933483   4.054742   2.661287   4.909837
    32  F    5.947883   5.929968   4.707532   3.519330   4.987476
    33  F    5.312265   5.618444   4.489750   3.258715   4.941339
                   11         12         13         14         15
    11  C    0.000000
    12  C    1.393161   0.000000
    13  C    2.401310   1.403106   0.000000
    14  H   10.578040  11.046621  10.232699   0.000000
    15  H   10.019267  10.324726   9.383731   1.769153   0.000000
    16  H    9.952406  10.236947   9.288732   1.769097   1.769665
    17  H    8.445914   9.040346   8.376898   2.499659   2.517057
    18  H    8.354842   8.928711   8.259705   2.511091   3.082046
    19  H    7.456537   7.660374   6.695732   3.786436   3.152487
    20  H    7.588090   7.811848   6.853501   3.764424   2.564295
    21  H    6.009192   6.655420   6.113614   4.733141   4.385653
    22  H    3.880103   4.700816   4.462641   6.835530   6.496886
    23  H    3.861914   3.409083   2.147337   8.326883   7.373603
    24  H    2.141149   3.398050   3.862472   9.077624   8.751850
    25  H    1.084080   2.145328   3.386650  11.361805  10.889656
    26  C    3.815385   2.558492   1.516167  10.963999   9.970005
    27  C    2.486543   1.510190   2.570957  12.552052  11.805730
    28  F    3.530969   2.373737   2.947136  13.046595  12.278979
    29  F    3.278925   2.371825   3.185023  13.126443  12.254101
    30  F    2.669937   2.355469   3.665782  13.166916  12.561090
    31  F    4.750332   3.661432   2.364586  10.305425   9.170871
    32  F    4.255047   2.912352   2.371767  12.073202  11.005900
    33  F    4.400376   3.157564   2.367575  11.452939  10.554962
                   16         17         18         19         20
    16  H    0.000000
    17  H    3.074967   0.000000
    18  H    2.524851   1.764212   0.000000
    19  H    2.597207   3.069267   2.493325   0.000000
    20  H    3.101370   2.527160   3.065944   1.762920   0.000000
    21  H    4.614619   2.440040   2.819907   2.947866   2.624276
    22  H    6.489891   4.635615   4.614140   4.316767   4.377390
    23  H    7.280798   6.677597   6.565412   4.712967   4.871665
    24  H    8.721499   6.841617   6.790983   6.451826   6.543643
    25  H   10.827575   9.171552   9.085988   8.382446   8.508409
    26  C    9.852229   9.299773   9.163581   7.297184   7.471420
    27  C   11.712134  10.546016  10.429860   9.125509   9.278851
    28  F   12.053836  11.203727  10.945984   9.460516   9.773145
    29  F   12.331982  11.051014  11.125619   9.762086   9.696443
    30  F   12.423994  11.094736  10.927870   9.870998  10.081696
    31  F    9.120736   8.797004   8.735652   6.655991   6.731181
    32  F   11.016069  10.317935  10.318446   8.476956   8.481178
    33  F   10.224509   9.950961   9.590803   7.697201   8.143655
                   21         22         23         24         25
    21  H    0.000000
    22  H    2.223042   0.000000
    23  H    4.684404   3.709488   0.000000
    24  H    4.446700   2.264926   4.297166   0.000000
    25  H    6.737096   4.553467   4.945961   2.453447   0.000000
    26  C    7.195682   5.789155   2.646003   5.377128   4.698370
    27  C    8.155665   6.169058   4.715434   4.627650   2.659740
    28  F    8.875367   6.964097   4.986415   5.620270   3.793151
    29  F    8.688938   6.814485   5.228277   5.321762   3.393671
    30  F    8.664323   6.536208   5.743481   4.652154   2.293217
    31  F    6.908572   5.889527   2.287379   5.965729   5.729689
    32  F    8.182062   6.723769   3.784997   6.049083   4.958500
    33  F    7.892588   6.448651   3.371366   5.998885   5.195823
                   26         27         28         29         30
    26  C    0.000000
    27  C    3.056766   0.000000
    28  F    2.866076   1.339624   0.000000
    29  F    3.415864   1.343942   2.164199   0.000000
    30  F    4.346069   1.347290   2.156749   2.154125   0.000000
    31  F    1.342056   4.343295   4.195704   4.547682   5.638672
    32  F    1.340671   2.840924   2.649183   2.698808   4.178461
    33  F    1.342582   3.400642   2.708472   4.042044   4.537765
                   31         32         33
    31  F    0.000000
    32  F    2.154767   0.000000
    33  F    2.154726   2.165711   0.000000
 Stoichiometry    C12H12F6N2O
 Framework group  C1[X(C12H12F6N2O)]
 Deg. of freedom    93
 Full point group                 C1      NOp   1
 Largest Abelian subgroup         C1      NOp   1
 Largest concise Abelian subgroup C1      NOp   1
                         Standard orientation:                         
 ---------------------------------------------------------------------
 Center     Atomic      Atomic             Coordinates (Angstroms)
 Number     Number       Type             X           Y           Z
 ---------------------------------------------------------------------
      1          6           0       -7.737990    0.519806    0.052411
      2          6           0       -6.556423   -0.447487    0.058903
      3          6           0       -5.231294    0.289147   -0.087071
      4          7           0       -4.118990   -0.654062   -0.078279
      5          6           0       -2.838894   -0.170109    0.029152
      6          8           0       -2.586345    1.001755    0.241082
      7          7           0       -1.865350   -1.159984   -0.094883
      8          6           0       -0.479852   -0.995952   -0.043974
      9          6           0        0.151015    0.256427   -0.061935
     10          6           0        0.309614   -2.149484   -0.000362
     11          6           0        1.692385   -2.057065    0.029639
     12          6           0        2.330598   -0.818746    0.017545
     13          6           0        1.538922    0.338429   -0.036301
     14          1           0       -8.685812   -0.014722    0.159249
     15          1           0       -7.776407    1.088646   -0.882608
     16          1           0       -7.661107    1.236006    0.877138
     17          1           0       -6.669211   -1.168638   -0.762756
     18          1           0       -6.542500   -1.024663    0.991000
     19          1           0       -5.079860    0.979762    0.746795
     20          1           0       -5.222955    0.889212   -1.007973
     21          1           0       -4.260187   -1.516133   -0.590576
     22          1           0       -2.186078   -2.118956   -0.064654
     23          1           0       -0.445585    1.156744   -0.092391
     24          1           0       -0.160637   -3.129689    0.012145
     25          1           0        2.286449   -2.962972    0.070240
     26          6           0        2.136470    1.731873   -0.032823
     27          6           0        3.840674   -0.804967    0.030045
     28          9           0        4.341688    0.128243    0.850226
     29          9           0        4.358298   -0.589627   -1.191377
     30          9           0        4.328946   -1.990080    0.445121
     31          9           0        1.250785    2.647878   -0.454263
     32          9           0        3.204778    1.824445   -0.837526
     33          9           0        2.521470    2.103415    1.198541
 ---------------------------------------------------------------------
 Rotational constants (GHZ):      0.7101528      0.1180060      0.1052174
 General basis read from cards:  (6D, 7F)
 There are   423 symmetry adapted cartesian basis functions of A   symmetry.
 There are   423 symmetry adapted basis functions of A   symmetry.
   423 basis functions,   720 primitive gaussians,   423 cartesian basis functions
    80 alpha electrons       80 beta electrons
       nuclear repulsion energy      1778.5640756036 Hartrees.
 NAtoms=   33 NActive=   33 NUniq=   33 SFac= 1.00D+00 NAtFMM=   60 NAOKFM=F Big=F
 Integral buffers will be    131072 words long.
 Raffenetti 2 integral format.
 Two-electron integral symmetry is turned on.
 ------------------------------------------------------------------------------
 Polarizable Continuum Model (PCM)
 =================================
 Model                : PCM (using non-symmetric T matrix).
 Atomic radii         : SMD-Coulomb.
 Polarization charges : Total charges.
 Charge compensation  : None.
 Solution method      : On-the-fly selection.
 Cavity type          : VdW (van der Waals Surface) (Alpha=1.000).
 Cavity algorithm     : GePol (No added spheres)
                        Default sphere list used, NSphG=   33.
                        Lebedev-Laikov grids with approx.  5.0 points / Ang**2.
                        Smoothing algorithm: York/Karplus (Gamma=1.0000).
                        Polarization charges: spherical gaussians, with
                                              point-specific exponents (IZeta= 3).
                        Self-potential: point-specific (ISelfS= 7).
                        Self-field    : sphere-specific E.n sum rule (ISelfD= 2).
 1st derivatives      : Analytical E(r).r(x)/FMM algorithm (CHGder, D1EAlg=3).
                        Cavity 1st derivative terms included.
 Solvent              : n-Pentadecane, Eps=   2.033300 Eps(inf)=   2.049192
 ------------------------------------------------------------------------------
 ------------------------------------------------------------------------------
 Atomic radii for non-electrostatic terms: SMD-CDS.
 ------------------------------------------------------------------------------
 Nuclear repulsion after PCM non-electrostatic terms =     1778.5589364805 Hartrees.
 One-electron integrals computed using PRISM.
 NBasis=   423 RedAO= T EigKep=  1.01D-06  NBF=   423
 NBsUse=   422 1.00D-06 EigRej=  2.09D-07 NBFU=   422
 ExpMin= 4.38D-02 ExpMax= 7.00D+03 ExpMxC= 1.05D+03 IAcc=3 IRadAn=         5 AccDes= 0.00D+00
 Harris functional with IExCor= 1009 and IRadAn=       5 diagonalized for initial guess.
 HarFok:  IExCor= 1009 AccDes= 0.00D+00 IRadAn=         5 IDoV= 1 UseB2=F ITyADJ=14
 ICtDFT=  3500011 ScaDFX=  1.000000  1.000000  1.000000  1.000000
 FoFCou: FMM=F IPFlag=           0 FMFlag=      100000 FMFlg1=           0
         NFxFlg=           0 DoJE=T BraDBF=F KetDBF=T FulRan=T
         wScrn=  0.000000 ICntrl=     500 IOpCl=  0 I1Cent=   200000004 NGrid=           0
         NMat0=    1 NMatS0=      1 NMatT0=    0 NMatD0=    1 NMtDS0=    0 NMtDT0=    0
 Petite list used in FoFCou.
 Requested convergence on RMS density matrix=1.00D-08 within 128 cycles.
 Requested convergence on MAX density matrix=1.00D-06.
 Requested convergence on             energy=1.00D-06.
 No special actions if energy rises.
 Inv3:  Mode=1 IEnd=    18870192.
 Iteration    1 A*A^-1 deviation from unit magnitude is 6.00D-15 for   2501.
 Iteration    1 A*A^-1 deviation from orthogonality  is 2.16D-15 for   1936    128.
 Iteration    1 A^-1*A deviation from unit magnitude is 6.22D-15 for   2501.
 Iteration    1 A^-1*A deviation from orthogonality  is 3.08D-14 for   1969   1936.
 Error on total polarization charges =  0.02082
 SCF Done:  E(RM062X) =  -1247.93265506     A.U. after   16 cycles
            NFock= 16  Conv=0.50D-08     -V/T= 2.0079
 SMD-CDS (non-electrostatic) energy       (kcal/mol) =      -3.22
 (included in total energy above)

 **********************************************************************

            Population analysis using the SCF density.

 **********************************************************************

 Orbital symmetries:
       Occupied  (A) (A) (A) (A) (A) (A) (A) (A) (A) (A) (A) (A)
                 (A) (A) (A) (A) (A) (A) (A) (A) (A) (A) (A) (A)
                 (A) (A) (A) (A) (A) (A) (A) (A) (A) (A) (A) (A)
                 (A) (A) (A) (A) (A) (A) (A) (A) (A) (A) (A) (A)
                 (A) (A) (A) (A) (A) (A) (A) (A) (A) (A) (A) (A)
                 (A) (A) (A) (A) (A) (A) (A) (A) (A) (A) (A) (A)
                 (A) (A) (A) (A) (A) (A) (A) (A)
       Virtual   (A) (A) (A) (A) (A) (A) (A) (A) (A) (A) (A) (A)
                 (A) (A) (A) (A) (A) (A) (A) (A) (A) (A) (A) (A)
                 (A) (A) (A) (A) (A) (A) (A) (A) (A) (A) (A) (A)
                 (A) (A) (A) (A) (A) (A) (A) (A) (A) (A) (A) (A)
                 (A) (A) (A) (A) (A) (A) (A) (A) (A) (A) (A) (A)
                 (A) (A) (A) (A) (A) (A) (A) (A) (A) (A) (A) (A)
                 (A) (A) (A) (A) (A) (A) (A) (A) (A) (A) (A) (A)
                 (A) (A) (A) (A) (A) (A) (A) (A) (A) (A) (A) (A)
                 (A) (A) (A) (A) (A) (A) (A) (A) (A) (A) (A) (A)
                 (A) (A) (A) (A) (A) (A) (A) (A) (A) (A) (A) (A)
                 (A) (A) (A) (A) (A) (A) (A) (A) (A) (A) (A) (A)
                 (A) (A) (A) (A) (A) (A) (A) (A) (A) (A) (A) (A)
                 (A) (A) (A) (A) (A) (A) (A) (A) (A) (A) (A) (A)
                 (A) (A) (A) (A) (A) (A) (A) (A) (A) (A) (A) (A)
                 (A) (A) (A) (A) (A) (A) (A) (A) (A) (A) (A) (A)
                 (A) (A) (A) (A) (A) (A) (A) (A) (A) (A) (A) (A)
                 (A) (A) (A) (A) (A) (A) (A) (A) (A) (A) (A) (A)
                 (A) (A) (A) (A) (A) (A) (A) (A) (A) (A) (A) (A)
                 (A) (A) (A) (A) (A) (A) (A) (A) (A) (A) (A) (A)
                 (A) (A) (A) (A) (A) (A) (A) (A) (A) (A) (A) (A)
                 (A) (A) (A) (A) (A) (A) (A) (A) (A) (A) (A) (A)
                 (A) (A) (A) (A) (A) (A) (A) (A) (A) (A) (A) (A)
                 (A) (A) (A) (A) (A) (A) (A) (A) (A) (A) (A) (A)
                 (A) (A) (A) (A) (A) (A) (A) (A) (A) (A) (A) (A)
                 (A) (A) (A) (A) (A) (A) (A) (A) (A) (A) (A) (A)
                 (A) (A) (A) (A) (A) (A) (A) (A) (A) (A) (A) (A)
                 (A) (A) (A) (A) (A) (A) (A) (A) (A) (A) (A) (A)
                 (A) (A) (A) (A) (A) (A) (A) (A) (A) (A) (A) (A)
                 (A) (A) (A) (A) (A) (A)
 The electronic state is 1-A.
 Alpha  occ. eigenvalues --  -25.30485 -25.30336 -25.30323 -25.30294 -25.30015
 Alpha  occ. eigenvalues --  -25.29998 -19.62760 -14.81918 -14.79594 -10.81806
 Alpha  occ. eigenvalues --  -10.81732 -10.69986 -10.63241 -10.60542 -10.59780
 Alpha  occ. eigenvalues --  -10.58658 -10.58527 -10.58146 -10.57717 -10.55492
 Alpha  occ. eigenvalues --  -10.54128  -1.47339  -1.46882  -1.38006  -1.37724
 Alpha  occ. eigenvalues --   -1.37522  -1.37412  -1.19482  -1.07777  -1.04189
 Alpha  occ. eigenvalues --   -0.99668  -0.90808  -0.89918  -0.88383  -0.82842
 Alpha  occ. eigenvalues --   -0.81173  -0.78443  -0.74724  -0.74122  -0.70395
 Alpha  occ. eigenvalues --   -0.69586  -0.69512  -0.69313  -0.68905  -0.68874
 Alpha  occ. eigenvalues --   -0.68039  -0.65729  -0.63883  -0.60022  -0.57968
 Alpha  occ. eigenvalues --   -0.57912  -0.57227  -0.57110  -0.56776  -0.55494
 Alpha  occ. eigenvalues --   -0.55427  -0.54121  -0.53876  -0.53254  -0.52775
 Alpha  occ. eigenvalues --   -0.52637  -0.52178  -0.51279  -0.51225  -0.51059
 Alpha  occ. eigenvalues --   -0.50254  -0.48922  -0.48744  -0.47277  -0.45860
 Alpha  occ. eigenvalues --   -0.45226  -0.43618  -0.43099  -0.41302  -0.40626
 Alpha  occ. eigenvalues --   -0.39805  -0.36187  -0.34056  -0.33322  -0.29376
 Alpha virt. eigenvalues --   -0.01939  -0.00492  -0.00130   0.02197   0.02974
 Alpha virt. eigenvalues --    0.03153   0.03579   0.03911   0.04738   0.05153
 Alpha virt. eigenvalues --    0.05199   0.05684   0.06711   0.06908   0.06964
 Alpha virt. eigenvalues --    0.07317   0.07657   0.07876   0.08872   0.09063
 Alpha virt. eigenvalues --    0.09402   0.09446   0.10002   0.11474   0.11620
 Alpha virt. eigenvalues --    0.12010   0.12095   0.12647   0.13248   0.13489
 Alpha virt. eigenvalues --    0.14189   0.14714   0.15332   0.15915   0.16209
 Alpha virt. eigenvalues --    0.16471   0.17368   0.17865   0.18165   0.18501
 Alpha virt. eigenvalues --    0.19213   0.19326   0.20149   0.20295   0.21126
 Alpha virt. eigenvalues --    0.21219   0.21597   0.22168   0.22269   0.22679
 Alpha virt. eigenvalues --    0.23050   0.23142   0.23666   0.24168   0.24541
 Alpha virt. eigenvalues --    0.24894   0.25299   0.25612   0.26058   0.27066
 Alpha virt. eigenvalues --    0.27318   0.27550   0.28169   0.28361   0.28688
 Alpha virt. eigenvalues --    0.28849   0.29253   0.29540   0.29823   0.30460
 Alpha virt. eigenvalues --    0.30685   0.31119   0.31897   0.32467   0.32508
 Alpha virt. eigenvalues --    0.32859   0.33265   0.33448   0.34269   0.34543
 Alpha virt. eigenvalues --    0.34687   0.34898   0.35856   0.36005   0.36715
 Alpha virt. eigenvalues --    0.36833   0.37612   0.38476   0.38929   0.39171
 Alpha virt. eigenvalues --    0.39221   0.39979   0.40295   0.40612   0.41276
 Alpha virt. eigenvalues --    0.41881   0.42527   0.42994   0.43423   0.43871
 Alpha virt. eigenvalues --    0.44567   0.45210   0.45701   0.46083   0.46619
 Alpha virt. eigenvalues --    0.46944   0.47720   0.49758   0.50435   0.50663
 Alpha virt. eigenvalues --    0.51083   0.52247   0.52812   0.54408   0.56489
 Alpha virt. eigenvalues --    0.57860   0.58946   0.59991   0.63822   0.67086
 Alpha virt. eigenvalues --    0.67885   0.69021   0.71360   0.71518   0.73453
 Alpha virt. eigenvalues --    0.73732   0.74398   0.74891   0.76292   0.76893
 Alpha virt. eigenvalues --    0.77533   0.77952   0.79025   0.80018   0.81331
 Alpha virt. eigenvalues --    0.83133   0.83919   0.84812   0.85599   0.85894
 Alpha virt. eigenvalues --    0.86607   0.88609   0.89681   0.91278   0.92458
 Alpha virt. eigenvalues --    0.93524   0.94337   0.94804   0.95841   0.97862
 Alpha virt. eigenvalues --    0.98162   0.99397   1.00506   1.02764   1.03361
 Alpha virt. eigenvalues --    1.04381   1.05201   1.06246   1.07270   1.08467
 Alpha virt. eigenvalues --    1.09149   1.11359   1.13001   1.14922   1.15683
 Alpha virt. eigenvalues --    1.16797   1.17929   1.18188   1.19057   1.20366
 Alpha virt. eigenvalues --    1.20730   1.21701   1.24945   1.25606   1.27017
 Alpha virt. eigenvalues --    1.28020   1.29234   1.30748   1.32934   1.33200
 Alpha virt. eigenvalues --    1.35829   1.36936   1.39340   1.40841   1.40964
 Alpha virt. eigenvalues --    1.42297   1.43799   1.46404   1.47877   1.48361
 Alpha virt. eigenvalues --    1.49083   1.49531   1.49982   1.52776   1.54562
 Alpha virt. eigenvalues --    1.56180   1.56952   1.62668   1.64162   1.65956
 Alpha virt. eigenvalues --    1.66373   1.67067   1.67965   1.69005   1.69623
 Alpha virt. eigenvalues --    1.69699   1.71663   1.72415   1.73146   1.74157
 Alpha virt. eigenvalues --    1.74515   1.75167   1.75669   1.76207   1.76557
 Alpha virt. eigenvalues --    1.76649   1.77817   1.78405   1.79440   1.79952
 Alpha virt. eigenvalues --    1.80441   1.81160   1.82886   1.83459   1.84804
 Alpha virt. eigenvalues --    1.86135   1.87214   1.87792   1.88670   1.89372
 Alpha virt. eigenvalues --    1.89593   1.90891   1.90963   1.91768   1.92644
 Alpha virt. eigenvalues --    1.93164   1.93802   1.94225   1.95436   1.96494
 Alpha virt. eigenvalues --    1.97097   1.97712   1.98274   1.99490   2.00274
 Alpha virt. eigenvalues --    2.02911   2.04521   2.04869   2.05521   2.05973
 Alpha virt. eigenvalues --    2.07127   2.08880   2.09749   2.11322   2.12144
 Alpha virt. eigenvalues --    2.12778   2.12839   2.14109   2.14458   2.15312
 Alpha virt. eigenvalues --    2.16257   2.16805   2.17125   2.17762   2.20243
 Alpha virt. eigenvalues --    2.22466   2.23673   2.23992   2.24846   2.26469
 Alpha virt. eigenvalues --    2.27336   2.29414   2.30932   2.31681   2.34135
 Alpha virt. eigenvalues --    2.34739   2.36790   2.36935   2.39387   2.39957
 Alpha virt. eigenvalues --    2.42840   2.45056   2.45487   2.47624   2.51262
 Alpha virt. eigenvalues --    2.51879   2.53341   2.56152   2.57084   2.61604
 Alpha virt. eigenvalues --    2.63586   2.64804   2.66510   2.68083   2.70567
 Alpha virt. eigenvalues --    2.71469   2.74158   2.77220   2.77396   2.78687
 Alpha virt. eigenvalues --    2.80191   2.83080   2.85525   2.85595   2.88475
 Alpha virt. eigenvalues --    2.89741   2.91561   2.97043   3.00298   3.05532
 Alpha virt. eigenvalues --    3.12465   3.18328   3.22082   3.22734   3.25102
 Alpha virt. eigenvalues --    3.26230   3.30202   3.33857   3.35141   3.40544
 Alpha virt. eigenvalues --    3.44809   4.14846   4.26209   4.27393   4.32465
 Alpha virt. eigenvalues --    4.33219   4.40571   4.41300   4.42667   4.48014
 Alpha virt. eigenvalues --    4.49996   4.57168   4.61320   4.63199   4.68554
 Alpha virt. eigenvalues --    4.83460   5.85329   5.91507   6.05784   6.19290
 Alpha virt. eigenvalues --    6.94835   7.24428
          Condensed to atoms (all electrons):
               1          2          3          4          5          6
     1  C    5.603195  -0.004138  -0.021145  -0.006183  -0.020862  -0.001660
     2  C   -0.004138   6.043271  -0.259049  -0.042406   0.060022   0.006108
     3  C   -0.021145  -0.259049   6.547943   0.297334  -0.529120  -0.092427
     4  N   -0.006183  -0.042406   0.297334   7.590443   0.314308  -0.179929
     5  C   -0.020862   0.060022  -0.529120   0.314308   6.154807   0.660425
     6  O   -0.001660   0.006108  -0.092427  -0.179929   0.660425   8.300082
     7  N    0.001068   0.001481  -0.096317  -0.393922   0.083736  -0.091006
     8  C   -0.002878   0.028929  -0.488268  -0.103505  -1.122240  -0.279052
     9  C    0.000925  -0.022873   0.239296  -0.003418   0.963359   0.332371
    10  C   -0.001697   0.011129  -0.169205  -0.093535  -1.450486  -0.104897
    11  C    0.000071  -0.000178   0.016087   0.023712   0.336212   0.015787
    12  C   -0.000135  -0.000379  -0.019429  -0.008495  -0.255089  -0.033348
    13  C    0.000233  -0.002085   0.036181   0.011172   0.081944   0.028514
    14  H    0.412036  -0.079105   0.022813   0.000807  -0.001528   0.000006
    15  H    0.400450  -0.061435  -0.002066   0.000516   0.009142  -0.000024
    16  H    0.434530  -0.070199  -0.008818   0.000763  -0.008252  -0.000078
    17  H   -0.025611   0.413420  -0.071006   0.005100  -0.008533  -0.000141
    18  H   -0.043010   0.428018  -0.081307   0.005890   0.008638  -0.000131
    19  H    0.014719  -0.049437   0.479362  -0.041465  -0.065451   0.000545
    20  H   -0.008628  -0.068432   0.402040  -0.076392   0.036425   0.004015
    21  H    0.001123   0.001625  -0.059503   0.245717   0.025574   0.007322
    22  H   -0.000088  -0.001272   0.005684   0.018672  -0.033505   0.005342
    23  H    0.000000  -0.000035   0.001327  -0.000014   0.006594  -0.005067
    24  H   -0.000001   0.000004  -0.000313   0.001477  -0.011786   0.000056
    25  H   -0.000000  -0.000000   0.000011   0.000005   0.001487  -0.000000
    26  C    0.000034   0.000273   0.003294   0.013128   0.015319   0.010164
    27  C   -0.000003   0.000014  -0.000159   0.002759  -0.060261  -0.002153
    28  F   -0.000000   0.000000   0.000002   0.000001   0.000145   0.000005
    29  F   -0.000000  -0.000000   0.000000   0.000001  -0.000190  -0.000003
    30  F    0.000000  -0.000000   0.000001   0.000001   0.000270  -0.000002
    31  F   -0.000000   0.000004   0.000041  -0.000045   0.000526  -0.000868
    32  F   -0.000000   0.000000  -0.000028   0.000000  -0.001092   0.000007
    33  F    0.000000  -0.000002   0.000041   0.000015   0.003435   0.000058
               7          8          9         10         11         12
     1  C    0.001068  -0.002878   0.000925  -0.001697   0.000071  -0.000135
     2  C    0.001481   0.028929  -0.022873   0.011129  -0.000178  -0.000379
     3  C   -0.096317  -0.488268   0.239296  -0.169205   0.016087  -0.019429
     4  N   -0.393922  -0.103505  -0.003418  -0.093535   0.023712  -0.008495
     5  C    0.083736  -1.122240   0.963359  -1.450486   0.336212  -0.255089
     6  O   -0.091006  -0.279052   0.332371  -0.104897   0.015787  -0.033348
     7  N    7.837201  -0.376117  -0.153986   0.444962   0.053367   0.036233
     8  C   -0.376117  18.891682  -4.452098   0.602552  -0.236358  -1.981860
     9  C   -0.153986  -4.452098  15.371881  -7.296247   2.020368  -3.016004
    10  C    0.444962   0.602552  -7.296247  18.250785  -1.976774  -0.807164
    11  C    0.053367  -0.236358   2.020368  -1.976774  19.181649  -2.820048
    12  C    0.036233  -1.981860  -3.016004  -0.807164  -2.820048  29.391517
    13  C    0.072925  -2.684273   0.657152  -1.002807 -10.717061 -10.352415
    14  H    0.000019  -0.000044   0.000003  -0.000002   0.000000  -0.000000
    15  H    0.000035   0.000296  -0.000049   0.000012  -0.000000   0.000000
    16  H    0.000009  -0.000274  -0.000021  -0.000011   0.000000  -0.000001
    17  H    0.001280  -0.003196   0.000338  -0.000137   0.000013  -0.000009
    18  H   -0.000531   0.002734  -0.000796   0.000402  -0.000001   0.000007
    19  H    0.001593  -0.020557   0.007144  -0.002702   0.000095  -0.000251
    20  H    0.000225   0.008588   0.000619   0.000435  -0.000101   0.000251
    21  H    0.031930   0.002521   0.008835  -0.011594  -0.000615  -0.000740
    22  H    0.247458  -0.044900   0.078355  -0.079660   0.034833  -0.003056
    23  H   -0.012114  -0.016469   0.327511   0.048296  -0.032341  -0.023386
    24  H   -0.014767   0.033803   0.037717   0.226836   0.009727  -0.014823
    25  H    0.000170  -0.007749  -0.002804  -0.003186   0.340417  -0.044997
    26  C   -0.003760  -1.593186   1.074312   0.645791   0.602603  -1.466031
    27  C    0.010148  -0.256022  -0.913221  -0.252413  -0.793001  -1.555114
    28  F   -0.000015   0.019702   0.055000   0.006571   0.007685   0.024395
    29  F    0.000038  -0.014186  -0.012830  -0.003933  -0.058981   0.345234
    30  F    0.000095   0.002130   0.006232   0.084527   0.081092  -0.047003
    31  F   -0.000874   0.136810   0.060489  -0.000207   0.003808  -0.055037
    32  F   -0.000039   0.037152   0.001111   0.009421   0.021454  -0.095344
    33  F    0.000479   0.000715  -0.028848  -0.018441   0.007716  -0.164260
              13         14         15         16         17         18
     1  C    0.000233   0.412036   0.400450   0.434530  -0.025611  -0.043010
     2  C   -0.002085  -0.079105  -0.061435  -0.070199   0.413420   0.428018
     3  C    0.036181   0.022813  -0.002066  -0.008818  -0.071006  -0.081307
     4  N    0.011172   0.000807   0.000516   0.000763   0.005100   0.005890
     5  C    0.081944  -0.001528   0.009142  -0.008252  -0.008533   0.008638
     6  O    0.028514   0.000006  -0.000024  -0.000078  -0.000141  -0.000131
     7  N    0.072925   0.000019   0.000035   0.000009   0.001280  -0.000531
     8  C   -2.684273  -0.000044   0.000296  -0.000274  -0.003196   0.002734
     9  C    0.657152   0.000003  -0.000049  -0.000021   0.000338  -0.000796
    10  C   -1.002807  -0.000002   0.000012  -0.000011  -0.000137   0.000402
    11  C  -10.717061   0.000000  -0.000000   0.000000   0.000013  -0.000001
    12  C  -10.352415  -0.000000   0.000000  -0.000001  -0.000009   0.000007
    13  C   33.813439  -0.000000   0.000000   0.000001  -0.000001  -0.000005
    14  H   -0.000000   0.482203  -0.025147  -0.024862  -0.002985  -0.002733
    15  H    0.000000  -0.025147   0.488382  -0.029871  -0.004626   0.003742
    16  H    0.000001  -0.024862  -0.029871   0.485973   0.003980  -0.004605
    17  H   -0.000001  -0.002985  -0.004626   0.003980   0.516125  -0.035985
    18  H   -0.000005  -0.002733   0.003742  -0.004605  -0.035985   0.491645
    19  H    0.000357  -0.000058  -0.000194   0.002274   0.003811  -0.005152
    20  H    0.000370  -0.000065   0.002561  -0.000458  -0.005600   0.004042
    21  H    0.000269  -0.000000  -0.000001   0.000004   0.003265  -0.000531
    22  H    0.009357  -0.000000  -0.000000   0.000000   0.000006  -0.000003
    23  H   -0.015470  -0.000000   0.000000  -0.000000  -0.000000   0.000000
    24  H    0.015673   0.000000  -0.000000   0.000000   0.000000  -0.000000
    25  H    0.052732  -0.000000   0.000000   0.000000   0.000000  -0.000000
    26  C   -3.373829   0.000000   0.000000  -0.000000  -0.000001   0.000001
    27  C    0.355872  -0.000000   0.000000  -0.000000  -0.000000   0.000000
    28  F   -0.091845  -0.000000   0.000000  -0.000000  -0.000000   0.000000
    29  F   -0.202013  -0.000000  -0.000000   0.000000   0.000000  -0.000000
    30  F   -0.067845  -0.000000   0.000000  -0.000000  -0.000000   0.000000
    31  F   -0.141037   0.000000  -0.000000   0.000000   0.000000  -0.000000
    32  F    0.030704  -0.000000   0.000000   0.000000  -0.000000   0.000000
    33  F    0.251022   0.000000   0.000000  -0.000000  -0.000000   0.000000
              19         20         21         22         23         24
     1  C    0.014719  -0.008628   0.001123  -0.000088   0.000000  -0.000001
     2  C   -0.049437  -0.068432   0.001625  -0.001272  -0.000035   0.000004
     3  C    0.479362   0.402040  -0.059503   0.005684   0.001327  -0.000313
     4  N   -0.041465  -0.076392   0.245717   0.018672  -0.000014   0.001477
     5  C   -0.065451   0.036425   0.025574  -0.033505   0.006594  -0.011786
     6  O    0.000545   0.004015   0.007322   0.005342  -0.005067   0.000056
     7  N    0.001593   0.000225   0.031930   0.247458  -0.012114  -0.014767
     8  C   -0.020557   0.008588   0.002521  -0.044900  -0.016469   0.033803
     9  C    0.007144   0.000619   0.008835   0.078355   0.327511   0.037717
    10  C   -0.002702   0.000435  -0.011594  -0.079660   0.048296   0.226836
    11  C    0.000095  -0.000101  -0.000615   0.034833  -0.032341   0.009727
    12  C   -0.000251   0.000251  -0.000740  -0.003056  -0.023386  -0.014823
    13  C    0.000357   0.000370   0.000269   0.009357  -0.015470   0.015673
    14  H   -0.000058  -0.000065  -0.000000  -0.000000  -0.000000   0.000000
    15  H   -0.000194   0.002561  -0.000001  -0.000000   0.000000  -0.000000
    16  H    0.002274  -0.000458   0.000004   0.000000  -0.000000   0.000000
    17  H    0.003811  -0.005600   0.003265   0.000006  -0.000000   0.000000
    18  H   -0.005152   0.004042  -0.000531  -0.000003   0.000000  -0.000000
    19  H    0.462943  -0.035980   0.003373   0.000003  -0.000000   0.000000
    20  H   -0.035980   0.514145  -0.000098   0.000011   0.000001   0.000000
    21  H    0.003373  -0.000098   0.327734   0.001336  -0.000001   0.000006
    22  H    0.000003   0.000011   0.001336   0.308265  -0.000166   0.006844
    23  H   -0.000000   0.000001  -0.000001  -0.000166   0.401039  -0.000113
    24  H    0.000000   0.000000   0.000006   0.006844  -0.000113   0.470723
    25  H   -0.000000   0.000000   0.000000  -0.000009   0.000012  -0.003282
    26  C    0.000064  -0.000056   0.000028   0.001308   0.005225   0.004374
    27  C   -0.000005   0.000003  -0.000023   0.000713   0.003631   0.007588
    28  F   -0.000000   0.000000  -0.000000  -0.000000   0.000003   0.000013
    29  F    0.000000  -0.000000  -0.000000   0.000000   0.000001  -0.000000
    30  F   -0.000000  -0.000000  -0.000000   0.000000   0.000012   0.000101
    31  F    0.000000  -0.000000   0.000000   0.000000   0.006778  -0.000001
    32  F   -0.000000   0.000000   0.000000  -0.000000   0.000337   0.000001
    33  F    0.000000  -0.000000  -0.000000   0.000000  -0.000237  -0.000001
              25         26         27         28         29         30
     1  C   -0.000000   0.000034  -0.000003  -0.000000  -0.000000   0.000000
     2  C   -0.000000   0.000273   0.000014   0.000000  -0.000000  -0.000000
     3  C    0.000011   0.003294  -0.000159   0.000002   0.000000   0.000001
     4  N    0.000005   0.013128   0.002759   0.000001   0.000001   0.000001
     5  C    0.001487   0.015319  -0.060261   0.000145  -0.000190   0.000270
     6  O   -0.000000   0.010164  -0.002153   0.000005  -0.000003  -0.000002
     7  N    0.000170  -0.003760   0.010148  -0.000015   0.000038   0.000095
     8  C   -0.007749  -1.593186  -0.256022   0.019702  -0.014186   0.002130
     9  C   -0.002804   1.074312  -0.913221   0.055000  -0.012830   0.006232
    10  C   -0.003186   0.645791  -0.252413   0.006571  -0.003933   0.084527
    11  C    0.340417   0.602603  -0.793001   0.007685  -0.058981   0.081092
    12  C   -0.044997  -1.466031  -1.555114   0.024395   0.345234  -0.047003
    13  C    0.052732  -3.373829   0.355872  -0.091845  -0.202013  -0.067845
    14  H   -0.000000   0.000000  -0.000000  -0.000000  -0.000000  -0.000000
    15  H    0.000000   0.000000   0.000000   0.000000  -0.000000   0.000000
    16  H    0.000000  -0.000000  -0.000000  -0.000000   0.000000  -0.000000
    17  H    0.000000  -0.000001  -0.000000  -0.000000   0.000000  -0.000000
    18  H   -0.000000   0.000001   0.000000   0.000000  -0.000000   0.000000
    19  H   -0.000000   0.000064  -0.000005  -0.000000   0.000000  -0.000000
    20  H    0.000000  -0.000056   0.000003   0.000000  -0.000000  -0.000000
    21  H    0.000000   0.000028  -0.000023  -0.000000  -0.000000  -0.000000
    22  H   -0.000009   0.001308   0.000713  -0.000000   0.000000   0.000000
    23  H    0.000012   0.005225   0.003631   0.000003   0.000001   0.000012
    24  H   -0.003282   0.004374   0.007588   0.000013  -0.000000   0.000101
    25  H    0.436201   0.006798  -0.041542   0.000223  -0.000249   0.005072
    26  C    0.006798  10.575851  -2.445329   0.163081   0.017234   0.032822
    27  C   -0.041542  -2.445329  10.168357  -0.061327   0.060537   0.014730
    28  F    0.000223   0.163081  -0.061327   9.256598  -0.051669  -0.042454
    29  F   -0.000249   0.017234   0.060537  -0.051669   9.222429  -0.047301
    30  F    0.005072   0.032822   0.014730  -0.042454  -0.047301   9.308233
    31  F    0.000012   0.086880   0.017389   0.001158  -0.000048   0.000077
    32  F    0.000013  -0.040346   0.160612  -0.011042  -0.002238   0.001209
    33  F    0.000002   0.064765   0.019099   0.000211  -0.000435   0.000029
              31         32         33
     1  C   -0.000000  -0.000000   0.000000
     2  C    0.000004   0.000000  -0.000002
     3  C    0.000041  -0.000028   0.000041
     4  N   -0.000045   0.000000   0.000015
     5  C    0.000526  -0.001092   0.003435
     6  O   -0.000868   0.000007   0.000058
     7  N   -0.000874  -0.000039   0.000479
     8  C    0.136810   0.037152   0.000715
     9  C    0.060489   0.001111  -0.028848
    10  C   -0.000207   0.009421  -0.018441
    11  C    0.003808   0.021454   0.007716
    12  C   -0.055037  -0.095344  -0.164260
    13  C   -0.141037   0.030704   0.251022
    14  H    0.000000  -0.000000   0.000000
    15  H   -0.000000   0.000000   0.000000
    16  H    0.000000   0.000000  -0.000000
    17  H    0.000000  -0.000000  -0.000000
    18  H   -0.000000   0.000000   0.000000
    19  H    0.000000  -0.000000   0.000000
    20  H   -0.000000   0.000000  -0.000000
    21  H    0.000000   0.000000  -0.000000
    22  H    0.000000  -0.000000   0.000000
    23  H    0.006778   0.000337  -0.000237
    24  H   -0.000001   0.000001  -0.000001
    25  H    0.000012   0.000013   0.000002
    26  C    0.086880  -0.040346   0.064765
    27  C    0.017389   0.160612   0.019099
    28  F    0.001158  -0.011042   0.000211
    29  F   -0.000048  -0.002238  -0.000435
    30  F    0.000077   0.001209   0.000029
    31  F    9.293171  -0.039814  -0.046160
    32  F   -0.039814   9.259149  -0.050541
    33  F   -0.046160  -0.050541   9.213514
 Mulliken charges:
               1
     1  C   -0.732344
     2  C   -0.333272
     3  C   -0.153298
     4  N   -0.582513
     5  C    0.806027
     6  O   -0.580022
     7  N   -0.681008
     8  C   -0.084382
     9  C    0.660176
    10  C   -1.056621
    11  C   -0.121237
    12  C   -1.033221
    13  C   -0.767232
    14  H    0.218644
    15  H    0.218278
    16  H    0.219914
    17  H    0.210494
    18  H    0.229670
    19  H    0.244970
    20  H    0.222079
    21  H    0.412446
    22  H    0.444471
    23  H    0.304649
    24  H    0.230143
    25  H    0.260664
    26  C    1.599190
    27  C    1.559120
    28  F   -0.276442
    29  F   -0.251399
    30  F   -0.332029
    31  F   -0.323053
    32  F   -0.280685
    33  F   -0.252177
 Sum of Mulliken charges =  -0.00000
 Mulliken charges with hydrogens summed into heavy atoms:
               1
     1  C   -0.075508
     2  C    0.106892
     3  C    0.313751
     4  N   -0.170067
     5  C    0.806027
     6  O   -0.580022
     7  N   -0.236537
     8  C   -0.084382
     9  C    0.964825
    10  C   -0.826477
    11  C    0.139427
    12  C   -1.033221
    13  C   -0.767232
    26  C    1.599190
    27  C    1.559120
    28  F   -0.276442
    29  F   -0.251399
    30  F   -0.332029
    31  F   -0.323053
    32  F   -0.280685
    33  F   -0.252177
 Electronic spatial extent (au):  <R**2>=           9573.3858
 Charge=             -0.0000 electrons
 Dipole moment (field-independent basis, Debye):
    X=             -7.8086    Y=             -6.4629    Z=             -1.1138  Tot=             10.1972
 Quadrupole moment (field-independent basis, Debye-Ang):
   XX=           -112.2217   YY=           -114.0270   ZZ=           -123.4298
   XY=              7.9068   XZ=              4.3176   YZ=              0.7373
 Traceless Quadrupole moment (field-independent basis, Debye-Ang):
   XX=              4.3378   YY=              2.5325   ZZ=             -6.8703
   XY=              7.9068   XZ=              4.3176   YZ=              0.7373
 Octapole moment (field-independent basis, Debye-Ang**2):
  XXX=           -125.2585  YYY=            -17.5952  ZZZ=              0.2236  XYY=             16.8985
  XXY=            -22.6429  XXZ=            -14.0558  XZZ=             24.8795  YZZ=             12.0029
  YYZ=             -3.3425  XYZ=             -5.8575
 Hexadecapole moment (field-independent basis, Debye-Ang**3):
 XXXX=          -9577.1554 YYYY=          -1312.8012 ZZZZ=           -282.1720 XXXY=            158.6688
 XXXZ=             61.9678 YYYX=             57.9261 YYYZ=              6.5574 ZZZX=              4.9362
 ZZZY=             -2.9986 XXYY=          -1919.9200 XXZZ=          -1759.6036 YYZZ=           -290.5162
 XXYZ=             26.3119 YYXZ=              8.8590 ZZXY=              6.5623
 N-N= 1.778558936480D+03 E-N=-6.489856726599D+03  KE= 1.238212468547D+03
 D1PCM: PCM CHGder 1st derivatives, ID1Alg=3 FixD1E=F DoIter=F DoCFld=F I1PDM=0.
 Calling FoFJK, ICntrl=      2127 FMM=F ISym2X=0 I1Cent= 0 IOpClX= 0 NMat=1 NMatS=1 NMatT=0.
 ***** Axes restored to original set *****
 -------------------------------------------------------------------
 Center     Atomic                   Forces (Hartrees/Bohr)
 Number     Number              X              Y              Z
 -------------------------------------------------------------------
      1        6           0.001076307   -0.000071461    0.000150673
      2        6          -0.000328426    0.000005343   -0.000351182
      3        6          -0.000080625    0.000046887    0.000135420
      4        7           0.002070786    0.002942907   -0.000111102
      5        6          -0.001547391   -0.007434074   -0.000301161
      6        8           0.000327987    0.004640198    0.000278773
      7        7           0.001108848    0.002991348    0.000363662
      8        6          -0.002646735   -0.000859057   -0.000111862
      9        6           0.000624324    0.000567883   -0.000019739
     10        6           0.000914139   -0.000720310    0.000133547
     11        6          -0.000329499   -0.000129881    0.000032728
     12        6           0.000696614    0.000328782    0.000130226
     13        6          -0.000271866    0.000626254   -0.000280612
     14        1          -0.000236538   -0.000248875    0.000064466
     15        1          -0.000112723    0.000067031   -0.000249836
     16        1          -0.000175029    0.000210020    0.000189616
     17        1           0.000169895    0.000209998    0.000044002
     18        1          -0.000063814    0.000074904    0.000167903
     19        1          -0.000558786   -0.000094402    0.000143854
     20        1          -0.000170555   -0.000250212   -0.000116232
     21        1           0.000502570   -0.000983257    0.000058444
     22        1          -0.000460233   -0.001494130   -0.000310204
     23        1           0.000145705   -0.000086041   -0.000005575
     24        1          -0.000034573    0.000251136   -0.000038975
     25        1          -0.000175704   -0.000413325   -0.000075984
     26        6          -0.001780734   -0.004072583    0.000124901
     27        6          -0.003989270   -0.002608415    0.000681711
     28        9           0.001134779    0.001333712    0.000245124
     29        9           0.001444496    0.000699205   -0.000871306
     30        9           0.000842795    0.000790702   -0.000158791
     31        9           0.000360448    0.001069818   -0.000079836
     32        9           0.000956981    0.001096539   -0.000385566
     33        9           0.000585826    0.001513357    0.000522914
 -------------------------------------------------------------------
 Cartesian Forces:  Max     0.007434074 RMS     0.001338907

 GradGradGradGradGradGradGradGradGradGradGradGradGradGradGradGradGradGrad
 Berny optimization.
 FormGI is forming the generalized inverse of G from B-inverse, IUseBI=4.
 GSVD:  received Info=                   1 from GESDD.
 Internal  Forces:  Max     0.004637294 RMS     0.000698668
 Search for a local minimum.
 Step number   1 out of a maximum of  172
 All quantities printed in internal units (Hartrees-Bohrs-Radians)
 Mixed Optimization -- En-DIIS/RFO-DIIS
 Second derivative matrix not updated -- first step.
 ITU=  0
     Eigenvalues ---    0.00408   0.00460   0.00552   0.00631   0.00919
     Eigenvalues ---    0.01488   0.01530   0.01743   0.01772   0.01821
     Eigenvalues ---    0.01866   0.01914   0.01986   0.02052   0.02089
     Eigenvalues ---    0.02116   0.02146   0.02185   0.02207   0.02229
     Eigenvalues ---    0.03703   0.04417   0.04915   0.05488   0.05530
     Eigenvalues ---    0.05557   0.08173   0.09237   0.10468   0.10608
     Eigenvalues ---    0.10782   0.10886   0.12074   0.12672   0.14647
     Eigenvalues ---    0.15874   0.16000   0.16000   0.16000   0.16000
     Eigenvalues ---    0.16000   0.16000   0.21894   0.21903   0.22048
     Eigenvalues ---    0.22323   0.22369   0.23484   0.24601   0.24988
     Eigenvalues ---    0.24993   0.24993   0.24994   0.25000   0.25000
     Eigenvalues ---    0.25000   0.25000   0.25000   0.25000   0.25000
     Eigenvalues ---    0.29700   0.30068   0.30739   0.31331   0.33772
     Eigenvalues ---    0.33788   0.34081   0.34226   0.34241   0.34424
     Eigenvalues ---    0.34439   0.35133   0.35506   0.35937   0.37165
     Eigenvalues ---    0.41923   0.42390   0.45473   0.45524   0.45700
     Eigenvalues ---    0.45879   0.46272   0.46642   0.46737   0.47688
     Eigenvalues ---    0.50455   0.55602   0.56331   0.56630   0.56747
     Eigenvalues ---    0.57055   0.57289   0.96563
 RFO step:  Lambda=-2.50998647D-04 EMin= 4.08483009D-03
 Linear search not attempted -- first point.
 Iteration  1 RMS(Cart)=  0.01707928 RMS(Int)=  0.00008076
 Iteration  2 RMS(Cart)=  0.00014376 RMS(Int)=  0.00000752
 Iteration  3 RMS(Cart)=  0.00000001 RMS(Int)=  0.00000752
 Variable       Old X    -DE/DX   Delta X   Delta X   Delta X     New X
                                 (Linear)    (Quad)   (Total)
    R1        2.88566  -0.00053   0.00000  -0.00177  -0.00177   2.88388
    R2        2.06621   0.00035   0.00000   0.00101   0.00101   2.06722
    R3        2.06950   0.00027   0.00000   0.00079   0.00079   2.07029
    R4        2.06925   0.00030   0.00000   0.00087   0.00087   2.07013
    R5        2.87829  -0.00041   0.00000  -0.00135  -0.00135   2.87694
    R6        2.07690  -0.00018   0.00000  -0.00052  -0.00052   2.07638
    R7        2.07193   0.00012   0.00000   0.00035   0.00035   2.07227
    R8        2.75598   0.00039   0.00000   0.00105   0.00105   2.75704
    R9        2.06596   0.00004   0.00000   0.00013   0.00013   2.06609
   R10        2.07716   0.00002   0.00000   0.00006   0.00006   2.07722
   R11        2.59409  -0.00281   0.00000  -0.00557  -0.00557   2.58852
   R12        1.91372   0.00092   0.00000   0.00202   0.00202   1.91574
   R13        2.30047   0.00464   0.00000   0.00480   0.00480   2.30528
   R14        2.63414  -0.00121   0.00000  -0.00259  -0.00259   2.63155
   R15        2.63825  -0.00164   0.00000  -0.00355  -0.00355   2.63470
   R16        1.91172   0.00146   0.00000   0.00319   0.00319   1.91491
   R17        2.65018   0.00076   0.00000   0.00171   0.00171   2.65189
   R18        2.64278   0.00077   0.00000   0.00173   0.00173   2.64450
   R19        2.62778  -0.00023   0.00000  -0.00052  -0.00052   2.62727
   R20        2.04181  -0.00016   0.00000  -0.00045  -0.00045   2.04135
   R21        2.61950  -0.00020   0.00000  -0.00040  -0.00040   2.61911
   R22        2.05459  -0.00024   0.00000  -0.00068  -0.00068   2.05391
   R23        2.63269   0.00063   0.00000   0.00133   0.00133   2.63402
   R24        2.04861   0.00014   0.00000   0.00039   0.00039   2.04900
   R25        2.65149  -0.00007   0.00000  -0.00022  -0.00022   2.65127
   R26        2.85385  -0.00050   0.00000  -0.00159  -0.00159   2.85226
   R27        2.86514  -0.00039   0.00000  -0.00126  -0.00126   2.86388
   R28        2.53612   0.00024   0.00000   0.00043   0.00043   2.53654
   R29        2.53350   0.00117   0.00000   0.00205   0.00205   2.53555
   R30        2.53711   0.00125   0.00000   0.00221   0.00221   2.53932
   R31        2.53152   0.00146   0.00000   0.00254   0.00254   2.53406
   R32        2.53968   0.00142   0.00000   0.00251   0.00251   2.54219
   R33        2.54601  -0.00018   0.00000  -0.00032  -0.00032   2.54569
    A1        1.93978  -0.00011   0.00000  -0.00100  -0.00100   1.93878
    A2        1.93885   0.00007   0.00000   0.00052   0.00052   1.93937
    A3        1.93562   0.00020   0.00000   0.00150   0.00150   1.93712
    A4        1.88278  -0.00003   0.00000  -0.00063  -0.00063   1.88215
    A5        1.88286  -0.00007   0.00000  -0.00062  -0.00062   1.88224
    A6        1.88156  -0.00007   0.00000   0.00019   0.00019   1.88174
    A7        1.94596  -0.00004   0.00000  -0.00046  -0.00046   1.94549
    A8        1.91034   0.00015   0.00000   0.00140   0.00140   1.91174
    A9        1.92506  -0.00008   0.00000  -0.00076  -0.00076   1.92430
   A10        1.91238  -0.00014   0.00000  -0.00128  -0.00128   1.91110
   A11        1.90183   0.00005   0.00000  -0.00002  -0.00002   1.90181
   A12        1.86654   0.00005   0.00000   0.00118   0.00118   1.86773
   A13        1.92856  -0.00039   0.00000  -0.00217  -0.00217   1.92639
   A14        1.93149  -0.00032   0.00000  -0.00289  -0.00289   1.92860
   A15        1.92935  -0.00005   0.00000  -0.00236  -0.00236   1.92699
   A16        1.87371   0.00055   0.00000   0.00549   0.00549   1.87920
   A17        1.93086   0.00012   0.00000   0.00012   0.00011   1.93097
   A18        1.86828   0.00011   0.00000   0.00214   0.00213   1.87041
   A19        2.07565   0.00157   0.00000   0.00794   0.00792   2.08357
   A20        2.02769  -0.00032   0.00000   0.00093   0.00091   2.02860
   A21        2.05977  -0.00102   0.00000  -0.00357  -0.00360   2.05617
   A22        2.14892   0.00089   0.00000   0.00356   0.00356   2.15248
   A23        1.97574  -0.00075   0.00000  -0.00301  -0.00301   1.97273
   A24        2.15819  -0.00014   0.00000  -0.00056  -0.00056   2.15764
   A25        2.22236   0.00067   0.00000   0.00353   0.00350   2.22586
   A26        2.03653  -0.00062   0.00000  -0.00253  -0.00257   2.03397
   A27        2.00967  -0.00000   0.00000   0.00131   0.00128   2.01095
   A28        2.15422   0.00043   0.00000   0.00165   0.00165   2.15586
   A29        2.05381  -0.00015   0.00000  -0.00068  -0.00069   2.05312
   A30        2.07493  -0.00028   0.00000  -0.00099  -0.00099   2.07394
   A31        2.09602   0.00009   0.00000   0.00037   0.00037   2.09639
   A32        2.08988  -0.00000   0.00000   0.00005   0.00005   2.08994
   A33        2.09727  -0.00008   0.00000  -0.00042  -0.00042   2.09685
   A34        2.10459   0.00007   0.00000   0.00048   0.00048   2.10507
   A35        2.09420  -0.00013   0.00000  -0.00080  -0.00080   2.09340
   A36        2.08439   0.00005   0.00000   0.00032   0.00032   2.08472
   A37        2.11303  -0.00007   0.00000  -0.00031  -0.00031   2.11272
   A38        2.08488  -0.00039   0.00000  -0.00249  -0.00249   2.08239
   A39        2.08525   0.00046   0.00000   0.00282   0.00282   2.08806
   A40        2.06567   0.00010   0.00000   0.00023   0.00023   2.06589
   A41        2.05568   0.00098   0.00000   0.00397   0.00397   2.05966
   A42        2.16154  -0.00108   0.00000  -0.00424  -0.00424   2.15730
   A43        2.11207   0.00009   0.00000   0.00020   0.00020   2.11227
   A44        2.03488   0.00063   0.00000   0.00261   0.00261   2.03749
   A45        2.13590  -0.00073   0.00000  -0.00283  -0.00283   2.13307
   A46        1.94601   0.00148   0.00000   0.00660   0.00658   1.95259
   A47        1.95642   0.00085   0.00000   0.00292   0.00291   1.95933
   A48        1.94922   0.00135   0.00000   0.00519   0.00518   1.95440
   A49        1.86530  -0.00116   0.00000  -0.00426  -0.00427   1.86102
   A50        1.86333  -0.00129   0.00000  -0.00428  -0.00430   1.85903
   A51        1.87852  -0.00151   0.00000  -0.00730  -0.00730   1.87122
   A52        1.96643   0.00084   0.00000   0.00270   0.00269   1.96912
   A53        1.95958   0.00128   0.00000   0.00484   0.00482   1.96440
   A54        1.93575   0.00160   0.00000   0.00734   0.00732   1.94307
   A55        1.87629  -0.00159   0.00000  -0.00800  -0.00800   1.86829
   A56        1.86357  -0.00121   0.00000  -0.00433  -0.00435   1.85922
   A57        1.85600  -0.00123   0.00000  -0.00368  -0.00371   1.85229
    D1       -3.13985  -0.00004   0.00000   0.00030   0.00030  -3.13956
    D2        1.02461   0.00006   0.00000   0.00126   0.00126   1.02587
    D3       -1.02442  -0.00005   0.00000  -0.00057  -0.00057  -1.02499
    D4        1.04681   0.00002   0.00000   0.00141   0.00141   1.04822
    D5       -1.07191   0.00012   0.00000   0.00238   0.00238  -1.06953
    D6       -3.12095   0.00001   0.00000   0.00055   0.00055  -3.12039
    D7       -1.04539  -0.00006   0.00000  -0.00016  -0.00016  -1.04555
    D8        3.11907   0.00003   0.00000   0.00081   0.00081   3.11988
    D9        1.07004  -0.00008   0.00000  -0.00102  -0.00102   1.06902
   D10       -3.14155   0.00009   0.00000   0.00448   0.00448  -3.13707
   D11        1.06861  -0.00015   0.00000   0.00087   0.00087   1.06947
   D12       -0.99818  -0.00005   0.00000   0.00153   0.00153  -0.99665
   D13       -1.02401   0.00016   0.00000   0.00507   0.00507  -1.01894
   D14       -3.09704  -0.00008   0.00000   0.00145   0.00145  -3.09558
   D15        1.11936   0.00002   0.00000   0.00211   0.00211   1.12148
   D16        1.01274   0.00017   0.00000   0.00576   0.00576   1.01849
   D17       -1.06030  -0.00006   0.00000   0.00214   0.00214  -1.05815
   D18       -3.12708   0.00003   0.00000   0.00280   0.00280  -3.12428
   D19       -2.95064   0.00008   0.00000   0.00353   0.00354  -2.94710
   D20        0.70722  -0.00006   0.00000  -0.00583  -0.00584   0.70138
   D21       -0.84280  -0.00019   0.00000   0.00215   0.00215  -0.84065
   D22        2.81506  -0.00033   0.00000  -0.00721  -0.00723   2.80783
   D23        1.19006   0.00032   0.00000   0.00793   0.00794   1.19800
   D24       -1.43527   0.00018   0.00000  -0.00143  -0.00144  -1.43670
   D25        0.12146   0.00006   0.00000   0.00591   0.00592   0.12739
   D26       -3.04694   0.00004   0.00000   0.00560   0.00560  -3.04134
   D27        2.73737   0.00042   0.00000   0.01685   0.01684   2.75421
   D28       -0.43103   0.00041   0.00000   0.01653   0.01652  -0.41451
   D29        3.13192  -0.00001   0.00000   0.00064   0.00064   3.13257
   D30       -0.20266   0.00030   0.00000   0.01579   0.01578  -0.18687
   D31       -0.03664  -0.00001   0.00000   0.00039   0.00040  -0.03625
   D32        2.91196   0.00030   0.00000   0.01554   0.01554   2.92750
   D33       -0.17972   0.00004   0.00000   0.00272   0.00273  -0.17699
   D34        2.98522   0.00008   0.00000   0.00433   0.00434   2.98956
   D35       -3.13086  -0.00021   0.00000  -0.01186  -0.01187   3.14045
   D36        0.03408  -0.00017   0.00000  -0.01025  -0.01026   0.02382
   D37       -3.11815   0.00002   0.00000   0.00093   0.00093  -3.11723
   D38        0.02702  -0.00000   0.00000  -0.00022  -0.00022   0.02681
   D39       -0.00018  -0.00001   0.00000  -0.00070  -0.00070  -0.00087
   D40       -3.13819  -0.00003   0.00000  -0.00184  -0.00184  -3.14003
   D41        3.12347   0.00001   0.00000   0.00025   0.00025   3.12372
   D42       -0.02012   0.00000   0.00000  -0.00016  -0.00016  -0.02028
   D43        0.00413   0.00003   0.00000   0.00174   0.00174   0.00588
   D44       -3.13945   0.00003   0.00000   0.00133   0.00133  -3.13812
[...]
 0014945,-0.00004577,-0.00013893,-0.00017850,-0.00000613,-0.00045721,-0
 .00016815,0.00010032,0.00056909,0.00065177,-0.00047805,-0.00816224,-0.
 00468119,-0.00393830,-0.05511236,-0.21677272,-0.08995928,0.04315768,0.
 32466450,-0.00000400,-0.00001481,0.00000221,-0.00000740,0.00002096,-0.
 00001572,0.00008553,-0.00005774,-0.00002042,-0.00030366,-0.00006232,0.
 00006361,0.00067484,-0.00037919,-0.00000350,-0.00016488,0.00021235,0.0
 0004630,-0.00092358,0.00003956,0.00002672,0.00057884,0.00058027,-0.000
 12531,-0.00065043,-0.00029120,-0.00000343,0.00025481,-0.00087764,0.000
 15831,-0.00328590,0.00060775,-0.00052786,-0.00235501,-0.01409321,0.002
 85094,0.00162276,0.00000511,0.00081161,-0.00001019,-0.00000120,-0.0000
 0066,0.00000163,0.00000046,0.00000057,-0.00000043,0.00000653,0.0000016
 4,0.00000105,0.00000296,0.00000417,0.00000160,-0.00000510,0.00000367,-
 0.00000650,0.00000766,-0.00000062,-0.00002078,0.00000832,-0.00000487,0
 .00001829,0.00003024,-0.00003169,0.00002676,0.00003502,-0.00004379,-0.
 00001440,-0.00006314,-0.00007609,-0.00032637,-0.00009677,0.00000753,0.
 00008187,0.00011001,-0.00009298,0.00005958,-0.00141432,-0.00496457,-0.
 03489858,-0.08743687,-0.12196217,0.03202583,0.14635684,0.17174591,-0.0
 0001920,-0.00006310,0.00001704,-0.00003088,0.00011528,-0.00003651,0.00
 039908,-0.00024351,-0.00001587,-0.00147362,-0.00038779,0.00013645,0.00
 336290,-0.00165778,0.00037848,-0.00066426,0.00086200,-0.00009317,-0.00
 521176,-0.00038573,-0.00010384,0.00373552,0.00188650,0.00022445,-0.002
 13559,-0.00259047,-0.00129621,-0.00221997,-0.00021142,-0.00203844,-0.0
 0184558,0.00397244,0.00082679,-0.01993519,-0.01067496,0.03882892,0.003
 30309,-0.00156015,0.00040176,-0.00004586,-0.00000419,0.00000206,0.0000
 0105,0.00001132,-0.00001017,0.00000628,0.00001123,0.00000035,0.0000012
 0,-0.00001671,0.00000146,0.00001231,-0.00000332,-0.00000153,-0.0000189
 0,0.00001708,-0.00000676,-0.00012401,0.00005232,-0.00004616,0.00004826
 ,0.00015272,-0.00006145,-0.00005482,0.00026019,-0.00004331,-0.00007051
 ,-0.00015479,-0.00011602,-0.00043964,-0.00027545,-0.00014176,0.0000186
 5,-0.00014336,0.00104398,-0.00148222,-0.00329417,0.00171092,-0.1201980
 8,-0.01578163,0.08197710,0.01395396,0.00624646,0.00449402,0.11451084,-
 0.00000416,-0.00001892,0.00000465,-0.00001118,0.00003196,-0.00001144,0
 .00012060,-0.00007824,-0.00000351,-0.00042967,-0.00008923,0.00003234,0
 .00101775,-0.00061666,0.00010285,-0.00018188,0.00033743,-0.00002160,-0
 .00158908,-0.00011397,-0.00000930,0.00088337,0.00134731,-0.00003469,-0
 .00154239,-0.00087132,-0.00055142,-0.00003009,0.00062580,-0.00056626,0
 .00086905,0.00026447,-0.00054502,-0.00988030,0.00906914,0.01018805,0.0
 0065195,-0.00159843,0.00120289,-0.00001225,-0.00000029,0.00000011,-0.0
 0000066,0.00000241,-0.00000416,0.00000056,0.00000438,0.00000209,0.0000
 0083,-0.00000227,0.00000281,0.00000420,-0.00000124,-0.00000224,-0.0000
 0745,0.00000614,0.00000083,-0.00003814,0.00001448,-0.00001565,0.000016
 71,0.00004205,-0.00001699,-0.00001704,0.00007235,-0.00001389,-0.000108
 11,-0.00014692,-0.00014392,0.00002049,-0.00004644,0.00005201,0.0002169
 2,0.00023742,0.00025517,-0.00407763,-0.00210652,0.00222755,-0.01532286
 ,-0.07376201,0.02882699,0.01197900,-0.00177402,-0.04672135,0.01076303,
 0.08716754,0.00000960,0.00003502,-0.00001208,0.00002021,-0.00006669,0.
 00001314,-0.00023126,0.00014360,-0.00002176,0.00083793,0.00021026,-0.0
 0002250,-0.00188596,0.00090930,-0.00026984,0.00041019,-0.00046771,0.00
 012258,0.00291366,0.00019509,0.00018126,-0.00207722,-0.00126527,-0.000
 28067,0.00176796,0.00110619,0.00070831,0.00126430,0.00019015,0.0010328
 9,0.00151845,-0.00169772,-0.00013752,0.01499814,0.00554322,-0.01230494
 ,-0.00146937,0.00152369,-0.00022996,0.00002463,0.00000092,-0.00000202,
 0.00000241,-0.00000834,0.00001078,-0.00000419,-0.00000256,-0.00000022,
 -0.00000079,0.00001508,0.00000021,-0.00000876,-0.00000311,0.00000883,0
 .00000858,-0.00000577,0.00000401,0.00007700,-0.00003408,0.00003600,-0.
 00002286,-0.00008116,-0.00000150,0.00001569,-0.00014640,-0.00004081,0.
 00012261,0.00014917,0.00000425,0.00031021,0.00017527,0.00001058,-0.000
 21520,-0.00034925,-0.00081655,0.00229733,0.00196121,-0.00543114,0.0829
 8159,0.02642176,-0.22522739,0.01235146,-0.03266714,-0.06547327,-0.1076
 0287,-0.04317838,0.36083234,-0.00001853,-0.00005395,0.00001442,-0.0000
 2313,0.00009796,-0.00003685,0.00033755,-0.00020265,-0.00001465,-0.0012
 2756,-0.00040893,0.00017017,0.00255599,-0.00072732,0.00020231,-0.00080
 835,0.00031262,-0.00003114,-0.00346185,-0.00036573,-0.00022254,0.00238
 008,0.00195331,-0.00023389,-0.00288698,0.00099088,0.00036152,-0.000756
 91,0.00093362,0.00014921,-0.00203152,0.00099418,-0.00067360,-0.0321772
 3,0.03648892,-0.02086005,-0.00354209,-0.00676281,-0.00108930,-0.000041
 79,-0.00000559,0.00000171,0.00000354,0.00000975,-0.00000510,0.00000670
 ,0.00001073,-0.00000177,0.00000031,-0.00001466,-0.00000012,0.00000829,
 -0.00000514,0.00000480,-0.00001237,0.00001277,-0.00001075,-0.00009181,
 0.00004448,-0.00003451,0.00003617,0.00012727,-0.00006443,-0.00006907,0
 .00018836,-0.00004537,-0.00040096,-0.00048373,0.00033353,-0.00018040,-
 0.00020589,-0.00006003,-0.00373170,-0.00111245,-0.00067448,0.00022902,
 -0.00385751,0.00016163,-0.16081583,0.07828689,-0.05088393,0.01223144,0
 .01635818,0.00560069,0.01785063,-0.00114995,-0.00586449,0.17648181,0.0
 0000705,0.00001315,-0.00000267,0.00000042,-0.00002919,0.00000897,-0.00
 007690,0.00003253,0.00001132,0.00032408,0.00017723,-0.00007202,-0.0007
 2964,0.00002759,-0.00004376,0.00020854,0.00002616,0.00000012,0.0010698
 6,0.00045392,0.00005770,-0.00134064,-0.00052440,0.00012003,0.00030061,
 0.00009624,-0.00020638,0.00034994,0.00155763,-0.00058016,-0.00339387,-
 0.00547609,-0.00059088,0.00846516,-0.00294611,0.00604004,0.00044621,0.
 00221746,0.00048677,0.00001188,0.00000253,-0.00000068,-0.00000278,-0.0
 0000295,-0.00000205,-0.00000346,-0.00000122,0.00000358,0.00000090,0.00
 000731,0.00000470,-0.00000072,0.00000140,-0.00000670,0.00000213,-0.000
 00166,0.00000656,0.00002238,-0.00001094,0.00000230,0.00000105,-0.00004
 534,0.00003289,0.00008941,-0.00007783,0.00003005,0.00010772,0.00010697
 ,-0.00013473,0.00018530,0.00005669,0.00002053,-0.00314916,0.00184479,-
 0.00033102,-0.00385231,0.00011431,-0.00045458,0.08699819,-0.16164176,0
 .05505322,0.02846518,-0.08166090,-0.00006443,0.00628832,-0.01492030,0.
 04249998,-0.12432377,0.26106854,-0.00000424,-0.00000987,0.00000185,-0.
 00000118,0.00001630,-0.00001171,0.00005113,-0.00003105,-0.00002010,-0.
 00020878,-0.00009740,0.00005071,0.00043166,-0.00004672,-0.00001836,-0.
 00015670,0.00000523,0.00005902,-0.00056671,-0.00009973,0.00002577,0.00
 058920,-0.00012576,0.00002362,-0.00006763,0.00077683,-0.00040632,-0.00
 047995,-0.00020177,0.00027704,0.00080904,0.00181673,0.00045235,-0.0077
 4788,0.00933349,0.00355353,-0.00170937,-0.00160913,0.00133334,-0.00000
 801,-0.00000171,-0.00000037,0.00000220,0.00000061,0.00000258,0.0000008
 8,0.00000349,-0.00000111,-0.00000053,-0.00000086,-0.00000057,0.0000004
 7,-0.00000325,0.00000640,-0.00000048,0.00000563,-0.00000309,-0.0000123
 4,0.00000538,0.00000161,0.00000294,0.00002579,-0.00003506,-0.00002146,
 0.00002964,-0.00003816,-0.00010897,-0.00016008,-0.00019444,-0.00009409
 ,-0.00003800,-0.00002383,-0.00027796,-0.00054137,-0.00034105,0.0012177
 0,-0.00070993,-0.00123907,-0.05438171,0.05265979,-0.10271205,0.0079881
 6,-0.01010297,0.01683402,-0.01800284,0.05078398,-0.05748444,0.07398634
 ,-0.10247765,0.13861184,-0.00000926,-0.00000197,0.00000251,0.00002511,
 0.00000579,-0.00000120,-0.00001067,0.00004226,-0.00003345,0.00000507,-
 0.00035662,0.00006563,-0.00059357,0.00181906,-0.00011836,-0.00010129,-
 0.00117000,0.00019120,0.00115490,-0.00011131,0.00003691,0.00090550,-0.
 00070493,0.00060872,-0.00422304,-0.00290443,0.00139961,0.00001339,-0.0
 0022227,-0.00009405,-0.00045935,0.00015781,0.00016342,0.00286256,0.001
 16298,-0.00057484,-0.00759364,0.00878552,-0.00705861,-0.00001010,-0.00
 001063,0.00000263,0.00000866,0.00000657,0.00000951,0.00000842,0.000001
 20,-0.00001214,-0.00000588,-0.00001387,-0.00000848,-0.00000681,-0.0000
 0731,0.00001558,0.00002375,0.00000565,-0.00002321,0.00002359,0.0000106
 3,0.00002895,-0.00004164,0.00000604,-0.00005148,0.00000261,-0.00000812
 ,-0.00003202,0.00204824,-0.00237513,0.00028281,0.00020735,-0.00009490,
 -0.00001940,0.00009942,0.00027360,0.00006987,-0.18570427,0.08999935,-0
 .06259406,0.00047029,-0.00395675,0.00073186,-0.00027235,0.00154046,-0.
 00010457,-0.00016934,0.00107412,-0.00027559,-0.00044337,0.00094931,-0.
 00039797,0.29730318,-0.00000339,-0.00004090,0.00000856,-0.00003938,0.0
 0006225,-0.00002848,0.00027446,-0.00020760,0.00002574,-0.00089463,-0.0
 0002869,0.00004407,0.00225424,-0.00153690,0.00018976,-0.00081487,0.001
 05903,-0.00012296,-0.00261627,0.00005531,-0.00007842,0.00283028,0.0016
 7361,-0.00032002,-0.00040173,-0.00407741,0.00122635,0.00017170,-0.0005
 9067,0.00020043,0.00206577,-0.00189392,-0.00031479,-0.00614039,-0.0048
 6652,0.00172321,0.03846398,-0.02490088,0.01966711,-0.00002194,0.000006
 13,-0.00000140,-0.00000583,0.00000086,-0.00001453,-0.00000406,0.000009
 49,0.00001255,0.00000398,0.00000446,0.00001178,0.00001143,0.00000068,-
 0.00001283,-0.00002359,0.00000816,0.00001313,-0.00008233,0.00002516,-0
 .00005219,0.00005753,0.00006903,-0.00000608,-0.00002775,0.00010181,0.0
 0000844,0.00003656,-0.00451157,0.00132225,-0.00007191,-0.00014268,0.00
 005322,-0.00028796,-0.00079475,-0.00013827,0.07997965,-0.14757610,0.04
 773280,-0.00362231,-0.00026299,0.00009916,0.00069238,0.00062666,0.0003
 2369,0.00088711,0.00016596,-0.00060580,0.00110993,-0.00029244,0.000277
 27,-0.11968619,0.15539132,-0.00000214,0.00000598,-0.00000579,0.0000169
 2,-0.00001232,0.00000375,-0.00006559,0.00005337,-0.00004914,0.00020528
 ,-0.00005970,0.00004380,-0.00061046,0.00066075,-0.00013828,0.00018429,
 -0.00045823,0.00022440,0.00081901,-0.00005124,0.00013325,-0.00068072,-
 0.00005041,0.00008440,-0.00094064,0.00009173,0.00054639,0.00039007,0.0
 0004177,0.00004992,-0.00106259,0.00004318,-0.00030106,0.00206587,0.002
 23507,0.00083866,-0.01241023,0.00879677,0.00228652,0.00000127,-0.00000
 455,0.00000090,0.00000602,0.00000021,0.00000982,0.00000114,0.00000225,
 -0.00000469,-0.00000190,0.00000186,-0.00000280,-0.00000600,-0.00000835
 ,0.00001235,0.00000702,0.00000398,-0.00000789,0.00003087,-0.00000475,0
 .00003024,-0.00001727,-0.00000614,-0.00003842,0.00000625,-0.00002981,-
 0.00003440,0.00028358,0.00115459,-0.00061038,0.00005807,0.00001974,-0.
 00004044,0.00010764,0.00023751,-0.00017433,-0.05926499,0.05056701,-0.1
 0386721,0.00093861,-0.00091196,-0.00127558,-0.00020984,0.00067285,0.00
 056762,-0.00035409,-0.00005903,0.00073147,-0.00036839,0.00032638,0.000
 02136,0.10708635,-0.06350728,0.13467625,-0.00001197,-0.00003050,0.0000
 1211,-0.00000514,0.00005349,-0.00001739,0.00020185,-0.00010743,0.00001
 298,-0.00065403,-0.00036994,0.00005655,0.00096931,0.00070816,0.0000732
 6,-0.00055259,-0.00051999,-0.00001008,-0.00034847,-0.00053971,-0.00003
 308,-0.00001524,0.00049757,-0.00113966,0.00129674,-0.00344442,0.001157
 00,0.00054239,-0.00057659,0.00019831,-0.00014092,-0.00141760,-0.000737
 77,-0.00051969,0.00065398,-0.00055873,-0.01589672,-0.00791680,0.017793
 66,-0.00002731,-0.00000706,0.00000250,0.00000283,0.00000957,-0.0000049
 2,0.00000784,0.00000469,-0.00000484,-0.00000281,-0.00001722,-0.0000023
 7,0.00000391,-0.00000129,0.00000096,0.00001065,0.00000867,-0.00001415,
 -0.00004306,0.00003328,-0.00001845,0.00000424,0.00005671,-0.00002083,-
 0.00010656,0.00002911,0.00004649,0.00084587,0.00069366,0.00044979,0.00
 007331,-0.00006895,0.00013856,-0.00006904,-0.00025131,0.00007965,-0.19
 585378,-0.05069404,0.09852051,-0.00374280,-0.00828393,0.00471086,-0.00
 110248,0.00527953,-0.00407838,-0.00152461,0.00613209,-0.00257241,0.000
 46350,0.00150961,-0.00082150,-0.08269647,0.01285535,0.01784287,0.29503
 276,-0.00000833,-0.00003894,0.00001001,-0.00002494,0.00006180,-0.00002
 564,0.00025277,-0.00017041,0.00001356,-0.00082575,-0.00017730,0.000057
 83,0.00175953,-0.00062496,0.00012810,-0.00064850,0.00037627,-0.0000334
 8,-0.00158374,-0.00057815,-0.00010914,-0.00010457,0.00011373,-0.001515
 99,0.00230635,-0.00550645,0.00210947,-0.00055790,-0.00044990,0.0002002
 5,-0.00021604,0.00020801,-0.00040513,-0.00026005,0.00130857,-0.0008369
 9,-0.03546957,-0.00518658,0.02371402,-0.00002618,-0.00000039,0.0000003
 0,-0.00000114,0.00000492,-0.00000944,0.00000128,0.00000892,0.00000475,
 0.00000126,-0.00000440,0.00000642,0.00000803,-0.00000204,-0.00000527,-
 0.00000980,0.00001093,-0.00000006,-0.00006595,0.00003037,-0.00003543,0
 .00004076,0.00007034,-0.00001611,-0.00015773,0.00004706,-0.00000118,0.
 00017790,0.00017403,0.00062365,-0.00003582,-0.00007988,0.00005073,0.00
 000745,-0.00011060,0.00002205,-0.04543105,-0.09668885,0.03609941,-0.00
 260255,-0.00119243,-0.00030475,0.00272171,0.00000527,0.00266394,0.0044
 9254,-0.00374353,-0.00002555,0.00073475,-0.00012379,0.00017385,0.02386
 551,0.01285962,-0.00917225,0.03775863,0.08581228,0.00000597,0.00001952
 ,-0.00001064,0.00001022,-0.00003671,0.00000954,-0.00014403,0.00008357,
 -0.00003665,0.00047232,0.00019191,0.00000291,-0.00083647,-0.00013665,-
 0.00014341,0.00037780,0.00011938,0.00011489,0.00057413,0.00053822,0.00
 009797,0.00064318,-0.00073597,0.00021408,-0.00098991,0.00420232,-0.000
 85815,-0.00023547,0.00022663,-0.00002980,0.00008644,0.00050056,0.00001
 789,0.00003938,-0.00150917,0.00112237,0.01918569,0.00406973,-0.0028648
 0,0.00001612,0.00000197,-0.00000140,0.00000158,-0.00000613,0.00000817,
 -0.00000470,-0.00000020,0.00000139,0.00000104,0.00001335,0.00000145,-0
 .00000505,-0.00000477,0.00000624,-0.00000443,-0.00000277,0.00000600,0.
 00004052,-0.00002243,0.00002570,-0.00000835,-0.00003642,-0.00001077,0.
 00012816,-0.00002693,-0.00003277,-0.00033750,-0.00016340,-0.00019403,-
 0.00001707,0.00006133,-0.00003822,0.00001814,0.00009716,-0.00009079,0.
 09565360,0.04105577,-0.14319718,0.00162354,0.00044824,-0.00550767,-0.0
 0340358,0.00320331,-0.00225027,-0.00051336,-0.00152287,0.00266350,-0.0
 0038147,0.00001541,0.00064400,0.00646082,-0.00617952,0.01676573,-0.158
 27403,-0.03508034,0.20279978,-0.00000600,-0.00001409,0.00000424,0.0000
 0016,0.00002327,-0.00000951,0.00008589,-0.00004299,-0.00000681,-0.0002
 7592,-0.00018582,0.00005155,0.00037346,0.00042684,0.00000199,-0.000217
 76,-0.00030246,0.00002793,-0.00012120,-0.00009578,-0.00002767,0.000464
 60,0.00099690,0.00045024,0.00004174,0.00029205,0.00046936,0.00088617,-
 0.00045610,0.00001637,-0.00031133,-0.00123129,0.00073084,-0.00142680,-
 0.00031475,-0.00067769,0.00833892,-0.00903369,-0.00943123,-0.00001301,
 -0.00000430,0.00000101,0.00000262,0.00000401,0.,0.00000357,0.00000377,
 -0.00000250,-0.00000122,-0.00000621,-0.00000085,0.00000067,-0.00000304
 ,0.00000367,0.00000583,0.00000501,-0.00000714,-0.00001437,0.00001359,-
 0.00000271,-0.00000020,0.00002701,-0.00002625,0.00001076,0.00001676,-0
 .00003687,0.00027486,0.00026915,-0.00033020,0.00003702,-0.00004226,-0.
 00006310,-0.00007732,-0.00018089,0.00012808,-0.07853944,-0.02412418,-0
 .03634988,-0.00204687,-0.00450435,-0.00200834,-0.00430532,0.00614490,0
 .00162694,0.00046029,0.00065218,0.00029902,0.00013641,0.00107002,-0.00
 000945,-0.02282097,-0.00694983,-0.05405628,0.00385847,0.01390116,0.039
 81678,0.09519629,-0.00000967,-0.00004946,0.00000805,-0.00002993,0.0000
 7294,-0.00003491,0.00029767,-0.00021139,-0.00001418,-0.00097960,-0.000
 20271,0.00010996,0.00210341,-0.00078468,0.00005902,-0.00079645,0.00049
 955,0.00009115,-0.00187500,-0.00024014,0.00009067,0.00083662,0.0011261
 8,0.00215002,0.00253687,-0.00363871,-0.00012694,0.00023022,-0.00106470
 ,-0.00012588,-0.00098075,-0.00076986,0.00165985,-0.00143776,0.00107863
 ,0.00012749,-0.01247011,-0.02238453,-0.03860463,-0.00003155,-0.0000003
 7,-0.00000015,0.00000045,0.00000434,-0.00000708,-0.00000088,0.00001516
 ,0.00000720,0.00000187,0.00000138,0.00001071,0.00000832,-0.00000870,-0
 .00000135,-0.00001466,0.00001721,0.00000056,-0.00007297,0.00003423,-0.
 00003190,0.00005270,0.00008440,-0.00004643,-0.00006895,0.00004948,-0.0
 0009248,0.00018579,-0.00028221,-0.00124823,-0.00003789,-0.00011703,-0.
 00019206,-0.00003421,-0.00026563,0.00010430,-0.02402471,-0.13886442,-0
 .09091464,-0.00373125,-0.00221069,-0.00174870,0.00436028,-0.00057941,0
 .00056760,0.00142999,0.00050146,-0.00047497,0.00102548,-0.00004954,0.0
 0034327,0.00191860,0.01960447,0.00942103,0.00796268,0.01358650,-0.0093
 8408,0.02364541,0.13504827,-0.00000827,-0.00002751,-0.00000070,-0.0000
 0745,0.00003587,-0.00002477,0.00013021,-0.00009552,-0.00006265,-0.0004
 7940,-0.00017184,0.00012426,0.00093479,-0.00010910,-0.00010366,-0.0004
 2537,0.00004892,0.00028920,-0.00077969,-0.00024575,0.00016983,0.000211
 83,0.00026438,0.00060841,0.00085201,-0.00206812,0.00038254,0.00018819,
 -0.00033795,-0.00004263,-0.00002850,-0.00079599,0.00072246,-0.00111766
 ,0.00006160,0.00031026,-0.00535175,-0.01199069,-0.00834478,-0.00001786
 ,-0.00000277,-0.00000037,0.00000560,0.00000150,0.00000603,-0.00000152,
 0.00001310,0.00000124,0.00000011,0.00000620,0.00000685,-0.00000023,-0.
 00001536,0.00001189,-0.00000832,0.00001655,-0.00000640,-0.00002108,0.0
 0001737,0.00000781,0.00001980,0.00004807,-0.00006879,-0.00007284,0.000
 01088,-0.00009759,0.00046547,0.00009663,-0.00085928,0.00000028,-0.0000
 9326,-0.00010061,-0.00004500,-0.00023453,-0.00000168,-0.03472478,-0.09
 294351,-0.21055698,-0.00181349,-0.00229480,-0.00480999,0.00020975,0.00
 237991,0.00247240,0.00044058,-0.00026059,0.00139649,0.00057055,0.00024
 716,0.00063071,-0.04575692,-0.00155693,-0.05047642,0.02721249,-0.01830
 160,-0.06923509,0.05941846,0.12829770,0.33765199\\-0.00000337,0.000002
 11,-0.00000021,0.00000160,0.00000311,-0.00000140,-0.00000639,0.0000010
 1,0.00000336,0.00000151,-0.00001209,-0.00000390,0.00000384,0.00002329,
 -0.00000310,-0.00000062,-0.00001359,-0.00000240,-0.00000346,-0.0000039
 4,0.00001707,0.00000528,0.00000134,-0.00000223,0.00000242,-0.00000052,
 -0.00000213,-0.00000357,-0.00000093,0.00000470,-0.00000015,-0.00000037
 ,0.00000350,-0.00000567,0.00000171,-0.00000095,-0.00000205,-0.00000870
 ,-0.00000107,-0.00000037,0.00000165,-0.00000142,0.00000125,-0.00000055
 ,-0.00000296,0.00000005,0.00000218,-0.00000339,0.00000017,0.00000002,0
 .00000222,-0.00000006,0.00000376,0.00000098,-0.00000132,0.00000300,-0.
 00000418,0.,-0.00000208,-0.00000208,0.00000022,0.00000139,0.00000231,0
 .00000013,-0.00000009,-0.00000127,0.00000125,-0.00000043,-0.00000241,0
 .,0.00000036,0.00000598,0.00000002,-0.00000050,0.00000574,-0.00000452,
 0.00000878,0.00000015,0.00001144,-0.00000928,0.00001602,-0.00000035,-0
 .00000248,-0.00000275,0.00000262,-0.00000354,-0.00000170,-0.00000776,0
 .00001175,-0.00000332,0.00000925,-0.00000410,-0.00000511,-0.00000314,-
 0.00000182,-0.00000226,0.00000172,-0.00000045,-0.00001181\\\@


 IN THE FIGHT BETWEEN YOU AND THE WORLD, BACK THE WORLD

                                        -- FRANZ KAFKA
 Job cpu time:       0 days  4 hours 37 minutes 49.3 seconds.
 File lengths (MBytes):  RWF=    761 Int=      0 D2E=      0 Chk=     23 Scr=      1
 Normal termination of Gaussian 09 at Thu Feb 21 20:27:11 2019.
WARNING: pbs_rusage is deprecated and values produced may not be accurate


=============================================================================
                                     Resource usage:
                                       CPU time:              10:44:54
   JobId:    5980170.r-man2            Elapsed time:          01:22:44
   Project:             q95            Requested time:        42:00:00
   Service Units:     11.03 
                                       Max physical memory:     1507MB
                                       Max virtual memory:      2609MB
                                       Requested memory:           0MB

                                       Number of cpus:               8

                                       Max jobfs disk use:       0.7GB
                                       Requested jobfs:         20.0GB
=============================================================================

