 Entering Gaussian System, Link 0=/apps/gaussian/g09e01/g09/g09
 AtFile(1): /home/507/hio507/Basis/6-31pGd.gbs
 Initial command:
 /apps/gaussian/g09e01/g09/l1.exe "/jobfs/local/5874940.r-man2/Gau-33814.inp" -scrdir="/jobfs/local/5874940.r-man2/"
 Entering Link 1 = /apps/gaussian/g09e01/g09/l1.exe PID=     33815.
  
 Copyright (c) 1988,1990,1992,1993,1995,1998,2003,2009,2015,
            Gaussian, Inc.  All Rights Reserved.
  
 This is part of the Gaussian(R) 09 program.  It is based on
 the Gaussian(R) 03 system (copyright 2003, Gaussian, Inc.),
 the Gaussian(R) 98 system (copyright 1998, Gaussian, Inc.),
 the Gaussian(R) 94 system (copyright 1995, Gaussian, Inc.),
 the Gaussian 92(TM) system (copyright 1992, Gaussian, Inc.),
 the Gaussian 90(TM) system (copyright 1990, Gaussian, Inc.),
 the Gaussian 88(TM) system (copyright 1988, Gaussian, Inc.),
 the Gaussian 86(TM) system (copyright 1986, Carnegie Mellon
 University), and the Gaussian 82(TM) system (copyright 1983,
 Carnegie Mellon University). Gaussian is a federally registered
 trademark of Gaussian, Inc.
  
 This software contains proprietary and confidential information,
 including trade secrets, belonging to Gaussian, Inc.
  
 This software is provided under written license and may be
 used, copied, transmitted, or stored only in accord with that
 written license.
  
 The following legend is applicable only to US Government
 contracts under FAR:
  
                    RESTRICTED RIGHTS LEGEND
  
 Use, reproduction and disclosure by the US Government is
 subject to restrictions as set forth in subparagraphs (a)
 and (c) of the Commercial Computer Software - Restricted
 Rights clause in FAR 52.227-19.
  
 Gaussian, Inc.
 340 Quinnipiac St., Bldg. 40, Wallingford CT 06492
  
  
 ---------------------------------------------------------------
 Warning -- This program may not be used in any manner that
 competes with the business of Gaussian, Inc. or will provide
 assistance to any competitor of Gaussian, Inc.  The licensee
 of this program is prohibited from giving any competitor of
 Gaussian, Inc. access to this program.  By using this program,
 the user acknowledges that Gaussian, Inc. is engaged in the
 business of creating and licensing software in the field of
 computational chemistry and represents and warrants to the
 licensee that it is not a competitor of Gaussian, Inc. and that
 it will not use this program in any manner prohibited above.
 ---------------------------------------------------------------
  

 Cite this work as:
 Gaussian 09, Revision E.01,
 M. J. Frisch, G. W. Trucks, H. B. Schlegel, G. E. Scuseria, 
 M. A. Robb, J. R. Cheeseman, G. Scalmani, V. Barone, B. Mennucci, 
 G. A. Petersson, H. Nakatsuji, M. Caricato, X. Li, H. P. Hratchian, 
 A. F. Izmaylov, J. Bloino, G. Zheng, J. L. Sonnenberg, M. Hada, 
 M. Ehara, K. Toyota, R. Fukuda, J. Hasegawa, M. Ishida, T. Nakajima, 
 Y. Honda, O. Kitao, H. Nakai, T. Vreven, J. A. Montgomery, Jr., 
 J. E. Peralta, F. Ogliaro, M. Bearpark, J. J. Heyd, E. Brothers, 
 K. N. Kudin, V. N. Staroverov, T. Keith, R. Kobayashi, J. Normand, 
 K. Raghavachari, A. Rendell, J. C. Burant, S. S. Iyengar, J. Tomasi, 
 M. Cossi, N. Rega, J. M. Millam, M. Klene, J. E. Knox, J. B. Cross, 
 V. Bakken, C. Adamo, J. Jaramillo, R. Gomperts, R. E. Stratmann, 
 O. Yazyev, A. J. Austin, R. Cammi, C. Pomelli, J. W. Ochterski, 
 R. L. Martin, K. Morokuma, V. G. Zakrzewski, G. A. Voth, 
 P. Salvador, J. J. Dannenberg, S. Dapprich, A. D. Daniels, 
 O. Farkas, J. B. Foresman, J. V. Ortiz, J. Cioslowski, 
 and D. J. Fox, Gaussian, Inc., Wallingford CT, 2013.
 
 ******************************************
 Gaussian 09:  ES64L-G09RevE.01 30-Nov-2015
                19-Feb-2019 
 ******************************************
 %chk=3TMF4Nitro_EtO.M062X_6-31pGd_opt.chk
 %mem=196608000
 %nproc=8
 Will use up to    8 processors via shared memory.
 ----------------------------------------------------------------------
 # M062X/Gen 6D SCF=Tight INT(grid=ultrafine) OPT IOP(2/17=4) maxdisk=3
 221225472
 ----------------------------------------------------------------------
 1/14=-1,18=20,19=15,26=4,38=1/1,3;
 2/9=110,12=2,17=4,18=5,40=1/2;
 3/5=7,8=2,11=2,16=1,25=1,30=1,71=1,74=-55,75=-5/1,2,3;
 4//1;
 5/5=2,32=2,38=5/2;
 6/7=2,8=2,9=2,10=2,28=1/1;
 7//1,2,3,16;
 1/14=-1,18=20,19=15,26=4/3(2);
 2/9=110,17=4/2;
 99//99;
 2/9=110,17=4/2;
 3/5=7,6=1,8=2,11=2,16=1,25=1,30=1,71=1,74=-55,75=-5,82=7/1,2,3;
 4/5=5,16=3,69=1/1;
 5/5=2,32=2,38=5/2;
 7//1,2,3,16;
 1/14=-1,18=20,19=15,26=4/3(-5);
 2/9=110,17=4/2;
 6/7=2,8=2,9=2,10=2,19=2,28=1/1;
 99/9=1/99;
 --------------------------------
 3TMF4Nitro_EtO.M062X_6-31pGd_opt
 --------------------------------
 Symbolic Z-matrix:
 Charge = -1 Multiplicity = 1
 C                    -2.21689   2.63869   0.02188 
 C                    -0.91646   1.84085   0.02624 
 C                     0.30367   2.76794   0.02121 
 N                     1.54148   2.00543   0.02195 
 C                     2.75912   2.62152   0.02409 
 O                     2.80221   3.84077   0.03107 
 N                     3.90588   1.86604   0.0236 
 C                     5.27406   2.3339    0.03548 
 C                     5.65976   3.69417   0.0094 
 C                     6.2936    1.37511   0.07636 
 C                     7.63467   1.73964   0.09295 
 C                     8.03784   3.08848   0.06869 
 C                     7.0184    4.09476   0.02492 
 H                    -3.08098   1.94139   0.0273 
 H                    -2.27726   3.27282  -0.88824 
 H                    -2.27615   3.28593   0.92276 
 H                    -0.89206   1.18954  -0.87445 
 H                    -0.8903    1.19943   0.93408 
 H                     0.2721    3.41592   0.92491 
 H                     0.27082   3.4101   -0.88661 
 H                     1.48586   0.8667    0.02284 
 H                     3.75831   0.72803   0.01613 
 H                     4.92518   4.46944  -0.02553 
 H                     6.06064   0.31989   0.09884 
 C                     7.33079   5.58695  -0.00596 
 F                     6.18875   6.36927  -0.0474 
 F                     8.07469   5.88838  -1.13282 
 F                     8.03085   5.9445    1.1325 
 N                     9.45043   3.37409   0.08925 
 O                     10.24144   2.47955   0.12647 
 O                     9.86356   4.49188   0.07106 
 H                     8.3684    0.94414   0.12618 
 O                     1.42702  -1.18983  -0.22298 
 O                     3.64969  -1.33133  -0.24484 
 C                     2.56799  -1.90212  -0.31839 
 C                     2.48206  -3.39186  -0.51712 
 C                     3.84954  -4.06636  -0.61897 
 H                     1.91467  -3.5925   -1.45094 
 H                     1.92627  -3.83301   0.33768 
 H                     4.41631  -3.65984  -1.48379 
 H                     3.71426  -5.15876  -0.76572 
 H                     4.43184  -3.90231   0.31274 
 
 Add virtual bond connecting atoms O33        and H21        Dist= 3.92D+00.
 Add virtual bond connecting atoms O34        and H22        Dist= 3.93D+00.

 GradGradGradGradGradGradGradGradGradGradGradGradGradGradGradGradGradGrad
 Berny optimization.
 Initialization pass.
                           ----------------------------
                           !    Initial Parameters    !
                           ! (Angstroms and Degrees)  !
 --------------------------                            --------------------------
 ! Name  Definition              Value          Derivative Info.                !
 --------------------------------------------------------------------------------
 ! R1    R(1,2)                  1.5257         estimate D2E/DX2                !
 ! R2    R(1,14)                 1.1104         estimate D2E/DX2                !
 ! R3    R(1,15)                 1.1109         estimate D2E/DX2                !
 ! R4    R(1,16)                 1.1109         estimate D2E/DX2                !
 ! R5    R(2,3)                  1.5324         estimate D2E/DX2                !
 ! R6    R(2,17)                 1.1118         estimate D2E/DX2                !
 ! R7    R(2,18)                 1.1119         estimate D2E/DX2                !
 ! R8    R(3,4)                  1.4538         estimate D2E/DX2                !
 ! R9    R(3,19)                 1.1125         estimate D2E/DX2                !
 ! R10   R(3,20)                 1.1125         estimate D2E/DX2                !
 ! R11   R(4,5)                  1.3646         estimate D2E/DX2                !
 ! R12   R(4,21)                 1.1401         estimate D2E/DX2                !
 ! R13   R(5,6)                  1.22           estimate D2E/DX2                !
 ! R14   R(5,7)                  1.3732         estimate D2E/DX2                !
 ! R15   R(7,8)                  1.446          estimate D2E/DX2                !
 ! R16   R(7,22)                 1.1476         estimate D2E/DX2                !
 ! R17   R(8,9)                  1.4141         estimate D2E/DX2                !
 ! R18   R(8,10)                 1.4001         estimate D2E/DX2                !
 ! R19   R(9,13)                 1.4166         estimate D2E/DX2                !
 ! R20   R(9,23)                 1.0686         estimate D2E/DX2                !
 ! R21   R(10,11)                1.3898         estimate D2E/DX2                !
 ! R22   R(10,24)                1.0809         estimate D2E/DX2                !
 ! R23   R(11,12)                1.408          estimate D2E/DX2                !
 ! R24   R(11,32)                1.0827         estimate D2E/DX2                !
 ! R25   R(12,13)                1.4331         estimate D2E/DX2                !
 ! R26   R(12,29)                1.4413         estimate D2E/DX2                !
 ! R27   R(13,25)                1.5249         estimate D2E/DX2                !
 ! R28   R(21,33)                2.072          estimate D2E/DX2                !
 ! R29   R(22,34)                2.0787         estimate D2E/DX2                !
 ! R30   R(25,26)                1.3849         estimate D2E/DX2                !
 ! R31   R(25,27)                1.3835         estimate D2E/DX2                !
 ! R32   R(25,28)                1.3835         estimate D2E/DX2                !
 ! R33   R(29,30)                1.1947         estimate D2E/DX2                !
 ! R34   R(29,31)                1.1918         estimate D2E/DX2                !
 ! R35   R(33,35)                1.3484         estimate D2E/DX2                !
 ! R36   R(34,35)                1.2253         estimate D2E/DX2                !
 ! R37   R(35,36)                1.5054         estimate D2E/DX2                !
 ! R38   R(36,37)                1.5282         estimate D2E/DX2                !
 ! R39   R(36,38)                1.1109         estimate D2E/DX2                !
 ! R40   R(36,39)                1.1109         estimate D2E/DX2                !
 ! R41   R(37,40)                1.111          estimate D2E/DX2                !
 ! R42   R(37,41)                1.1105         estimate D2E/DX2                !
 ! R43   R(37,42)                1.1109         estimate D2E/DX2                !
 ! A1    A(2,1,14)             109.5662         estimate D2E/DX2                !
 ! A2    A(2,1,15)             110.3145         estimate D2E/DX2                !
 ! A3    A(2,1,16)             110.3554         estimate D2E/DX2                !
 ! A4    A(14,1,15)            108.6741         estimate D2E/DX2                !
 ! A5    A(14,1,16)            108.6886         estimate D2E/DX2                !
 ! A6    A(15,1,16)            109.2029         estimate D2E/DX2                !
 ! A7    A(1,2,3)              111.2406         estimate D2E/DX2                !
 ! A8    A(1,2,17)             108.8291         estimate D2E/DX2                !
 ! A9    A(1,2,18)             108.9087         estimate D2E/DX2                !
 ! A10   A(3,2,17)             109.5293         estimate D2E/DX2                !
 ! A11   A(3,2,18)             109.4482         estimate D2E/DX2                !
 ! A12   A(17,2,18)            108.8445         estimate D2E/DX2                !
 ! A13   A(2,3,4)              111.1374         estimate D2E/DX2                !
 ! A14   A(2,3,19)             109.0949         estimate D2E/DX2                !
 ! A15   A(2,3,20)             109.1713         estimate D2E/DX2                !
 ! A16   A(4,3,19)             109.2233         estimate D2E/DX2                !
 ! A17   A(4,3,20)             109.1663         estimate D2E/DX2                !
 ! A18   A(19,3,20)            109.0167         estimate D2E/DX2                !
 ! A19   A(3,4,5)              121.5282         estimate D2E/DX2                !
 ! A20   A(3,4,21)             118.8374         estimate D2E/DX2                !
 ! A21   A(5,4,21)             119.6343         estimate D2E/DX2                !
 ! A22   A(4,5,6)              118.8622         estimate D2E/DX2                !
 ! A23   A(4,5,7)              119.7852         estimate D2E/DX2                !
 ! A24   A(6,5,7)              121.3522         estimate D2E/DX2                !
 ! A25   A(5,7,8)              127.7431         estimate D2E/DX2                !
 ! A26   A(5,7,22)             115.9877         estimate D2E/DX2                !
 ! A27   A(8,7,22)             116.2689         estimate D2E/DX2                !
 ! A28   A(7,8,9)              124.6904         estimate D2E/DX2                !
 ! A29   A(7,8,10)             117.8819         estimate D2E/DX2                !
 ! A30   A(9,8,10)             117.4277         estimate D2E/DX2                !
 ! A31   A(8,9,13)             122.2365         estimate D2E/DX2                !
 ! A32   A(8,9,23)             120.7294         estimate D2E/DX2                !
 ! A33   A(13,9,23)            117.034          estimate D2E/DX2                !
 ! A34   A(8,10,11)            121.5581         estimate D2E/DX2                !
 ! A35   A(8,10,24)            120.8102         estimate D2E/DX2                !
 ! A36   A(11,10,24)           117.6315         estimate D2E/DX2                !
 ! A37   A(10,11,12)           121.8265         estimate D2E/DX2                !
 ! A38   A(10,11,32)           117.4877         estimate D2E/DX2                !
 ! A39   A(12,11,32)           120.6858         estimate D2E/DX2                !
 ! A40   A(11,12,13)           118.0017         estimate D2E/DX2                !
 ! A41   A(11,12,29)           118.0483         estimate D2E/DX2                !
 ! A42   A(13,12,29)           123.9499         estimate D2E/DX2                !
 ! A43   A(9,13,12)            118.9495         estimate D2E/DX2                !
 ! A44   A(9,13,25)            118.2295         estimate D2E/DX2                !
 ! A45   A(12,13,25)           122.821          estimate D2E/DX2                !
 ! A46   A(13,25,26)           112.6099         estimate D2E/DX2                !
 ! A47   A(13,25,27)           109.8683         estimate D2E/DX2                !
 ! A48   A(13,25,28)           109.8712         estimate D2E/DX2                !
 ! A49   A(26,25,27)           107.2146         estimate D2E/DX2                !
 ! A50   A(26,25,28)           107.2118         estimate D2E/DX2                !
 ! A51   A(27,25,28)           109.9903         estimate D2E/DX2                !
 ! A52   A(12,29,30)           120.0647         estimate D2E/DX2                !
 ! A53   A(12,29,31)           121.6922         estimate D2E/DX2                !
 ! A54   A(30,29,31)           118.2431         estimate D2E/DX2                !
 ! A55   A(21,33,35)           120.5743         estimate D2E/DX2                !
 ! A56   A(22,34,35)           121.0101         estimate D2E/DX2                !
 ! A57   A(33,35,34)           119.7802         estimate D2E/DX2                !
 ! A58   A(33,35,36)           118.9329         estimate D2E/DX2                !
 ! A59   A(34,35,36)           121.2868         estimate D2E/DX2                !
 ! A60   A(35,36,37)           113.2352         estimate D2E/DX2                !
 ! A61   A(35,36,38)           108.5929         estimate D2E/DX2                !
 ! A62   A(35,36,39)           108.6598         estimate D2E/DX2                !
 ! A63   A(37,36,38)           108.7406         estimate D2E/DX2                !
 ! A64   A(37,36,39)           108.8863         estimate D2E/DX2                !
 ! A65   A(38,36,39)           108.6346         estimate D2E/DX2                !
 ! A66   A(36,37,40)           110.2958         estimate D2E/DX2                !
 ! A67   A(36,37,41)           109.5108         estimate D2E/DX2                !
 ! A68   A(36,37,42)           110.3636         estimate D2E/DX2                !
 ! A69   A(40,37,41)           108.6154         estimate D2E/DX2                !
 ! A70   A(40,37,42)           109.3546         estimate D2E/DX2                !
 ! A71   A(41,37,42)           108.6605         estimate D2E/DX2                !
 ! A72   L(4,21,33,2,-1)       181.0164         estimate D2E/DX2                !
 ! A73   L(7,22,34,1,-1)       184.257          estimate D2E/DX2                !
 ! A74   L(4,21,33,2,-2)       172.6876         estimate D2E/DX2                !
 ! A75   L(7,22,34,1,-2)       172.929          estimate D2E/DX2                !
 ! D1    D(14,1,2,3)          -179.9104         estimate D2E/DX2                !
 ! D2    D(14,1,2,17)           59.3276         estimate D2E/DX2                !
 ! D3    D(14,1,2,18)          -59.197          estimate D2E/DX2                !
 ! D4    D(15,1,2,3)            60.4911         estimate D2E/DX2                !
 ! D5    D(15,1,2,17)          -60.2709         estimate D2E/DX2                !
 ! D6    D(15,1,2,18)         -178.7956         estimate D2E/DX2                !
 ! D7    D(16,1,2,3)           -60.2686         estimate D2E/DX2                !
 ! D8    D(16,1,2,17)          178.9694         estimate D2E/DX2                !
 ! D9    D(16,1,2,18)           60.4448         estimate D2E/DX2                !
 ! D10   D(1,2,3,4)           -179.8552         estimate D2E/DX2                !
 ! D11   D(1,2,3,19)            59.6542         estimate D2E/DX2                !
 ! D12   D(1,2,3,20)           -59.3858         estimate D2E/DX2                !
 ! D13   D(17,2,3,4)           -59.5058         estimate D2E/DX2                !
 ! D14   D(17,2,3,19)         -179.9963         estimate D2E/DX2                !
 ! D15   D(17,2,3,20)           60.9637         estimate D2E/DX2                !
 ! D16   D(18,2,3,4)            59.7493         estimate D2E/DX2                !
 ! D17   D(18,2,3,19)          -60.7413         estimate D2E/DX2                !
 ! D18   D(18,2,3,20)         -179.7813         estimate D2E/DX2                !
 ! D19   D(2,3,4,5)           -179.6996         estimate D2E/DX2                !
 ! D20   D(2,3,4,21)             0.1779         estimate D2E/DX2                !
 ! D21   D(19,3,4,5)           -59.2849         estimate D2E/DX2                !
 ! D22   D(19,3,4,21)          120.5926         estimate D2E/DX2                !
 ! D23   D(20,3,4,5)            59.8281         estimate D2E/DX2                !
 ! D24   D(20,3,4,21)         -120.2945         estimate D2E/DX2                !
 ! D25   D(3,4,5,6)              0.3039         estimate D2E/DX2                !
 ! D26   D(3,4,5,7)           -179.9459         estimate D2E/DX2                !
 ! D27   D(21,4,5,6)          -179.5727         estimate D2E/DX2                !
 ! D28   D(21,4,5,7)             0.1776         estimate D2E/DX2                !
 ! D29   D(3,4,33,35)          175.3282         estimate D2E/DX2                !
 ! D30   D(5,4,33,35)            0.1556         estimate D2E/DX2                !
 ! D31   D(4,5,7,8)           -179.5041         estimate D2E/DX2                !
 ! D32   D(4,5,7,22)             0.2897         estimate D2E/DX2                !
 ! D33   D(6,5,7,8)              0.2397         estimate D2E/DX2                !
 ! D34   D(6,5,7,22)          -179.9664         estimate D2E/DX2                !
 ! D35   D(5,7,8,9)             -2.0015         estimate D2E/DX2                !
 ! D36   D(5,7,8,10)           177.9659         estimate D2E/DX2                !
 ! D37   D(22,7,8,9)           178.2052         estimate D2E/DX2                !
 ! D38   D(22,7,8,10)           -1.8274         estimate D2E/DX2                !
 ! D39   D(5,7,34,35)           -1.5673         estimate D2E/DX2                !
 ! D40   D(8,7,34,35)         -177.4041         estimate D2E/DX2                !
 ! D41   D(7,8,9,13)           179.8954         estimate D2E/DX2                !
 ! D42   D(7,8,9,23)            -0.2469         estimate D2E/DX2                !
 ! D43   D(10,8,9,13)           -0.0722         estimate D2E/DX2                !
 ! D44   D(10,8,9,23)          179.7856         estimate D2E/DX2                !
 ! D45   D(7,8,10,11)         -179.8723         estimate D2E/DX2                !
 ! D46   D(7,8,10,24)           -0.0373         estimate D2E/DX2                !
 ! D47   D(9,8,10,11)            0.0975         estimate D2E/DX2                !
 ! D48   D(9,8,10,24)          179.9325         estimate D2E/DX2                !
 ! D49   D(8,9,13,12)           -0.0075         estimate D2E/DX2                !
 ! D50   D(8,9,13,25)          179.9911         estimate D2E/DX2                !
 ! D51   D(23,9,13,12)        -179.8702         estimate D2E/DX2                !
 ! D52   D(23,9,13,25)           0.1284         estimate D2E/DX2                !
 ! D53   D(8,10,11,12)          -0.0433         estimate D2E/DX2                !
 ! D54   D(8,10,11,32)         179.9167         estimate D2E/DX2                !
 ! D55   D(24,10,11,12)       -179.8832         estimate D2E/DX2                !
 ! D56   D(24,10,11,32)          0.0767         estimate D2E/DX2                !
 ! D57   D(10,11,12,13)         -0.0394         estimate D2E/DX2                !
 ! D58   D(10,11,12,29)        179.9656         estimate D2E/DX2                !
 ! D59   D(32,11,12,13)       -179.9981         estimate D2E/DX2                !
 ! D60   D(32,11,12,29)          0.0069         estimate D2E/DX2                !
 ! D61   D(11,12,13,9)           0.0631         estimate D2E/DX2                !
 ! D62   D(11,12,13,25)       -179.9355         estimate D2E/DX2                !
 ! D63   D(29,12,13,9)        -179.9422         estimate D2E/DX2                !
 ! D64   D(29,12,13,25)          0.0592         estimate D2E/DX2                !
 ! D65   D(11,12,29,30)         -0.0354         estimate D2E/DX2                !
 ! D66   D(11,12,29,31)       -179.9783         estimate D2E/DX2                !
 ! D67   D(13,12,29,30)        179.9699         estimate D2E/DX2                !
 ! D68   D(13,12,29,31)          0.027          estimate D2E/DX2                !
 ! D69   D(9,13,25,26)          -0.0385         estimate D2E/DX2                !
 ! D70   D(9,13,25,27)        -119.4697         estimate D2E/DX2                !
 ! D71   D(9,13,25,28)         119.3911         estimate D2E/DX2                !
 ! D72   D(12,13,25,26)        179.96           estimate D2E/DX2                !
 ! D73   D(12,13,25,27)         60.5288         estimate D2E/DX2                !
 ! D74   D(12,13,25,28)        -60.6103         estimate D2E/DX2                !
 ! D75   D(21,33,35,34)          0.7887         estimate D2E/DX2                !
 ! D76   D(21,33,35,36)       -179.0914         estimate D2E/DX2                !
 ! D77   D(22,34,35,33)         -0.3162         estimate D2E/DX2                !
 ! D78   D(22,34,35,36)        179.561          estimate D2E/DX2                !
 ! D79   D(33,35,36,37)        179.5387         estimate D2E/DX2                !
 ! D80   D(33,35,36,38)         58.6533         estimate D2E/DX2                !
 ! D81   D(33,35,36,39)        -59.3442         estimate D2E/DX2                !
 ! D82   D(34,35,36,37)         -0.3395         estimate D2E/DX2                !
 ! D83   D(34,35,36,38)       -121.2249         estimate D2E/DX2                !
 ! D84   D(34,35,36,39)        120.7776         estimate D2E/DX2                !
 ! D85   D(35,36,37,40)        -60.4313         estimate D2E/DX2                !
 ! D86   D(35,36,37,41)       -179.9113         estimate D2E/DX2                !
 ! D87   D(35,36,37,42)         60.5112         estimate D2E/DX2                !
 ! D88   D(38,36,37,40)         60.3705         estimate D2E/DX2                !
 ! D89   D(38,36,37,41)        -59.1095         estimate D2E/DX2                !
 ! D90   D(38,36,37,42)       -178.687          estimate D2E/DX2                !
 ! D91   D(39,36,37,40)        178.5795         estimate D2E/DX2                !
 ! D92   D(39,36,37,41)         59.0994         estimate D2E/DX2                !
 ! D93   D(39,36,37,42)        -60.4781         estimate D2E/DX2                !
 --------------------------------------------------------------------------------
 Trust Radius=3.00D-01 FncErr=1.00D-07 GrdErr=1.00D-06
 Number of steps in this run=    221 maximum allowed number of steps=    252.
 GradGradGradGradGradGradGradGradGradGradGradGradGradGradGradGradGradGrad

                          Input orientation:                          
 ---------------------------------------------------------------------
 Center     Atomic      Atomic             Coordinates (Angstroms)
 Number     Number       Type             X           Y           Z
 ---------------------------------------------------------------------
      1          6           0       -2.216890    2.638690    0.021880
      2          6           0       -0.916460    1.840850    0.026240
      3          6           0        0.303670    2.767940    0.021210
      4          7           0        1.541480    2.005430    0.021950
      5          6           0        2.759120    2.621520    0.024090
      6          8           0        2.802210    3.840770    0.031070
      7          7           0        3.905880    1.866040    0.023600
      8          6           0        5.274060    2.333900    0.035480
      9          6           0        5.659760    3.694170    0.009400
     10          6           0        6.293600    1.375110    0.076360
     11          6           0        7.634670    1.739640    0.092950
     12          6           0        8.037840    3.088480    0.068690
     13          6           0        7.018400    4.094760    0.024920
     14          1           0       -3.080980    1.941390    0.027300
     15          1           0       -2.277260    3.272820   -0.888240
     16          1           0       -2.276150    3.285930    0.922760
     17          1           0       -0.892060    1.189540   -0.874450
     18          1           0       -0.890300    1.199430    0.934080
     19          1           0        0.272100    3.415920    0.924910
     20          1           0        0.270820    3.410100   -0.886610
     21          1           0        1.485860    0.866700    0.022840
     22          1           0        3.758310    0.728030    0.016130
     23          1           0        4.925180    4.469440   -0.025530
     24          1           0        6.060640    0.319890    0.098840
     25          6           0        7.330790    5.586950   -0.005960
     26          9           0        6.188750    6.369270   -0.047400
     27          9           0        8.074690    5.888380   -1.132820
     28          9           0        8.030850    5.944500    1.132500
     29          7           0        9.450430    3.374090    0.089250
     30          8           0       10.241440    2.479550    0.126470
     31          8           0        9.863560    4.491880    0.071060
     32          1           0        8.368400    0.944140    0.126180
     33          8           0        1.427020   -1.189830   -0.222980
     34          8           0        3.649690   -1.331330   -0.244840
     35          6           0        2.567990   -1.902120   -0.318390
     36          6           0        2.482060   -3.391860   -0.517120
     37          6           0        3.849540   -4.066360   -0.618970
     38          1           0        1.914670   -3.592500   -1.450940
     39          1           0        1.926270   -3.833010    0.337680
     40          1           0        4.416310   -3.659840   -1.483790
     41          1           0        3.714260   -5.158760   -0.765720
     42          1           0        4.431840   -3.902310    0.312740
 ---------------------------------------------------------------------
                    Distance matrix (angstroms):
                    1          2          3          4          5
     1  C    0.000000
     2  C    1.525676   0.000000
     3  C    2.523872   1.532396   0.000000
     4  N    3.811347   2.463448   1.453821   0.000000
     5  C    4.976040   3.757571   2.459813   1.364631   0.000000
     6  O    5.161051   4.222346   2.719148   2.226656   1.220031
     7  N    6.171329   4.822407   3.713401   2.368506   1.373248
     8  C    7.497160   6.210131   4.989326   3.747029   2.531359
     9  C    7.947063   6.832404   5.435599   4.451093   3.092654
    10  C    8.603955   7.225261   6.149982   4.794049   3.748175
    11  C    9.892754   8.551989   7.403115   6.099397   4.955143
    12  C   10.264696   9.040900   7.740955   6.586188   5.299521
    13  C    9.349371   8.248764   6.844565   5.861908   4.506873
    14  H    1.110364   2.166854   3.484118   4.622907   5.879571
    15  H    1.110893   2.176830   2.782661   4.125227   5.159618
    16  H    1.110863   2.177329   2.781470   4.126189   5.157809
    17  H    2.158383   1.111775   2.173321   2.718699   4.023563
    18  H    2.159495   1.111880   2.172353   2.719406   4.021031
    19  H    2.759460   2.168209   1.112452   2.101462   2.761850
    20  H    2.758465   2.169211   1.112468   2.100751   2.764574
    21  H    4.104913   2.592320   2.238814   1.140088   2.168083
    22  H    6.273250   4.805408   4.011957   2.558539   2.140969
    23  H    7.373131   6.406007   4.925002   4.186051   2.847646
    24  H    8.596526   7.141324   6.256331   4.823874   4.025310
    25  C    9.992558   9.058225   7.571524   6.807656   5.449298
    26  F    9.196565   8.425914   6.899888   6.375345   5.080660
    27  F   10.854052   9.928076   8.453265   7.687238   6.345557
    28  F   10.824880   9.905459   8.428215   7.672126   6.329448
    29  N   11.690668  10.479847   9.167075   8.026783   6.733813
    30  O   12.459785  11.176615   9.942511   8.713496   7.484367
    31  O   12.221866  11.101297   9.714214   8.685727   7.346667
    32  H   10.720576   9.328596   8.269047   6.909706   5.855600
    33  O    5.291087   3.839144   4.121345   3.206677   4.044987
    34  O    7.088650   5.566501   5.298174   3.955969   4.060845
    35  C    6.605287   5.125425   5.201147   4.054442   4.540610
    36  C    7.664084   6.263101   6.555785   5.505091   6.044039
    37  C    9.064765   7.617492   7.725974   6.527216   6.806635
    38  H    7.620152   6.302273   6.724414   5.800474   6.442271
    39  H    7.690800   6.353802   6.804816   5.859619   6.515592
    40  H    9.270268   7.808727   7.777865   6.528950   6.668993
    41  H    9.828483   8.430024   8.665100   7.527750   7.878379
    42  H    9.331393   7.853043   7.849778   6.583322   6.741044
                    6          7          8          9         10
     6  O    0.000000
     7  N    2.262234   0.000000
     8  C    2.894947   1.446012   0.000000
     9  C    2.861390   2.533447   1.414135   0.000000
    10  C    4.274498   2.438238   1.400147   2.405052   0.000000
    11  C    5.269843   3.731576   2.434939   2.779827   1.389830
    12  C    5.289535   4.309233   2.865131   2.454718   2.445009
    13  C    4.223838   3.828182   2.478601   1.416551   2.815045
    14  H    6.182199   6.987267   8.364259   8.914768   9.391796
    15  H    5.193141   6.406380   7.665329   7.998724   8.831274
    16  H    5.185817   6.406409   7.661547   7.998722   8.820898
    17  H    4.636445   4.927918   6.337079   7.069703   7.250668
    18  H    4.628902   4.927138   6.331970   7.069798   7.237055
    19  H    2.716782   4.052017   5.194368   5.471971   6.414312
    20  H    2.726820   4.052933   5.200083   5.470302   6.429804
    21  H    3.252374   2.618239   4.062425   5.041449   4.834843
    22  H    3.256302   1.147562   2.208323   3.523286   2.617257
    23  H    2.214821   2.796261   2.164710   1.068584   3.384942
    24  H    4.797766   2.653155   2.163090   3.399187   1.080863
    25  C    4.853715   5.057277   3.848921   2.524915   4.338449
    26  F    4.227070   5.049318   4.138567   2.727493   4.996793
    27  F    5.774633   5.907242   4.673626   3.457038   5.000400
    28  F    5.742604   5.905834   4.673305   3.456502   5.001279
    29  N    6.664833   5.746352   4.304295   3.804998   3.736531
    30  O    7.563343   6.366027   4.970348   4.741392   4.099724
    31  O    7.091418   6.510855   5.071652   4.279261   4.739082
    32  H    6.275507   4.557906   3.393317   3.861740   2.119673
    33  O    5.221362   3.942574   5.223331   6.467113   5.509276
    34  O    5.248330   3.218830   4.018839   5.418549   3.797137
    35  C    5.758278   4.013220   5.039038   6.401949   4.977573
    36  C    7.260437   5.474044   6.394135   7.783754   6.132215
    37  C    8.002634   5.967365   6.589453   7.993596   6.005540
    38  H    7.631355   5.994568   6.972601   8.321890   6.795942
    39  H    7.729695   6.041248   7.023518   8.408636   6.801939
    40  H    7.820439   5.750488   6.242502   7.606395   5.595445
    41  H    9.080652   7.071602   7.695119   9.097261   7.074853
    42  H    7.917722   5.799491   6.298930   7.701059   5.601177
                   11         12         13         14         15
    11  C    0.000000
    12  C    1.408014   0.000000
    13  C    2.435366   1.433099   0.000000
    14  H   10.717750  11.177911  10.326397   0.000000
    15  H   10.077685  10.361032   9.376499   1.804684   0.000000
    16  H   10.064986  10.351174   9.372779   1.804823   1.811048
    17  H    8.599046   9.178159   8.474936   2.483909   2.501804
    18  H    8.583382   9.166738   8.470953   2.484318   3.089248
    19  H    7.596678   7.819658   6.839837   3.771351   3.131649
    20  H    7.614214   7.832154   6.843207   3.771857   2.551776
    21  H    6.210862   6.918587   6.405418   4.691589   4.558569
    22  H    4.006922   4.887624   4.686484   6.946096   6.612257
    23  H    3.848010   3.406550   2.127087   8.395977   7.351960
    24  H    2.119739   3.402252   3.895178   9.284589   8.900264
    25  C    3.860560   2.597661   1.524851  11.031599   9.922109
    26  F    4.852201   3.767784   2.422178  10.273247   9.053637
    27  F    4.348353   3.047035   2.381844  11.890062  10.680068
    28  F    4.349537   3.047719   2.381875  11.862509  10.838745
    29  N    2.443036   1.441321   2.537375  12.613196  11.768792
    30  O    2.709952   2.286917   3.606550  13.333654  12.584783
    31  O    3.541646   2.302779   2.873111  13.193484  12.239521
    32  H    1.082721   2.170431   3.429163  11.493154  10.944491
    33  O    6.871428   7.879844   7.697524   5.494474   5.837766
    34  O    5.042323   6.236095   6.392451   7.489104   7.532655
    35  C    6.253228   7.414525   7.475733   6.841267   7.112045
    36  C    7.297525   8.555973   8.770500   7.725760   8.197976
    37  C    6.967329   8.319043   8.778391   9.194718   9.564191
    38  H    7.970804   9.189014   9.344527   7.600372   8.063593
    39  H    7.981237   9.237460   9.427468   7.649352   8.346578
    40  H    6.480612   7.814442   8.317506   9.479796   9.655068
    41  H    7.980905   9.349147   9.857489   9.859833  10.344316
    42  H    6.491381   7.869812   8.409891   9.522225   9.896306
                   16         17         18         19         20
    16  H    0.000000
    17  H    3.088773   0.000000
    18  H    2.504833   1.808558   0.000000
    19  H    2.551564   3.090264   2.502816   0.000000
    20  H    3.126707   2.506656   3.090336   1.811530   0.000000
    21  H    4.562373   2.562003   2.566555   2.964029   2.961808
    22  H    6.616611   4.757317   4.761767   4.494919   4.491216
    23  H    7.359287   6.731916   6.740447   4.864606   4.850436
    24  H    8.886974   7.074152   7.055975   6.616267   6.636454
    25  C    9.922223   9.365188   9.365913   7.443453   7.440255
    26  F    9.061056   8.812008   8.820629   6.683892   6.669547
    27  F   10.869133  10.126621  10.326150   8.439652   8.191635
    28  F   10.646419  10.308046  10.106531   8.163027   8.409403
    29  N   11.756496  10.614522  10.600641   9.216389   9.231405
    30  O   12.568786  11.252590  11.234170  10.045001  10.065064
    31  O   12.229156  11.290828  11.279651   9.689317   9.700930
    32  H   10.928173   9.317596   9.297387   8.502808   8.525110
    33  O    5.921032   3.385845   3.523822   4.885123   4.789213
    34  O    7.602497   5.232465   5.329738   5.942458   5.857456
    35  C    7.205693   4.673276   4.811243   5.924395   5.815457
    36  C    8.325064   5.701017   5.878668   7.301318   7.161897
    37  C    9.693151   7.083257   7.253040   8.436004   8.293149
    38  H    8.397037   5.574763   6.043076   7.580280   7.215062
    39  H    8.287458   5.885427   5.797776   7.458425   7.530076
    40  H    9.941037   7.215717   7.590699   8.546502   8.217406
    41  H   10.490413   7.844165   8.032302   9.393180   9.235651
    42  H    9.850891   7.461921   7.398580   8.440064   8.498463
                   21         22         23         24         25
    21  H    0.000000
    22  H    2.276687   0.000000
    23  H    4.981064   3.919371   0.000000
    24  H    4.607970   2.339689   4.303894   0.000000
    25  C    7.512975   6.030937   2.652578   5.419058   0.000000
    26  F    7.238811   6.142855   2.281763   6.052503   1.384918
    27  F    8.364538   6.824986   3.627519   6.048261   1.383496
    28  F    8.357768   6.834650   3.627950   6.048671   1.383480
    29  N    8.350197   6.277516   4.657344   4.562774   3.065728
    30  O    8.903494   6.716470   5.678502   4.705739   4.259737
    31  O    9.128533   7.172424   4.939375   5.645217   2.760441
    32  H    6.883751   4.616464   4.930164   2.390856   4.759179
    33  O    2.072005   3.028246   6.656083   4.883980   8.990347
    34  O    3.095989   2.078670   5.943392   2.942333   7.840291
    35  C    2.992291   2.906278   6.799918   4.160530   8.880768
    36  C    4.406734   4.345879   8.246850   5.192565  10.217167
    37  C    5.507630   4.837132   8.623749   4.964212  10.280140
    38  H    4.715970   4.921207   8.722949   5.907426  10.755679
    39  H    4.730788   4.925734   8.834934   5.864865  10.865660
    40  H    5.598842   4.683602   8.274700   4.587678   9.807207
    41  H    6.472539   5.938647   9.732237   6.022339  11.363398
    42  H    5.613047   4.688461   8.393093   4.530531   9.927313
                   26         27         28         29         30
    26  F    0.000000
    27  F    2.228489   0.000000
    28  F    2.228436   2.266439   0.000000
    29  N    4.430387   3.115729   3.116181   0.000000
    30  O    5.620004   4.230926   4.231393   1.194690   0.000000
    31  O    4.128299   2.568968   2.568187   1.191831   2.048252
    32  H    5.849191   5.110465   5.111773   2.660227   2.421934
    33  O    8.935597   9.752968   9.815628   9.235906   9.554081
    34  O    8.110798   8.514302   8.604030   7.476709   7.623113
    35  C    9.033229   9.574912   9.670438   8.681736   8.847529
    36  C   10.451787  10.852624  10.985351   9.731595   9.751699
    37  C   10.709854  10.826485  10.989464   9.339799   9.179379
    38  H   10.930441  11.310797  11.620507  10.377535  10.425599
    39  H   11.063613  11.596157  11.554105  10.421948  10.441986
    40  H   10.285320  10.231101  10.590242   8.791643   8.614940
    41  H   11.812475  11.882231  12.063108  10.317177  10.086816
    42  H   10.426974  10.545976  10.515919   8.842069   8.632166
                   31         32         33         34         35
    31  O    0.000000
    32  H    3.850325   0.000000
    33  O   10.175632   7.270385   0.000000
    34  O    8.521839   5.251823   2.227277   0.000000
    35  C    9.708772   6.476387   1.348433   1.225270   0.000000
    36  C   10.816000   7.339191   2.459383   2.383963   1.505391
    37  C   10.482750   6.788259   3.781512   2.767725   2.533111
    38  H   11.439342   8.044815   2.741990   3.094812   2.137026
    39  H   11.505453   8.022901   2.747725   3.093204   2.137889
    40  H    9.926763   6.277551   4.077554   2.746755   2.804287
    41  H   11.473837   7.726700   4.612856   3.863251   3.481342
    42  H   10.001221   6.246550   4.083318   2.744557   2.805891
                   36         37         38         39         40
    36  C    0.000000
    37  C    1.528177   0.000000
    38  H    1.110949   2.158805   0.000000
    39  H    1.110945   2.160694   1.804755   0.000000
    40  H    2.178896   1.111036   2.502762   3.089990   0.000000
    41  H    2.168422   1.110484   2.482181   2.484354   1.804234
    42  H    2.179649   1.110887   3.089125   2.506652   1.812885
                   41         42
    41  H    0.000000
    42  H    1.804623   0.000000
 Stoichiometry    C14H17F3N3O5(1-)
 Framework group  C1[X(C14H17F3N3O5)]
 Deg. of freedom   120
 Full point group                 C1      NOp   1
 Largest Abelian subgroup         C1      NOp   1
 Largest concise Abelian subgroup C1      NOp   1
                         Standard orientation:                         
 ---------------------------------------------------------------------
 Center     Atomic      Atomic             Coordinates (Angstroms)
 Number     Number       Type             X           Y           Z
 ---------------------------------------------------------------------
      1          6           0       -5.612820   -4.145491   -0.032944
      2          6           0       -4.956267   -2.769325   -0.085786
      3          6           0       -3.428839   -2.880519   -0.032524
      4          7           0       -2.805677   -1.567869   -0.079590
      5          6           0       -1.449341   -1.420405   -0.050876
      6          8           0       -0.749658   -2.417995    0.010230
      7          7           0       -0.898741   -0.163182   -0.096051
      8          6           0        0.503460    0.189914   -0.085800
      9          6           0        1.566246   -0.737484    0.015186
     10          6           0        0.837920    1.546029   -0.183275
     11          6           0        2.161301    1.970633   -0.183427
     12          6           0        3.232569    1.062233   -0.084949
     13          6           0        2.923950   -0.333445    0.018067
     14          1           0       -6.716650   -4.032729   -0.074797
     15          1           0       -5.343910   -4.665095    0.911399
     16          1           0       -5.285157   -4.763342   -0.896027
     17          1           0       -5.315372   -2.167068    0.776984
     18          1           0       -5.257895   -2.262144   -1.028158
     19          1           0       -3.077474   -3.484041   -0.898464
     20          1           0       -3.132418   -3.391965    0.909890
     21          1           0       -3.471838   -0.644896   -0.144013
     22          1           0       -1.641851    0.709501   -0.151813
     23          1           0        1.371066   -1.785009    0.095608
     24          1           0        0.069085    2.301431   -0.264056
     25          6           0        3.996898   -1.410988    0.131443
     26          9           0        3.463686   -2.686074    0.219969
     27          9           0        4.753171   -1.203399    1.271188
     28          9           0        4.810347   -1.384185   -0.987306
     29          7           0        4.573098    1.591677   -0.093692
     30          8           0        4.750772    2.769682   -0.183240
     31          8           0        5.527181    0.881837   -0.014229
     32          1           0        2.344714    3.034713   -0.263282
     33          8           0       -4.646949    1.056654   -0.013444
     34          8           0       -2.860670    2.387036   -0.006129
     35          6           0       -4.080363    2.279170    0.038586
     36          6           0       -4.968502    3.489174    0.153925
     37          6           0       -4.191591    4.803764    0.213826
     38          1           0       -5.579600    3.393356    1.076739
     39          1           0       -5.650663    3.514235   -0.722561
     40          1           0       -3.519344    4.814163    1.098347
     41          1           0       -4.903479    5.651718    0.299640
     42          1           0       -3.587956    4.938440   -0.708972
 ---------------------------------------------------------------------
 Rotational constants (GHZ):      0.2637330      0.0958791      0.0715479
 General basis read from cards:  (6D, 7F)
 There are   509 symmetry adapted cartesian basis functions of A   symmetry.
 There are   509 symmetry adapted basis functions of A   symmetry.
   509 basis functions,   868 primitive gaussians,   509 cartesian basis functions
    95 alpha electrons       95 beta electrons
       nuclear repulsion energy      2202.7697039159 Hartrees.
 NAtoms=   42 NActive=   42 NUniq=   42 SFac= 1.00D+00 NAtFMM=   60 NAOKFM=F Big=F
 Integral buffers will be    131072 words long.
 Raffenetti 2 integral format.
 Two-electron integral symmetry is turned on.
 One-electron integrals computed using PRISM.
 NBasis=   509 RedAO= T EigKep=  1.07D-06  NBF=   509
 NBsUse=   508 1.00D-06 EigRej=  2.22D-07 NBFU=   508
 ExpMin= 4.38D-02 ExpMax= 7.00D+03 ExpMxC= 1.05D+03 IAcc=3 IRadAn=         5 AccDes= 0.00D+00
 Harris functional with IExCor= 1009 and IRadAn=       5 diagonalized for initial guess.
 HarFok:  IExCor= 1009 AccDes= 0.00D+00 IRadAn=         5 IDoV= 1 UseB2=F ITyADJ=14
 ICtDFT=  3500011 ScaDFX=  1.000000  1.000000  1.000000  1.000000
 FoFCou: FMM=F IPFlag=           0 FMFlag=      100000 FMFlg1=           0
         NFxFlg=           0 DoJE=T BraDBF=F KetDBF=T FulRan=T
         wScrn=  0.000000 ICntrl=     500 IOpCl=  0 I1Cent=   200000004 NGrid=           0
         NMat0=    1 NMatS0=      1 NMatT0=    0 NMatD0=    1 NMtDS0=    0 NMtDT0=    0
 Petite list used in FoFCou.
 Requested convergence on RMS density matrix=1.00D-08 within 128 cycles.
 Requested convergence on MAX density matrix=1.00D-06.
 Requested convergence on             energy=1.00D-06.
 No special actions if energy rises.
 SCF Done:  E(RM062X) =  -1383.14208014     A.U. after   16 cycles
            NFock= 16  Conv=0.87D-08     -V/T= 2.0089

 **********************************************************************

            Population analysis using the SCF density.

 **********************************************************************

 Orbital symmetries:
       Occupied  (A) (A) (A) (A) (A) (A) (A) (A) (A) (A) (A) (A)
                 (A) (A) (A) (A) (A) (A) (A) (A) (A) (A) (A) (A)
                 (A) (A) (A) (A) (A) (A) (A) (A) (A) (A) (A) (A)
                 (A) (A) (A) (A) (A) (A) (A) (A) (A) (A) (A) (A)
                 (A) (A) (A) (A) (A) (A) (A) (A) (A) (A) (A) (A)
                 (A) (A) (A) (A) (A) (A) (A) (A) (A) (A) (A) (A)
                 (A) (A) (A) (A) (A) (A) (A) (A) (A) (A) (A) (A)
                 (A) (A) (A) (A) (A) (A) (A) (A) (A) (A) (A)
       Virtual   (A) (A) (A) (A) (A) (A) (A) (A) (A) (A) (A) (A)
                 (A) (A) (A) (A) (A) (A) (A) (A) (A) (A) (A) (A)
                 (A) (A) (A) (A) (A) (A) (A) (A) (A) (A) (A) (A)
                 (A) (A) (A) (A) (A) (A) (A) (A) (A) (A) (A) (A)
                 (A) (A) (A) (A) (A) (A) (A) (A) (A) (A) (A) (A)
                 (A) (A) (A) (A) (A) (A) (A) (A) (A) (A) (A) (A)
                 (A) (A) (A) (A) (A) (A) (A) (A) (A) (A) (A) (A)
                 (A) (A) (A) (A) (A) (A) (A) (A) (A) (A) (A) (A)
                 (A) (A) (A) (A) (A) (A) (A) (A) (A) (A) (A) (A)
                 (A) (A) (A) (A) (A) (A) (A) (A) (A) (A) (A) (A)
                 (A) (A) (A) (A) (A) (A) (A) (A) (A) (A) (A) (A)
                 (A) (A) (A) (A) (A) (A) (A) (A) (A) (A) (A) (A)
                 (A) (A) (A) (A) (A) (A) (A) (A) (A) (A) (A) (A)
                 (A) (A) (A) (A) (A) (A) (A) (A) (A) (A) (A) (A)
                 (A) (A) (A) (A) (A) (A) (A) (A) (A) (A) (A) (A)
                 (A) (A) (A) (A) (A) (A) (A) (A) (A) (A) (A) (A)
                 (A) (A) (A) (A) (A) (A) (A) (A) (A) (A) (A) (A)
                 (A) (A) (A) (A) (A) (A) (A) (A) (A) (A) (A) (A)
                 (A) (A) (A) (A) (A) (A) (A) (A) (A) (A) (A) (A)
                 (A) (A) (A) (A) (A) (A) (A) (A) (A) (A) (A) (A)
                 (A) (A) (A) (A) (A) (A) (A) (A) (A) (A) (A) (A)
                 (A) (A) (A) (A) (A) (A) (A) (A) (A) (A) (A) (A)
                 (A) (A) (A) (A) (A) (A) (A) (A) (A) (A) (A) (A)
                 (A) (A) (A) (A) (A) (A) (A) (A) (A) (A) (A) (A)
                 (A) (A) (A) (A) (A) (A) (A) (A) (A) (A) (A) (A)
                 (A) (A) (A) (A) (A) (A) (A) (A) (A) (A) (A) (A)
                 (A) (A) (A) (A) (A) (A) (A) (A) (A) (A) (A) (A)
                 (A) (A) (A) (A) (A) (A) (A) (A) (A) (A) (A) (A)
                 (A) (A) (A) (A) (A) (A) (A) (A) (A) (A) (A) (A)
                 (A) (A) (A) (A) (A) (A) (A) (A) (A) (A) (A) (A)
                 (A) (A) (A) (A) (A) (A) (A) (A) (A) (A) (A) (A)
                 (A) (A) (A) (A) (A) (A) (A) (A) (A) (A) (A) (A)
                 (A) (A) (A) (A) (A) (A) (A) (A) (A) (A) (A) (A)
                 (A) (A) (A) (A) (A) (A) (A) (A) (A) (A) (A) (A)
                 (A) (A) (A) (A) (A)
 The electronic state is 1-A.
 Alpha  occ. eigenvalues --  -25.22688 -25.21914 -25.21913 -19.59261 -19.59140
 Alpha  occ. eigenvalues --  -19.50081 -19.47512 -19.44546 -14.93619 -14.71296
 Alpha  occ. eigenvalues --  -14.67424 -10.74856 -10.57699 -10.55300 -10.54807
 Alpha  occ. eigenvalues --  -10.53761 -10.51397 -10.50957 -10.49779 -10.49370
 Alpha  occ. eigenvalues --  -10.48818 -10.46617 -10.46056 -10.44086 -10.43978
 Alpha  occ. eigenvalues --   -1.36290  -1.31821  -1.28416  -1.28274  -1.10776
 Alpha  occ. eigenvalues --   -1.07434  -1.02573  -0.94762  -0.91688  -0.90321
 Alpha  occ. eigenvalues --   -0.89086  -0.82984  -0.81828  -0.78953  -0.75730
 Alpha  occ. eigenvalues --   -0.74292  -0.71444  -0.67742  -0.64841  -0.62231
 Alpha  occ. eigenvalues --   -0.61495  -0.59848  -0.59571  -0.59514  -0.57835
 Alpha  occ. eigenvalues --   -0.56251  -0.56080  -0.54110  -0.52964  -0.51007
 Alpha  occ. eigenvalues --   -0.49183  -0.48594  -0.48075  -0.46694  -0.46263
 Alpha  occ. eigenvalues --   -0.45797  -0.45078  -0.45006  -0.43824  -0.43370
 Alpha  occ. eigenvalues --   -0.43154  -0.42472  -0.42153  -0.41222  -0.40335
 Alpha  occ. eigenvalues --   -0.40128  -0.38922  -0.38709  -0.36942  -0.36506
 Alpha  occ. eigenvalues --   -0.36221  -0.35369  -0.33575  -0.33523  -0.32915
 Alpha  occ. eigenvalues --   -0.32001  -0.31263  -0.31030  -0.30343  -0.29611
 Alpha  occ. eigenvalues --   -0.29337  -0.29146  -0.28623  -0.25534  -0.23847
 Alpha  occ. eigenvalues --   -0.21338  -0.19627  -0.19205  -0.17509  -0.16653
 Alpha virt. eigenvalues --    0.02339   0.07419   0.09754   0.09841   0.10764
 Alpha virt. eigenvalues --    0.11332   0.11966   0.12036   0.12245   0.12461
 Alpha virt. eigenvalues --    0.12519   0.13220   0.13369   0.13750   0.14213
 Alpha virt. eigenvalues --    0.14472   0.15374   0.15555   0.16132   0.16519
 Alpha virt. eigenvalues --    0.16558   0.17004   0.17521   0.17558   0.18364
 Alpha virt. eigenvalues --    0.18445   0.18877   0.19042   0.19818   0.20072
 Alpha virt. eigenvalues --    0.20247   0.20577   0.20855   0.21304   0.21790
 Alpha virt. eigenvalues --    0.22008   0.22485   0.22846   0.22910   0.23592
 Alpha virt. eigenvalues --    0.23867   0.23914   0.24453   0.24994   0.25157
 Alpha virt. eigenvalues --    0.25660   0.25687   0.26222   0.27030   0.27429
 Alpha virt. eigenvalues --    0.27597   0.28156   0.28591   0.28992   0.29374
 Alpha virt. eigenvalues --    0.30013   0.30344   0.30520   0.30799   0.31133
 Alpha virt. eigenvalues --    0.31371   0.31749   0.32177   0.32513   0.32893
 Alpha virt. eigenvalues --    0.33102   0.33364   0.33530   0.33675   0.34062
 Alpha virt. eigenvalues --    0.34078   0.34210   0.35115   0.35424   0.35706
 Alpha virt. eigenvalues --    0.36223   0.36770   0.36957   0.37120   0.37363
 Alpha virt. eigenvalues --    0.37827   0.38144   0.38192   0.38737   0.38881
 Alpha virt. eigenvalues --    0.39612   0.39782   0.40094   0.40404   0.40612
 Alpha virt. eigenvalues --    0.41324   0.41536   0.41717   0.41970   0.42103
 Alpha virt. eigenvalues --    0.42323   0.42911   0.43167   0.43668   0.43869
 Alpha virt. eigenvalues --    0.44245   0.44436   0.45306   0.45590   0.45738
 Alpha virt. eigenvalues --    0.46517   0.46548   0.47356   0.47412   0.47755
 Alpha virt. eigenvalues --    0.48242   0.48455   0.48612   0.49010   0.49578
 Alpha virt. eigenvalues --    0.50374   0.50580   0.51595   0.51861   0.52256
 Alpha virt. eigenvalues --    0.53797   0.54355   0.54548   0.55199   0.55855
 Alpha virt. eigenvalues --    0.55994   0.56590   0.57281   0.57573   0.58434
 Alpha virt. eigenvalues --    0.58793   0.60010   0.60827   0.61035   0.61943
 Alpha virt. eigenvalues --    0.62826   0.63913   0.64533   0.65935   0.66501
 Alpha virt. eigenvalues --    0.67307   0.69724   0.70772   0.71596   0.74161
 Alpha virt. eigenvalues --    0.76175   0.77799   0.77998   0.79374   0.80570
 Alpha virt. eigenvalues --    0.81715   0.81794   0.82651   0.83837   0.84655
 Alpha virt. eigenvalues --    0.85050   0.85163   0.85899   0.86064   0.86555
 Alpha virt. eigenvalues --    0.86937   0.87507   0.89780   0.90667   0.90859
 Alpha virt. eigenvalues --    0.91864   0.92486   0.92761   0.94325   0.95687
 Alpha virt. eigenvalues --    0.96009   0.97486   0.97734   0.98512   0.98931
 Alpha virt. eigenvalues --    0.99628   1.01465   1.03062   1.05178   1.06337
 Alpha virt. eigenvalues --    1.06511   1.07121   1.07696   1.09057   1.09398
 Alpha virt. eigenvalues --    1.09802   1.10813   1.12067   1.13529   1.15784
 Alpha virt. eigenvalues --    1.15817   1.16307   1.17867   1.18049   1.18809
 Alpha virt. eigenvalues --    1.20596   1.21100   1.23085   1.23627   1.23958
 Alpha virt. eigenvalues --    1.24897   1.25221   1.25624   1.26488   1.27023
 Alpha virt. eigenvalues --    1.28254   1.29097   1.30007   1.30090   1.30797
 Alpha virt. eigenvalues --    1.31812   1.33720   1.34268   1.35001   1.36173
 Alpha virt. eigenvalues --    1.36820   1.37284   1.38549   1.39737   1.41291
 Alpha virt. eigenvalues --    1.41797   1.43248   1.43971   1.44480   1.46424
 Alpha virt. eigenvalues --    1.47143   1.47380   1.48036   1.49724   1.49977
 Alpha virt. eigenvalues --    1.50408   1.51373   1.52140   1.53367   1.53553
 Alpha virt. eigenvalues --    1.54094   1.55313   1.55548   1.57408   1.57732
 Alpha virt. eigenvalues --    1.58009   1.58527   1.59334   1.60397   1.60700
 Alpha virt. eigenvalues --    1.61951   1.65883   1.66801   1.66936   1.67361
 Alpha virt. eigenvalues --    1.68300   1.69438   1.71623   1.73435   1.74037
 Alpha virt. eigenvalues --    1.74997   1.75221   1.77226   1.78308   1.79232
 Alpha virt. eigenvalues --    1.80382   1.81834   1.82724   1.83003   1.83297
 Alpha virt. eigenvalues --    1.83626   1.84697   1.85694   1.87034   1.88897
 Alpha virt. eigenvalues --    1.89103   1.90655   1.93151   1.94318   1.94782
 Alpha virt. eigenvalues --    1.95854   1.96173   1.96421   1.96536   1.97287
 Alpha virt. eigenvalues --    1.97399   1.97513   1.98246   1.98981   1.99673
 Alpha virt. eigenvalues --    2.00222   2.00343   2.01916   2.03223   2.03473
 Alpha virt. eigenvalues --    2.04254   2.04585   2.05606   2.06316   2.06974
 Alpha virt. eigenvalues --    2.07504   2.08148   2.08696   2.08825   2.08894
 Alpha virt. eigenvalues --    2.10462   2.12519   2.12968   2.13067   2.13691
 Alpha virt. eigenvalues --    2.15214   2.15217   2.15755   2.16156   2.17469
 Alpha virt. eigenvalues --    2.18261   2.19458   2.19536   2.19757   2.21574
 Alpha virt. eigenvalues --    2.22016   2.23324   2.23445   2.24069   2.25332
 Alpha virt. eigenvalues --    2.27174   2.27880   2.28987   2.30142   2.31244
 Alpha virt. eigenvalues --    2.32834   2.33504   2.34875   2.36351   2.37509
 Alpha virt. eigenvalues --    2.38532   2.40073   2.40908   2.42081   2.42376
 Alpha virt. eigenvalues --    2.42545   2.45469   2.46311   2.46493   2.47721
 Alpha virt. eigenvalues --    2.49078   2.49297   2.51188   2.52291   2.57008
 Alpha virt. eigenvalues --    2.57526   2.59699   2.64038   2.64677   2.67309
 Alpha virt. eigenvalues --    2.67826   2.68630   2.70535   2.72106   2.72853
 Alpha virt. eigenvalues --    2.74773   2.75620   2.78117   2.81421   2.82827
 Alpha virt. eigenvalues --    2.84593   2.84658   2.84694   2.85510   2.86806
 Alpha virt. eigenvalues --    2.89853   2.91147   2.93904   2.96163   3.00282
 Alpha virt. eigenvalues --    3.00374   3.03275   3.09339   3.11278   3.15461
 Alpha virt. eigenvalues --    3.17230   3.21701   3.22011   3.24713   3.28913
 Alpha virt. eigenvalues --    3.29474   3.32159   3.33403   3.37624   3.38827
 Alpha virt. eigenvalues --    3.44396   3.49495   3.52166   4.30040   4.33375
 Alpha virt. eigenvalues --    4.33686   4.37084   4.39233   4.40582   4.46540
 Alpha virt. eigenvalues --    4.49669   4.49911   4.52675   4.55092   4.56837
 Alpha virt. eigenvalues --    4.60168   4.63902   4.65217   4.70032   4.73407
 Alpha virt. eigenvalues --    4.75637   4.83415   4.87362   4.90021   4.99976
 Alpha virt. eigenvalues --    5.67499   6.28665   7.25225
          Condensed to atoms (all electrons):
               1          2          3          4          5          6
     1  C    5.858995  -0.240842   0.046129  -0.018824  -0.067153  -0.000369
     2  C   -0.240842   6.424360  -0.534432  -0.069037   0.194925   0.023385
     3  C    0.046129  -0.534432   7.260752   0.364769  -0.824134  -0.100791
     4  N   -0.018824  -0.069037   0.364769   7.711434   0.493094  -0.185343
     5  C   -0.067153   0.194925  -0.824134   0.493094   6.956175   0.653191
     6  O   -0.000369   0.023385  -0.100791  -0.185343   0.653191   8.299564
     7  N   -0.004470   0.017359  -0.201858  -0.369737   0.181154  -0.057944
     8  C   -0.011451   0.033255  -0.437030  -0.252712  -0.722795  -0.566810
     9  C    0.001937  -0.027073   0.052434   0.112703   0.585977   0.574977
    10  C   -0.003859   0.020454  -0.183170  -0.164330  -1.673856  -0.150921
    11  C   -0.000227   0.001769   0.012019  -0.031520   0.482225  -0.009569
    12  C   -0.000079   0.000114  -0.025817  -0.013264  -0.350200  -0.009674
    13  C    0.000101  -0.003564  -0.024412   0.045704  -0.347184   0.118907
    14  H    0.457298  -0.135789   0.030839   0.000260  -0.002125   0.000005
    15  H    0.417111  -0.066663  -0.004779  -0.000078  -0.001811  -0.000045
    16  H    0.423069  -0.069700  -0.009203  -0.000213  -0.000428  -0.000037
    17  H   -0.036640   0.425888  -0.073009   0.004421  -0.004217  -0.000163
    18  H   -0.043291   0.421334  -0.058296   0.004388  -0.010497  -0.000209
    19  H   -0.008034  -0.054435   0.449382  -0.057762  -0.022914   0.000848
    20  H   -0.008565  -0.058560   0.455123  -0.057896  -0.025006   0.000889
    21  H    0.002238   0.000634  -0.053394   0.164107   0.026121   0.003770
    22  H    0.000241   0.000161   0.009114   0.032807  -0.008728   0.003290
    23  H    0.000018  -0.000055   0.003362   0.000980   0.025918   0.001183
    24  H   -0.000000   0.000012  -0.000184   0.000689  -0.005460   0.000037
    25  C   -0.000122   0.000270  -0.010385   0.005367  -0.232281   0.010077
    26  F   -0.000000   0.000004   0.000038  -0.000014   0.002431  -0.000570
    27  F    0.000000  -0.000001   0.000027   0.000010   0.002901  -0.000002
    28  F    0.000000  -0.000001   0.000036   0.000009   0.003497   0.000021
    29  N    0.000001  -0.000001   0.000237  -0.000053   0.009653   0.000051
    30  O    0.000000  -0.000000   0.000010   0.000005   0.001784   0.000001
    31  O   -0.000000   0.000000  -0.000012   0.000001  -0.001547   0.000018
    32  H    0.000000   0.000000   0.000034   0.000009   0.004341   0.000001
    33  O    0.007380   0.014582  -0.013490  -0.033332   0.001191  -0.000240
    34  O   -0.000096  -0.000865   0.008799   0.008421   0.034149  -0.000079
    35  C   -0.003223  -0.002859  -0.000895  -0.004796  -0.017193  -0.001001
    36  C    0.003162  -0.001189   0.021404  -0.012079  -0.013924  -0.000694
    37  C   -0.000378  -0.000196  -0.002160   0.001950   0.001647   0.000049
    38  H    0.000004   0.000003   0.000018  -0.000055  -0.000098  -0.000000
    39  H    0.000003  -0.000016   0.000053  -0.000040  -0.000100  -0.000000
    40  H    0.000000   0.000005  -0.000006   0.000000  -0.000071  -0.000000
    41  H    0.000000   0.000003  -0.000002  -0.000002   0.000015   0.000000
    42  H    0.000000   0.000006  -0.000013  -0.000000  -0.000136  -0.000000
               7          8          9         10         11         12
     1  C   -0.004470  -0.011451   0.001937  -0.003859  -0.000227  -0.000079
     2  C    0.017359   0.033255  -0.027073   0.020454   0.001769   0.000114
     3  C   -0.201858  -0.437030   0.052434  -0.183170   0.012019  -0.025817
     4  N   -0.369737  -0.252712   0.112703  -0.164330  -0.031520  -0.013264
     5  C    0.181154  -0.722795   0.585977  -1.673856   0.482225  -0.350200
     6  O   -0.057944  -0.566810   0.574977  -0.150921  -0.009569  -0.009674
     7  N    7.847271  -0.039358   0.066961  -0.043112   0.059033  -0.021800
     8  C   -0.039358  24.965212  -4.621942   0.683430  -1.250333  -3.058932
     9  C    0.066961  -4.621942  19.268394  -8.375194  -2.628382  -4.655323
    10  C   -0.043112   0.683430  -8.375194  27.844134  -5.222441  -2.951106
    11  C    0.059033  -1.250333  -2.628382  -5.222441  19.692781   0.302214
    12  C   -0.021800  -3.058932  -4.655323  -2.951106   0.302214  27.846293
    13  C    0.069054  -7.111965   4.818135  -3.808883  -5.356807  -6.061772
    14  H    0.000008  -0.000045   0.000003  -0.000003   0.000000  -0.000000
    15  H    0.000005  -0.000018  -0.000040   0.000005   0.000000  -0.000000
    16  H    0.000007  -0.000023  -0.000002  -0.000002   0.000000  -0.000000
    17  H   -0.000148  -0.000724  -0.000052   0.000106   0.000007   0.000001
    18  H   -0.000333  -0.000691  -0.000351   0.000224   0.000011   0.000001
    19  H    0.000341  -0.000004  -0.003162   0.000242   0.000096  -0.000015
    20  H   -0.000501  -0.001094  -0.000295   0.000174  -0.000006   0.000017
    21  H    0.031246   0.006239  -0.003567   0.003606   0.000421   0.000264
    22  H    0.150739   0.001682   0.075465  -0.107244   0.006331  -0.002155
    23  H   -0.015004  -0.006656   0.379921   0.013865  -0.020508  -0.050829
    24  H   -0.005145  -0.021819   0.024964   0.251007   0.071547  -0.043248
    25  C    0.003346  -2.607748  -0.472770   1.054344  -0.848097  -2.383424
    26  F   -0.001260   0.195026   0.047368   0.010060   0.005215   0.000710
    27  F    0.000348   0.030048   0.048981  -0.009001   0.045605  -0.089647
    28  F    0.000313   0.038518   0.059312  -0.009218   0.046478  -0.097286
    29  N   -0.000257   0.094262   0.025641  -0.083173   0.182224  -0.460425
    30  O    0.000044   0.077502   0.047575   0.208766   0.100858  -0.789990
    31  O   -0.000025  -0.023901   0.064319   0.081113   0.158984  -0.342628
    32  H    0.000511   0.020563   0.000151  -0.259321   0.278367   0.169235
    33  O    0.016365  -0.008971  -0.007627   0.006854  -0.003824   0.001012
    34  O   -0.009868  -0.178341  -0.000480   0.081146   0.068361  -0.000163
    35  C   -0.004594   0.049969  -0.019501   0.009312  -0.037906   0.001480
    36  C   -0.016072   0.016563  -0.004644  -0.017442  -0.010264   0.001031
    37  C    0.002884  -0.027940  -0.004558   0.013325   0.019729   0.000210
    38  H    0.000071  -0.000390  -0.000065   0.000362  -0.000013   0.000001
    39  H    0.000075  -0.000668  -0.000064   0.000570   0.000061   0.000003
    40  H   -0.000001  -0.001245  -0.000107   0.000877   0.000379   0.000004
    41  H    0.000005   0.000138   0.000009  -0.000130  -0.000045   0.000000
    42  H   -0.000019  -0.000640  -0.000067   0.000743  -0.000223  -0.000023
              13         14         15         16         17         18
     1  C    0.000101   0.457298   0.417111   0.423069  -0.036640  -0.043291
     2  C   -0.003564  -0.135789  -0.066663  -0.069700   0.425888   0.421334
     3  C   -0.024412   0.030839  -0.004779  -0.009203  -0.073009  -0.058296
     4  N    0.045704   0.000260  -0.000078  -0.000213   0.004421   0.004388
     5  C   -0.347184  -0.002125  -0.001811  -0.000428  -0.004217  -0.010497
     6  O    0.118907   0.000005  -0.000045  -0.000037  -0.000163  -0.000209
     7  N    0.069054   0.000008   0.000005   0.000007  -0.000148  -0.000333
     8  C   -7.111965  -0.000045  -0.000018  -0.000023  -0.000724  -0.000691
     9  C    4.818135   0.000003  -0.000040  -0.000002  -0.000052  -0.000351
    10  C   -3.808883  -0.000003   0.000005  -0.000002   0.000106   0.000224
    11  C   -5.356807   0.000000   0.000000   0.000000   0.000007   0.000011
    12  C   -6.061772  -0.000000  -0.000000  -0.000000   0.000001   0.000001
    13  C   24.324144  -0.000000  -0.000001   0.000001  -0.000006  -0.000015
    14  H   -0.000000   0.509070  -0.025967  -0.026250  -0.003286  -0.003334
    15  H   -0.000001  -0.025967   0.512376  -0.030625  -0.004579   0.003981
    16  H    0.000001  -0.026250  -0.030625   0.513704   0.003902  -0.004659
    17  H   -0.000006  -0.003286  -0.004579   0.003902   0.478213  -0.026421
    18  H   -0.000015  -0.003334   0.003981  -0.004659  -0.026421   0.490603
    19  H   -0.000443  -0.000073  -0.000395   0.003119   0.003947  -0.005536
    20  H    0.000094  -0.000068   0.002975  -0.000359  -0.005194   0.003985
    21  H   -0.001437  -0.000001  -0.000000   0.000000   0.000673   0.000553
    22  H    0.012873  -0.000000  -0.000000  -0.000000   0.000002   0.000002
    23  H   -0.038931   0.000000   0.000000  -0.000000  -0.000000  -0.000000
    24  H    0.025433   0.000000   0.000000   0.000000   0.000000   0.000000
    25  C   -0.521643  -0.000000  -0.000000  -0.000000  -0.000000  -0.000001
    26  F   -0.200948   0.000000  -0.000000   0.000000   0.000000  -0.000000
    27  F    0.054100  -0.000000   0.000000  -0.000000  -0.000000   0.000000
    28  F    0.052951  -0.000000  -0.000000   0.000000   0.000000  -0.000000
    29  N    0.205257   0.000000   0.000000   0.000000   0.000000   0.000000
    30  O    0.243434  -0.000000  -0.000000  -0.000000   0.000000   0.000000
    31  O   -0.284029  -0.000000  -0.000000  -0.000000  -0.000000  -0.000000
    32  H    0.119468  -0.000000   0.000000   0.000000   0.000000   0.000000
    33  O   -0.001845  -0.000017  -0.000003  -0.000009  -0.001619  -0.001049
    34  O    0.001291  -0.000000   0.000000   0.000000  -0.000016  -0.000009
    35  C   -0.004083  -0.000054   0.000012  -0.000009  -0.000159   0.000374
    36  C   -0.005065   0.000024  -0.000001  -0.000002   0.000029   0.000141
    37  C    0.000797  -0.000000   0.000000   0.000000  -0.000007  -0.000009
    38  H   -0.000004  -0.000000  -0.000000  -0.000000  -0.000000   0.000000
    39  H   -0.000004  -0.000000   0.000000  -0.000000  -0.000000   0.000000
    40  H    0.000003   0.000000  -0.000000  -0.000000  -0.000000  -0.000000
    41  H    0.000000   0.000000  -0.000000  -0.000000  -0.000000  -0.000000
    42  H    0.000012   0.000000  -0.000000  -0.000000  -0.000000  -0.000000
              19         20         21         22         23         24
     1  C   -0.008034  -0.008565   0.002238   0.000241   0.000018  -0.000000
     2  C   -0.054435  -0.058560   0.000634   0.000161  -0.000055   0.000012
     3  C    0.449382   0.455123  -0.053394   0.009114   0.003362  -0.000184
     4  N   -0.057762  -0.057896   0.164107   0.032807   0.000980   0.000689
     5  C   -0.022914  -0.025006   0.026121  -0.008728   0.025918  -0.005460
     6  O    0.000848   0.000889   0.003770   0.003290   0.001183   0.000037
     7  N    0.000341  -0.000501   0.031246   0.150739  -0.015004  -0.005145
     8  C   -0.000004  -0.001094   0.006239   0.001682  -0.006656  -0.021819
     9  C   -0.003162  -0.000295  -0.003567   0.075465   0.379921   0.024964
    10  C    0.000242   0.000174   0.003606  -0.107244   0.013865   0.251007
    11  C    0.000096  -0.000006   0.000421   0.006331  -0.020508   0.071547
    12  C   -0.000015   0.000017   0.000264  -0.002155  -0.050829  -0.043248
    13  C   -0.000443   0.000094  -0.001437   0.012873  -0.038931   0.025433
    14  H   -0.000073  -0.000068  -0.000001  -0.000000   0.000000   0.000000
    15  H   -0.000395   0.002975  -0.000000  -0.000000   0.000000   0.000000
    16  H    0.003119  -0.000359   0.000000  -0.000000  -0.000000   0.000000
    17  H    0.003947  -0.005194   0.000673   0.000002  -0.000000   0.000000
    18  H   -0.005536   0.003985   0.000553   0.000002  -0.000000   0.000000
    19  H    0.528705  -0.042197   0.001602   0.000005  -0.000001   0.000000
    20  H   -0.042197   0.526062   0.001589   0.000006  -0.000001   0.000000
    21  H    0.001602   0.001589   0.253904   0.004685  -0.000001   0.000005
    22  H    0.000005   0.000006   0.004685   0.257570  -0.000084   0.004963
    23  H   -0.000001  -0.000001  -0.000001  -0.000084   0.391562  -0.000098
    24  H    0.000000   0.000000   0.000005   0.004963  -0.000098   0.427983
    25  C   -0.000043   0.000002  -0.000090   0.001028  -0.002732   0.005305
    26  F   -0.000000   0.000000   0.000000  -0.000001   0.008463   0.000001
    27  F   -0.000000   0.000000  -0.000000  -0.000000  -0.000005   0.000001
    28  F    0.000000  -0.000000  -0.000000   0.000000  -0.000017   0.000001
    29  N    0.000000   0.000000   0.000000  -0.000026   0.000008  -0.000123
    30  O   -0.000000  -0.000000  -0.000000   0.000002   0.000042   0.000008
    31  O   -0.000000  -0.000000  -0.000000  -0.000000  -0.000091   0.000054
    32  H   -0.000000  -0.000000   0.000000  -0.000008   0.000008  -0.003672
    33  O   -0.000077  -0.000042   0.056747   0.001583   0.000001   0.000001
    34  O   -0.000002  -0.000007  -0.001004   0.051161   0.000003  -0.002024
    35  C    0.000237   0.000333  -0.005533  -0.005983  -0.000026  -0.000461
    36  C    0.000019   0.000028   0.007982   0.008056  -0.000001   0.001078
    37  C    0.000001  -0.000000  -0.001339  -0.001027  -0.000000  -0.000053
    38  H   -0.000000  -0.000000  -0.000001  -0.000008   0.000000   0.000000
    39  H   -0.000000  -0.000000  -0.000002  -0.000008   0.000000  -0.000000
    40  H   -0.000000   0.000000   0.000000  -0.000003   0.000000  -0.000001
    41  H   -0.000000  -0.000000   0.000000   0.000000  -0.000000   0.000000
    42  H    0.000000  -0.000000   0.000000  -0.000003   0.000000   0.000001
              25         26         27         28         29         30
     1  C   -0.000122  -0.000000   0.000000   0.000000   0.000001   0.000000
     2  C    0.000270   0.000004  -0.000001  -0.000001  -0.000001  -0.000000
     3  C   -0.010385   0.000038   0.000027   0.000036   0.000237   0.000010
     4  N    0.005367  -0.000014   0.000010   0.000009  -0.000053   0.000005
     5  C   -0.232281   0.002431   0.002901   0.003497   0.009653   0.001784
     6  O    0.010077  -0.000570  -0.000002   0.000021   0.000051   0.000001
     7  N    0.003346  -0.001260   0.000348   0.000313  -0.000257   0.000044
     8  C   -2.607748   0.195026   0.030048   0.038518   0.094262   0.077502
     9  C   -0.472770   0.047368   0.048981   0.059312   0.025641   0.047575
    10  C    1.054344   0.010060  -0.009001  -0.009218  -0.083173   0.208766
    11  C   -0.848097   0.005215   0.045605   0.046478   0.182224   0.100858
    12  C   -2.383424   0.000710  -0.089647  -0.097286  -0.460425  -0.789990
    13  C   -0.521643  -0.200948   0.054100   0.052951   0.205257   0.243434
    14  H   -0.000000   0.000000  -0.000000  -0.000000   0.000000  -0.000000
    15  H   -0.000000  -0.000000   0.000000  -0.000000   0.000000  -0.000000
    16  H   -0.000000   0.000000  -0.000000   0.000000   0.000000  -0.000000
    17  H   -0.000000   0.000000  -0.000000   0.000000   0.000000   0.000000
    18  H   -0.000001  -0.000000   0.000000  -0.000000   0.000000   0.000000
    19  H   -0.000043  -0.000000  -0.000000   0.000000   0.000000  -0.000000
    20  H    0.000002   0.000000   0.000000  -0.000000   0.000000  -0.000000
    21  H   -0.000090   0.000000  -0.000000  -0.000000   0.000000  -0.000000
    22  H    0.001028  -0.000001  -0.000000   0.000000  -0.000026   0.000002
    23  H   -0.002732   0.008463  -0.000005  -0.000017   0.000008   0.000042
    24  H    0.005305   0.000001   0.000001   0.000001  -0.000123   0.000008
    25  C   10.330916   0.069305   0.061827   0.051266  -0.436536   0.010100
    26  F    0.069305   9.272130  -0.037680  -0.037879   0.001429   0.000046
    27  F    0.061827  -0.037680   9.225626  -0.044609   0.000609  -0.001870
    28  F    0.051266  -0.037879  -0.044609   9.225081   0.000443  -0.001867
    29  N   -0.436536   0.001429   0.000609   0.000443   7.305228   0.319895
    30  O    0.010100   0.000046  -0.001870  -0.001867   0.319895   7.887892
    31  O    0.296047   0.000676  -0.024195  -0.023748   0.272020  -0.096395
    32  H   -0.000066   0.000007  -0.000011  -0.000012  -0.042894   0.019773
    33  O   -0.000099  -0.000000  -0.000000  -0.000000  -0.000000  -0.000000
    34  O    0.000225  -0.000000   0.000000   0.000000   0.000023   0.000001
    35  C   -0.000938   0.000005   0.000001   0.000001   0.000024   0.000001
    36  C   -0.000356   0.000000   0.000000   0.000000  -0.000014   0.000002
    37  C    0.000078  -0.000000   0.000000   0.000000   0.000008  -0.000002
    38  H   -0.000000  -0.000000  -0.000000  -0.000000  -0.000000  -0.000000
    39  H   -0.000000  -0.000000  -0.000000  -0.000000  -0.000000  -0.000000
    40  H    0.000000  -0.000000   0.000000  -0.000000  -0.000000   0.000000
    41  H    0.000000   0.000000   0.000000   0.000000  -0.000000   0.000000
    42  H    0.000000  -0.000000   0.000000   0.000000   0.000000   0.000000
              31         32         33         34         35         36
     1  C   -0.000000   0.000000   0.007380  -0.000096  -0.003223   0.003162
     2  C    0.000000   0.000000   0.014582  -0.000865  -0.002859  -0.001189
     3  C   -0.000012   0.000034  -0.013490   0.008799  -0.000895   0.021404
     4  N    0.000001   0.000009  -0.033332   0.008421  -0.004796  -0.012079
     5  C   -0.001547   0.004341   0.001191   0.034149  -0.017193  -0.013924
     6  O    0.000018   0.000001  -0.000240  -0.000079  -0.001001  -0.000694
     7  N   -0.000025   0.000511   0.016365  -0.009868  -0.004594  -0.016072
     8  C   -0.023901   0.020563  -0.008971  -0.178341   0.049969   0.016563
     9  C    0.064319   0.000151  -0.007627  -0.000480  -0.019501  -0.004644
    10  C    0.081113  -0.259321   0.006854   0.081146   0.009312  -0.017442
    11  C    0.158984   0.278367  -0.003824   0.068361  -0.037906  -0.010264
    12  C   -0.342628   0.169235   0.001012  -0.000163   0.001480   0.001031
    13  C   -0.284029   0.119468  -0.001845   0.001291  -0.004083  -0.005065
    14  H   -0.000000  -0.000000  -0.000017  -0.000000  -0.000054   0.000024
    15  H   -0.000000   0.000000  -0.000003   0.000000   0.000012  -0.000001
    16  H   -0.000000   0.000000  -0.000009   0.000000  -0.000009  -0.000002
    17  H   -0.000000   0.000000  -0.001619  -0.000016  -0.000159   0.000029
    18  H   -0.000000   0.000000  -0.001049  -0.000009   0.000374   0.000141
    19  H   -0.000000  -0.000000  -0.000077  -0.000002   0.000237   0.000019
    20  H   -0.000000  -0.000000  -0.000042  -0.000007   0.000333   0.000028
    21  H   -0.000000   0.000000   0.056747  -0.001004  -0.005533   0.007982
    22  H   -0.000000  -0.000008   0.001583   0.051161  -0.005983   0.008056
    23  H   -0.000091   0.000008   0.000001   0.000003  -0.000026  -0.000001
    24  H    0.000054  -0.003672   0.000001  -0.002024  -0.000461   0.001078
    25  C    0.296047  -0.000066  -0.000099   0.000225  -0.000938  -0.000356
    26  F    0.000676   0.000007  -0.000000  -0.000000   0.000005   0.000000
    27  F   -0.024195  -0.000011  -0.000000   0.000000   0.000001   0.000000
    28  F   -0.023748  -0.000012  -0.000000   0.000000   0.000001   0.000000
    29  N    0.272020  -0.042894  -0.000000   0.000023   0.000024  -0.000014
    30  O   -0.096395   0.019773  -0.000000   0.000001   0.000001   0.000002
    31  O    7.940759  -0.002494  -0.000000   0.000000   0.000002  -0.000001
    32  H   -0.002494   0.441748   0.000000  -0.000022  -0.000033   0.000004
    33  O   -0.000000   0.000000   8.583269  -0.195245   0.524363  -0.259595
    34  O    0.000000  -0.000022  -0.195245   8.586094   0.281523  -0.166137
    35  C    0.000002  -0.000033   0.524363   0.281523   5.520527  -0.774475
    36  C   -0.000001   0.000004  -0.259595  -0.166137  -0.774475   7.322192
    37  C    0.000001  -0.000002   0.023819   0.061696   0.006356  -0.318822
    38  H   -0.000000   0.000000  -0.002824   0.001711  -0.066749   0.437534
    39  H   -0.000000  -0.000000  -0.003007   0.001846  -0.072966   0.445506
    40  H   -0.000000  -0.000000  -0.000068  -0.005267  -0.009870  -0.042594
    41  H   -0.000000   0.000000  -0.000110   0.001905   0.037625  -0.094488
    42  H    0.000000  -0.000000  -0.000057  -0.005441  -0.004577  -0.049385
              37         38         39         40         41         42
     1  C   -0.000378   0.000004   0.000003   0.000000   0.000000   0.000000
     2  C   -0.000196   0.000003  -0.000016   0.000005   0.000003   0.000006
     3  C   -0.002160   0.000018   0.000053  -0.000006  -0.000002  -0.000013
     4  N    0.001950  -0.000055  -0.000040   0.000000  -0.000002  -0.000000
     5  C    0.001647  -0.000098  -0.000100  -0.000071   0.000015  -0.000136
     6  O    0.000049  -0.000000  -0.000000  -0.000000   0.000000  -0.000000
     7  N    0.002884   0.000071   0.000075  -0.000001   0.000005  -0.000019
     8  C   -0.027940  -0.000390  -0.000668  -0.001245   0.000138  -0.000640
     9  C   -0.004558  -0.000065  -0.000064  -0.000107   0.000009  -0.000067
    10  C    0.013325   0.000362   0.000570   0.000877  -0.000130   0.000743
    11  C    0.019729  -0.000013   0.000061   0.000379  -0.000045  -0.000223
    12  C    0.000210   0.000001   0.000003   0.000004   0.000000  -0.000023
    13  C    0.000797  -0.000004  -0.000004   0.000003   0.000000   0.000012
    14  H   -0.000000  -0.000000  -0.000000   0.000000   0.000000   0.000000
    15  H    0.000000  -0.000000   0.000000  -0.000000  -0.000000  -0.000000
    16  H    0.000000  -0.000000  -0.000000  -0.000000  -0.000000  -0.000000
    17  H   -0.000007  -0.000000  -0.000000  -0.000000  -0.000000  -0.000000
    18  H   -0.000009   0.000000   0.000000  -0.000000  -0.000000  -0.000000
    19  H    0.000001  -0.000000  -0.000000  -0.000000  -0.000000   0.000000
    20  H   -0.000000  -0.000000  -0.000000   0.000000  -0.000000  -0.000000
    21  H   -0.001339  -0.000001  -0.000002   0.000000   0.000000   0.000000
    22  H   -0.001027  -0.000008  -0.000008  -0.000003   0.000000  -0.000003
    23  H   -0.000000   0.000000   0.000000   0.000000  -0.000000   0.000000
    24  H   -0.000053   0.000000  -0.000000  -0.000001   0.000000   0.000001
    25  C    0.000078  -0.000000  -0.000000   0.000000   0.000000   0.000000
    26  F   -0.000000  -0.000000  -0.000000  -0.000000   0.000000  -0.000000
    27  F    0.000000  -0.000000  -0.000000   0.000000   0.000000   0.000000
    28  F    0.000000  -0.000000  -0.000000  -0.000000   0.000000   0.000000
[...]
 2,-0.00252783,0.00270970,-0.00175584,-0.11486622,-0.04868898,-0.225610
 62,0.00221874,0.00092995,0.00290006,0.12646902,0.05209646,0.24335734,0
 .00000608,0.00000727,0.00000244,-0.00000668,-0.00001588,-0.00000427,0.
 00000838,-0.00000531,0.00000990,0.00010879,0.00009478,0.00001460,-0.00
 027202,-0.00001260,0.00001566,0.00006859,0.00000608,-0.00001059,0.0000
 9865,-0.00024115,-0.00001628,-0.00004949,-0.00003872,0.00000379,0.0000
 1359,0.00000740,-0.00000344,0.00002633,0.00002451,-0.00001419,-0.00000
 534,-0.00000564,-0.00000289,0.00000993,-0.00000406,-0.00000095,-0.0000
 1896,-0.00001546,0.00000082,-0.00000296,-0.00000030,0.00000031,-0.0000
 0241,0.00000153,-0.00000207,-0.00000205,-0.00000040,0.00000058,0.00000
 909,0.00000182,0.00000122,0.00001048,0.00000518,-0.00000003,0.00000027
 ,-0.00000042,0.00000192,0.00000116,0.00000126,-0.00000427,-0.00003254,
 -0.00017849,-0.00006478,-0.00002382,0.00032750,-0.00001144,-0.00000814
 ,-0.00000181,0.00000227,0.00001045,0.00003606,0.00002921,-0.00000221,0
 .00003993,0.00001592,0.00000598,-0.00001401,-0.00000088,-0.00000056,-0
 .00000926,-0.00000201,-0.00000334,-0.00001361,-0.00001270,0.00000194,0
 .00003048,0.00002087,0.00000589,-0.00001900,-0.00001077,-0.00001168,-0
 .00002197,-0.00001462,0.00000865,0.00000720,0.00000714,0.00022094,0.00
 172564,-0.00066415,0.00048723,-0.00194237,-0.00099858,-0.00405871,-0.0
 0164707,0.00291864,-0.12069119,-0.04562641,0.11119260,-0.01571887,-0.0
 0978007,0.02342992,0.00943757,0.00650566,-0.01385879,0.13352552,0.0000
 0386,0.00000665,-0.00000517,0.00001223,-0.00002659,0.00002561,-0.00007
 484,0.00004167,0.00000921,0.00011261,0.00003889,0.00003791,-0.00034677
 ,0.00011378,0.00004369,0.00010243,-0.00014798,-0.00003996,-0.00006339,
 -0.00077561,0.00005664,0.00031316,0.00001997,0.00000348,-0.00007333,-0
 .00005991,-0.00001432,-0.00010660,0.00009745,0.00001005,0.00006355,0.0
 0000879,0.00000737,-0.00010736,-0.00003289,-0.00000260,0.00003169,-0.0
 0003364,-0.00001010,0.00001275,-0.00000028,0.00000365,-0.00000265,0.00
 000423,-0.00000386,0.00000113,-0.00000504,-0.00000017,-0.00000871,0.00
 000290,-0.00000438,-0.00000667,-0.00000390,-0.00000794,0.00000963,-0.0
 0001229,-0.00000517,0.00001811,-0.00000482,0.00000034,-0.00005203,0.00
 005321,-0.00012566,0.00000338,0.00121641,-0.00018071,0.00000134,0.0000
 0442,0.00000418,0.00009861,0.00000995,0.00000250,0.00002245,0.00008092
 ,0.00001360,0.00000050,-0.00002454,-0.00000033,-0.00001515,-0.00002345
 ,0.00000916,-0.00001038,-0.00002615,-0.00001963,0.00014818,0.00001167,
 0.00000784,-0.00006063,0.00002785,0.00000893,-0.00004788,-0.00003794,-
 0.00001735,-0.00000348,-0.00000256,0.00000022,0.00167874,0.00071617,-0
 .00421200,-0.00156379,-0.00606958,-0.00428270,-0.01830005,-0.00839577,
 0.03089614,-0.04570021,-0.07548072,0.07271676,0.00943625,0.00514373,-0
 .01379646,0.00452683,0.00238005,-0.00652601,0.04819690,0.08158291,0.00
 000223,0.00000126,0.00000587,-0.00001048,0.00000885,-0.00002380,0.0000
 7401,-0.00002590,-0.00000653,-0.00005786,0.00006395,0.00002862,0.00011
 599,-0.00007033,-0.00001679,-0.00003546,0.00006955,0.00000883,0.000001
 19,0.00014642,0.00005000,-0.00006262,0.00000104,-0.00000038,0.00001344
 ,0.00001794,0.00000242,0.00002052,-0.00003431,-0.00000051,-0.00002556,
 -0.00000685,-0.00000179,0.00003833,0.00001433,0.00000107,-0.00000425,0
 .00002033,0.00000283,-0.00001744,-0.00000085,-0.00000266,0.00000115,-0
 .00000477,0.00000308,-0.00000112,0.00000212,-0.00000016,0.00001245,0.0
 0000551,-0.00000521,0.00000983,0.00000688,0.00001710,-0.00001144,0.000
 00728,0.00000566,-0.00001333,0.00000144,-0.00000160,0.00000751,-0.0000
 9170,-0.00002344,-0.00001696,-0.00021295,-0.00008689,0.00000277,-0.000
 00186,-0.00000262,-0.00002507,-0.00001518,-0.00000820,-0.00001428,-0.0
 0006711,-0.00001153,-0.00000331,0.00002139,0.00000014,0.00000937,0.000
 01813,-0.00000447,0.00000788,0.00002205,0.00001572,-0.00007171,-0.0000
 2799,-0.00001578,0.00002534,0.00000053,0.00000190,0.00003035,0.0000321
 8,0.00001600,-0.00000562,-0.00000306,-0.00000136,-0.00150278,0.0005076
 3,0.00085058,-0.00096054,0.00004054,-0.00061054,-0.00003026,-0.0036690
 8,0.00223324,0.10992670,0.06969139,-0.20763722,-0.00097680,-0.00065022
 ,0.00089928,0.01474308,0.01003916,-0.02239615,-0.12130579,-0.07471112,
 0.22454330,0.00000382,0.00000144,-0.00000317,0.00000082,-0.00000894,0.
 00001558,-0.00000277,-0.00000208,0.00000440,0.00004129,0.00009980,-0.0
 0001891,-0.00009959,-0.00002019,0.00001618,0.00002614,0.00002866,-0.00
 000572,0.00001185,-0.00001917,-0.00002232,0.00001814,0.00000121,0.0000
 0745,-0.00000353,0.00000782,-0.00000271,-0.00001682,-0.00000878,-0.000
 00987,0.00000892,-0.00000210,-0.00000154,-0.00000064,-0.00000047,0.000
 00040,0.00000133,0.00000525,0.00000003,0.00000319,-0.00000159,0.000001
 98,-0.00000325,0.00000685,-0.00000367,-0.00000114,0.00000077,0.0000013
 8,-0.00000034,-0.00000657,0.00000764,0.00000291,-0.00000442,-0.0000170
 1,0.00000055,0.00000162,0.00000032,0.00000073,0.00000859,-0.00000281,-
 0.00000980,-0.00013603,0.00000497,0.00000924,0.00003377,0.00002293,-0.
 00000137,0.00000025,0.00000243,0.00002220,-0.00000610,0.00001335,-0.00
 000518,-0.00001418,0.00001029,-0.00000094,0.00000527,-0.00000266,0.000
 00442,0.00000480,-0.00000575,0.00000082,0.00000316,-0.00000185,-0.0000
 0653,-0.00000941,-0.00000248,0.00000181,0.00000572,-0.00000130,0.00000
 500,0.00000754,0.00000302,-0.00000723,-0.00000730,-0.00000021,0.000680
 95,0.00045528,-0.00031619,0.00151074,0.00030890,-0.00066601,-0.0014414
 5,-0.00198024,0.00025173,-0.01678327,-0.00968721,0.02518484,-0.1212406
 9,-0.04700918,0.11217004,0.00083040,-0.00083981,-0.00036315,-0.0050927
 7,0.00343961,-0.00049374,0.13430876,0.00000208,-0.00000244,0.00000053,
 -0.00000285,0.00000349,-0.00000043,0.00004784,-0.00002501,-0.00000269,
 -0.00004000,0.00005135,0.00001120,0.00010412,-0.00009814,-0.00001637,-
 0.00003099,0.00009684,0.00001046,0.00005512,0.00024193,0.00002063,-0.0
 0010959,0.00000152,-0.00000027,0.00002148,0.00003468,0.00000309,0.0000
 3253,-0.00008188,0.00001138,-0.00005802,-0.00000380,-0.00000062,0.0000
 8191,0.00002985,-0.00000369,-0.00001111,0.00003110,0.00000917,-0.00000
 733,-0.00000210,0.00000007,-0.00000072,0.00000302,-0.00000139,-0.00000
 134,0.00000284,0.00000155,0.00000691,-0.00000225,0.00000440,0.00000482
 ,-0.00000103,-0.00000381,-0.00000788,0.00000801,0.00000492,-0.00000751
 ,0.00000773,-0.00000356,0.00002088,-0.00010609,-0.00001197,-0.00004094
 ,-0.00040124,-0.00003372,0.00000109,-0.00000097,-0.00000223,-0.0000551
 7,-0.00005187,-0.00005428,-0.00003251,-0.00008668,-0.00000309,0.000000
 60,0.00002523,-0.00000144,0.00002005,0.00002536,-0.00001290,0.00001219
 ,0.00002730,0.00001649,-0.00014688,-0.00000318,-0.00000240,0.00006598,
 -0.00002797,-0.00001172,0.00004937,0.00003180,0.00001337,-0.00000776,-
 0.00000029,0.00000128,-0.00073865,0.00015033,0.00017049,-0.00058509,-0
 .00035921,0.00043017,0.00144060,0.00053558,-0.00090444,0.00808093,0.00
 528896,-0.01301440,-0.04829961,-0.07700996,0.07218579,-0.00080007,0.00
 050187,0.00020669,0.00313018,-0.00128464,-0.00036974,0.04986657,0.0804
 7986,-0.00000352,-0.00000465,0.00000060,-0.00000032,0.00001660,-0.0000
 0499,0.00002692,-0.00001250,-0.00000538,-0.00012135,-0.00009997,0.0000
 1037,0.00024920,-0.00003946,-0.00001669,-0.00006680,0.00001085,0.00000
 910,-0.00016523,0.00007058,0.00002199,0.00017564,0.00006756,-0.0000034
 2,-0.00004920,-0.00001768,0.00000138,-0.00008176,-0.00003366,0.0000258
 9,0.00001562,0.00000715,0.00000875,-0.00002220,0.00000810,-0.00000442,
 0.00003910,0.00002869,0.00000236,-0.00000618,-0.00000010,-0.00000073,0
 .00000197,-0.00000241,0.00000270,0.00000104,0.00000052,-0.00000126,0.0
 0000078,0.00000147,-0.00000394,-0.00000073,-0.00000098,0.00000738,-0.0
 0000630,0.00000338,0.00000099,-0.00000548,-0.00000030,0.00000142,0.000
 02750,0.00010455,-0.00000458,-0.00001203,-0.00009761,-0.00003318,0.000
 01383,0.00000429,-0.00000222,0.00001218,-0.00011941,-0.00006663,-0.000
 00554,-0.00008661,-0.00001826,-0.00001072,0.00003000,-0.00000083,0.000
 00669,0.00002176,-0.00000200,0.00000766,0.00002812,0.00002062,-0.00001
 631,-0.00005773,-0.00003661,-0.00000338,0.00003577,0.00001623,0.000027
 11,0.00004339,0.00002678,-0.00002483,-0.00001922,-0.00001123,-0.000698
 99,-0.00059806,-0.00009463,-0.00194038,0.00009153,0.00067340,0.0021817
 4,0.00180749,0.00004303,-0.00050025,-0.00075897,0.00019348,0.11261845,
 0.07023583,-0.21797766,0.00023064,-0.00044435,0.00070588,-0.00018371,0
 .00001440,0.00152074,-0.12315598,-0.07878571,0.23317658,0.00001059,0.0
 0000692,0.00000052,-0.00001048,-0.00001438,-0.00000150,0.00005047,-0.0
 0001363,-0.00000146,0.00016312,0.00038507,0.00002915,-0.00035143,-0.00
 003808,-0.00000045,0.00009213,0.00009325,0.00000621,0.00018721,-0.0000
 1768,-0.00000145,-0.00019247,-0.00006798,-0.00000386,0.00005066,0.0000
 3508,0.00000180,0.00007436,0.00001191,-0.00000019,-0.00001061,-0.00001
 201,-0.00000209,0.00003757,-0.00000040,0.00000250,-0.00003704,-0.00001
 269,0.00000061,-0.00000576,-0.00000248,-0.00000013,-0.00000482,0.00000
 580,-0.00000253,-0.00000481,0.00000542,0.00000351,0.00001341,-0.000008
 09,0.00001773,0.00001297,-0.00000564,-0.00001876,-0.00000686,0.0000120
 3,0.00000646,-0.00000690,0.00001266,-0.00000440,-0.00007029,-0.0005567
 6,-0.00004380,-0.00001414,-0.00000242,-0.00000048,-0.00001411,-0.00000
 530,-0.00000043,-0.00001841,0.00006757,0.00000524,-0.00000175,0.000031
 00,0.00000062,0.00000645,-0.00001130,0.00000160,-0.00000252,-0.0000077
 0,0.00000124,-0.00000177,-0.00000902,-0.00000373,-0.00001157,0.0000093
 8,0.00000693,0.00000346,-0.00001469,-0.00000402,-0.00000542,-0.0000052
 4,-0.00000451,0.00001554,0.00000748,-0.00000016,-0.00078088,0.00362052
 ,0.00025570,0.00227933,-0.00034044,-0.00002102,-0.00720139,-0.00286743
 ,-0.00021259,0.00454569,0.03313326,0.00233921,-0.05100132,-0.02847771,
 -0.00201566,0.00111157,-0.00075027,-0.00046624,0.00110747,-0.00080593,
 0.00036123,-0.00229383,-0.01650144,-0.00335678,0.05458412,-0.00001780,
 -0.00000364,-0.00000011,0.00001265,0.00001550,0.00000105,-0.00013885,0
 .00006569,0.00000634,-0.00007844,-0.00046560,-0.00003525,0.00016502,0.
 00028735,0.00002147,-0.00003200,-0.00031262,-0.00002464,-0.00030674,-0
 .00043944,-0.00003105,0.00040208,0.00006728,-0.00000068,-0.00009617,-0
 .00011106,-0.00000792,-0.00013867,0.00012687,0.00001054,0.00011253,0.0
 0003566,0.00001518,-0.00019807,-0.00005652,-0.00000291,0.00006193,-0.0
 0005880,-0.00001568,0.00001866,0.00000947,0.00000044,0.00000844,-0.000
 01539,0.00000810,0.00000823,-0.00001395,-0.00001044,-0.00002550,0.0000
 1496,-0.00003271,-0.00002468,0.00001013,0.00003509,0.00001955,-0.00002
 904,-0.00001899,0.00002018,-0.00003149,0.00001410,-0.00000795,0.000769
 85,0.00005977,0.00012274,0.00079203,0.00005557,0.00001221,0.00000865,0
 .00000401,0.00010107,0.00007012,0.00000687,0.00007491,0.00017875,0.000
 01001,-0.00000533,-0.00005166,0.00000171,-0.00004213,-0.00005316,0.000
 02727,-0.00002672,-0.00005738,-0.00003663,0.00031911,0.00003543,0.0000
 1636,-0.00013451,0.00005165,0.00001948,-0.00010704,-0.00008325,-0.0000
 3591,0.00001080,0.00000375,-0.00000201,0.00181828,-0.00261811,-0.00018
 670,0.00079829,-0.00121377,-0.00013542,0.00094121,0.00256646,0.0001449
 3,-0.00388575,-0.01311525,-0.00085288,-0.02822880,-0.30709056,-0.01812
 256,0.00017880,0.00028834,0.00058849,0.00020485,0.00041356,-0.00053474
 ,-0.00096373,-0.00985828,-0.00112724,0.02982057,0.33594055,-0.00000124
 ,-0.00000023,-0.00000042,0.00000092,0.00000073,0.00000421,-0.00000975,
 0.00000450,0.00000081,-0.00000517,-0.00003216,0.00000140,0.00001129,0.
 00002031,-0.00000329,-0.00000207,-0.00002180,-0.00000008,-0.00002128,-
 0.00003204,0.00001327,0.00002826,0.00000523,-0.00000583,-0.00000676,-0
 .00000775,0.00000003,-0.00000982,0.00000737,0.00002142,0.00000775,0.00
 000202,0.00000830,-0.00001357,-0.00000382,-0.00000316,0.00000425,-0.00
 000413,-0.00000047,0.00000135,0.00000059,0.00000098,0.00000070,-0.0000
 0022,0.00000012,0.00000044,-0.00000173,-0.00000127,-0.00000124,0.00000
 136,-0.00000311,-0.00000230,0.00000042,0.00000140,0.00000111,-0.000002
 24,-0.00000159,0.00000168,-0.00000188,0.00000077,-0.00000078,0.0000528
 7,0.00000081,0.00000839,0.00005666,-0.00001447,0.00000086,0.00000061,-
 0.00000027,0.00000696,0.00000824,-0.00005301,0.00000531,0.00001252,-0.
 00000042,-0.00000030,-0.00000360,0.00000030,-0.00000310,-0.00000372,0.
 00000221,-0.00000183,-0.00000396,-0.00000216,0.00002254,0.00000163,-0.
 00000047,-0.00000970,0.00000387,0.00000256,-0.00000737,-0.00000493,-0.
 00000195,0.00000102,0.00000048,-0.00000475,0.00012541,-0.00017884,0.00
 001273,0.00005726,-0.00013526,0.00073120,0.00005412,0.00013974,0.00055
 175,-0.00026045,-0.00078668,-0.00114927,-0.00200037,-0.01812677,-0.051
 89952,0.00016964,0.00036568,0.00004260,-0.00013936,-0.00031514,-0.0000
 8443,0.00130838,0.02650140,0.00329860,0.00212673,0.02037223,0.04902418
 ,0.00000381,0.00000085,0.00000336,0.00000041,-0.00000610,-0.00001724,-
 0.00000212,-0.00000151,-0.00000470,0.00004042,0.00009542,0.00003397,-0
 .00009679,-0.00001802,-0.00001791,0.00002554,0.00002777,0.00000967,0.0
 0001096,-0.00002105,0.00001889,0.00001873,0.00000242,-0.00000633,-0.00
 000352,0.00000759,0.00000307,-0.00001693,-0.00001005,0.00000762,0.0000
 0907,-0.00000243,0.00000231,-0.00000040,-0.00000017,-0.00000304,0.0000
 0135,0.00000532,0.00000147,0.00000298,-0.00000125,-0.00000232,-0.00000
 112,0.00000083,-0.00000111,-0.00000313,0.00000627,0.00000469,0.0000034
 1,-0.00000681,0.00001607,-0.00000056,-0.00000549,-0.00000825,0.0000006
 3,0.00000825,0.00000402,0.00000043,0.00000157,0.,-0.00001002,-0.000134
 76,-0.00002630,0.00000871,0.00003536,-0.00001796,-0.00000132,0.0000004
 6,-0.00000211,0.00002196,-0.00000478,-0.00001335,-0.00000545,-0.000012
 81,-0.00001129,0.00000081,0.00000344,0.00000183,0.00000096,0.00000293,
 0.00000144,0.00000264,0.00000565,0.00000796,-0.00000653,-0.00001702,-0
 .00001043,-0.00000053,0.00000861,0.00000360,0.00000702,0.00001179,0.00
 000817,-0.00000726,-0.00000738,-0.00000063,0.00067443,0.00040495,0.000
 37951,0.00149781,0.00022010,0.00070113,-0.00142713,-0.00192106,-0.0005
 2549,-0.01669436,-0.00606011,-0.02636034,-0.12036917,-0.03062387,-0.11
 723485,-0.00509759,0.00334020,0.00094576,0.00083077,-0.00088407,0.0002
 4306,0.00951711,0.00444023,0.01480191,-0.00229756,-0.00077320,-0.00144
 787,0.13336153,0.00000158,-0.00000288,-0.00000103,-0.00000285,0.000005
 48,0.00000179,0.00005100,-0.00002654,-0.00000191,-0.00005623,0.0000380
 1,-0.00000619,0.00013698,-0.00010379,0.00000017,-0.00003985,0.00009761
 ,0.00000469,0.00003192,0.00025011,0.00001300,-0.00008496,0.00000992,0.
 00000742,0.00001482,0.00003209,0.00000021,0.00002148,-0.00008245,-0.00
 002933,-0.00005540,-0.00000149,-0.00001204,0.00007757,0.00003043,0.000
 00539,-0.00000551,0.00003475,0.00000482,-0.00000811,-0.00000210,-0.000
 00011,-0.00000123,0.00000305,-0.00000090,-0.00000040,0.00000250,0.0000
 0141,0.00000471,-0.00000150,0.00000248,0.00000691,-0.00000144,-0.00000
 421,-0.00000792,0.00000697,0.00000457,-0.00000889,0.00000904,-0.000003
 56,0.00002454,-0.00009084,-0.00000110,-0.00004185,-0.00041098,-0.00001
 847,0.00000283,-0.00000046,-0.00000022,-0.00005270,-0.00007545,0.00005
 422,-0.00003222,-0.00009768,-0.00000370,-0.00000135,0.00002912,-0.0000
 0186,0.00002065,0.00002808,-0.00001328,0.00001301,0.00003055,0.0000183
 1,-0.00014684,-0.00001137,-0.00000706,0.00006424,-0.00002258,-0.000008
 74,0.00005260,0.00003729,0.00001720,-0.00001137,-0.00000317,0.00000335
 ,-0.00082482,0.00008683,-0.00014675,-0.00084429,-0.00026792,-0.0005646
 2,0.00172273,0.00064872,0.00099511,0.00788770,0.00327310,0.01348305,-0
 .03182874,-0.05998354,-0.04989478,0.00307318,-0.00127777,-0.00001407,-
 0.00076026,0.00047312,-0.00024212,0.00643462,0.00182838,0.00967457,-0.
 01670922,-0.00607310,-0.02789159,0.03188196,0.06158193,0.00000378,0.00
 000411,0.00000107,-0.00000025,-0.00001491,-0.00000733,-0.00001974,0.00
 000934,-0.00000307,0.00011441,0.00010442,0.00002313,-0.00023138,0.0000
 2620,-0.00000691,0.00006176,0.00000243,0.00000668,0.00017063,-0.000037
 69,0.00001230,-0.00018826,-0.00006557,-0.00001261,0.00005158,0.0000221
 2,0.00000391,0.00008480,0.00001819,0.00002798,-0.00002363,-0.00000844,
 0.00000628,0.00003391,-0.00000329,0.00000107,-0.00004059,-0.00002402,-
 0.00000073,0.00000504,-0.00000009,-0.00000087,-0.00000125,0.00000013,-
 0.00000142,-0.00000200,0.00000239,0.00000331,0.00000162,-0.00000038,0.
 00000796,0.00000011,-0.00000120,-0.00000480,0.00000426,0.00000125,0.00
 000206,0.00000518,-0.00000220,-0.00000009,-0.00002449,-0.00011829,-0.0
 0002138,0.00000578,0.00004327,-0.00002268,-0.00001338,-0.00000417,-0.0
 0000267,-0.00001977,0.00011693,-0.00004306,0.00000228,0.00007545,-0.00
 001321,0.00001243,-0.00002816,0.00000645,-0.00000960,-0.00002064,0.000
 01099,-0.00000337,-0.00002075,-0.00000442,-0.00000168,0.00003962,0.000
 01677,0.00000638,-0.00003333,-0.00000144,-0.00001615,-0.00002728,-0.00
 001331,0.00002435,0.00001993,-0.00001020,0.00059026,0.00062751,-0.0000
 2776,0.00184292,-0.00021737,0.00059307,-0.00196530,-0.00172959,-0.0000
 7853,0.00156127,0.00116891,0.00210940,-0.11785699,-0.04794637,-0.23585
 664,0.00059529,-0.00039668,0.00152131,-0.00034123,0.00040909,0.0007356
 4,-0.01393029,-0.00636219,-0.02147964,0.00099926,-0.00020453,-0.000489
 73,0.12851202,0.05457587,0.25301308\\-0.00000018,0.00000254,-0.0000010
 4,0.00000012,0.00000019,0.00000018,0.00000257,0.00000210,0.00000214,-0
 .00000079,0.00000601,-0.00001678,-0.00000019,-0.00000328,0.00000474,0.
 00000140,0.00000291,-0.00000006,-0.00000262,0.00000367,0.00001232,-0.0
 0000188,-0.00000074,-0.00001040,0.00000499,-0.00000121,-0.00000138,-0.
 00000191,-0.00000021,0.00000231,0.00000125,0.00000273,0.00000146,0.000
 00339,-0.00000415,-0.00000008,0.,-0.00000123,-0.00000135,0.00000019,0.
 00000285,-0.00000037,0.00000032,0.00000197,-0.00000038,0.00000040,0.00
 000224,-0.00000104,-0.00000050,0.00000267,-0.00000037,-0.00000021,0.00
 000185,-0.00000073,-0.00000024,0.00000107,0.00000032,0.00000135,0.0000
 0100,0.00000106,-0.00000230,-0.00000269,0.00000678,0.00000053,-0.00000
 194,0.00000714,0.00000146,0.00000010,0.00000107,0.00000115,-0.00000105
 ,-0.00000111,-0.00000063,-0.00000334,0.00000693,0.00000912,-0.00000358
 ,0.00000205,0.00000322,-0.00000042,-0.00000137,-0.00000166,-0.00000067
 ,-0.00000481,-0.00000120,0.00000221,0.00000096,0.00000090,-0.00000828,
 -0.00000196,-0.00000385,0.00000132,0.00000126,0.00000037,-0.00000229,0
 .00000024,-0.00000003,0.00000199,-0.00001201,-0.00000558,-0.00000518,-
 0.00001097,0.00000513,-0.00000276,0.00001022,-0.00000498,0.00000175,0.
 00000403,-0.00000094,0.00000079,0.00000053,-0.00000100,0.00000093,0.00
 000031,-0.00000101,0.00000148,-0.00000038,-0.00000203,-0.00000081,0.00
 000031,-0.00000199,0.00000019,0.00000025,-0.00000215,-0.00000073,-0.00
 000003\\\@


  THE LARGE PRINT GIVETH,
  AND THE SMALL PRINT TAKETH AWAY.

                     -- TOM WAITS
 Job cpu time:       0 days  8 hours  6 minutes  4.3 seconds.
 File lengths (MBytes):  RWF=   1155 Int=      0 D2E=      0 Chk=     21 Scr=      1
 Normal termination of Gaussian 09 at Tue Feb 19 14:49:46 2019.
WARNING: pbs_rusage is deprecated and values produced may not be accurate


=============================================================================
                                     Resource usage:
                                       CPU time:              41:41:20
   JobId:    5874940.r-man2            Elapsed time:          05:13:48
   Project:             q95            Requested time:        50:00:00
   Service Units:     41.84 
                                       Max physical memory:     1571MB
                                       Max virtual memory:      3114MB
                                       Requested memory:           0MB

                                       Number of cpus:               8

                                       Max jobfs disk use:       1.1GB
                                       Requested jobfs:         24.0GB
=============================================================================

