 Entering Gaussian System, Link 0=/apps/gaussian/g09e01/g09/g09
 AtFile(1): /home/507/hio507/Basis/6-31pGd.gbs
 Initial command:
 /apps/gaussian/g09e01/g09/l1.exe "/jobfs/local/5387201.r-man2/Gau-43055.inp" -scrdir="/jobfs/local/5387201.r-man2/"
 Entering Link 1 = /apps/gaussian/g09e01/g09/l1.exe PID=     43056.
  
 Copyright (c) 1988,1990,1992,1993,1995,1998,2003,2009,2015,
            Gaussian, Inc.  All Rights Reserved.
  
 This is part of the Gaussian(R) 09 program.  It is based on
 the Gaussian(R) 03 system (copyright 2003, Gaussian, Inc.),
 the Gaussian(R) 98 system (copyright 1998, Gaussian, Inc.),
 the Gaussian(R) 94 system (copyright 1995, Gaussian, Inc.),
 the Gaussian 92(TM) system (copyright 1992, Gaussian, Inc.),
 the Gaussian 90(TM) system (copyright 1990, Gaussian, Inc.),
 the Gaussian 88(TM) system (copyright 1988, Gaussian, Inc.),
 the Gaussian 86(TM) system (copyright 1986, Carnegie Mellon
 University), and the Gaussian 82(TM) system (copyright 1983,
 Carnegie Mellon University). Gaussian is a federally registered
 trademark of Gaussian, Inc.
  
 This software contains proprietary and confidential information,
 including trade secrets, belonging to Gaussian, Inc.
  
 This software is provided under written license and may be
 used, copied, transmitted, or stored only in accord with that
 written license.
  
 The following legend is applicable only to US Government
 contracts under FAR:
  
                    RESTRICTED RIGHTS LEGEND
  
 Use, reproduction and disclosure by the US Government is
 subject to restrictions as set forth in subparagraphs (a)
 and (c) of the Commercial Computer Software - Restricted
 Rights clause in FAR 52.227-19.
  
 Gaussian, Inc.
 340 Quinnipiac St., Bldg. 40, Wallingford CT 06492
  
  
 ---------------------------------------------------------------
 Warning -- This program may not be used in any manner that
 competes with the business of Gaussian, Inc. or will provide
 assistance to any competitor of Gaussian, Inc.  The licensee
 of this program is prohibited from giving any competitor of
 Gaussian, Inc. access to this program.  By using this program,
 the user acknowledges that Gaussian, Inc. is engaged in the
 business of creating and licensing software in the field of
 computational chemistry and represents and warrants to the
 licensee that it is not a competitor of Gaussian, Inc. and that
 it will not use this program in any manner prohibited above.
 ---------------------------------------------------------------
  

 Cite this work as:
 Gaussian 09, Revision E.01,
 M. J. Frisch, G. W. Trucks, H. B. Schlegel, G. E. Scuseria, 
 M. A. Robb, J. R. Cheeseman, G. Scalmani, V. Barone, B. Mennucci, 
 G. A. Petersson, H. Nakatsuji, M. Caricato, X. Li, H. P. Hratchian, 
 A. F. Izmaylov, J. Bloino, G. Zheng, J. L. Sonnenberg, M. Hada, 
 M. Ehara, K. Toyota, R. Fukuda, J. Hasegawa, M. Ishida, T. Nakajima, 
 Y. Honda, O. Kitao, H. Nakai, T. Vreven, J. A. Montgomery, Jr., 
 J. E. Peralta, F. Ogliaro, M. Bearpark, J. J. Heyd, E. Brothers, 
 K. N. Kudin, V. N. Staroverov, T. Keith, R. Kobayashi, J. Normand, 
 K. Raghavachari, A. Rendell, J. C. Burant, S. S. Iyengar, J. Tomasi, 
 M. Cossi, N. Rega, J. M. Millam, M. Klene, J. E. Knox, J. B. Cross, 
 V. Bakken, C. Adamo, J. Jaramillo, R. Gomperts, R. E. Stratmann, 
 O. Yazyev, A. J. Austin, R. Cammi, C. Pomelli, J. W. Ochterski, 
 R. L. Martin, K. Morokuma, V. G. Zakrzewski, G. A. Voth, 
 P. Salvador, J. J. Dannenberg, S. Dapprich, A. D. Daniels, 
 O. Farkas, J. B. Foresman, J. V. Ortiz, J. Cioslowski, 
 and D. J. Fox, Gaussian, Inc., Wallingford CT, 2013.
 
 ******************************************
 Gaussian 09:  ES64L-G09RevE.01 30-Nov-2015
                 5-Feb-2019 
 ******************************************
 %chk=3Nitro.M062X_6-31pGd_opt.chk
 %mem=196608000
 %nproc=4
 Will use up to    4 processors via shared memory.
 ----------------------------------------------------------------------
 # M062X/Gen 6D SCF=Tight INT(grid=ultrafine) OPT IOP(2/17=4) maxdisk=2
 147483648
 ----------------------------------------------------------------------
 1/14=-1,18=20,19=15,26=4,38=1/1,3;
 2/9=110,12=2,17=4,18=5,40=1/2;
 3/5=7,8=2,11=2,16=1,25=1,30=1,71=1,74=-55,75=-5/1,2,3;
 4//1;
 5/5=2,32=2,38=5/2;
 6/7=2,8=2,9=2,10=2,28=1/1;
 7//1,2,3,16;
 1/14=-1,18=20,19=15,26=4/3(2);
 2/9=110,17=4/2;
 99//99;
 2/9=110,17=4/2;
 3/5=7,6=1,8=2,11=2,16=1,25=1,30=1,71=1,74=-55,75=-5,82=7/1,2,3;
 4/5=5,16=3,69=1/1;
 5/5=2,32=2,38=5/2;
 7//1,2,3,16;
 1/14=-1,18=20,19=15,26=4/3(-5);
 2/9=110,17=4/2;
 6/7=2,8=2,9=2,10=2,19=2,28=1/1;
 99/9=1/99;
 ------------------------
 3Nitro.M062X_6-31pGd_opt
 ------------------------
 Symbolic Z-matrix:
 Charge =  0 Multiplicity = 1
 C                     11.97353   0.06998  -7.49641 
 C                     10.83008  -0.25856  -6.54596 
 C                     10.64751   0.85508  -5.51071 
 N                     9.55093   0.55191  -4.60726 
 C                     9.1949    1.39704  -3.59849 
 O                     9.81339   2.43842  -3.4477 
 N                     8.15231   1.06187  -2.77634 
 C                     7.62173   1.80675  -1.66366 
 C                     7.96558   3.14696  -1.35419 
 C                     6.69693   1.15408  -0.82704 
 C                     6.13409   1.80092   0.27198 
 C                     6.48078   3.11726   0.56408 
 C                     7.39918   3.80577  -0.24356 
 H                     12.07976  -0.7353   -8.25348 
 H                     12.92873   0.1694   -6.93796 
 H                     11.04765  -1.21964  -6.03103 
 H                     9.89579  -0.37028  -7.13739 
 H                     10.43453   1.81123  -6.0383 
 H                     11.58571   0.96659  -4.92319 
 H                     9.02679  -0.32841  -4.73335 
 H                     8.66277   3.70726  -1.9457 
 H                     6.40654   0.13011  -1.02734 
 H                     5.42483   1.27788   0.90068 
 N                     7.75184   5.15473   0.05953 
 H                     6.02894   3.59577   1.42336 
 O                     9.02262   5.56726  -0.04903 
 O                     6.82026   6.03252   0.45758 
 H                     11.7507   0.99748  -7.98117 
 H                     7.70988   0.204    -2.97019 
 

 GradGradGradGradGradGradGradGradGradGradGradGradGradGradGradGradGradGrad
 Berny optimization.
 Initialization pass.
                           ----------------------------
                           !    Initial Parameters    !
                           ! (Angstroms and Degrees)  !
 --------------------------                            --------------------------
 ! Name  Definition              Value          Derivative Info.                !
 --------------------------------------------------------------------------------
 ! R1    R(1,2)                  1.5228         estimate D2E/DX2                !
 ! R2    R(1,14)                 1.1104         estimate D2E/DX2                !
 ! R3    R(1,15)                 1.1109         estimate D2E/DX2                !
 ! R4    R(1,28)                 1.07           estimate D2E/DX2                !
 ! R5    R(2,3)                  1.5314         estimate D2E/DX2                !
 ! R6    R(2,16)                 1.1118         estimate D2E/DX2                !
 ! R7    R(2,17)                 1.1114         estimate D2E/DX2                !
 ! R8    R(3,4)                  1.4528         estimate D2E/DX2                !
 ! R9    R(3,18)                 1.1126         estimate D2E/DX2                !
 ! R10   R(3,19)                 1.1126         estimate D2E/DX2                !
 ! R11   R(4,5)                  1.3633         estimate D2E/DX2                !
 ! R12   R(4,20)                 1.0323         estimate D2E/DX2                !
 ! R13   R(5,6)                  1.2205         estimate D2E/DX2                !
 ! R14   R(5,7)                  1.3694         estimate D2E/DX2                !
 ! R15   R(7,8)                  1.4403         estimate D2E/DX2                !
 ! R16   R(7,29)                 0.9845         estimate D2E/DX2                !
 ! R17   R(8,9)                  1.4178         estimate D2E/DX2                !
 ! R18   R(8,10)                 1.4075         estimate D2E/DX2                !
 ! R19   R(9,13)                 1.4101         estimate D2E/DX2                !
 ! R20   R(9,21)                 1.0723         estimate D2E/DX2                !
 ! R21   R(10,11)                1.3939         estimate D2E/DX2                !
 ! R22   R(10,22)                1.083          estimate D2E/DX2                !
 ! R23   R(11,12)                1.3922         estimate D2E/DX2                !
 ! R24   R(11,23)                1.0825         estimate D2E/DX2                !
 ! R25   R(12,13)                1.4035         estimate D2E/DX2                !
 ! R26   R(12,25)                1.0824         estimate D2E/DX2                !
 ! R27   R(13,24)                1.4269         estimate D2E/DX2                !
 ! R28   R(24,26)                1.3405         estimate D2E/DX2                !
 ! R29   R(24,27)                1.3404         estimate D2E/DX2                !
 ! A1    A(2,1,14)             109.9339         estimate D2E/DX2                !
 ! A2    A(2,1,15)             110.5606         estimate D2E/DX2                !
 ! A3    A(2,1,28)             108.2653         estimate D2E/DX2                !
 ! A4    A(14,1,15)            108.989          estimate D2E/DX2                !
 ! A5    A(14,1,28)            109.8573         estimate D2E/DX2                !
 ! A6    A(15,1,28)            109.2219         estimate D2E/DX2                !
 ! A7    A(1,2,3)              110.7667         estimate D2E/DX2                !
 ! A8    A(1,2,16)             109.1858         estimate D2E/DX2                !
 ! A9    A(1,2,17)             108.7108         estimate D2E/DX2                !
 ! A10   A(3,2,16)             109.8062         estimate D2E/DX2                !
 ! A11   A(3,2,17)             109.4279         estimate D2E/DX2                !
 ! A12   A(16,2,17)            108.9094         estimate D2E/DX2                !
 ! A13   A(2,3,4)              111.0155         estimate D2E/DX2                !
 ! A14   A(2,3,18)             109.0984         estimate D2E/DX2                !
 ! A15   A(2,3,19)             109.2282         estimate D2E/DX2                !
 ! A16   A(4,3,18)             109.2522         estimate D2E/DX2                !
 ! A17   A(4,3,19)             109.2097         estimate D2E/DX2                !
 ! A18   A(18,3,19)            109.0074         estimate D2E/DX2                !
 ! A19   A(3,4,5)              121.8638         estimate D2E/DX2                !
 ! A20   A(3,4,20)             119.0293         estimate D2E/DX2                !
 ! A21   A(5,4,20)             119.1069         estimate D2E/DX2                !
 ! A22   A(4,5,6)              119.2087         estimate D2E/DX2                !
 ! A23   A(4,5,7)              119.4286         estimate D2E/DX2                !
 ! A24   A(6,5,7)              121.3627         estimate D2E/DX2                !
 ! A25   A(5,7,8)              128.1483         estimate D2E/DX2                !
 ! A26   A(5,7,29)             115.9254         estimate D2E/DX2                !
 ! A27   A(8,7,29)             115.9262         estimate D2E/DX2                !
 ! A28   A(7,8,9)              124.6217         estimate D2E/DX2                !
 ! A29   A(7,8,10)             117.4786         estimate D2E/DX2                !
 ! A30   A(9,8,10)             117.8997         estimate D2E/DX2                !
 ! A31   A(8,9,13)             121.0742         estimate D2E/DX2                !
 ! A32   A(8,9,21)             122.0857         estimate D2E/DX2                !
 ! A33   A(13,9,21)            116.8401         estimate D2E/DX2                !
 ! A34   A(8,10,11)            121.2488         estimate D2E/DX2                !
 ! A35   A(8,10,22)            120.308          estimate D2E/DX2                !
 ! A36   A(11,10,22)           118.4431         estimate D2E/DX2                !
 ! A37   A(10,11,12)           120.2399         estimate D2E/DX2                !
 ! A38   A(10,11,23)           119.8835         estimate D2E/DX2                !
 ! A39   A(12,11,23)           119.8766         estimate D2E/DX2                !
 ! A40   A(11,12,13)           120.401          estimate D2E/DX2                !
 ! A41   A(11,12,25)           118.7257         estimate D2E/DX2                !
 ! A42   A(13,12,25)           120.8733         estimate D2E/DX2                !
 ! A43   A(9,13,12)            119.1363         estimate D2E/DX2                !
 ! A44   A(9,13,24)            120.6462         estimate D2E/DX2                !
 ! A45   A(12,13,24)           120.2175         estimate D2E/DX2                !
 ! A46   A(13,24,26)           120.5344         estimate D2E/DX2                !
 ! A47   A(13,24,27)           120.6909         estimate D2E/DX2                !
 ! A48   A(26,24,27)           118.7747         estimate D2E/DX2                !
 ! D1    D(14,1,2,3)          -178.8076         estimate D2E/DX2                !
 ! D2    D(14,1,2,16)           60.1521         estimate D2E/DX2                !
 ! D3    D(14,1,2,17)          -58.5417         estimate D2E/DX2                !
 ! D4    D(15,1,2,3)            60.8144         estimate D2E/DX2                !
 ! D5    D(15,1,2,16)          -60.2259         estimate D2E/DX2                !
 ! D6    D(15,1,2,17)         -178.9197         estimate D2E/DX2                !
 ! D7    D(28,1,2,3)           -58.7946         estimate D2E/DX2                !
 ! D8    D(28,1,2,16)         -179.8349         estimate D2E/DX2                !
 ! D9    D(28,1,2,17)           61.4713         estimate D2E/DX2                !
 ! D10   D(1,2,3,4)            179.5593         estimate D2E/DX2                !
 ! D11   D(1,2,3,18)            59.1072         estimate D2E/DX2                !
 ! D12   D(1,2,3,19)           -59.9572         estimate D2E/DX2                !
 ! D13   D(16,2,3,4)           -59.7681         estimate D2E/DX2                !
 ! D14   D(16,2,3,18)          179.7799         estimate D2E/DX2                !
 ! D15   D(16,2,3,19)           60.7155         estimate D2E/DX2                !
 ! D16   D(17,2,3,4)            59.7219         estimate D2E/DX2                !
 ! D17   D(17,2,3,18)          -60.7302         estimate D2E/DX2                !
 ! D18   D(17,2,3,19)         -179.7946         estimate D2E/DX2                !
 ! D19   D(2,3,4,5)           -179.9468         estimate D2E/DX2                !
 ! D20   D(2,3,4,20)             0.0414         estimate D2E/DX2                !
 ! D21   D(18,3,4,5)           -59.5859         estimate D2E/DX2                !
 ! D22   D(18,3,4,20)          120.4023         estimate D2E/DX2                !
 ! D23   D(19,3,4,5)            59.5587         estimate D2E/DX2                !
 ! D24   D(19,3,4,20)         -120.453          estimate D2E/DX2                !
 ! D25   D(3,4,5,6)             -0.0129         estimate D2E/DX2                !
 ! D26   D(3,4,5,7)            179.9634         estimate D2E/DX2                !
 ! D27   D(20,4,5,6)           179.9988         estimate D2E/DX2                !
 ! D28   D(20,4,5,7)            -0.0248         estimate D2E/DX2                !
 ! D29   D(4,5,7,8)           -179.9922         estimate D2E/DX2                !
 ! D30   D(4,5,7,29)             0.0081         estimate D2E/DX2                !
 ! D31   D(6,5,7,8)             -0.0164         estimate D2E/DX2                !
 ! D32   D(6,5,7,29)           179.984          estimate D2E/DX2                !
 ! D33   D(5,7,8,9)             10.6979         estimate D2E/DX2                !
 ! D34   D(5,7,8,10)          -169.2975         estimate D2E/DX2                !
 ! D35   D(29,7,8,9)          -169.3025         estimate D2E/DX2                !
 ! D36   D(29,7,8,10)           10.7021         estimate D2E/DX2                !
 ! D37   D(7,8,9,13)           179.9978         estimate D2E/DX2                !
 ! D38   D(7,8,9,21)            -0.0175         estimate D2E/DX2                !
 ! D39   D(10,8,9,13)           -0.0068         estimate D2E/DX2                !
 ! D40   D(10,8,9,21)          179.978          estimate D2E/DX2                !
 ! D41   D(7,8,10,11)         -179.9918         estimate D2E/DX2                !
 ! D42   D(7,8,10,22)           -0.0019         estimate D2E/DX2                !
 ! D43   D(9,8,10,11)            0.0124         estimate D2E/DX2                !
 ! D44   D(9,8,10,22)         -179.9977         estimate D2E/DX2                !
 ! D45   D(8,9,13,12)           -0.0033         estimate D2E/DX2                !
 ! D46   D(8,9,13,24)          179.9958         estimate D2E/DX2                !
 ! D47   D(21,9,13,12)        -179.9888         estimate D2E/DX2                !
 ! D48   D(21,9,13,24)           0.0103         estimate D2E/DX2                !
 ! D49   D(8,10,11,12)          -0.0079         estimate D2E/DX2                !
 ! D50   D(8,10,11,23)         179.992          estimate D2E/DX2                !
 ! D51   D(22,10,11,12)       -179.998          estimate D2E/DX2                !
 ! D52   D(22,10,11,23)          0.0019         estimate D2E/DX2                !
 ! D53   D(10,11,12,13)         -0.0026         estimate D2E/DX2                !
 ! D54   D(10,11,12,25)       -179.9986         estimate D2E/DX2                !
 ! D55   D(23,11,12,13)        179.9975         estimate D2E/DX2                !
 ! D56   D(23,11,12,25)          0.0014         estimate D2E/DX2                !
 ! D57   D(11,12,13,9)           0.0081         estimate D2E/DX2                !
 ! D58   D(11,12,13,24)       -179.991          estimate D2E/DX2                !
 ! D59   D(25,12,13,9)        -179.996          estimate D2E/DX2                !
 ! D60   D(25,12,13,24)          0.0049         estimate D2E/DX2                !
 ! D61   D(9,13,24,26)         -40.9393         estimate D2E/DX2                !
 ! D62   D(9,13,24,27)         139.056          estimate D2E/DX2                !
 ! D63   D(12,13,24,26)        139.0598         estimate D2E/DX2                !
 ! D64   D(12,13,24,27)        -40.9449         estimate D2E/DX2                !
 --------------------------------------------------------------------------------
 Trust Radius=3.00D-01 FncErr=1.00D-07 GrdErr=1.00D-06
 Number of steps in this run=    151 maximum allowed number of steps=    174.
 GradGradGradGradGradGradGradGradGradGradGradGradGradGradGradGradGradGrad

                          Input orientation:                          
 ---------------------------------------------------------------------
 Center     Atomic      Atomic             Coordinates (Angstroms)
 Number     Number       Type             X           Y           Z
 ---------------------------------------------------------------------
      1          6           0       11.973530    0.069980   -7.496410
      2          6           0       10.830080   -0.258560   -6.545960
      3          6           0       10.647510    0.855080   -5.510710
      4          7           0        9.550930    0.551910   -4.607260
      5          6           0        9.194900    1.397040   -3.598490
      6          8           0        9.813390    2.438420   -3.447700
      7          7           0        8.152310    1.061870   -2.776340
      8          6           0        7.621730    1.806750   -1.663660
      9          6           0        7.965580    3.146960   -1.354190
     10          6           0        6.696930    1.154080   -0.827040
     11          6           0        6.134090    1.800920    0.271980
     12          6           0        6.480780    3.117260    0.564080
     13          6           0        7.399180    3.805770   -0.243560
     14          1           0       12.079760   -0.735300   -8.253480
     15          1           0       12.928730    0.169400   -6.937960
     16          1           0       11.047650   -1.219640   -6.031030
     17          1           0        9.895790   -0.370280   -7.137390
     18          1           0       10.434530    1.811230   -6.038300
     19          1           0       11.585710    0.966590   -4.923190
     20          1           0        9.026790   -0.328410   -4.733350
     21          1           0        8.662770    3.707260   -1.945700
     22          1           0        6.406540    0.130110   -1.027340
     23          1           0        5.424830    1.277880    0.900680
     24          7           0        7.751840    5.154730    0.059530
     25          1           0        6.028940    3.595770    1.423360
     26          8           0        9.022620    5.567260   -0.049030
     27          8           0        6.820260    6.032520    0.457580
     28          1           0       11.750700    0.997480   -7.981170
     29          1           0        7.709880    0.204000   -2.970190
 ---------------------------------------------------------------------
                    Distance matrix (angstroms):
                    1          2          3          4          5
     1  C    0.000000
     2  C    1.522751   0.000000
     3  C    2.513507   1.531427   0.000000
     4  N    3.801110   2.460009   1.452798   0.000000
     5  C    4.967459   3.755317   2.461784   1.363312   0.000000
     6  O    5.164084   4.231616   2.731068   2.229884   1.220549
     7  N    6.153424   4.808744   3.707501   2.359760   1.369403
     8  C    7.481678   6.196440   4.986062   3.736471   2.527112
     9  C    7.953511   6.837938   5.451800   4.453098   3.100053
    10  C    8.573114   7.196147   6.134594   4.774724   3.738960
    11  C    9.871327   8.531007   7.396288   6.086198   4.950981
    12  C   10.218988   8.992510   7.705983   6.538318   5.258573
    13  C    9.353322   8.246824   6.855734   5.853162   4.503570
    14  H    1.110367   2.169010   3.478999   4.620261   5.876923
    15  H    1.110927   2.177417   2.776898   4.121651   5.157581
    16  H    2.160489   1.111829   2.176076   2.721338   4.024543
    17  H    2.154003   1.111381   2.170870   2.714944   4.017273
    18  H    2.743457   2.167535   1.112625   2.101074   2.767835
    19  H    2.752413   2.169182   1.112580   2.100500   2.766964
    20  H    4.059125   2.557790   2.152132   1.032272   2.072039
    21  H    7.416287   6.448826   4.978295   4.222436   2.889982
    22  H    8.534861   7.083356   6.213857   4.783402   3.998859
    23  H   10.717071   9.328978   8.280161   6.920198   5.871129
    24  N   10.038405   9.078093   7.609170   6.797176   5.439096
    25  H   11.284132  10.070594   8.770627   7.618259   6.330616
    26  O    9.715525   8.911632   7.394245   6.797816   5.478967
    27  O   11.197055  10.232591   8.779192   7.946461   6.601386
    28  H    1.070001   2.117783   2.709332   4.052257   5.089169
    29  H    6.219593   4.768201   3.937997   2.488072   2.005839
                    6          7          8          9         10
     6  O    0.000000
     7  N    2.259381   0.000000
     8  C    2.895717   1.440284   0.000000
     9  C    2.880836   2.530806   1.417804   0.000000
    10  C    4.269627   2.434421   1.407539   2.420523   0.000000
    11  C    5.270643   3.729834   2.441272   2.794747   1.393928
    12  C    5.259419   4.263455   2.825248   2.425958   2.415784
    13  C    4.238463   3.809353   2.462173   1.410085   2.804472
    14  H    6.189059   6.975224   8.352352   8.921806   9.364648
    15  H    5.199587   6.397638   7.659204   8.042214   8.783409
    16  H    4.645255   4.917447   6.322174   7.102055   7.186433
    17  H    4.637823   4.910146   6.314470   7.038614   7.237188
    18  H    2.736858   4.050982   5.200898   5.460840   6.446606
    19  H    2.735776   4.050466   5.200341   5.531466   6.380734
    20  H    3.150712   2.554894   3.994509   4.962165   4.783856
    21  H    2.278132   2.819330   2.185234   1.072331   3.410961
    22  H    4.774208   2.641002   2.166267   3.411572   1.083033
    23  H    6.286074   4.583261   3.417881   3.877281   2.149088
    24  N    4.891727   4.995402   3.767663   2.464839   4.231317
    25  H    6.276045   5.344795   3.907335   3.415668   3.387087
    26  O    4.686781   5.337996   4.325617   2.945951   5.048791
    27  O    6.093242   6.077825   4.795742   3.594541   5.046250
    28  H    5.136324   6.327939   7.590405   7.928699   8.760519
    29  H    3.105705   0.984512   2.069686   3.367173   2.553784
                   11         12         13         14         15
    11  C    0.000000
    12  C    1.392217   0.000000
    13  C    2.426037   1.403491   0.000000
    14  H   10.698919  11.132842  10.328987   0.000000
    15  H   10.040529  10.322138   9.413506   1.808266   0.000000
    16  H    8.543699   9.119237   8.488868   2.497823   2.508070
    17  H    8.588554   9.117997   8.437852   2.479641   3.087030
    18  H    7.636329   7.805721   6.838900   3.754813   3.118658
    19  H    7.576679   7.797168   6.891075   3.772446   2.549218
    20  H    6.160770   6.813044   6.316548   4.677339   4.509241
    21  H    3.866065   3.377599   2.122179   8.438024   7.459057
    22  H    2.134026   3.385439   3.887174   9.227755   8.802042
    23  H    1.082536   2.147475   3.405521  11.495200  10.907865
    24  N    3.729650   2.453864   1.426859  11.069304  10.030881
    25  H    2.134999   1.082355   2.168013  12.207040  11.369203
    26  O    4.757307   3.583204   2.403382  10.788020   9.583942
    27  O    4.290887   2.936891   2.405236  12.220814  11.242046
    28  H   10.015304  10.260937   9.310898   1.784646   1.778133
    29  H    3.942706   4.742239   4.528111   6.920353   6.555974
                   16         17         18         19         20
    16  H    0.000000
    17  H    1.808930   0.000000
    18  H    3.092271   2.501445   0.000000
    19  H    2.509267   3.089617   1.811657   0.000000
    20  H    2.561667   2.556623   2.874489   2.874219   0.000000
    21  H    6.830221   6.715677   4.845971   4.992023   4.918347
    22  H    6.956913   7.053933   6.645343   6.534612   4.561848
    23  H    9.268350   9.344329   8.575022   8.483561   6.877251
    24  N    9.412220   9.322978   7.453814   7.554242   7.393377
    25  H   10.195271  10.196496   8.847043   8.835665   7.892488
    26  O    9.270765   9.287715   7.209203   7.175864   7.530059
    27  O   10.609746  10.398957   8.548608   8.793512   8.501527
    28  H    3.035284   2.454266   2.483795   3.062583   4.441397
    29  H    4.747231   4.740628   4.406836   4.406565   2.264166
                   21         22         23         24         25
    21  H    0.000000
    22  H    4.327812   0.000000
    23  H    4.948537   2.449161   0.000000
    24  N    2.635509   5.313937   4.599182   0.000000
    25  H    4.277856   4.261374   2.451685   2.694211   0.000000
    26  O    2.680755   6.112574   5.678452   1.340466   3.875155
    27  O    3.818040   6.100377   4.974954   1.340448   2.738005
    28  H    7.301035   8.812952  10.907911   9.895780  11.310828
    29  H    3.772322   2.340688   4.621505   5.804368   5.799392
                   26         27         28         29
    26  O    0.000000
    27  O    2.307273   0.000000
    28  H    9.552181  10.994242   0.000000
    29  H    6.246681   6.820020   6.485966   0.000000
 Stoichiometry    C10H13N3O3
 Framework group  C1[X(C10H13N3O3)]
 Deg. of freedom    81
 Full point group                 C1      NOp   1
 Largest Abelian subgroup         C1      NOp   1
 Largest concise Abelian subgroup C1      NOp   1
                         Standard orientation:                         
 ---------------------------------------------------------------------
 Center     Atomic      Atomic             Coordinates (Angstroms)
 Number     Number       Type             X           Y           Z
 ---------------------------------------------------------------------
      1          6           0        6.387181   -0.946986    0.025997
      2          6           0        5.308109    0.124306    0.107909
      3          6           0        3.914424   -0.498199   -0.016175
      4          7           0        2.880114    0.518222    0.071651
      5          6           0        1.555574    0.206205   -0.011167
      6          8           0        1.226595   -0.959240   -0.163647
      7          7           0        0.622305    1.204306    0.078646
      8          6           0       -0.812030    1.089377    0.016240
      9          6           0       -1.524737   -0.135433    0.061586
     10          6           0       -1.554593    2.279646   -0.097888
     11          6           0       -2.946797    2.259840   -0.164296
     12          6           0       -3.633783    1.049787   -0.118561
     13          6           0       -2.933001   -0.160946   -0.005349
     14          1           0        7.389934   -0.483683    0.138922
     15          1           0        6.340404   -1.473983   -0.950857
     16          1           0        5.464498    0.863554   -0.707700
     17          1           0        5.395112    0.643881    1.086500
     18          1           0        3.772044   -1.238184    0.802412
     19          1           0        3.832241   -1.020472   -0.995109
     20          1           0        3.156582    1.504388    0.200592
     21          1           0       -1.026896   -1.081308    0.147426
     22          1           0       -1.049928    3.237157   -0.135939
     23          1           0       -3.495869    3.188687   -0.251747
     24          7           0       -3.641037   -1.398873    0.040991
     25          1           0       -4.714738    1.062949   -0.172012
     26          8           0       -3.186215   -2.468950   -0.626033
     27          8           0       -4.771959   -1.514040    0.751310
     28          1           0        6.221248   -1.651090    0.814417
     29          1           0        0.976244    2.114775    0.201268
 ---------------------------------------------------------------------
 Rotational constants (GHZ):      1.1850056      0.1930392      0.1684170
 General basis read from cards:  (6D, 7F)
 There are   330 symmetry adapted cartesian basis functions of A   symmetry.
 There are   330 symmetry adapted basis functions of A   symmetry.
   330 basis functions,   564 primitive gaussians,   330 cartesian basis functions
    59 alpha electrons       59 beta electrons
       nuclear repulsion energy      1026.3068672858 Hartrees.
 NAtoms=   29 NActive=   29 NUniq=   29 SFac= 1.00D+00 NAtFMM=   60 NAOKFM=F Big=F
 Integral buffers will be    131072 words long.
 Raffenetti 2 integral format.
 Two-electron integral symmetry is turned on.
 One-electron integrals computed using PRISM.
 NBasis=   330 RedAO= T EigKep=  1.81D-06  NBF=   330
 NBsUse=   330 1.00D-06 EigRej= -1.00D+00 NBFU=   330
 ExpMin= 4.38D-02 ExpMax= 5.48D+03 ExpMxC= 8.25D+02 IAcc=3 IRadAn=         5 AccDes= 0.00D+00
 Harris functional with IExCor= 1009 and IRadAn=       5 diagonalized for initial guess.
 HarFok:  IExCor= 1009 AccDes= 0.00D+00 IRadAn=         5 IDoV= 1 UseB2=F ITyADJ=14
 ICtDFT=  3500011 ScaDFX=  1.000000  1.000000  1.000000  1.000000
 FoFCou: FMM=F IPFlag=           0 FMFlag=      100000 FMFlg1=           0
         NFxFlg=           0 DoJE=T BraDBF=F KetDBF=T FulRan=T
         wScrn=  0.000000 ICntrl=     500 IOpCl=  0 I1Cent=   200000004 NGrid=           0
         NMat0=    1 NMatS0=      1 NMatT0=    0 NMatD0=    1 NMtDS0=    0 NMtDT0=    0
 Petite list used in FoFCou.
 Requested convergence on RMS density matrix=1.00D-08 within 128 cycles.
 Requested convergence on MAX density matrix=1.00D-06.
 Requested convergence on             energy=1.00D-06.
 No special actions if energy rises.
 SCF Done:  E(RM062X) =  -778.396397745     A.U. after   18 cycles
            NFock= 18  Conv=0.44D-08     -V/T= 2.0096

 **********************************************************************

            Population analysis using the SCF density.

 **********************************************************************

 Orbital symmetries:
       Occupied  (A) (A) (A) (A) (A) (A) (A) (A) (A) (A) (A) (A)
                 (A) (A) (A) (A) (A) (A) (A) (A) (A) (A) (A) (A)
                 (A) (A) (A) (A) (A) (A) (A) (A) (A) (A) (A) (A)
                 (A) (A) (A) (A) (A) (A) (A) (A) (A) (A) (A) (A)
                 (A) (A) (A) (A) (A) (A) (A) (A) (A) (A) (A)
       Virtual   (A) (A) (A) (A) (A) (A) (A) (A) (A) (A) (A) (A)
                 (A) (A) (A) (A) (A) (A) (A) (A) (A) (A) (A) (A)
                 (A) (A) (A) (A) (A) (A) (A) (A) (A) (A) (A) (A)
                 (A) (A) (A) (A) (A) (A) (A) (A) (A) (A) (A) (A)
                 (A) (A) (A) (A) (A) (A) (A) (A) (A) (A) (A) (A)
                 (A) (A) (A) (A) (A) (A) (A) (A) (A) (A) (A) (A)
                 (A) (A) (A) (A) (A) (A) (A) (A) (A) (A) (A) (A)
                 (A) (A) (A) (A) (A) (A) (A) (A) (A) (A) (A) (A)
                 (A) (A) (A) (A) (A) (A) (A) (A) (A) (A) (A) (A)
                 (A) (A) (A) (A) (A) (A) (A) (A) (A) (A) (A) (A)
                 (A) (A) (A) (A) (A) (A) (A) (A) (A) (A) (A) (A)
                 (A) (A) (A) (A) (A) (A) (A) (A) (A) (A) (A) (A)
                 (A) (A) (A) (A) (A) (A) (A) (A) (A) (A) (A) (A)
                 (A) (A) (A) (A) (A) (A) (A) (A) (A) (A) (A) (A)
                 (A) (A) (A) (A) (A) (A) (A) (A) (A) (A) (A) (A)
                 (A) (A) (A) (A) (A) (A) (A) (A) (A) (A) (A) (A)
                 (A) (A) (A) (A) (A) (A) (A) (A) (A) (A) (A) (A)
                 (A) (A) (A) (A) (A) (A) (A) (A) (A) (A) (A) (A)
                 (A) (A) (A) (A) (A) (A) (A) (A) (A) (A) (A) (A)
                 (A) (A) (A) (A) (A) (A) (A) (A) (A) (A) (A) (A)
                 (A) (A) (A) (A) (A) (A) (A) (A) (A) (A) (A) (A)
                 (A) (A) (A) (A) (A) (A) (A) (A) (A) (A) (A) (A)
                 (A) (A) (A) (A) (A) (A) (A)
 The electronic state is 1-A.
 Alpha  occ. eigenvalues --  -19.69403 -19.69386 -19.61366 -15.01135 -14.82601
 Alpha  occ. eigenvalues --  -14.80516 -10.69605 -10.64647 -10.63905 -10.59928
 Alpha  occ. eigenvalues --  -10.59638 -10.59328 -10.59277 -10.59126 -10.57032
 Alpha  occ. eigenvalues --  -10.55348  -1.27875  -1.19154  -1.11104  -1.07368
 Alpha  occ. eigenvalues --   -1.04359  -1.00072  -0.92887  -0.90159  -0.87418
 Alpha  occ. eigenvalues --   -0.82133  -0.79581  -0.74234  -0.70720  -0.69882
 Alpha  occ. eigenvalues --   -0.69019  -0.65449  -0.64028  -0.59953  -0.59045
 Alpha  occ. eigenvalues --   -0.58490  -0.57854  -0.57465  -0.55225  -0.53934
 Alpha  occ. eigenvalues --   -0.52990  -0.52540  -0.50638  -0.48752  -0.48130
 Alpha  occ. eigenvalues --   -0.46940  -0.46362  -0.45108  -0.43901  -0.41960
 Alpha  occ. eigenvalues --   -0.41679  -0.39783  -0.39365  -0.37132  -0.36023
 Alpha  occ. eigenvalues --   -0.35218  -0.33986  -0.33149  -0.30062
 Alpha virt. eigenvalues --   -0.08502  -0.01581  -0.00589   0.00171   0.01087
 Alpha virt. eigenvalues --    0.02107   0.02945   0.02968   0.03421   0.04426
 Alpha virt. eigenvalues --    0.04748   0.05351   0.05964   0.06404   0.07106
 Alpha virt. eigenvalues --    0.07502   0.07670   0.08047   0.09225   0.09452
 Alpha virt. eigenvalues --    0.09745   0.09930   0.10460   0.10606   0.12080
 Alpha virt. eigenvalues --    0.12738   0.12874   0.13416   0.13984   0.14357
 Alpha virt. eigenvalues --    0.14728   0.15515   0.15709   0.16241   0.16601
 Alpha virt. eigenvalues --    0.17587   0.17822   0.18509   0.19054   0.19162
 Alpha virt. eigenvalues --    0.19663   0.20342   0.20375   0.20519   0.21431
 Alpha virt. eigenvalues --    0.21598   0.21963   0.21989   0.22526   0.23565
 Alpha virt. eigenvalues --    0.23894   0.24026   0.24530   0.24867   0.25201
 Alpha virt. eigenvalues --    0.25792   0.26240   0.26707   0.27090   0.27389
 Alpha virt. eigenvalues --    0.27909   0.28481   0.28623   0.29891   0.30208
 Alpha virt. eigenvalues --    0.30590   0.30632   0.31585   0.31780   0.32440
 Alpha virt. eigenvalues --    0.32601   0.33299   0.33468   0.34133   0.34260
 Alpha virt. eigenvalues --    0.34493   0.35177   0.35696   0.36364   0.36401
 Alpha virt. eigenvalues --    0.37637   0.38302   0.38392   0.39259   0.40237
 Alpha virt. eigenvalues --    0.41588   0.42255   0.43213   0.44804   0.45601
 Alpha virt. eigenvalues --    0.48320   0.49501   0.50895   0.53296   0.53827
 Alpha virt. eigenvalues --    0.57981   0.61365   0.64469   0.67054   0.67701
 Alpha virt. eigenvalues --    0.68584   0.69542   0.71193   0.72920   0.74173
 Alpha virt. eigenvalues --    0.74669   0.75104   0.76475   0.77599   0.77999
 Alpha virt. eigenvalues --    0.78162   0.79234   0.80161   0.82038   0.83415
 Alpha virt. eigenvalues --    0.85340   0.85715   0.87416   0.87901   0.88300
 Alpha virt. eigenvalues --    0.91354   0.93315   0.95847   0.96266   0.97540
 Alpha virt. eigenvalues --    0.98595   0.99713   1.00099   1.02237   1.02665
 Alpha virt. eigenvalues --    1.03129   1.03611   1.04774   1.05610   1.06549
 Alpha virt. eigenvalues --    1.08412   1.09370   1.09823   1.10731   1.11066
 Alpha virt. eigenvalues --    1.12801   1.13941   1.14829   1.14913   1.17790
 Alpha virt. eigenvalues --    1.17823   1.19331   1.20338   1.22492   1.24315
 Alpha virt. eigenvalues --    1.25350   1.27527   1.29579   1.30377   1.31020
 Alpha virt. eigenvalues --    1.33068   1.33732   1.35251   1.35572   1.36789
 Alpha virt. eigenvalues --    1.37633   1.38247   1.39141   1.40057   1.41945
 Alpha virt. eigenvalues --    1.43012   1.43677   1.44891   1.46606   1.48337
 Alpha virt. eigenvalues --    1.49295   1.50320   1.50779   1.51880   1.53654
 Alpha virt. eigenvalues --    1.54803   1.56764   1.57826   1.58672   1.64006
 Alpha virt. eigenvalues --    1.67236   1.75935   1.77978   1.79054   1.81096
 Alpha virt. eigenvalues --    1.81754   1.84580   1.85286   1.86394   1.87372
 Alpha virt. eigenvalues --    1.88234   1.89116   1.89554   1.90321   1.90926
 Alpha virt. eigenvalues --    1.91478   1.94163   1.95668   1.95973   1.97890
 Alpha virt. eigenvalues --    1.99166   2.01026   2.01736   2.02548   2.03572
 Alpha virt. eigenvalues --    2.05097   2.06698   2.08189   2.10508   2.11552
 Alpha virt. eigenvalues --    2.13786   2.14812   2.17384   2.18897   2.19405
 Alpha virt. eigenvalues --    2.20753   2.21410   2.24737   2.26683   2.29029
 Alpha virt. eigenvalues --    2.30170   2.34638   2.36435   2.36596   2.38223
 Alpha virt. eigenvalues --    2.39042   2.41166   2.42669   2.46939   2.51883
 Alpha virt. eigenvalues --    2.52531   2.54933   2.57312   2.62391   2.63038
 Alpha virt. eigenvalues --    2.64260   2.65168   2.68509   2.70582   2.73059
 Alpha virt. eigenvalues --    2.75726   2.76774   2.78969   2.79985   2.83836
 Alpha virt. eigenvalues --    2.90164   2.94672   2.97082   2.99435   3.00212
 Alpha virt. eigenvalues --    3.10804   3.13764   3.26876   3.32403   3.40540
 Alpha virt. eigenvalues --    4.09926   4.15564   4.24516   4.25487   4.26741
 Alpha virt. eigenvalues --    4.32313   4.34664   4.38745   4.40063   4.42010
 Alpha virt. eigenvalues --    4.47698   4.49385   4.57359   4.57978   4.65885
 Alpha virt. eigenvalues --    4.75968
          Condensed to atoms (all electrons):
               1          2          3          4          5          6
     1  C    5.543859   0.005514  -0.009802  -0.001215  -0.036011  -0.001967
     2  C    0.005514   6.164442  -0.427882  -0.088256   0.144236   0.020791
     3  C   -0.009802  -0.427882   6.705033   0.379080  -0.506720  -0.091422
     4  N   -0.001215  -0.088256   0.379080   7.752561   0.306593  -0.205044
     5  C   -0.036011   0.144236  -0.506720   0.306593   6.234990   0.634755
     6  O   -0.001967   0.020791  -0.091422  -0.205044   0.634755   8.307554
     7  N   -0.001560   0.019700  -0.132705  -0.451678   0.051536  -0.091611
     8  C   -0.004261   0.012640  -0.322466  -0.159020  -1.082366  -0.328779
     9  C   -0.000320  -0.009960   0.166093   0.101039   2.122530   0.321680
    10  C   -0.000971   0.007901  -0.085707  -0.119417  -0.877111  -0.132744
    11  C   -0.000061   0.000229  -0.010687  -0.004545  -0.212024   0.008775
    12  C    0.000041   0.000437   0.008506  -0.003178   0.191409  -0.009882
    13  C   -0.002415   0.005472  -0.170728  -0.006531  -1.694137   0.143925
    14  H    0.407761  -0.083169   0.029415   0.000552  -0.001330   0.000008
    15  H    0.414180  -0.061100  -0.009457   0.000736   0.002965  -0.000059
    16  H   -0.023840   0.400870  -0.059768   0.007019  -0.012017  -0.000250
    17  H   -0.037441   0.423331  -0.094888   0.007663   0.011954  -0.000220
    18  H    0.002753  -0.057171   0.423548  -0.057933  -0.003757   0.000786
    19  H    0.004809  -0.052215   0.411115  -0.057327   0.001863   0.000884
    20  H   -0.001720  -0.000089  -0.088635   0.228552   0.040342   0.008373
    21  H    0.000006  -0.000011   0.002331  -0.000028   0.024677  -0.003114
    22  H    0.000000   0.000012   0.000227   0.000947   0.010747  -0.000003
    23  H    0.000000   0.000000   0.000014   0.000005   0.001911  -0.000001
    24  N    0.000000  -0.000018  -0.000151   0.000183  -0.012519   0.000367
    25  H    0.000000   0.000000   0.000004  -0.000001   0.000798   0.000005
    26  O    0.000002   0.000005   0.000563  -0.000122   0.011479  -0.000724
    27  O    0.000000  -0.000001   0.000134   0.000008   0.004740   0.000035
    28  H    0.422326  -0.073711  -0.005778   0.000678  -0.000058  -0.000066
    29  H   -0.000110   0.000302   0.000641   0.017126  -0.009742   0.008406
               7          8          9         10         11         12
     1  C   -0.001560  -0.004261  -0.000320  -0.000971  -0.000061   0.000041
     2  C    0.019700   0.012640  -0.009960   0.007901   0.000229   0.000437
     3  C   -0.132705  -0.322466   0.166093  -0.085707  -0.010687   0.008506
     4  N   -0.451678  -0.159020   0.101039  -0.119417  -0.004545  -0.003178
     5  C    0.051536  -1.082366   2.122530  -0.877111  -0.212024   0.191409
     6  O   -0.091611  -0.328779   0.321680  -0.132744   0.008775  -0.009882
     7  N    7.887395  -0.034372  -0.178404   0.411361  -0.013277   0.040037
     8  C   -0.034372  13.823353  -2.947133   0.656406   0.142838  -0.176320
     9  C   -0.178404  -2.947133  38.539133  -3.406484  -2.323020  -3.413676
    10  C    0.411361   0.656406  -3.406484  15.630726  -0.583369  -0.451031
    11  C   -0.013277   0.142838  -2.323020  -0.583369   6.941595  -0.311617
    12  C    0.040037  -0.176320  -3.413676  -0.451031  -0.311617  10.817577
    13  C   -0.110098  -3.877364 -24.088801  -4.262546   2.324785  -1.128607
    14  H    0.000012  -0.000025   0.000005  -0.000001  -0.000000   0.000000
    15  H    0.000023   0.000072  -0.000033   0.000005  -0.000000   0.000000
    16  H   -0.000339  -0.000155  -0.000545   0.000165   0.000001   0.000003
    17  H    0.000587   0.000012   0.000215   0.000047  -0.000002   0.000001
    18  H    0.000331  -0.001626   0.001632  -0.000023  -0.000000   0.000019
    19  H    0.001034  -0.003469   0.004163  -0.001499  -0.000013   0.000001
    20  H    0.034808   0.019776   0.002148  -0.000801   0.000310  -0.000013
    21  H   -0.011814  -0.002773   0.282364   0.009244  -0.015174   0.014343
    22  H   -0.010147   0.091292   0.045666   0.106390   0.061453  -0.015506
    23  H    0.000179   0.000794   0.008978   0.027935   0.242200   0.056815
    24  N   -0.000287  -0.037522   0.034668   0.088464   0.057376  -0.050626
    25  H   -0.000003   0.011824   0.027913  -0.010480  -0.039264   0.325400
    26  O   -0.000166   0.073666  -0.171136  -0.039706  -0.002408   0.040231
    27  O   -0.000370   0.044563  -0.011335  -0.023387   0.046569  -0.194622
    28  H    0.000017   0.000031  -0.000061   0.000004  -0.000000   0.000000
    29  H    0.239643  -0.003559   0.040487  -0.110160   0.033426  -0.007725
              13         14         15         16         17         18
     1  C   -0.002415   0.407761   0.414180  -0.023840  -0.037441   0.002753
     2  C    0.005472  -0.083169  -0.061100   0.400870   0.423331  -0.057171
     3  C   -0.170728   0.029415  -0.009457  -0.059768  -0.094888   0.423548
     4  N   -0.006531   0.000552   0.000736   0.007019   0.007663  -0.057933
     5  C   -1.694137  -0.001330   0.002965  -0.012017   0.011954  -0.003757
     6  O    0.143925   0.000008  -0.000059  -0.000250  -0.000220   0.000786
     7  N   -0.110098   0.000012   0.000023  -0.000339   0.000587   0.000331
     8  C   -3.877364  -0.000025   0.000072  -0.000155   0.000012  -0.001626
     9  C  -24.088801   0.000005  -0.000033  -0.000545   0.000215   0.001632
    10  C   -4.262546  -0.000001   0.000005   0.000165   0.000047  -0.000023
    11  C    2.324785  -0.000000  -0.000000   0.000001  -0.000002  -0.000000
    12  C   -1.128607   0.000000   0.000000   0.000003   0.000001   0.000019
    13  C   39.651422   0.000000  -0.000002  -0.000062   0.000022   0.000116
    14  H    0.000000   0.488073  -0.023430  -0.002887  -0.003194  -0.000054
    15  H   -0.000002  -0.023430   0.490389  -0.004989   0.003975  -0.000331
    16  H   -0.000062  -0.002887  -0.004989   0.512353  -0.033867   0.003902
    17  H    0.000022  -0.003194   0.003975  -0.033867   0.512481  -0.005424
    18  H    0.000116  -0.000054  -0.000331   0.003902  -0.005424   0.493877
    19  H    0.000466  -0.000060   0.002680  -0.005333   0.003912  -0.034830
    20  H    0.000496  -0.000003   0.000001   0.000897   0.001109   0.002805
    21  H   -0.000306  -0.000000  -0.000000  -0.000000  -0.000000  -0.000000
    22  H    0.001768   0.000000  -0.000000   0.000000  -0.000000   0.000000
    23  H   -0.026513  -0.000000   0.000000   0.000000   0.000000   0.000000
    24  N   -0.357737   0.000000  -0.000000   0.000000  -0.000000  -0.000001
    25  H   -0.007136   0.000000  -0.000000  -0.000000  -0.000000  -0.000000
    26  O    0.043661  -0.000000   0.000000  -0.000000   0.000000   0.000000
    27  O    0.103336   0.000000  -0.000000   0.000000  -0.000000  -0.000000
    28  H   -0.000005  -0.023598  -0.029143   0.004476  -0.005443   0.003318
    29  H    0.031740  -0.000000  -0.000000   0.000002   0.000001   0.000002
              19         20         21         22         23         24
     1  C    0.004809  -0.001720   0.000006   0.000000   0.000000   0.000000
     2  C   -0.052215  -0.000089  -0.000011   0.000012   0.000000  -0.000018
     3  C    0.411115  -0.088635   0.002331   0.000227   0.000014  -0.000151
     4  N   -0.057327   0.228552  -0.000028   0.000947   0.000005   0.000183
     5  C    0.001863   0.040342   0.024677   0.010747   0.001911  -0.012519
     6  O    0.000884   0.008373  -0.003114  -0.000003  -0.000001   0.000367
     7  N    0.001034   0.034808  -0.011814  -0.010147   0.000179  -0.000287
     8  C   -0.003469   0.019776  -0.002773   0.091292   0.000794  -0.037522
     9  C    0.004163   0.002148   0.282364   0.045666   0.008978   0.034668
    10  C   -0.001499  -0.000801   0.009244   0.106390   0.027935   0.088464
    11  C   -0.000013   0.000310  -0.015174   0.061453   0.242200   0.057376
    12  C    0.000001  -0.000013   0.014343  -0.015506   0.056815  -0.050626
    13  C    0.000466   0.000496  -0.000306   0.001768  -0.026513  -0.357737
    14  H   -0.000060  -0.000003  -0.000000   0.000000  -0.000000   0.000000
    15  H    0.002680   0.000001  -0.000000  -0.000000   0.000000  -0.000000
    16  H   -0.005333   0.000897  -0.000000   0.000000   0.000000   0.000000
    17  H    0.003912   0.001109  -0.000000  -0.000000   0.000000  -0.000000
    18  H   -0.034830   0.002805  -0.000000   0.000000   0.000000  -0.000001
    19  H    0.491104   0.002786  -0.000001   0.000000  -0.000000   0.000002
    20  H    0.002786   0.346769  -0.000000   0.000005  -0.000000   0.000002
    21  H   -0.000001  -0.000000   0.398194  -0.000086   0.000011  -0.003550
    22  H    0.000000   0.000005  -0.000086   0.499364  -0.003855  -0.000084
    23  H   -0.000000  -0.000000   0.000011  -0.003855   0.467644   0.000158
    24  N    0.000002   0.000002  -0.003550  -0.000084   0.000158   7.019730
    25  H    0.000000  -0.000000  -0.000102  -0.000124  -0.003618  -0.006386
    26  O   -0.000000   0.000000   0.004377   0.000002   0.000019   0.355875
    27  O    0.000000  -0.000000  -0.001132  -0.000002  -0.000062   0.331669
    28  H   -0.000494   0.000001   0.000000   0.000000   0.000000   0.000000
    29  H    0.000006   0.002701  -0.000131   0.005887  -0.000009   0.000030
              25         26         27         28         29
     1  C    0.000000   0.000002   0.000000   0.422326  -0.000110
     2  C    0.000000   0.000005  -0.000001  -0.073711   0.000302
     3  C    0.000004   0.000563   0.000134  -0.005778   0.000641
     4  N   -0.000001  -0.000122   0.000008   0.000678   0.017126
     5  C    0.000798   0.011479   0.004740  -0.000058  -0.009742
     6  O    0.000005  -0.000724   0.000035  -0.000066   0.008406
     7  N   -0.000003  -0.000166  -0.000370   0.000017   0.239643
     8  C    0.011824   0.073666   0.044563   0.000031  -0.003559
     9  C    0.027913  -0.171136  -0.011335  -0.000061   0.040487
    10  C   -0.010480  -0.039706  -0.023387   0.000004  -0.110160
    11  C   -0.039264  -0.002408   0.046569  -0.000000   0.033426
    12  C    0.325400   0.040231  -0.194622   0.000000  -0.007725
    13  C   -0.007136   0.043661   0.103336  -0.000005   0.031740
    14  H    0.000000  -0.000000   0.000000  -0.023598  -0.000000
    15  H   -0.000000   0.000000  -0.000000  -0.029143  -0.000000
    16  H   -0.000000  -0.000000   0.000000   0.004476   0.000002
    17  H   -0.000000   0.000000  -0.000000  -0.005443   0.000001
    18  H   -0.000000   0.000000  -0.000000   0.003318   0.000002
    19  H    0.000000  -0.000000   0.000000  -0.000494   0.000006
    20  H   -0.000000   0.000000  -0.000000   0.000001   0.002701
    21  H   -0.000102   0.004377  -0.001132   0.000000  -0.000131
    22  H   -0.000124   0.000002  -0.000002   0.000000   0.005887
    23  H   -0.003618   0.000019  -0.000062   0.000000  -0.000009
    24  N   -0.006386   0.355875   0.331669   0.000000   0.000030
    25  H    0.450193  -0.001048   0.003970  -0.000000  -0.000000
    26  O   -0.001048   7.740429  -0.068794  -0.000000   0.000000
    27  O    0.003970  -0.068794   7.777572   0.000000  -0.000001
    28  H   -0.000000  -0.000000   0.000000   0.489279  -0.000000
    29  H   -0.000000   0.000000  -0.000001  -0.000000   0.339896
 Mulliken charges:
               1
     1  C   -0.679559
     2  C   -0.352300
     3  C   -0.109907
     4  N   -0.648445
     5  C    0.650268
     6  O   -0.590458
     7  N   -0.649835
     8  C    0.103944
     9  C    0.852193
    10  C   -0.833209
    11  C   -0.344092
    12  C    0.267982
    13  C   -0.574221
    14  H    0.211925
    15  H    0.213519
    16  H    0.214364
    17  H    0.215170
    18  H    0.228064
    19  H    0.230413
    20  H    0.399381
    21  H    0.302677
    22  H    0.206045
    23  H    0.227395
    24  N   -0.419644
    25  H    0.248055
    26  O    0.013795
    27  O   -0.012888
    28  H    0.218226
    29  H    0.411140
 Sum of Mulliken charges =  -0.00000
 Mulliken charges with hydrogens summed into heavy atoms:
               1
     1  C   -0.035890
     2  C    0.077234
     3  C    0.348570
     4  N   -0.249064
     5  C    0.650268
     6  O   -0.590458
     7  N   -0.238695
     8  C    0.103944
     9  C    1.154870
    10  C   -0.627164
    11  C   -0.116697
    12  C    0.516038
    13  C   -0.574221
    24  N   -0.419644
    26  O    0.013795
    27  O   -0.012888
 Electronic spatial extent (au):  <R**2>=           6171.0347
 Charge=              0.0000 electrons
 Dipole moment (field-independent basis, Debye):
    X=              5.8957    Y=              8.2031    Z=              0.3399  Tot=             10.1077
 Quadrupole moment (field-independent basis, Debye-Ang):
   XX=            -92.2075   YY=            -93.3575   ZZ=            -99.0095
   XY=            -12.7646   XZ=              4.2022   YZ=             -1.2331
 Traceless Quadrupole moment (field-independent basis, Debye-Ang):
   XX=              2.6507   YY=              1.5006   ZZ=             -4.1513
   XY=            -12.7646   XZ=              4.2022   YZ=             -1.2331
 Octapole moment (field-independent basis, Debye-Ang**2):
  XXX=            137.6731  YYY=             44.7464  ZZZ=              0.2829  XYY=             22.0311
  XXY=             77.1869  XXZ=            -18.4059  XZZ=              7.9591  YZZ=             -9.5289
  YYZ=              4.0709  XYZ=              2.7761
 Hexadecapole moment (field-independent basis, Debye-Ang**3):
 XXXX=          -6962.0942 YYYY=          -1075.1996 ZZZZ=           -162.6051 XXXY=           -261.3136
 XXXZ=            117.2222 YYYX=            -46.9192 YYYZ=            -10.3314 ZZZX=             -6.7047
 ZZZY=              3.4254 XXYY=          -1414.4885 XXZZ=          -1223.0519 YYZZ=           -226.5167
 XXYZ=              9.3727 YYXZ=              2.7667 ZZXY=             16.7672
 N-N= 1.026306867286D+03 E-N=-3.864663819398D+03  KE= 7.709856366040D+02
 Calling FoFJK, ICntrl=      2127 FMM=F ISym2X=0 I1Cent= 0 IOpClX= 0 NMat=1 NMatS=1 NMatT=0.
 ***** Axes restored to original set *****
 -------------------------------------------------------------------
 Center     Atomic                   Forces (Hartrees/Bohr)
 Number     Number              X              Y              Z
 -------------------------------------------------------------------
      1        6           0.008682341   -0.020135847    0.007656292
      2        6          -0.005791857   -0.006203406    0.004816326
      3        6           0.006531755    0.004453701   -0.002433868
      4        7          -0.025829622   -0.030136953    0.003730573
      5        6           0.023367058    0.025516931   -0.005786596
      6        8           0.003279816    0.009968928    0.003823301
      7        7          -0.009517948    0.019299336    0.021545675
      8        6           0.007266547    0.002681390   -0.005025798
      9        6           0.001701022    0.002829612    0.003777344
     10        6           0.002125237    0.003297072   -0.001763587
     11        6           0.008647285    0.005468451   -0.008707892
     12        6          -0.003630979    0.010564618    0.005206181
     13        6          -0.010802284   -0.038110778   -0.007906028
     14        1           0.001139982    0.009807559    0.006198472
     15        1          -0.008023198   -0.000707957   -0.007006257
     16        1          -0.005039742    0.007146453   -0.003746659
     17        1           0.006211757   -0.001449001    0.006499912
     18        1           0.003895880   -0.007224100    0.007514557
     19        1          -0.009343479    0.002496250   -0.005567604
     20        1           0.011031958    0.013581681   -0.001005086
     21        1           0.007032740   -0.000391892   -0.007620814
     22        1           0.000704905   -0.003203661   -0.002135614
     23        1          -0.000467995   -0.000404781    0.001043639
     24        7           0.039151411    0.135274661    0.028213339
     25        1           0.001131879    0.004494421    0.000813897
     26        8          -0.114555583   -0.049694451    0.003739651
     27        8           0.075432499   -0.090880270   -0.034445984
     28        1           0.001195283    0.014233022   -0.011282418
     29        1          -0.015526668   -0.022570988   -0.000144956
 -------------------------------------------------------------------
 Cartesian Forces:  Max     0.135274661 RMS     0.026315006

 GradGradGradGradGradGradGradGradGradGradGradGradGradGradGradGradGradGrad
 Berny optimization.
 FormGI is forming the generalized inverse of G from B-inverse, IUseBI=4.
 GSVD:  received Info=                   1 from GESDD.
 Internal  Forces:  Max     0.124196377 RMS     0.016514970
 Search for a local minimum.
 Step number   1 out of a maximum of  151
 All quantities printed in internal units (Hartrees-Bohrs-Radians)
 Mixed Optimization -- RFO/linear search
 Second derivative matrix not updated -- first step.
 ITU=  0
     Eigenvalues ---    0.00350   0.00465   0.00993   0.01159   0.01336
     Eigenvalues ---    0.01336   0.01467   0.01628   0.01681   0.01793
     Eigenvalues ---    0.01900   0.01931   0.02022   0.02073   0.02097
     Eigenvalues ---    0.02113   0.02136   0.02143   0.02177   0.02181
     Eigenvalues ---    0.03827   0.04445   0.04970   0.05566   0.05747
     Eigenvalues ---    0.05944   0.07972   0.09180   0.11923   0.12670
     Eigenvalues ---    0.16000   0.16000   0.16000   0.16000   0.16000
     Eigenvalues ---    0.16000   0.16000   0.16000   0.16000   0.21958
     Eigenvalues ---    0.22000   0.22000   0.22000   0.22004   0.23449
     Eigenvalues ---    0.23490   0.25000   0.25000   0.25000   0.25000
     Eigenvalues ---    0.25000   0.25000   0.29292   0.30103   0.32324
     Eigenvalues ---    0.32328   0.32407   0.32454   0.32502   0.32561
     Eigenvalues ---    0.35630   0.35690   0.35711   0.36937   0.37230
     Eigenvalues ---    0.37881   0.39547   0.40411   0.41035   0.41444
     Eigenvalues ---    0.42436   0.43730   0.44759   0.45640   0.46542
     Eigenvalues ---    0.50518   0.51092   0.52284   0.57101   0.57105
     Eigenvalues ---    0.95140
 RFO step:  Lambda=-6.92003868D-02 EMin= 3.50229510D-03
 Linear search not attempted -- first point.
 Maximum step size (   0.300) exceeded in Quadratic search.
    -- Step size scaled by   0.820
 Iteration  1 RMS(Cart)=  0.05694674 RMS(Int)=  0.00061326
 Iteration  2 RMS(Cart)=  0.00100333 RMS(Int)=  0.00004355
 Iteration  3 RMS(Cart)=  0.00000096 RMS(Int)=  0.00004354
 Variable       Old X    -DE/DX   Delta X   Delta X   Delta X     New X
                                 (Linear)    (Quad)   (Total)
    R1        2.87758   0.00571   0.00000   0.01263   0.01263   2.89022
    R2        2.09829  -0.01123   0.00000  -0.02332  -0.02332   2.07497
    R3        2.09935  -0.01048   0.00000  -0.02180  -0.02180   2.07754
    R4        2.02201   0.01720   0.00000   0.03194   0.03194   2.05395
    R5        2.89398  -0.00427   0.00000  -0.00967  -0.00967   2.88431
    R6        2.10105  -0.00890   0.00000  -0.01855  -0.01855   2.08250
    R7        2.10021  -0.00854   0.00000  -0.01777  -0.01777   2.08244
    R8        2.74539  -0.00155   0.00000  -0.00284  -0.00284   2.74255
    R9        2.10256  -0.01052   0.00000  -0.02197  -0.02197   2.08059
   R10        2.10247  -0.01057   0.00000  -0.02208  -0.02208   2.08039
   R11        2.57629   0.00078   0.00000   0.00108   0.00108   2.57737
   R12        1.95071  -0.01706   0.00000  -0.02834  -0.02834   1.92237
   R13        2.30650   0.01064   0.00000   0.00855   0.00855   2.31505
   R14        2.58780   0.01178   0.00000   0.01665   0.01665   2.60445
   R15        2.72174  -0.03358   0.00000  -0.05924  -0.05924   2.66250
   R16        1.86046   0.02667   0.00000   0.03807   0.03807   1.89853
   R17        2.67926  -0.02249   0.00000  -0.03783  -0.03782   2.64144
   R18        2.65986  -0.00685   0.00000  -0.01099  -0.01107   2.64880
   R19        2.66467  -0.01597   0.00000  -0.02636  -0.02628   2.63839
   R20        2.02641   0.00857   0.00000   0.01602   0.01602   2.04243
   R21        2.63414  -0.00236   0.00000  -0.00300  -0.00308   2.63107
   R22        2.04664   0.00323   0.00000   0.00623   0.00623   2.05287
   R23        2.63091  -0.00498   0.00000  -0.00691  -0.00692   2.62399
   R24        2.04570   0.00111   0.00000   0.00213   0.00213   2.04783
   R25        2.65221  -0.01195   0.00000  -0.01877  -0.01870   2.63352
   R26        2.04536   0.00216   0.00000   0.00416   0.00416   2.04951
   R27        2.69637  -0.00553   0.00000  -0.00938  -0.00938   2.68699
   R28        2.53311  -0.12420   0.00000  -0.15904  -0.15904   2.37407
   R29        2.53308  -0.12217   0.00000  -0.15643  -0.15643   2.37665
    A1        1.91871   0.00279   0.00000   0.00941   0.00932   1.92803
    A2        1.92965   0.00098   0.00000   0.00318   0.00312   1.93277
    A3        1.88959   0.00757   0.00000   0.02794   0.02779   1.91738
    A4        1.90222  -0.00267   0.00000  -0.01117  -0.01117   1.89105
    A5        1.91737  -0.00489   0.00000  -0.01687  -0.01705   1.90032
    A6        1.90628  -0.00384   0.00000  -0.01265  -0.01276   1.89353
    A7        1.93324   0.00012   0.00000   0.00218   0.00218   1.93543
    A8        1.90565   0.00150   0.00000   0.00795   0.00796   1.91361
    A9        1.89736   0.00108   0.00000   0.00645   0.00645   1.90381
   A10        1.91648  -0.00091   0.00000  -0.00476  -0.00479   1.91169
   A11        1.90988  -0.00026   0.00000  -0.00164  -0.00167   1.90821
   A12        1.90083  -0.00153   0.00000  -0.01029  -0.01033   1.89050
   A13        1.93759  -0.00386   0.00000  -0.00943  -0.00940   1.92819
   A14        1.90413   0.00277   0.00000   0.01106   0.01105   1.91518
   A15        1.90639   0.00261   0.00000   0.01043   0.01042   1.91681
   A16        1.90681   0.00051   0.00000  -0.00001   0.00002   1.90683
   A17        1.90607   0.00069   0.00000   0.00084   0.00087   1.90693
   A18        1.90254  -0.00273   0.00000  -0.01307  -0.01312   1.88942
   A19        2.12692  -0.00667   0.00000  -0.01890  -0.01890   2.10803
   A20        2.07745  -0.00058   0.00000  -0.00454  -0.00454   2.07291
   A21        2.07881   0.00725   0.00000   0.02344   0.02344   2.10225
   A22        2.08058   0.01646   0.00000   0.04227   0.04227   2.12286
   A23        2.08442  -0.02510   0.00000  -0.06445  -0.06445   2.01997
   A24        2.11818   0.00864   0.00000   0.02218   0.02218   2.14036
   A25        2.23661  -0.01048   0.00000  -0.02972  -0.02972   2.20689
   A26        2.02328   0.01103   0.00000   0.03556   0.03556   2.05884
   A27        2.02329  -0.00055   0.00000  -0.00585  -0.00585   2.01745
   A28        2.17506  -0.00926   0.00000  -0.02372  -0.02369   2.15137
   A29        2.05039   0.00079   0.00000   0.00209   0.00213   2.05251
   A30        2.05774   0.00848   0.00000   0.02163   0.02156   2.07930
   A31        2.11314  -0.01241   0.00000  -0.03635  -0.03626   2.07688
   A32        2.13080   0.00037   0.00000  -0.00271  -0.00275   2.12805
   A33        2.03924   0.01204   0.00000   0.03905   0.03901   2.07825
   A34        2.11619  -0.00253   0.00000  -0.00489  -0.00505   2.11114
   A35        2.09977  -0.00096   0.00000  -0.00552  -0.00544   2.09433
   A36        2.06722   0.00349   0.00000   0.01042   0.01049   2.07772
   A37        2.09858  -0.00092   0.00000   0.00108   0.00099   2.09957
   A38        2.09236   0.00078   0.00000   0.00061   0.00065   2.09301
   A39        2.09224   0.00014   0.00000  -0.00169  -0.00164   2.09060
   A40        2.10139  -0.01237   0.00000  -0.03240  -0.03233   2.06906
   A41        2.07215   0.01046   0.00000   0.03148   0.03145   2.10360
   A42        2.10964   0.00191   0.00000   0.00092   0.00088   2.11052
   A43        2.07932   0.01975   0.00000   0.05093   0.05108   2.13040
   A44        2.10567  -0.01129   0.00000  -0.02910  -0.02918   2.07649
   A45        2.09819  -0.00846   0.00000  -0.02183  -0.02190   2.07629
   A46        2.10372  -0.01034   0.00000  -0.02655  -0.02656   2.07717
   A47        2.10645  -0.01285   0.00000  -0.03302  -0.03302   2.07343
   A48        2.07301   0.02319   0.00000   0.05957   0.05957   2.13257
    D1       -3.12078  -0.00062   0.00000  -0.00406  -0.00411  -3.12489
    D2        1.04985  -0.00054   0.00000  -0.00471  -0.00476   1.04509
    D3       -1.02175  -0.00019   0.00000  -0.00064  -0.00068  -1.02243
    D4        1.06141   0.00027   0.00000   0.00173   0.00176   1.06317
    D5       -1.05114   0.00035   0.00000   0.00108   0.00111  -1.05003
    D6       -3.12274   0.00071   0.00000   0.00515   0.00519  -3.11755
    D7       -1.02616  -0.00030   0.00000  -0.00200  -0.00198  -1.02814
    D8       -3.13871  -0.00023   0.00000  -0.00265  -0.00263  -3.14134
    D9        1.07288   0.00013   0.00000   0.00142   0.00145   1.07432
   D10        3.13390  -0.00007   0.00000  -0.00014  -0.00013   3.13377
   D11        1.03162  -0.00008   0.00000  -0.00139  -0.00137   1.03025
   D12       -1.04645   0.00005   0.00000   0.00175   0.00174  -1.04472
   D13       -1.04315   0.00128   0.00000   0.00808   0.00806  -1.03509
   D14        3.13775   0.00127   0.00000   0.00682   0.00683  -3.13861
   D15        1.05968   0.00141   0.00000   0.00997   0.00993   1.06962
   D16        1.04234  -0.00131   0.00000  -0.00844  -0.00843   1.03392
   D17       -1.05994  -0.00132   0.00000  -0.00969  -0.00966  -1.06960
   D18       -3.13801  -0.00119   0.00000  -0.00655  -0.00656   3.13862
   D19       -3.14066  -0.00004   0.00000  -0.00024  -0.00024  -3.14090
   D20        0.00072   0.00000   0.00000   0.00023   0.00022   0.00095
   D21       -1.03997   0.00130   0.00000   0.00757   0.00757  -1.03240
   D22        2.10142   0.00135   0.00000   0.00803   0.00803   2.10945
   D23        1.03950  -0.00131   0.00000  -0.00781  -0.00781   1.03169
   D24       -2.10230  -0.00126   0.00000  -0.00734  -0.00735  -2.10965
   D25       -0.00023   0.00004   0.00000   0.00034   0.00035   0.00012
   D26        3.14095   0.00005   0.00000   0.00050   0.00050   3.14146
   D27        3.14157  -0.00001   0.00000  -0.00012  -0.00012   3.14145
   D28       -0.00043   0.00001   0.00000   0.00004   0.00004  -0.00040
   D29       -3.14146  -0.00021   0.00000  -0.00194  -0.00194   3.13979
   D30        0.00014  -0.00022   0.00000  -0.00203  -0.00203  -0.00189
   D31       -0.00029  -0.00020   0.00000  -0.00178  -0.00178  -0.00206
   D32        3.14131  -0.00020   0.00000  -0.00187  -0.00187   3.13944
   D33        0.18671  -0.00056   0.00000  -0.00579  -0.00582   0.18089
   D34       -2.95480  -0.00086   0.00000  -0.00860  -0.00857  -2.96337
   D35       -2.95489  -0.00055   0.00000  -0.00570  -0.00573  -2.96062
   D36        0.18679  -0.00085   0.00000  -0.00850  -0.00848   0.17831
   D37        3.14155  -0.00071   0.00000  -0.00663  -0.00660   3.13495
   D38       -0.00031  -0.00080   0.00000  -0.00745  -0.00743  -0.00774
   D39       -0.00012  -0.00042   0.00000  -0.00382  -0.00382  -0.00394
   D40        3.14121  -0.00050   0.00000  -0.00464  -0.00465   3.13656
   D41       -3.14145   0.00062   0.00000   0.00580   0.00585  -3.13560
   D42       -0.00003   0.00055   0.00000   0.00509   0.00515   0.00512
   D43        0.00022   0.00035   0.00000   0.00320   0.00322   0.00344
   D44       -3.14155   0.00027   0.00000   0.00248   0.00252  -3.13903
   D45       -0.00006   0.00012   0.00000   0.00107   0.00104   0.00098
   D46        3.14152   0.00019   0.00000   0.00174   0.00172  -3.13994
   D47       -3.14140   0.00020   0.00000   0.00185   0.00185  -3.13955
   D48        0.00018   0.00027   0.00000   0.00252   0.00253   0.00271
   D49       -0.00014   0.00002   0.00000   0.00020   0.00027   0.00013
   D50        3.14145   0.00005   0.00000   0.00042   0.00047  -3.14127
   D51       -3.14156   0.00010   0.00000   0.00090   0.00096  -3.14060
   D52        0.00003   0.00012   0.00000   0.00112   0.00116   0.00119
   D53       -0.00005  -0.00034   0.00000  -0.00307  -0.00304  -0.00309
   D54       -3.14157  -0.00011   0.00000  -0.00104  -0.00102   3.14060
   D55        3.14155  -0.00036   0.00000  -0.00329  -0.00324   3.13831
   D56        0.00003  -0.00014   0.00000  -0.00126  -0.00122  -0.00120
   D57        0.00014   0.00027   0.00000   0.00243   0.00241   0.00256
   D58       -3.14144   0.00019   0.00000   0.00176   0.00173  -3.13971
   D59       -3.14152   0.00004   0.00000   0.00035   0.00039  -3.14114
   D60        0.00009  -0.00003   0.00000  -0.00032  -0.00030  -0.00021
   D61       -0.71453   0.00274   0.00000   0.02722   0.02722  -0.68730
   D62        2.42698   0.00321   0.00000   0.03189   0.03190   2.45888
   D63        2.42705   0.00281   0.00000   0.02789   0.02789   2.45494
   D64       -0.71462   0.00328   0.00000   0.03256   0.03256  -0.68207
         Item               Value     Threshold  Converged?
 Maximum Force            0.124196     0.000450     NO 
 RMS     Force            0.016515     0.000300     NO 
 Maximum Displacement     0.259634     0.001800     NO 
 RMS     Displacement     0.057230     0.001200     NO 
 Predicted change in Energy=-3.675650D-02
 GradGradGradGradGradGradGradGradGradGradGradGradGradGradGradGradGradGrad

                          Input orientation:                          
 ---------------------------------------------------------------------
 Center     Atomic      Atomic             Coordinates (Angstroms)
 Number     Number       Type             X           Y           Z
 ---------------------------------------------------------------------
      1          6           0       11.939602    0.066269   -7.468852
      2          6           0       10.798693   -0.238246   -6.496857
      3          6           0       10.636351    0.886979   -5.478454
      4          7           0        9.545149    0.593861   -4.567622
      5          6           0        9.215793    1.463745   -3.570120
      6          8           0        9.823395    2.515074   -3.407863
      7          7           0        8.163228    1.081982   -2.766477
      8          6           0        7.638714    1.802982   -1.675539
      9          6           0        7.994662    3.123527   -1.386969
     10          6           0        6.712818    1.149885   -0.850375
     11          6           0        6.145109    1.798772    0.242856
     12          6           0        6.489634    3.111915    0.534476
     13          6           0        7.413263    3.756155   -0.286484
     14          1           0       12.039194   -0.739176   -8.208449
     15          1           0       12.893777    0.162467   -6.931309
     16          1           0       11.002999   -1.184742   -5.970705
     17          1           0        9.861925   -0.353418   -7.065675
     18          1           0       10.429016    1.833854   -6.000601
     19          1           0       11.567255    1.007062   -4.903152
     20          1           0        9.028446   -0.274392   -4.685957
     21          1           0        8.707157    3.668295   -1.990068
     22          1           0        6.427985    0.122801   -1.060338
     23          1           0        5.431187    1.277668    0.869829
     24          7           0        7.774164    5.100149    0.005435
     25          1           0        6.049015    3.621270    1.384576
     26          8           0        8.971893    5.453186   -0.132811
     27          8           0        6.882528    5.895128    0.398786
     28          1           0       11.741739    0.999520   -7.989667
     29          1           0        7.713591    0.205507   -2.963851
 ---------------------------------------------------------------------
                    Distance matrix (angstroms):
                    1          2          3          4          5
     1  C    0.000000
     2  C    1.529437   0.000000
     3  C    2.516686   1.526312   0.000000
     4  N    3.798538   2.446573   1.451294   0.000000
     5  C    4.957034   3.737397   2.447935   1.363886   0.000000
     6  O    5.192938   4.251336   2.756617   2.261310   1.225072
     7  N    6.115963   4.754410   3.675484   2.322088   1.378216
     8  C    7.421340   6.115324   4.928190   3.668870   2.488312
     9  C    7.867571   6.728674   5.359190   4.349687   3.002030
    10  C    8.502807   7.106619   6.073084   4.706292   3.709502
    11  C    9.800416   8.439728   7.330485   6.012718   4.907151
    12  C   10.150437   8.901192   7.635505   6.458187   5.195779
    13  C    9.256857   8.123121   6.751075   5.733514   4.391642
    14  H    1.098028   2.172400   3.473503   4.610084   5.859911
    15  H    1.099389   2.176854   2.780589   4.121459   5.149610
    16  H    2.164878   1.102013   2.160734   2.693956   3.996423
    17  H    2.157645   1.101977   2.158145   2.690344   3.992301
    18  H    2.749907   2.162528   1.100998   2.090989   2.741556
    19  H    2.757997   2.163648   1.100897   2.090987   2.741333
    20  H    4.041706   2.532675   2.135929   1.017275   2.073961
    21  H    7.310292   6.320343   4.860694   4.098556   2.759586
    22  H    8.452820   6.984925   6.149314   4.715893   3.983592
    23  H   10.647091   9.239923   8.218702   6.852601   5.837038
    24  N    9.927527   8.940136   7.484381   6.660020   5.299653
    25  H   11.212504   9.978592   8.696044   7.537694   6.263578
    26  O    9.573070   8.731018   7.224719   6.603727   5.271643
    27  O   11.020404  10.025194   8.585726   7.736807   6.390109
    28  H    1.086902   2.156359   2.746041   4.086559   5.111586
    29  H    6.178478   4.711359   3.915375   2.465260   2.051179
                    6          7          8          9         10
     6  O    0.000000
     7  N    2.285013   0.000000
     8  C    2.877647   1.408936   0.000000
     9  C    2.792578   2.469688   1.397788   0.000000
    10  C    4.252079   2.404110   1.401683   2.413777   0.000000
    11  C    5.231694   3.693599   2.431278   2.798598   1.392301
    12  C    5.197328   4.221118   2.813869   2.440736   2.411885
    13  C    4.134250   3.723441   2.407320   1.396177   2.757035
    14  H    6.208505   6.924940   8.276817   8.821072   9.277935
    15  H    5.232272   6.369413   7.611182   7.969248   8.726798
    16  H    4.652769   4.844524   6.220398   6.972941   7.076292
    17  H    4.648582   4.840356   6.216614   6.915455   7.127885
    18  H    2.748296   4.019785   5.147126   5.373541   6.387705
    19  H    2.747915   4.019750   5.146300   5.441175   6.325422
    20  H    3.169636   2.504547   3.912730   4.847462   4.701317
    21  H    2.141506   2.754575   2.172531   1.080810   3.408618
    22  H    4.771022   2.615723   2.160404   3.400812   1.086331
    23  H    6.254703   4.552478   3.409989   3.882233   2.148955
    24  N    4.746848   4.896992   3.703422   2.427848   4.178930
    25  H    6.199765   5.305575   3.898413   3.422682   3.397556
    26  O    4.481464   5.166968   4.181073   2.820497   4.912914
    27  O    5.879119   5.901309   4.649763   3.479588   4.909841
    28  H    5.193253   6.332003   7.572885   7.883376   8.733966
    29  H    3.159513   1.004658   2.053601   3.328722   2.521938
                   11         12         13         14         15
    11  C    0.000000
    12  C    1.388555   0.000000
    13  C    2.391603   1.393596   0.000000
    14  H   10.611596  11.048405  10.215908   0.000000
    15  H    9.984521  10.268897   9.332969   1.781674   0.000000
    16  H    8.432602   9.008280   8.343203   2.505939   2.512523
    17  H    8.477102   9.007950   8.297105   2.489025   3.078363
    18  H    7.571912   7.736886   6.741005   3.753365   3.120064
    19  H    7.517172   7.731781   6.791670   3.767899   2.566402
    20  H    6.074935   6.720533   6.181382   4.657100   4.491463
    21  H    3.878808   3.405920   2.141046   8.318446   7.364406
    22  H    2.141778   3.388516   3.843291   9.128207   8.733632
    23  H    1.083664   2.144116   3.377659  11.408266  10.853187
    24  N    3.689076   2.425485   1.421896  10.943313   9.935268
    25  H    2.152733   1.084554   2.161437  12.121133  11.312295
    26  O    4.635362   3.476842   2.309298  10.628717   9.465329
    27  O    4.165121   2.814081   2.307917  12.028703  11.078303
    28  H    9.986767  10.232685   9.256013   1.777473   1.774252
    29  H    3.909168   4.709943   4.457083   6.863606   6.525098
                   16         17         18         19         20
    16  H    0.000000
    17  H    1.786648   0.000000
    18  H    3.072828   2.498026   0.000000
    19  H    2.502410   3.071735   1.784255   0.000000
    20  H    2.525505   2.522695   2.852120   2.852166   0.000000
    21  H    6.683437   6.577952   4.734380   4.873231   4.787048
    22  H    6.837552   6.934176   6.583476   6.477749   4.479427
    23  H    9.159774   9.233856   8.514132   8.429227   6.798229
    24  N    9.254160   9.170645   7.334125   7.432034   7.243485
    25  H   10.086618  10.086782   8.770411   8.764735   7.804138
    26  O    9.070198   9.086991   7.046541   7.018552   7.317068
    27  O   10.376572  10.180339   8.368015   8.599442   8.277835
    28  H    3.064791   2.493573   2.525023   3.091452   4.460865
    29  H    4.668423   4.663979   4.387129   4.387950   2.219189
                   21         22         23         24         25
    21  H    0.000000
    22  H    4.316196   0.000000
    23  H    4.962467   2.460258   0.000000
    24  N    2.627302   5.265175   4.565970   0.000000
    25  H    4.296062   4.284917   2.477731   2.658054   0.000000
    26  O    2.589464   5.978694   5.565684   1.256305   3.768500
    27  O    3.740946   5.971215   4.863045   1.257669   2.614757
    28  H    7.233688   8.776117  10.880768   9.822346  11.276397
    29  H    3.731799   2.298474   4.588681   5.725194   5.774692
                   26         27         28         29
    26  O    0.000000
    27  O    2.200762   0.000000
    28  H    9.446554  10.860251   0.000000
    29  H    6.093951   6.661063   6.489628   0.000000
 Stoichiometry    C10H13N3O3
 Framework group  C1[X(C10H13N3O3)]
 Deg. of freedom    81
 Full point group                 C1      NOp   1
 Largest Abelian subgroup         C1      NOp   1
 Largest concise Abelian subgroup C1      NOp   1
                         Standard orientation:                         
 ---------------------------------------------------------------------
 Center     Atomic      Atomic             Coordinates (Angstroms)
 Number     Number       Type             X           Y           Z
 ---------------------------------------------------------------------
      1          6           0        6.347429   -0.877213    0.028421
      2          6           0        5.234144    0.168696    0.104888
      3          6           0        3.861552   -0.487402   -0.018230
      4          7           0        2.812004    0.511402    0.066000
      5          6           0        1.498834    0.152866   -0.018974
      6          8           0        1.160037   -1.014949   -0.168055
      7          7           0        0.589611    1.184456    0.073853
      8          6           0       -0.813472    1.071515    0.013014
      9          6           0       -1.486668   -0.152740    0.055645
     10          6           0       -1.556324    2.255496   -0.092218
     11          6           0       -2.947099    2.225690   -0.150169
     12          6           0       -3.624320    1.014352   -0.104145
     13          6           0       -2.881586   -0.160488   -0.003120
     14          1           0        7.330584   -0.399960    0.134727
     15          1           0        6.320978   -1.404147   -0.936098
     16          1           0        5.363394    0.907011   -0.702959
     17          1           0        5.301096    0.696161    1.070109
     18          1           0        3.727708   -1.223672    0.789352
     19          1           0        3.784737   -1.014501   -0.981682
     20          1           0        3.073146    1.486777    0.189683
     21          1           0       -0.958951   -1.092887    0.131722
     22          1           0       -1.047372    3.214527   -0.128879
     23          1           0       -3.504666    3.151321   -0.231750
     24          7           0       -3.565995   -1.406003    0.042329
     25          1           0       -4.707634    0.986831   -0.148084
     26          8           0       -3.086264   -2.387835   -0.577483
     27          8           0       -4.635708   -1.485906    0.698881
     28          1           0        6.223145   -1.607540    0.823740
     29          1           0        0.945038    2.115980    0.197429
 ---------------------------------------------------------------------
[...]
 000017,-0.00000197,0.00000764,0.00000363,0.00014737,-0.00005107,0.0001
 9932,0.00109086,0.00012586,0.00130395,0.11123073,0.12991687,-0.0000035
 8,-0.00001562,-0.00000504,0.00002225,0.00002696,-0.00000553,-0.0000653
 4,-0.00005434,0.00002793,0.00021995,-0.00003078,-0.00020297,-0.0005012
 6,-0.00030940,0.00001407,0.00012847,0.00011388,-0.00000683,0.00123625,
 0.00081590,-0.00064215,0.00375527,-0.00432927,-0.00022513,-0.00050510,
 -0.00065980,-0.00069006,0.01644728,0.01349832,-0.00926473,0.11734425,0
 .07475426,-0.14170346,-0.00613529,-0.00490933,0.00865746,0.00205647,-0
 .00298326,0.00253888,0.00000603,-0.00000233,-0.00000695,-0.00000063,0.
 00000172,0.00000129,-0.00000041,-0.00000086,0.00000203,-0.00000416,-0.
 00000217,-0.00000226,0.00000986,0.00000799,-0.00001384,0.00000226,0.00
 000354,-0.00000209,0.00000590,0.00002925,0.00001690,-0.00026128,0.0001
 7660,-0.00020507,-0.00228961,0.00094868,-0.00081926,-0.12923305,-0.077
 95495,0.14306437,0.00001786,0.00002690,0.00000447,-0.00004733,-0.00003
 013,0.00004852,0.00019775,0.00017313,-0.00015031,-0.00060682,-0.000348
 55,0.00042940,0.00364366,0.00279194,-0.00130765,-0.00147552,-0.0022976
 9,-0.00017055,-0.00170598,0.00089437,0.00274951,0.00506788,0.00067537,
 0.00569315,0.00853123,0.00890327,-0.00856151,-0.00278245,0.00086397,0.
 00171992,0.00063134,-0.00422373,0.00793242,-0.00546621,-0.02265495,-0.
 01035228,-0.09561811,-0.01454460,0.01202776,-0.00000906,-0.00001492,0.
 00000140,-0.00002260,0.00000976,-0.00000536,0.00001844,-0.00002396,0.0
 0000075,-0.00001982,-0.00000990,-0.00002607,-0.00002187,-0.00002207,0.
 00010810,-0.00004867,0.00002970,0.00001719,-0.00001120,-0.00003578,-0.
 00014539,-0.00397925,0.00217922,0.00009625,-0.00073423,0.00024755,-0.0
 0013803,0.00025881,-0.00118320,-0.00020114,0.57831501,0.00005309,0.000
 13330,0.00001660,-0.00011901,-0.00019090,0.00005558,0.00083302,0.00029
 085,-0.00054676,-0.00150719,0.00095253,0.00186722,0.00495149,0.0013953
 5,-0.00400152,-0.00225316,-0.00129734,0.00125935,-0.00421427,0.0001969
 0,0.00446664,0.00281806,0.00394932,-0.00694271,0.00323507,-0.02670738,
 -0.01890998,0.00064810,0.00105356,0.00086623,-0.00382375,0.00598822,0.
 00319671,-0.01648775,-0.02886413,0.00499627,-0.01487136,-0.13055708,-0
 .01187991,-0.00005689,0.00002709,0.00007152,-0.00002792,-0.00001743,-0
 .00002437,0.00003204,-0.00001791,-0.00000723,-0.00000927,0.00001746,-0
 .00001665,-0.00011426,-0.00009781,0.00022026,-0.00004590,-0.00001701,0
 .00001839,0.00000808,-0.00023088,-0.00015358,0.00035181,0.00001682,0.0
 0256354,0.00022836,-0.00013162,0.00026105,0.00022266,0.00041021,-0.000
 43378,0.13430984,0.65300603,0.00001555,0.00005016,0.00001651,-0.000009
 08,-0.00008488,-0.00002785,0.00025662,-0.00002588,-0.00016249,-0.00007
 386,0.00106439,0.00066324,-0.00153974,-0.00278165,-0.00080403,0.000443
 03,0.00221654,0.00094712,0.00038242,-0.00102261,-0.00037188,0.00666402
 ,-0.00440200,-0.00221098,-0.01218379,-0.02600354,-0.00270905,0.0017592
 3,0.00054825,-0.00362180,0.00821087,0.00395672,0.00080280,-0.00695463,
 0.01228982,0.01373523,0.01146565,-0.01248268,-0.10167555,-0.00002373,0
 .00003668,0.00004391,0.00000741,-0.00002571,-0.00000932,-0.00000502,0.
 00002780,-0.00000685,0.00001308,0.00002080,0.00002126,-0.00004738,-0.0
 0002536,-0.00001508,0.00003295,-0.00005470,-0.00001940,0.00000290,-0.0
 0012598,0.00011784,-0.00054186,0.00016346,-0.00378815,-0.00014517,0.00
 020715,-0.00066371,0.00066227,0.00131819,0.00066316,-0.37841200,0.0828
 8848,0.78852206,0.00000077,0.00000106,0.00000024,0.00000324,-0.0000012
 4,0.00000145,0.00002268,-0.00000268,0.00000695,0.00005314,0.00001944,0
 .00007009,-0.00021794,-0.00010744,-0.00012054,-0.00002915,0.00016353,0
 .00002469,-0.00015569,0.00031614,-0.00050979,-0.00075598,-0.00042695,-
 0.00033574,0.00039927,-0.00444948,0.00331553,0.00345553,-0.00368499,0.
 00219582,0.00792880,-0.00453383,-0.00827519,-0.09342954,0.04949758,0.1
 0311117,-0.00358663,0.01092590,0.01640737,-0.00000033,-0.00000011,0.00
 000056,-0.00000129,-0.00000053,-0.00000032,-0.00000042,0.00000203,0.00
 000011,-0.00000186,-0.00000044,-0.00000062,-0.00000465,0.00000237,-0.0
 0000091,-0.00000086,-0.00000417,-0.00000707,0.00000124,-0.00000614,0.0
 0002477,0.00036595,0.00047315,0.00100125,0.00029465,-0.00030168,-0.000
 40802,-0.00205385,0.00160758,-0.00187058,-0.00353160,0.00272067,0.0006
 5627,0.08933671,0.00000198,0.00000562,0.00000091,-0.00000447,-0.000008
 65,0.00000046,0.00002924,0.00000993,-0.00002861,-0.00005715,0.00011374
 ,0.00007046,0.00008803,-0.00015049,-0.00016792,-0.00008444,0.00013761,
 0.00018106,0.00017231,0.00020074,0.00040234,-0.00035541,-0.00128528,0.
 00015142,-0.00386253,-0.00101472,0.00118395,-0.00377169,-0.00346803,-0
 .00164958,0.01202714,-0.00705884,-0.02196562,0.05080313,-0.11983734,-0
 .11626232,-0.00473337,0.01212745,0.01102587,-0.00000241,0.00000115,0.0
 0000292,-0.00000031,-0.00000056,-0.00000105,0.00000067,-0.00000081,-0.
 00000035,0.00000063,0.00000157,0.00000100,-0.00000323,-0.00000583,0.00
 000838,0.00000106,0.00000100,0.00000329,-0.00000393,-0.00001215,0.0000
 0150,-0.00033804,0.00078958,0.00044029,0.00055927,-0.00043499,-0.00104
 858,0.00126579,0.00046680,0.00135089,0.00082189,0.00002293,0.00177848,
 -0.05162280,0.12324673,0.00000062,0.00000113,0.00000095,-0.00000120,-0
 .00000257,0.00000032,0.00001850,-0.00000627,0.00000640,-0.00001622,-0.
 00002336,0.00005713,0.00024283,0.00034760,-0.00017569,0.00001819,-0.00
 025167,-0.00018958,-0.00053671,0.00026723,0.00014543,-0.00043212,0.000
 30283,-0.00017814,0.00371599,0.00162996,0.00137275,0.00209778,-0.00158
 700,0.00326004,0.00192186,-0.00088347,0.00062623,0.10403938,-0.1146369
 9,-0.24019298,0.00656375,-0.00876186,-0.00981064,-0.00000042,0.0000004
 6,0.00000086,-0.00000076,-0.00000056,-0.00000027,-0.00000004,0.0000011
 2,-0.00000069,-0.00000063,-0.00000118,-0.00000134,-0.00000604,0.000003
 43,0.00000439,-0.00000491,-0.00000144,-0.00000264,0.00000071,-0.000017
 62,0.00000670,0.00034863,-0.00065458,-0.00004550,0.00012455,0.00006624
 ,0.00000110,-0.00208765,0.00089337,-0.00107439,-0.00066035,-0.00090559
 ,-0.00418135,-0.11291244,0.12607641,0.24795613,-0.00001332,-0.00001885
 ,-0.00000296,0.00003211,0.00001978,-0.00003150,-0.00015390,-0.00009691
 ,0.00007662,0.00042142,0.00020566,-0.00027471,-0.00239961,-0.00181555,
 0.00085696,0.00112321,0.00140172,0.00008296,0.00160130,-0.00014613,-0.
 00167556,-0.00082910,0.00031759,0.00019108,-0.00089875,0.00225755,0.00
 469966,0.00018805,0.00011739,0.00023727,-0.00099888,-0.00095178,-0.000
 95751,0.00341366,-0.00252297,-0.00185131,-0.00918146,-0.03148138,0.017
 37793,0.00000674,0.00000980,-0.00000127,0.00001729,-0.00000632,0.00000
 431,-0.00001255,0.00001337,-0.00000107,0.00001511,0.00000827,0.0000184
 9,0.00001390,0.00001399,-0.00006737,0.00003604,-0.00002374,-0.00001412
 ,-0.00000209,0.00003093,0.00009069,0.00041734,-0.00097891,-0.00127882,
 0.00015502,-0.00005460,-0.00017554,-0.00033893,-0.00029055,-0.00026080
 ,-0.30871683,-0.17675942,0.19973396,0.00105045,0.00086388,-0.00018264,
 0.34577723,-0.00002498,-0.00006684,-0.00000605,0.00006192,0.00009270,-
 0.00003905,-0.00040812,-0.00017739,0.00028605,0.00078587,-0.00039912,-
 0.00094135,-0.00281344,-0.00099072,0.00211209,0.00136422,0.00092220,-0
 .00071205,0.00197053,-0.00031327,-0.00240654,-0.00105466,0.00181089,0.
 00308985,-0.00249194,-0.00425382,-0.00026550,-0.00084480,-0.00049777,0
 .00057180,-0.00141898,-0.00266429,0.00085583,0.00207262,-0.00423319,-0
 .00698671,-0.04252362,-0.03060810,0.02581406,0.00002687,-0.00000642,-0
 .00003066,0.00001680,0.00000387,0.00001169,-0.00001807,0.00001619,0.00
 000232,0.00000769,-0.00000703,0.00001218,0.00005431,0.00005183,-0.0001
 2794,0.00002824,-0.00000065,-0.00001229,0.00000375,0.00009918,0.000092
 61,-0.00220402,-0.00437817,0.00016387,-0.00007591,-0.00018949,-0.00006
 675,-0.00016108,-0.00092594,-0.00015742,-0.17207256,-0.25167131,0.1218
 9889,0.00005256,0.00055713,0.00007392,0.21134545,0.24901577,-0.0000058
 0,-0.00001247,-0.00000926,-0.00000390,0.00002603,0.00002081,-0.0000631
 4,0.00004463,0.00002179,-0.00006379,-0.00042659,-0.00017350,0.00110212
 ,0.00150983,0.00010360,-0.00031768,-0.00118300,-0.00028551,-0.00071627
 ,-0.00005048,0.00076485,-0.00056386,0.00137376,0.00070235,0.00185181,-
 0.00667115,-0.00461924,-0.00042269,-0.00063342,0.00042165,-0.00113313,
 0.00029827,0.00041679,0.00088272,-0.00100462,0.00137150,0.01084255,0.0
 1130284,0.01145207,0.00000757,-0.00001617,-0.00001604,-0.00000509,0.00
 001150,0.00000277,0.00000607,-0.00001896,0.00000259,-0.00000667,-0.000
 00728,-0.00001133,0.00001452,0.00000203,0.00003268,-0.00001819,0.00002
 488,0.00000923,-0.00000501,0.00005543,-0.00006496,-0.00213291,-0.00134
 772,0.00167689,-0.00018567,-0.00007451,0.00024376,-0.00015362,0.000072
 44,-0.00014378,0.20215304,0.12790188,-0.26837434,-0.00082447,-0.001096
 49,0.00072321,-0.29300738,-0.14552058,0.32957806,-0.00000336,0.0000010
 8,-0.00000035,0.00001032,-0.00000455,-0.00001656,-0.00000875,-0.000052
 15,0.00002334,0.00013158,0.00022366,-0.00001334,-0.00114663,-0.0011132
 2,0.00025211,0.00044804,0.00089788,0.00015461,0.00061342,-0.00009328,-
 0.00095091,-0.00034735,0.00055560,-0.00051980,0.00104279,-0.00153272,0
 .00077198,0.00056253,-0.00052800,-0.00074715,0.00082002,0.00144899,-0.
 00086727,-0.00322415,-0.00589615,0.00225740,0.01694473,0.00341988,0.00
 524680,-0.00000148,0.00000970,0.00000623,0.00000804,-0.00000646,0.0000
 0075,-0.00000556,0.00000988,-0.00000108,0.00000905,0.00000640,0.000010
 77,-0.00000279,0.00000039,-0.00003138,0.00001818,-0.00001738,-0.000006
 87,0.00000180,-0.00000276,0.00004176,0.00048491,-0.00101671,-0.0005017
 4,0.00011482,-0.00006307,-0.00021686,0.00003642,0.00012384,0.00005748,
 -0.17180124,0.06971509,0.16955629,0.00082318,-0.00167301,-0.00229370,-
 0.03069524,0.00832678,0.08271388,0.18521105,-0.00002921,-0.00007235,-0
 .00001380,0.00005982,0.00011117,-0.00001687,-0.00044474,-0.00012414,0.
 00028938,0.00074579,-0.00067777,-0.00104921,-0.00209301,-0.00012037,0.
 00213072,0.00090049,0.00017362,-0.00066047,0.00140139,-0.00103958,-0.0
 0205264,-0.00055310,-0.00149073,0.00042397,-0.00560245,-0.00436589,0.0
 0294527,0.00091662,-0.00068370,-0.00163519,0.00104812,0.00071443,-0.00
 053003,-0.00113492,-0.00461641,-0.00233526,0.01441508,-0.02696525,-0.0
 4809893,0.00003227,-0.00002234,-0.00004410,0.00000905,0.00001503,0.000
 01268,-0.00001257,-0.00000018,0.00000580,-0.00000169,-0.00001384,0.000
 00068,0.00006796,0.00005056,-0.00009688,0.00001362,0.00002427,-0.00000
 616,0.00000111,0.00014283,0.00005807,-0.00026385,0.00050970,0.00020545
 ,0.00001090,-0.00016450,-0.00012060,-0.00015805,-0.00016530,0.00006600
 ,0.06546359,-0.22748086,-0.18129020,-0.00063653,-0.00440899,-0.0018839
 2,-0.00148522,0.04875561,0.01544773,-0.07277898,0.22191368,-0.00001783
 ,-0.00004695,-0.00001444,0.00002376,0.00007821,0.00001030,-0.00025573,
 -0.00002333,0.00016732,0.00027657,-0.00072587,-0.00065399,0.00019443,0
 .00140270,0.00105203,-0.00004074,-0.00106731,-0.00056907,-0.00027628,-
 0.00046017,-0.00021913,-0.00106524,-0.00102604,-0.00015043,-0.00184794
 ,-0.00226186,0.00316920,0.00005548,0.00016400,0.00018666,-0.00109871,-
 0.00119126,0.00017132,0.00535963,0.00408868,-0.00293583,0.01218039,-0.
 03364341,-0.01778230,0.00002193,-0.00002668,-0.00003660,-0.00000233,0.
 00001911,0.00000819,-0.00000047,-0.00001717,0.00000575,-0.00000840,-0.
 00001559,-0.00001171,0.00004628,0.00002678,-0.00001538,-0.00001378,0.0
 0004113,0.00000691,-0.00000607,0.00010712,-0.00003218,-0.00012827,0.00
 141818,0.00134644,-0.00017883,-0.00000834,0.00018391,-0.00011187,-0.00
 026669,-0.00000354,0.16696126,-0.18669021,-0.41656584,-0.00164892,-0.0
 0054521,0.00164471,0.07641335,0.00230011,-0.07383308,-0.25487312,0.218
 37458,0.50497432,-0.06652857,0.05328020,-0.04166068,0.00685116,-0.0208
 3842,0.01613611,0.00081447,-0.00118575,-0.00013949,-0.00015033,0.00030
 079,-0.00031912,0.00003079,0.00006861,-0.00014956,0.00002635,0.0000182
 3,0.00004099,-0.00000197,-0.00003917,-0.00002228,0.00000440,0.00000646
 ,0.00000483,-0.00000299,0.00000002,0.00000003,0.00000054,-0.00000317,-
 0.00000322,-0.00000081,0.00000181,0.00000045,-0.00000001,-0.00000128,-
 0.00000017,0.00000010,0.00000002,0.00000005,-0.00250637,0.00335011,-0.
 00342276,-0.00651277,0.02289228,-0.01526399,-0.00354072,-0.00078610,0.
 00400966,0.00111843,-0.00015016,-0.00085890,-0.00003260,0.00054216,-0.
 00013793,-0.00002989,0.00022256,-0.00003621,0.00010237,-0.00015612,0.0
 0006853,0.00000289,0.00000142,-0.00000045,0.00000111,-0.00000061,0.000
 00052,0.00000007,-0.00000026,0.00000006,0.00000683,0.00000812,-0.00000
 413,0.00000037,0.00000030,0.00000014,-0.00000451,-0.00000555,0.0000025
 5,-0.00000260,-0.00000232,0.00000224,0.07034694,0.05298165,-0.20851700
 ,0.12159230,0.00107368,-0.00520464,0.00344502,0.00022987,0.00057406,-0
 .00089514,-0.00007172,0.00031034,-0.00014119,0.00006785,-0.00006395,-0
 .00024036,-0.00003537,0.00007215,0.00010512,-0.00011423,0.00003935,0.0
 0014778,0.00003775,-0.00007062,-0.00008008,-0.00000292,0.00002613,0.00
 001453,-0.00001701,0.00000524,0.00001896,0.00000084,0.00000208,-0.0000
 0417,-0.00001022,0.00000358,0.00001397,0.00000755,-0.00000168,-0.00000
 742,0.00674955,-0.01930908,0.01622098,-0.00175282,0.00722778,-0.005878
 52,-0.00135277,0.00085026,0.00031597,-0.00027143,-0.00008049,-0.000109
 61,0.00000551,0.00048641,0.00036053,-0.00010334,-0.00005986,-0.0000257
 1,0.00006668,-0.00011361,0.00004076,0.00000645,-0.00001159,-0.00000624
 ,0.00000542,0.00000067,-0.00000024,-0.00000076,-0.00000049,0.00000267,
 -0.00000283,-0.00003814,-0.00001641,0.00000051,-0.00000173,0.00000033,
 0.00000132,0.00001771,0.00000393,-0.00000276,0.00002183,0.00001452,-0.
 05751534,0.22384207,-0.04107048,0.12133390,-0.14179769,-0.00586731,0.0
 1648313,-0.01361889,-0.00084916,0.00173251,-0.00010255,0.00008151,-0.0
 0083945,0.00045175,0.00008802,0.00005117,0.00011466,-0.00006660,-0.000
 15179,-0.00000907,-0.00004894,0.00001196,0.00002054,-0.00000882,-0.000
 00345,-0.00001196,0.00000753,0.00000278,0.00000564,0.00000343,0.000005
 85,0.00000114,0.00000051,-0.00000036,0.00000328,-0.00000126,-0.0000018
 1,0.00000117,-0.00000188,-0.00000621,-0.00000609,0.00522005,-0.0152436
 0,0.01308090,-0.00342185,0.01238962,-0.00960221,0.00390910,0.00028282,
 -0.00188060,-0.00009858,-0.00052104,0.00092210,0.00054839,-0.00084359,
 -0.00023174,0.00000693,-0.00000849,-0.00003825,-0.00016432,0.00019239,
 0.00003239,0.00000063,0.00000529,-0.00000861,-0.00000366,-0.00000145,-
 0.00000158,-0.00000145,0.00000030,0.00000039,0.00002160,0.00001835,-0.
 00002086,-0.00000058,0.00000074,-0.00000072,-0.00001379,-0.00001558,0.
 00001377,-0.00000879,-0.00000144,0.00001249,0.04174842,-0.13488976,0.1
 5266630,-0.00003379,-0.00004402,-0.00003372,0.00012921,0.00007685,0.00
 006304,-0.00102713,0.00059804,-0.00002572,0.00082712,0.00219012,-0.001
 46455,-0.00945866,-0.02773434,-0.01074387,-0.00335215,-0.00212587,0.00
 622849,-0.08708535,-0.13755343,0.01148454,0.00499013,0.01314436,-0.001
 09322,-0.00054865,0.00142863,0.00377467,0.00026528,0.00307969,0.000393
 88,-0.00081459,0.00011101,-0.00020510,-0.00024327,-0.00028201,0.000246
 45,0.00123187,-0.00005540,-0.00017693,0.00002987,-0.00001689,-0.000025
 03,-0.00000089,0.00000233,0.00000753,-0.00005003,0.00003823,0.00001157
 ,-0.00003325,0.00000273,-0.00000674,0.00033813,0.00013576,-0.00040817,
 0.00007419,-0.00006352,-0.00002776,0.00079851,-0.00097140,0.00190321,-
 0.00026604,-0.00001818,-0.00014139,-0.00015299,-0.00109467,0.00074706,
 -0.00000981,-0.00000541,0.00004045,-0.00009004,0.00015465,0.00007787,0
 .00003380,-0.00012254,0.00004289,-0.00002371,0.00000015,0.00005243,-0.
 00004176,0.00011081,0.00003923,0.00000731,0.00001891,-0.00000866,0.094
 50668,0.00000116,-0.00007567,-0.00002911,0.00008508,0.00012405,-0.0000
 5665,-0.00049952,-0.00007919,0.00041212,0.00219374,-0.00046069,-0.0013
 3603,0.00067074,-0.00529992,-0.00068226,-0.00060044,0.00272284,-0.0004
 6650,-0.14710974,-0.39157345,-0.05953342,-0.00387734,-0.01457997,-0.00
 179348,0.00113903,0.00146606,-0.00161244,-0.00080629,0.00205806,0.0028
 2153,0.00031512,-0.00060200,-0.00031678,0.00006543,0.00055619,0.000212
 72,-0.00098354,-0.00039711,0.00018646,0.00002052,-0.00000267,-0.000026
 13,-0.00000272,0.00000439,0.00000377,0.00003799,-0.00003129,0.00002782
 ,-0.00002140,0.00002652,0.00000007,0.00001710,-0.00001173,-0.00005862,
 0.00013149,0.00004583,0.00001860,-0.00001730,0.00147460,-0.00013545,-0
 .00002296,0.00000349,0.00024264,0.00018383,0.00031951,-0.00052697,-0.0
 0004510,0.00000388,0.00004664,0.00007437,-0.00014078,-0.00012424,-0.00
 000352,0.00000641,-0.00004595,0.00002562,0.00004045,-0.00001175,0.0000
 4205,-0.00002052,-0.00001901,-0.00000883,-0.00000680,0.00001718,0.1489
 9542,0.40442952,-0.00000557,0.00003569,-0.00002172,0.00001141,-0.00005
 683,0.00011508,-0.00065680,0.00027310,-0.00074464,0.00146263,-0.002231
 91,-0.00205017,-0.00386190,0.02108675,0.00914985,0.00681250,-0.0000225
 2,-0.00026134,0.01592184,-0.05177497,-0.05231117,-0.01286977,-0.026912
 18,-0.00352492,0.00339697,-0.00135728,-0.00370988,-0.00202697,-0.00197
 800,0.00034656,-0.00021787,0.00031695,-0.00047374,0.00020605,0.0002298
 2,-0.00006193,-0.00028070,-0.00091994,0.00112562,-0.00000623,-0.000000
 26,0.00001880,-0.00002648,-0.00000997,0.00000535,0.00000818,0.00001442
 ,0.00000611,-0.00003966,-0.00001743,-0.00007826,0.00006467,0.00001794,
 -0.00002613,-0.00035206,-0.00009576,0.00027055,0.00154003,-0.00035630,
 -0.00302030,-0.00002334,0.00012585,-0.00021735,0.00146036,0.00102549,-
 0.00041612,-0.00000258,0.00001642,0.00003060,0.00016593,-0.00015578,-0
 .00030460,0.00009892,0.00008535,0.00004759,0.00001305,0.00000322,-0.00
 002734,-0.00004449,-0.00012462,-0.00011604,0.00000431,-0.00000250,0.00
 000430,-0.01075244,0.06278524,0.05624526\\-0.00000103,-0.00000101,0.00
 000253,-0.00000007,0.00000261,-0.00000080,0.00000952,0.00000236,-0.000
 01318,-0.00000406,-0.00000474,0.00001034,0.00000832,-0.00000422,0.0000
 0171,-0.00000383,0.00000248,0.00000031,-0.00000762,0.00000712,0.000004
 50,0.00000526,-0.00000606,-0.00000595,-0.00000403,0.00000333,0.0000074
 0,-0.00000087,0.00000027,-0.00000012,-0.00000242,0.00000180,0.00000040
 ,-0.00000378,-0.00000666,0.00000245,0.00000412,0.00000286,-0.00000472,
 -0.00000084,-0.00000008,-0.00000115,0.00000107,-0.00000140,0.00000026,
 -0.00000034,0.00000007,0.00000035,-0.00000042,-0.00000082,-0.00000022,
 -0.00000024,0.00000009,0.00000183,-0.00000108,-0.00000039,0.00000133,-
 0.00000151,-0.00000128,-0.00000447,0.00000261,-0.00000182,-0.00000197,
 -0.00000115,0.00000036,-0.00000059,-0.00000113,0.00000055,-0.00000121,
 0.00000331,0.00000149,-0.00000040,0.00000027,0.00000046,-0.00000128,-0
 .00000198,-0.00000485,0.00000344,0.00000208,0.00000285,0.00000145,0.00
 000159,0.00000024,0.00000112,-0.00000177,0.00000436,-0.00000336\\\@


 AN OPTIMIST IS A GUY
 THAT HAS NEVER HAD
 MUCH EXPERIENCE
   (CERTAIN MAXIMS OF ARCHY  -- DON MARQUIS)
 Job cpu time:       0 days  2 hours 15 minutes 19.4 seconds.
 File lengths (MBytes):  RWF=    336 Int=      0 D2E=      0 Chk=      9 Scr=      1
 Normal termination of Gaussian 09 at Tue Feb  5 13:09:30 2019.
WARNING: pbs_rusage is deprecated and values produced may not be accurate


=============================================================================
                                     Resource usage:
                                       CPU time:              13:53:25
   JobId:    5387201.r-man2            Elapsed time:          03:29:36
   Project:             q95            Requested time:        32:00:00
   Service Units:     13.97 
                                       Max physical memory:      563MB
                                       Max virtual memory:      1171MB
                                       Requested memory:           0MB

                                       Number of cpus:               4

                                       Max jobfs disk use:       0.3GB
                                       Requested jobfs:         16.0GB
=============================================================================

