 Entering Gaussian System, Link 0=/apps/gaussian/g09e01/g09/g09
 AtFile(1): /home/507/hio507/Basis/6-31pGd.gbs
 Initial command:
 /apps/gaussian/g09e01/g09/l1.exe "/jobfs/local/5387202.r-man2/Gau-47249.inp" -scrdir="/jobfs/local/5387202.r-man2/"
 Entering Link 1 = /apps/gaussian/g09e01/g09/l1.exe PID=     47250.
  
 Copyright (c) 1988,1990,1992,1993,1995,1998,2003,2009,2015,
            Gaussian, Inc.  All Rights Reserved.
  
 This is part of the Gaussian(R) 09 program.  It is based on
 the Gaussian(R) 03 system (copyright 2003, Gaussian, Inc.),
 the Gaussian(R) 98 system (copyright 1998, Gaussian, Inc.),
 the Gaussian(R) 94 system (copyright 1995, Gaussian, Inc.),
 the Gaussian 92(TM) system (copyright 1992, Gaussian, Inc.),
 the Gaussian 90(TM) system (copyright 1990, Gaussian, Inc.),
 the Gaussian 88(TM) system (copyright 1988, Gaussian, Inc.),
 the Gaussian 86(TM) system (copyright 1986, Carnegie Mellon
 University), and the Gaussian 82(TM) system (copyright 1983,
 Carnegie Mellon University). Gaussian is a federally registered
 trademark of Gaussian, Inc.
  
 This software contains proprietary and confidential information,
 including trade secrets, belonging to Gaussian, Inc.
  
 This software is provided under written license and may be
 used, copied, transmitted, or stored only in accord with that
 written license.
  
 The following legend is applicable only to US Government
 contracts under FAR:
  
                    RESTRICTED RIGHTS LEGEND
  
 Use, reproduction and disclosure by the US Government is
 subject to restrictions as set forth in subparagraphs (a)
 and (c) of the Commercial Computer Software - Restricted
 Rights clause in FAR 52.227-19.
  
 Gaussian, Inc.
 340 Quinnipiac St., Bldg. 40, Wallingford CT 06492
  
  
 ---------------------------------------------------------------
 Warning -- This program may not be used in any manner that
 competes with the business of Gaussian, Inc. or will provide
 assistance to any competitor of Gaussian, Inc.  The licensee
 of this program is prohibited from giving any competitor of
 Gaussian, Inc. access to this program.  By using this program,
 the user acknowledges that Gaussian, Inc. is engaged in the
 business of creating and licensing software in the field of
 computational chemistry and represents and warrants to the
 licensee that it is not a competitor of Gaussian, Inc. and that
 it will not use this program in any manner prohibited above.
 ---------------------------------------------------------------
  

 Cite this work as:
 Gaussian 09, Revision E.01,
 M. J. Frisch, G. W. Trucks, H. B. Schlegel, G. E. Scuseria, 
 M. A. Robb, J. R. Cheeseman, G. Scalmani, V. Barone, B. Mennucci, 
 G. A. Petersson, H. Nakatsuji, M. Caricato, X. Li, H. P. Hratchian, 
 A. F. Izmaylov, J. Bloino, G. Zheng, J. L. Sonnenberg, M. Hada, 
 M. Ehara, K. Toyota, R. Fukuda, J. Hasegawa, M. Ishida, T. Nakajima, 
 Y. Honda, O. Kitao, H. Nakai, T. Vreven, J. A. Montgomery, Jr., 
 J. E. Peralta, F. Ogliaro, M. Bearpark, J. J. Heyd, E. Brothers, 
 K. N. Kudin, V. N. Staroverov, T. Keith, R. Kobayashi, J. Normand, 
 K. Raghavachari, A. Rendell, J. C. Burant, S. S. Iyengar, J. Tomasi, 
 M. Cossi, N. Rega, J. M. Millam, M. Klene, J. E. Knox, J. B. Cross, 
 V. Bakken, C. Adamo, J. Jaramillo, R. Gomperts, R. E. Stratmann, 
 O. Yazyev, A. J. Austin, R. Cammi, C. Pomelli, J. W. Ochterski, 
 R. L. Martin, K. Morokuma, V. G. Zakrzewski, G. A. Voth, 
 P. Salvador, J. J. Dannenberg, S. Dapprich, A. D. Daniels, 
 O. Farkas, J. B. Foresman, J. V. Ortiz, J. Cioslowski, 
 and D. J. Fox, Gaussian, Inc., Wallingford CT, 2013.
 
 ******************************************
 Gaussian 09:  ES64L-G09RevE.01 30-Nov-2015
                 5-Feb-2019 
 ******************************************
 %chk=3Nitro_a1.M062X_6-31pGd_opt.chk
 %mem=196608000
 %nproc=4
 Will use up to    4 processors via shared memory.
 ----------------------------------------------------------------------
 # M062X/Gen 6D SCF=Tight INT(grid=ultrafine) OPT IOP(2/17=4) maxdisk=2
 147483648
 ----------------------------------------------------------------------
 1/14=-1,18=20,19=15,26=4,38=1/1,3;
 2/9=110,12=2,17=4,18=5,40=1/2;
 3/5=7,8=2,11=2,16=1,25=1,30=1,71=1,74=-55,75=-5/1,2,3;
 4//1;
 5/5=2,32=2,38=5/2;
 6/7=2,8=2,9=2,10=2,28=1/1;
 7//1,2,3,16;
 1/14=-1,18=20,19=15,26=4/3(2);
 2/9=110,17=4/2;
 99//99;
 2/9=110,17=4/2;
 3/5=7,6=1,8=2,11=2,16=1,25=1,30=1,71=1,74=-55,75=-5,82=7/1,2,3;
 4/5=5,16=3,69=1/1;
 5/5=2,32=2,38=5/2;
 7//1,2,3,16;
 1/14=-1,18=20,19=15,26=4/3(-5);
 2/9=110,17=4/2;
 6/7=2,8=2,9=2,10=2,19=2,28=1/1;
 99/9=1/99;
 ---------------------------
 3Nitro_a1.M062X_6-31pGd_opt
 ---------------------------
 Symbolic Z-matrix:
 Charge = -1 Multiplicity = 1
 C                     11.97353   0.06998  -7.49641 
 C                     10.83008  -0.25856  -6.54596 
 C                     10.64751   0.85508  -5.51071 
 N                     9.55093   0.55191  -4.60726 
 C                     9.1949    1.39704  -3.59849 
 O                     9.81339   2.43842  -3.4477 
 N                     8.15231   1.06187  -2.77634 
 C                     7.62173   1.80675  -1.66366 
 C                     7.96558   3.14696  -1.35419 
 C                     6.69693   1.15408  -0.82704 
 C                     6.13409   1.80092   0.27198 
 C                     6.48078   3.11726   0.56408 
 C                     7.39918   3.80577  -0.24356 
 H                     12.07976  -0.7353   -8.25348 
 H                     12.92873   0.1694   -6.93796 
 H                     11.04765  -1.21964  -6.03103 
 H                     9.89579  -0.37028  -7.13739 
 H                     10.43453   1.81123  -6.0383 
 H                     11.58571   0.96659  -4.92319 
 H                     9.02679  -0.32841  -4.73335 
 H                     8.66277   3.70726  -1.9457 
 H                     6.40654   0.13011  -1.02734 
 H                     5.42483   1.27788   0.90068 
 N                     7.75184   5.15473   0.05953 
 H                     6.02894   3.59577   1.42336 
 O                     9.02262   5.56726  -0.04903 
 O                     6.82026   6.03252   0.45758 
 H                     11.7507   0.99748  -7.98117 
 

 GradGradGradGradGradGradGradGradGradGradGradGradGradGradGradGradGradGrad
 Berny optimization.
 Initialization pass.
                           ----------------------------
                           !    Initial Parameters    !
                           ! (Angstroms and Degrees)  !
 --------------------------                            --------------------------
 ! Name  Definition              Value          Derivative Info.                !
 --------------------------------------------------------------------------------
 ! R1    R(1,2)                  1.5228         estimate D2E/DX2                !
 ! R2    R(1,14)                 1.1104         estimate D2E/DX2                !
 ! R3    R(1,15)                 1.1109         estimate D2E/DX2                !
 ! R4    R(1,28)                 1.07           estimate D2E/DX2                !
 ! R5    R(2,3)                  1.5314         estimate D2E/DX2                !
 ! R6    R(2,16)                 1.1118         estimate D2E/DX2                !
 ! R7    R(2,17)                 1.1114         estimate D2E/DX2                !
 ! R8    R(3,4)                  1.4528         estimate D2E/DX2                !
 ! R9    R(3,18)                 1.1126         estimate D2E/DX2                !
 ! R10   R(3,19)                 1.1126         estimate D2E/DX2                !
 ! R11   R(4,5)                  1.3633         estimate D2E/DX2                !
 ! R12   R(4,20)                 1.0323         estimate D2E/DX2                !
 ! R13   R(5,6)                  1.2205         estimate D2E/DX2                !
 ! R14   R(5,7)                  1.3694         estimate D2E/DX2                !
 ! R15   R(7,8)                  1.4403         estimate D2E/DX2                !
 ! R16   R(8,9)                  1.4178         estimate D2E/DX2                !
 ! R17   R(8,10)                 1.4075         estimate D2E/DX2                !
 ! R18   R(9,13)                 1.4101         estimate D2E/DX2                !
 ! R19   R(9,21)                 1.0723         estimate D2E/DX2                !
 ! R20   R(10,11)                1.3939         estimate D2E/DX2                !
 ! R21   R(10,22)                1.083          estimate D2E/DX2                !
 ! R22   R(11,12)                1.3922         estimate D2E/DX2                !
 ! R23   R(11,23)                1.0825         estimate D2E/DX2                !
 ! R24   R(12,13)                1.4035         estimate D2E/DX2                !
 ! R25   R(12,25)                1.0824         estimate D2E/DX2                !
 ! R26   R(13,24)                1.4269         estimate D2E/DX2                !
 ! R27   R(24,26)                1.3405         estimate D2E/DX2                !
 ! R28   R(24,27)                1.3404         estimate D2E/DX2                !
 ! A1    A(2,1,14)             109.9339         estimate D2E/DX2                !
 ! A2    A(2,1,15)             110.5606         estimate D2E/DX2                !
 ! A3    A(2,1,28)             108.2653         estimate D2E/DX2                !
 ! A4    A(14,1,15)            108.989          estimate D2E/DX2                !
 ! A5    A(14,1,28)            109.8573         estimate D2E/DX2                !
 ! A6    A(15,1,28)            109.2219         estimate D2E/DX2                !
 ! A7    A(1,2,3)              110.7667         estimate D2E/DX2                !
 ! A8    A(1,2,16)             109.1858         estimate D2E/DX2                !
 ! A9    A(1,2,17)             108.7108         estimate D2E/DX2                !
 ! A10   A(3,2,16)             109.8062         estimate D2E/DX2                !
 ! A11   A(3,2,17)             109.4279         estimate D2E/DX2                !
 ! A12   A(16,2,17)            108.9094         estimate D2E/DX2                !
 ! A13   A(2,3,4)              111.0155         estimate D2E/DX2                !
 ! A14   A(2,3,18)             109.0984         estimate D2E/DX2                !
 ! A15   A(2,3,19)             109.2282         estimate D2E/DX2                !
 ! A16   A(4,3,18)             109.2522         estimate D2E/DX2                !
 ! A17   A(4,3,19)             109.2097         estimate D2E/DX2                !
 ! A18   A(18,3,19)            109.0074         estimate D2E/DX2                !
 ! A19   A(3,4,5)              121.8638         estimate D2E/DX2                !
 ! A20   A(3,4,20)             119.0293         estimate D2E/DX2                !
 ! A21   A(5,4,20)             119.1069         estimate D2E/DX2                !
 ! A22   A(4,5,6)              119.2087         estimate D2E/DX2                !
 ! A23   A(4,5,7)              119.4286         estimate D2E/DX2                !
 ! A24   A(6,5,7)              121.3627         estimate D2E/DX2                !
 ! A25   A(5,7,8)              128.1483         estimate D2E/DX2                !
 ! A26   A(7,8,9)              124.6217         estimate D2E/DX2                !
 ! A27   A(7,8,10)             117.4786         estimate D2E/DX2                !
 ! A28   A(9,8,10)             117.8997         estimate D2E/DX2                !
 ! A29   A(8,9,13)             121.0742         estimate D2E/DX2                !
 ! A30   A(8,9,21)             122.0857         estimate D2E/DX2                !
 ! A31   A(13,9,21)            116.8401         estimate D2E/DX2                !
 ! A32   A(8,10,11)            121.2488         estimate D2E/DX2                !
 ! A33   A(8,10,22)            120.308          estimate D2E/DX2                !
 ! A34   A(11,10,22)           118.4431         estimate D2E/DX2                !
 ! A35   A(10,11,12)           120.2399         estimate D2E/DX2                !
 ! A36   A(10,11,23)           119.8835         estimate D2E/DX2                !
 ! A37   A(12,11,23)           119.8766         estimate D2E/DX2                !
 ! A38   A(11,12,13)           120.401          estimate D2E/DX2                !
 ! A39   A(11,12,25)           118.7257         estimate D2E/DX2                !
 ! A40   A(13,12,25)           120.8733         estimate D2E/DX2                !
 ! A41   A(9,13,12)            119.1363         estimate D2E/DX2                !
 ! A42   A(9,13,24)            120.6462         estimate D2E/DX2                !
 ! A43   A(12,13,24)           120.2175         estimate D2E/DX2                !
 ! A44   A(13,24,26)           120.5344         estimate D2E/DX2                !
 ! A45   A(13,24,27)           120.6909         estimate D2E/DX2                !
 ! A46   A(26,24,27)           118.7747         estimate D2E/DX2                !
 ! D1    D(14,1,2,3)          -178.8076         estimate D2E/DX2                !
 ! D2    D(14,1,2,16)           60.1521         estimate D2E/DX2                !
 ! D3    D(14,1,2,17)          -58.5417         estimate D2E/DX2                !
 ! D4    D(15,1,2,3)            60.8144         estimate D2E/DX2                !
 ! D5    D(15,1,2,16)          -60.2259         estimate D2E/DX2                !
 ! D6    D(15,1,2,17)         -178.9197         estimate D2E/DX2                !
 ! D7    D(28,1,2,3)           -58.7946         estimate D2E/DX2                !
 ! D8    D(28,1,2,16)         -179.8349         estimate D2E/DX2                !
 ! D9    D(28,1,2,17)           61.4713         estimate D2E/DX2                !
 ! D10   D(1,2,3,4)            179.5593         estimate D2E/DX2                !
 ! D11   D(1,2,3,18)            59.1072         estimate D2E/DX2                !
 ! D12   D(1,2,3,19)           -59.9572         estimate D2E/DX2                !
 ! D13   D(16,2,3,4)           -59.7681         estimate D2E/DX2                !
 ! D14   D(16,2,3,18)          179.7799         estimate D2E/DX2                !
 ! D15   D(16,2,3,19)           60.7155         estimate D2E/DX2                !
 ! D16   D(17,2,3,4)            59.7219         estimate D2E/DX2                !
 ! D17   D(17,2,3,18)          -60.7302         estimate D2E/DX2                !
 ! D18   D(17,2,3,19)         -179.7946         estimate D2E/DX2                !
 ! D19   D(2,3,4,5)           -179.9468         estimate D2E/DX2                !
 ! D20   D(2,3,4,20)             0.0414         estimate D2E/DX2                !
 ! D21   D(18,3,4,5)           -59.5859         estimate D2E/DX2                !
 ! D22   D(18,3,4,20)          120.4023         estimate D2E/DX2                !
 ! D23   D(19,3,4,5)            59.5587         estimate D2E/DX2                !
 ! D24   D(19,3,4,20)         -120.453          estimate D2E/DX2                !
 ! D25   D(3,4,5,6)             -0.0129         estimate D2E/DX2                !
 ! D26   D(3,4,5,7)            179.9634         estimate D2E/DX2                !
 ! D27   D(20,4,5,6)           179.9988         estimate D2E/DX2                !
 ! D28   D(20,4,5,7)            -0.0248         estimate D2E/DX2                !
 ! D29   D(4,5,7,8)           -179.9922         estimate D2E/DX2                !
 ! D30   D(6,5,7,8)             -0.0164         estimate D2E/DX2                !
 ! D31   D(5,7,8,9)             10.6979         estimate D2E/DX2                !
 ! D32   D(5,7,8,10)          -169.2975         estimate D2E/DX2                !
 ! D33   D(7,8,9,13)           179.9978         estimate D2E/DX2                !
 ! D34   D(7,8,9,21)            -0.0175         estimate D2E/DX2                !
 ! D35   D(10,8,9,13)           -0.0068         estimate D2E/DX2                !
 ! D36   D(10,8,9,21)          179.978          estimate D2E/DX2                !
 ! D37   D(7,8,10,11)         -179.9918         estimate D2E/DX2                !
 ! D38   D(7,8,10,22)           -0.0019         estimate D2E/DX2                !
 ! D39   D(9,8,10,11)            0.0124         estimate D2E/DX2                !
 ! D40   D(9,8,10,22)         -179.9977         estimate D2E/DX2                !
 ! D41   D(8,9,13,12)           -0.0033         estimate D2E/DX2                !
 ! D42   D(8,9,13,24)          179.9958         estimate D2E/DX2                !
 ! D43   D(21,9,13,12)        -179.9888         estimate D2E/DX2                !
 ! D44   D(21,9,13,24)           0.0103         estimate D2E/DX2                !
 ! D45   D(8,10,11,12)          -0.0079         estimate D2E/DX2                !
 ! D46   D(8,10,11,23)         179.992          estimate D2E/DX2                !
 ! D47   D(22,10,11,12)       -179.998          estimate D2E/DX2                !
 ! D48   D(22,10,11,23)          0.0019         estimate D2E/DX2                !
 ! D49   D(10,11,12,13)         -0.0026         estimate D2E/DX2                !
 ! D50   D(10,11,12,25)       -179.9986         estimate D2E/DX2                !
 ! D51   D(23,11,12,13)        179.9975         estimate D2E/DX2                !
 ! D52   D(23,11,12,25)          0.0014         estimate D2E/DX2                !
 ! D53   D(11,12,13,9)           0.0081         estimate D2E/DX2                !
 ! D54   D(11,12,13,24)       -179.991          estimate D2E/DX2                !
 ! D55   D(25,12,13,9)        -179.996          estimate D2E/DX2                !
 ! D56   D(25,12,13,24)          0.0049         estimate D2E/DX2                !
 ! D57   D(9,13,24,26)         -40.9393         estimate D2E/DX2                !
 ! D58   D(9,13,24,27)         139.056          estimate D2E/DX2                !
 ! D59   D(12,13,24,26)        139.0598         estimate D2E/DX2                !
 ! D60   D(12,13,24,27)        -40.9449         estimate D2E/DX2                !
 --------------------------------------------------------------------------------
 Trust Radius=3.00D-01 FncErr=1.00D-07 GrdErr=1.00D-06
 Number of steps in this run=    144 maximum allowed number of steps=    168.
 GradGradGradGradGradGradGradGradGradGradGradGradGradGradGradGradGradGrad

                          Input orientation:                          
 ---------------------------------------------------------------------
 Center     Atomic      Atomic             Coordinates (Angstroms)
 Number     Number       Type             X           Y           Z
 ---------------------------------------------------------------------
      1          6           0       11.973530    0.069980   -7.496410
      2          6           0       10.830080   -0.258560   -6.545960
      3          6           0       10.647510    0.855080   -5.510710
      4          7           0        9.550930    0.551910   -4.607260
      5          6           0        9.194900    1.397040   -3.598490
      6          8           0        9.813390    2.438420   -3.447700
      7          7           0        8.152310    1.061870   -2.776340
      8          6           0        7.621730    1.806750   -1.663660
      9          6           0        7.965580    3.146960   -1.354190
     10          6           0        6.696930    1.154080   -0.827040
     11          6           0        6.134090    1.800920    0.271980
     12          6           0        6.480780    3.117260    0.564080
     13          6           0        7.399180    3.805770   -0.243560
     14          1           0       12.079760   -0.735300   -8.253480
     15          1           0       12.928730    0.169400   -6.937960
     16          1           0       11.047650   -1.219640   -6.031030
     17          1           0        9.895790   -0.370280   -7.137390
     18          1           0       10.434530    1.811230   -6.038300
     19          1           0       11.585710    0.966590   -4.923190
     20          1           0        9.026790   -0.328410   -4.733350
     21          1           0        8.662770    3.707260   -1.945700
     22          1           0        6.406540    0.130110   -1.027340
     23          1           0        5.424830    1.277880    0.900680
     24          7           0        7.751840    5.154730    0.059530
     25          1           0        6.028940    3.595770    1.423360
     26          8           0        9.022620    5.567260   -0.049030
     27          8           0        6.820260    6.032520    0.457580
     28          1           0       11.750700    0.997480   -7.981170
 ---------------------------------------------------------------------
                    Distance matrix (angstroms):
                    1          2          3          4          5
     1  C    0.000000
     2  C    1.522751   0.000000
     3  C    2.513507   1.531427   0.000000
     4  N    3.801110   2.460009   1.452798   0.000000
     5  C    4.967459   3.755317   2.461784   1.363312   0.000000
     6  O    5.164084   4.231616   2.731068   2.229884   1.220549
     7  N    6.153424   4.808744   3.707501   2.359760   1.369403
     8  C    7.481678   6.196440   4.986062   3.736471   2.527112
     9  C    7.953511   6.837938   5.451800   4.453098   3.100053
    10  C    8.573114   7.196147   6.134594   4.774724   3.738960
    11  C    9.871327   8.531007   7.396288   6.086198   4.950981
    12  C   10.218988   8.992510   7.705983   6.538318   5.258573
    13  C    9.353322   8.246824   6.855734   5.853162   4.503570
    14  H    1.110367   2.169010   3.478999   4.620261   5.876923
    15  H    1.110927   2.177417   2.776898   4.121651   5.157581
    16  H    2.160489   1.111829   2.176076   2.721338   4.024543
    17  H    2.154003   1.111381   2.170870   2.714944   4.017273
    18  H    2.743457   2.167535   1.112625   2.101074   2.767835
    19  H    2.752413   2.169182   1.112580   2.100500   2.766964
    20  H    4.059125   2.557790   2.152132   1.032272   2.072039
    21  H    7.416287   6.448826   4.978295   4.222436   2.889982
    22  H    8.534861   7.083356   6.213857   4.783402   3.998859
    23  H   10.717071   9.328978   8.280161   6.920198   5.871129
    24  N   10.038405   9.078093   7.609170   6.797176   5.439096
    25  H   11.284132  10.070594   8.770627   7.618259   6.330616
    26  O    9.715525   8.911632   7.394245   6.797816   5.478967
    27  O   11.197055  10.232591   8.779192   7.946461   6.601386
    28  H    1.070001   2.117783   2.709332   4.052257   5.089169
                    6          7          8          9         10
     6  O    0.000000
     7  N    2.259381   0.000000
     8  C    2.895717   1.440284   0.000000
     9  C    2.880836   2.530806   1.417804   0.000000
    10  C    4.269627   2.434421   1.407539   2.420523   0.000000
    11  C    5.270643   3.729834   2.441272   2.794747   1.393928
    12  C    5.259419   4.263455   2.825248   2.425958   2.415784
    13  C    4.238463   3.809353   2.462173   1.410085   2.804472
    14  H    6.189059   6.975224   8.352352   8.921806   9.364648
    15  H    5.199587   6.397638   7.659204   8.042214   8.783409
    16  H    4.645255   4.917447   6.322174   7.102055   7.186433
    17  H    4.637823   4.910146   6.314470   7.038614   7.237188
    18  H    2.736858   4.050982   5.200898   5.460840   6.446606
    19  H    2.735776   4.050466   5.200341   5.531466   6.380734
    20  H    3.150712   2.554894   3.994509   4.962165   4.783856
    21  H    2.278132   2.819330   2.185234   1.072331   3.410961
    22  H    4.774208   2.641002   2.166267   3.411572   1.083033
    23  H    6.286074   4.583261   3.417881   3.877281   2.149088
    24  N    4.891727   4.995402   3.767663   2.464839   4.231317
    25  H    6.276045   5.344795   3.907335   3.415668   3.387087
    26  O    4.686781   5.337996   4.325617   2.945951   5.048791
    27  O    6.093242   6.077825   4.795742   3.594541   5.046250
    28  H    5.136324   6.327939   7.590405   7.928699   8.760519
                   11         12         13         14         15
    11  C    0.000000
    12  C    1.392217   0.000000
    13  C    2.426037   1.403491   0.000000
    14  H   10.698919  11.132842  10.328987   0.000000
    15  H   10.040529  10.322138   9.413506   1.808266   0.000000
    16  H    8.543699   9.119237   8.488868   2.497823   2.508070
    17  H    8.588554   9.117997   8.437852   2.479641   3.087030
    18  H    7.636329   7.805721   6.838900   3.754813   3.118658
    19  H    7.576679   7.797168   6.891075   3.772446   2.549218
    20  H    6.160770   6.813044   6.316548   4.677339   4.509241
    21  H    3.866065   3.377599   2.122179   8.438024   7.459057
    22  H    2.134026   3.385439   3.887174   9.227755   8.802042
    23  H    1.082536   2.147475   3.405521  11.495200  10.907865
    24  N    3.729650   2.453864   1.426859  11.069304  10.030881
    25  H    2.134999   1.082355   2.168013  12.207040  11.369203
    26  O    4.757307   3.583204   2.403382  10.788020   9.583942
    27  O    4.290887   2.936891   2.405236  12.220814  11.242046
    28  H   10.015304  10.260937   9.310898   1.784646   1.778133
                   16         17         18         19         20
    16  H    0.000000
    17  H    1.808930   0.000000
    18  H    3.092271   2.501445   0.000000
    19  H    2.509267   3.089617   1.811657   0.000000
    20  H    2.561667   2.556623   2.874489   2.874219   0.000000
    21  H    6.830221   6.715677   4.845971   4.992023   4.918347
    22  H    6.956913   7.053933   6.645343   6.534612   4.561848
    23  H    9.268350   9.344329   8.575022   8.483561   6.877251
    24  N    9.412220   9.322978   7.453814   7.554242   7.393377
    25  H   10.195271  10.196496   8.847043   8.835665   7.892488
    26  O    9.270765   9.287715   7.209203   7.175864   7.530059
    27  O   10.609746  10.398957   8.548608   8.793512   8.501527
    28  H    3.035284   2.454266   2.483795   3.062583   4.441397
                   21         22         23         24         25
    21  H    0.000000
    22  H    4.327812   0.000000
    23  H    4.948537   2.449161   0.000000
    24  N    2.635509   5.313937   4.599182   0.000000
    25  H    4.277856   4.261374   2.451685   2.694211   0.000000
    26  O    2.680755   6.112574   5.678452   1.340466   3.875155
    27  O    3.818040   6.100377   4.974954   1.340448   2.738005
    28  H    7.301035   8.812952  10.907911   9.895780  11.310828
                   26         27         28
    26  O    0.000000
    27  O    2.307273   0.000000
    28  H    9.552181  10.994242   0.000000
 Stoichiometry    C10H12N3O3(1-)
 Framework group  C1[X(C10H12N3O3)]
 Deg. of freedom    78
 Full point group                 C1      NOp   1
 Largest Abelian subgroup         C1      NOp   1
 Largest concise Abelian subgroup C1      NOp   1
                         Standard orientation:                         
 ---------------------------------------------------------------------
 Center     Atomic      Atomic             Coordinates (Angstroms)
 Number     Number       Type             X           Y           Z
 ---------------------------------------------------------------------
      1          6           0        6.397103   -0.918011    0.026673
      2          6           0        5.316186    0.151256    0.110688
      3          6           0        3.923587   -0.473373   -0.014907
      4          7           0        2.887525    0.541088    0.074914
      5          6           0        1.563533    0.226978   -0.008751
      6          8           0        1.236572   -0.938705   -0.163733
      7          7           0        0.628542    1.223287    0.083032
      8          6           0       -0.805584    1.106033    0.020179
      9          6           0       -1.516199   -0.120088    0.062842
     10          6           0       -1.550170    2.295267   -0.091546
     11          6           0       -2.942329    2.273216   -0.158194
     12          6           0       -3.627247    1.061895   -0.115108
     13          6           0       -2.924408   -0.147873   -0.004348
     14          1           0        7.399045   -0.453230    0.140716
     15          1           0        6.351365   -1.443027   -0.951297
     16          1           0        5.471422    0.892488   -0.703339
     17          1           0        5.402162    0.668916    1.090384
     18          1           0        3.782361   -1.215324    0.802098
     19          1           0        3.842435   -0.993721   -0.994951
     20          1           0        3.162285    1.527453    0.205972
     21          1           0       -1.016749   -1.065288    0.146760
     22          1           0       -1.047140    3.253718   -0.127507
     23          1           0       -3.492979    3.201303   -0.243766
     24          7           0       -3.630328   -1.387106    0.039283
     25          1           0       -4.708215    1.073317   -0.168685
     26          8           0       -3.173581   -2.454993   -0.629930
     27          8           0       -4.761150   -1.505706    0.749196
     28          1           0        6.232267   -1.624058    0.813583
 ---------------------------------------------------------------------
 Rotational constants (GHZ):      1.1979388      0.1931412      0.1687491
 General basis read from cards:  (6D, 7F)
 There are   328 symmetry adapted cartesian basis functions of A   symmetry.
 There are   328 symmetry adapted basis functions of A   symmetry.
   328 basis functions,   560 primitive gaussians,   328 cartesian basis functions
    59 alpha electrons       59 beta electrons
       nuclear repulsion energy      1006.7860841954 Hartrees.
 NAtoms=   28 NActive=   28 NUniq=   28 SFac= 1.00D+00 NAtFMM=   60 NAOKFM=F Big=F
 Integral buffers will be    131072 words long.
 Raffenetti 2 integral format.
 Two-electron integral symmetry is turned on.
 One-electron integrals computed using PRISM.
 NBasis=   328 RedAO= T EigKep=  1.82D-06  NBF=   328
 NBsUse=   328 1.00D-06 EigRej= -1.00D+00 NBFU=   328
 ExpMin= 4.38D-02 ExpMax= 5.48D+03 ExpMxC= 8.25D+02 IAcc=3 IRadAn=         5 AccDes= 0.00D+00
 Harris functional with IExCor= 1009 and IRadAn=       5 diagonalized for initial guess.
 HarFok:  IExCor= 1009 AccDes= 0.00D+00 IRadAn=         5 IDoV= 1 UseB2=F ITyADJ=14
 ICtDFT=  3500011 ScaDFX=  1.000000  1.000000  1.000000  1.000000
 FoFCou: FMM=F IPFlag=           0 FMFlag=      100000 FMFlg1=           0
         NFxFlg=           0 DoJE=T BraDBF=F KetDBF=T FulRan=T
         wScrn=  0.000000 ICntrl=     500 IOpCl=  0 I1Cent=   200000004 NGrid=           0
         NMat0=    1 NMatS0=      1 NMatT0=    0 NMatD0=    1 NMtDS0=    0 NMtDT0=    0
 Petite list used in FoFCou.
 Requested convergence on RMS density matrix=1.00D-08 within 128 cycles.
 Requested convergence on MAX density matrix=1.00D-06.
 Requested convergence on             energy=1.00D-06.
 No special actions if energy rises.
 Restarting incremental Fock formation.
 SCF Done:  E(RM062X) =  -777.846299988     A.U. after   25 cycles
            NFock= 25  Conv=0.57D-08     -V/T= 2.0095

 **********************************************************************

            Population analysis using the SCF density.

 **********************************************************************

 Orbital symmetries:
       Occupied  (A) (A) (A) (A) (A) (A) (A) (A) (A) (A) (A) (A)
                 (A) (A) (A) (A) (A) (A) (A) (A) (A) (A) (A) (A)
                 (A) (A) (A) (A) (A) (A) (A) (A) (A) (A) (A) (A)
                 (A) (A) (A) (A) (A) (A) (A) (A) (A) (A) (A) (A)
                 (A) (A) (A) (A) (A) (A) (A) (A) (A) (A) (A)
       Virtual   (A) (A) (A) (A) (A) (A) (A) (A) (A) (A) (A) (A)
                 (A) (A) (A) (A) (A) (A) (A) (A) (A) (A) (A) (A)
                 (A) (A) (A) (A) (A) (A) (A) (A) (A) (A) (A) (A)
                 (A) (A) (A) (A) (A) (A) (A) (A) (A) (A) (A) (A)
                 (A) (A) (A) (A) (A) (A) (A) (A) (A) (A) (A) (A)
                 (A) (A) (A) (A) (A) (A) (A) (A) (A) (A) (A) (A)
                 (A) (A) (A) (A) (A) (A) (A) (A) (A) (A) (A) (A)
                 (A) (A) (A) (A) (A) (A) (A) (A) (A) (A) (A) (A)
                 (A) (A) (A) (A) (A) (A) (A) (A) (A) (A) (A) (A)
                 (A) (A) (A) (A) (A) (A) (A) (A) (A) (A) (A) (A)
                 (A) (A) (A) (A) (A) (A) (A) (A) (A) (A) (A) (A)
                 (A) (A) (A) (A) (A) (A) (A) (A) (A) (A) (A) (A)
                 (A) (A) (A) (A) (A) (A) (A) (A) (A) (A) (A) (A)
                 (A) (A) (A) (A) (A) (A) (A) (A) (A) (A) (A) (A)
                 (A) (A) (A) (A) (A) (A) (A) (A) (A) (A) (A) (A)
                 (A) (A) (A) (A) (A) (A) (A) (A) (A) (A) (A) (A)
                 (A) (A) (A) (A) (A) (A) (A) (A) (A) (A) (A) (A)
                 (A) (A) (A) (A) (A) (A) (A) (A) (A) (A) (A) (A)
                 (A) (A) (A) (A) (A) (A) (A) (A) (A) (A) (A) (A)
                 (A) (A) (A) (A) (A) (A) (A) (A) (A) (A) (A) (A)
                 (A) (A) (A) (A) (A) (A) (A) (A) (A) (A) (A) (A)
                 (A) (A) (A) (A) (A) (A) (A) (A) (A) (A) (A) (A)
                 (A) (A) (A) (A) (A)
 The electronic state is 1-A.
 Alpha  occ. eigenvalues --  -19.57358 -19.57327 -19.43354 -14.89096 -14.64002
 Alpha  occ. eigenvalues --  -14.56078 -10.50097 -10.49416 -10.47281 -10.46607
 Alpha  occ. eigenvalues --  -10.46411 -10.46274 -10.44650 -10.44567 -10.43305
 Alpha  occ. eigenvalues --  -10.43249  -1.15869  -1.00570  -0.99235  -0.88437
 Alpha  occ. eigenvalues --   -0.86491  -0.81214  -0.79044  -0.77089  -0.70715
 Alpha  occ. eigenvalues --   -0.67376  -0.66380  -0.58800  -0.57372  -0.54959
 Alpha  occ. eigenvalues --   -0.52010  -0.48944  -0.46423  -0.45865  -0.45702
 Alpha  occ. eigenvalues --   -0.44925  -0.44220  -0.41073  -0.39042  -0.38744
 Alpha  occ. eigenvalues --   -0.38178  -0.37715  -0.34245  -0.33839  -0.33020
 Alpha  occ. eigenvalues --   -0.32157  -0.31484  -0.30717  -0.30051  -0.29644
 Alpha  occ. eigenvalues --   -0.27625  -0.25427  -0.24572  -0.21648  -0.20085
 Alpha  occ. eigenvalues --   -0.19503  -0.17164  -0.12783  -0.09526
 Alpha virt. eigenvalues --    0.03883   0.09562   0.10905   0.11392   0.13012
 Alpha virt. eigenvalues --    0.13163   0.13516   0.14085   0.14589   0.15040
 Alpha virt. eigenvalues --    0.15234   0.15711   0.15999   0.16697   0.17205
 Alpha virt. eigenvalues --    0.17931   0.18305   0.18586   0.19566   0.20347
 Alpha virt. eigenvalues --    0.20699   0.21257   0.21711   0.23304   0.23833
 Alpha virt. eigenvalues --    0.24524   0.24712   0.24975   0.25609   0.26474
 Alpha virt. eigenvalues --    0.26934   0.27167   0.27785   0.28345   0.29205
 Alpha virt. eigenvalues --    0.29349   0.29913   0.30493   0.30876   0.31095
 Alpha virt. eigenvalues --    0.31547   0.32204   0.32322   0.32480   0.32727
 Alpha virt. eigenvalues --    0.33568   0.33757   0.34934   0.35120   0.35403
 Alpha virt. eigenvalues --    0.36228   0.36473   0.36732   0.37587   0.37962
 Alpha virt. eigenvalues --    0.38152   0.38710   0.39232   0.39506   0.40043
 Alpha virt. eigenvalues --    0.40266   0.41156   0.41701   0.42036   0.42569
 Alpha virt. eigenvalues --    0.42785   0.43863   0.44314   0.44570   0.44764
 Alpha virt. eigenvalues --    0.44820   0.45704   0.46408   0.47052   0.47504
 Alpha virt. eigenvalues --    0.48013   0.48454   0.48824   0.48944   0.50155
 Alpha virt. eigenvalues --    0.50388   0.52142   0.52812   0.52983   0.53499
 Alpha virt. eigenvalues --    0.56271   0.56906   0.57390   0.59245   0.60791
 Alpha virt. eigenvalues --    0.63411   0.64820   0.65542   0.70063   0.73412
 Alpha virt. eigenvalues --    0.75806   0.77298   0.79009   0.79613   0.82508
 Alpha virt. eigenvalues --    0.83188   0.84019   0.84954   0.86212   0.87616
 Alpha virt. eigenvalues --    0.89476   0.89931   0.91326   0.91801   0.92371
 Alpha virt. eigenvalues --    0.94561   0.96069   0.96720   0.97644   0.98434
 Alpha virt. eigenvalues --    0.99539   1.00300   1.01691   1.03389   1.06415
 Alpha virt. eigenvalues --    1.06916   1.09500   1.09940   1.10472   1.12094
 Alpha virt. eigenvalues --    1.12662   1.14055   1.14572   1.16322   1.17103
 Alpha virt. eigenvalues --    1.18347   1.19559   1.20760   1.20990   1.22708
 Alpha virt. eigenvalues --    1.22954   1.23649   1.24126   1.24915   1.26406
 Alpha virt. eigenvalues --    1.27315   1.28254   1.28699   1.32230   1.32794
 Alpha virt. eigenvalues --    1.34277   1.37247   1.37923   1.38506   1.39281
 Alpha virt. eigenvalues --    1.42778   1.44248   1.44733   1.45881   1.47359
 Alpha virt. eigenvalues --    1.48202   1.49248   1.49353   1.50802   1.51610
 Alpha virt. eigenvalues --    1.52854   1.53917   1.55470   1.56959   1.58855
 Alpha virt. eigenvalues --    1.60280   1.61340   1.61947   1.63488   1.64042
 Alpha virt. eigenvalues --    1.65487   1.66242   1.66606   1.68173   1.69224
 Alpha virt. eigenvalues --    1.71844   1.75781   1.76895   1.82957   1.90399
 Alpha virt. eigenvalues --    1.91152   1.92977   1.94908   1.95315   1.98259
 Alpha virt. eigenvalues --    1.98384   1.98906   1.99583   2.01659   2.02144
 Alpha virt. eigenvalues --    2.05452   2.06010   2.06750   2.07406   2.08055
 Alpha virt. eigenvalues --    2.08940   2.10529   2.12928   2.13448   2.14106
 Alpha virt. eigenvalues --    2.15151   2.16292   2.18398   2.19024   2.20518
 Alpha virt. eigenvalues --    2.21061   2.23023   2.24180   2.26332   2.29831
 Alpha virt. eigenvalues --    2.31416   2.31799   2.32391   2.36165   2.36781
 Alpha virt. eigenvalues --    2.39486   2.39936   2.41908   2.44554   2.44976
 Alpha virt. eigenvalues --    2.46432   2.50238   2.50815   2.52624   2.54612
 Alpha virt. eigenvalues --    2.56684   2.62661   2.64933   2.66897   2.70372
 Alpha virt. eigenvalues --    2.73368   2.75577   2.77157   2.79457   2.79981
 Alpha virt. eigenvalues --    2.83656   2.85034   2.89637   2.91775   2.92622
 Alpha virt. eigenvalues --    2.93405   2.95106   2.99185   3.05897   3.08774
 Alpha virt. eigenvalues --    3.10022   3.13210   3.17836   3.28275   3.29682
 Alpha virt. eigenvalues --    3.43977   3.49181   3.56729   4.23223   4.30051
 Alpha virt. eigenvalues --    4.35882   4.38717   4.41678   4.49372   4.50806
 Alpha virt. eigenvalues --    4.52150   4.54842   4.58479   4.63512   4.64799
 Alpha virt. eigenvalues --    4.70142   4.71232   4.80781   4.91949
          Condensed to atoms (all electrons):
               1          2          3          4          5          6
     1  C    5.636884  -0.079920   0.052412  -0.003711  -0.083160  -0.003167
     2  C   -0.079920   6.557170  -0.930475  -0.100707   0.307257   0.039589
     3  C    0.052412  -0.930475   7.863348   0.393103  -0.983333  -0.114558
     4  N   -0.003711  -0.100707   0.393103   7.989724   0.241820  -0.264527
     5  C   -0.083160   0.307257  -0.983333   0.241820   6.707221   0.548548
     6  O   -0.003167   0.039589  -0.114558  -0.264527   0.548548   8.571794
     7  N   -0.003941   0.036058  -0.160035  -0.412945   0.357394  -0.117796
     8  C   -0.010239   0.043651  -0.532079  -0.243643  -0.967733  -0.357662
     9  C    0.003173  -0.023826   0.293882   0.154993   2.339629   0.308600
    10  C   -0.003273   0.024380  -0.220157  -0.153610  -1.141506  -0.210613
    11  C    0.000070  -0.002700   0.002433   0.000233  -0.190403   0.035747
    12  C    0.000018   0.000982   0.011373   0.006050   0.228172  -0.017758
    13  C   -0.002011   0.004783  -0.188162  -0.028260  -1.981049   0.238887
    14  H    0.414533  -0.104962   0.040290   0.000665  -0.000542   0.000007
    15  H    0.423450  -0.061834  -0.012036  -0.000128  -0.001485  -0.000067
    16  H   -0.034978   0.413830  -0.061193   0.002957  -0.009280  -0.000290
    17  H   -0.036313   0.420599  -0.068053   0.002931  -0.007586  -0.000295
    18  H   -0.005222  -0.058789   0.422545  -0.065732   0.006283  -0.000075
    19  H    0.004034  -0.057241   0.429252  -0.062800  -0.007543  -0.000525
    20  H   -0.004599   0.014680  -0.148239   0.221130   0.094238   0.012066
    21  H    0.000002  -0.000120   0.004555   0.000916   0.043906  -0.004693
    22  H    0.000001   0.000007  -0.000519  -0.000867  -0.012700   0.000068
    23  H    0.000000  -0.000000   0.000022   0.000013   0.002921  -0.000002
    24  N    0.000012  -0.000059   0.001821   0.000420   0.008644  -0.000022
    25  H    0.000000   0.000000   0.000005   0.000000   0.001024   0.000007
    26  O    0.000000   0.000010   0.000076  -0.000175   0.001672  -0.000449
    27  O    0.000000  -0.000000   0.000140   0.000011   0.005082   0.000028
    28  H    0.426651  -0.071129  -0.010004   0.000129  -0.001317  -0.000068
               7          8          9         10         11         12
     1  C   -0.003941  -0.010239   0.003173  -0.003273   0.000070   0.000018
     2  C    0.036058   0.043651  -0.023826   0.024380  -0.002700   0.000982
     3  C   -0.160035  -0.532079   0.293882  -0.220157   0.002433   0.011373
     4  N   -0.412945  -0.243643   0.154993  -0.153610   0.000233   0.006050
     5  C    0.357394  -0.967733   2.339629  -1.141506  -0.190403   0.228172
     6  O   -0.117796  -0.357662   0.308600  -0.210613   0.035747  -0.017758
     7  N    7.572230   0.542836  -0.095792  -0.162344   0.068680   0.020338
     8  C    0.542836  12.791600  -2.386387  -0.801861   0.818143  -0.452018
     9  C   -0.095792  -2.386387  41.464470  -2.965743  -3.024299  -5.419084
    10  C   -0.162344  -0.801861  -2.965743  17.915915  -1.744790  -0.611384
    11  C    0.068680   0.818143  -3.024299  -1.744790   8.367031  -0.345140
    12  C    0.020338  -0.452018  -5.419084  -0.611384  -0.345140  12.441543
    13  C   -0.158540  -2.573960 -25.389407  -3.490438   2.023650  -0.245395
    14  H    0.000013  -0.000023   0.000007  -0.000002  -0.000000   0.000000
    15  H   -0.000000   0.000019  -0.000043   0.000003  -0.000000   0.000000
    16  H   -0.000407  -0.000410  -0.000232   0.000191   0.000006   0.000001
    17  H   -0.000518  -0.000348  -0.000071  -0.000059  -0.000002   0.000002
    18  H    0.001084  -0.006187   0.004798   0.000030   0.000016  -0.000008
    19  H   -0.002305   0.001043  -0.001159  -0.001183  -0.000037   0.000014
    20  H    0.038946   0.023482  -0.005184   0.004791   0.000231  -0.000150
    21  H   -0.004552  -0.099865   0.443423  -0.009180  -0.016222   0.016634
    22  H   -0.010070   0.123764   0.033367   0.238678  -0.065216  -0.010604
    23  H    0.000829   0.007264   0.004916   0.011470   0.262241   0.044972
    24  N    0.000804  -0.079496  -0.043881  -0.008473   0.127411   0.058211
    25  H    0.000079   0.009116   0.038262  -0.023399  -0.055838   0.331269
    26  O   -0.000470   0.111643  -0.201809  -0.020604  -0.020824  -0.068477
    27  O   -0.000258   0.037738  -0.084943  -0.027893   0.073444  -0.171217
    28  H    0.000017   0.000018  -0.000043   0.000005   0.000000   0.000000
              13         14         15         16         17         18
     1  C   -0.002011   0.414533   0.423450  -0.034978  -0.036313  -0.005222
     2  C    0.004783  -0.104962  -0.061834   0.413830   0.420599  -0.058789
     3  C   -0.188162   0.040290  -0.012036  -0.061193  -0.068053   0.422545
     4  N   -0.028260   0.000665  -0.000128   0.002957   0.002931  -0.065732
     5  C   -1.981049  -0.000542  -0.001485  -0.009280  -0.007586   0.006283
     6  O    0.238887   0.000007  -0.000067  -0.000290  -0.000295  -0.000075
     7  N   -0.158540   0.000013  -0.000000  -0.000407  -0.000518   0.001084
     8  C   -2.573960  -0.000023   0.000019  -0.000410  -0.000348  -0.006187
     9  C  -25.389407   0.000007  -0.000043  -0.000232  -0.000071   0.004798
    10  C   -3.490438  -0.000002   0.000003   0.000191  -0.000059   0.000030
    11  C    2.023650  -0.000000  -0.000000   0.000006  -0.000002   0.000016
    12  C   -0.245395   0.000000   0.000000   0.000001   0.000002  -0.000008
    13  C   38.412830   0.000000  -0.000003  -0.000020  -0.000019   0.000783
    14  H    0.000000   0.520152  -0.026106  -0.002967  -0.003284  -0.000071
    15  H   -0.000003  -0.026106   0.502972  -0.005050   0.004159  -0.000321
    16  H   -0.000020  -0.002967  -0.005050   0.525258  -0.034686   0.004318
    17  H   -0.000019  -0.003284   0.004159  -0.034686   0.525760  -0.006362
    18  H    0.000783  -0.000071  -0.000321   0.004318  -0.006362   0.536831
    19  H   -0.000546  -0.000075   0.002747  -0.006308   0.004335  -0.042993
    20  H   -0.000141  -0.000002  -0.000001   0.000383   0.000369   0.002721
    21  H   -0.075337  -0.000000  -0.000000   0.000000  -0.000000   0.000001
    22  H    0.005269  -0.000000  -0.000000  -0.000000  -0.000000  -0.000000
    23  H   -0.030252  -0.000000   0.000000   0.000000   0.000000   0.000000
    24  N   -0.324271   0.000000  -0.000000  -0.000000   0.000000  -0.000004
    25  H    0.002216   0.000000  -0.000000   0.000000  -0.000000  -0.000000
    26  O    0.163956  -0.000000  -0.000000   0.000000  -0.000000   0.000000
    27  O    0.117214   0.000000   0.000000   0.000000   0.000000  -0.000000
    28  H   -0.000003  -0.026202  -0.029890   0.004678  -0.005570   0.003608
              19         20         21         22         23         24
     1  C    0.004034  -0.004599   0.000002   0.000001   0.000000   0.000012
     2  C   -0.057241   0.014680  -0.000120   0.000007  -0.000000  -0.000059
     3  C    0.429252  -0.148239   0.004555  -0.000519   0.000022   0.001821
     4  N   -0.062800   0.221130   0.000916  -0.000867   0.000013   0.000420
     5  C   -0.007543   0.094238   0.043906  -0.012700   0.002921   0.008644
     6  O   -0.000525   0.012066  -0.004693   0.000068  -0.000002  -0.000022
     7  N   -0.002305   0.038946  -0.004552  -0.010070   0.000829   0.000804
     8  C    0.001043   0.023482  -0.099865   0.123764   0.007264  -0.079496
     9  C   -0.001159  -0.005184   0.443423   0.033367   0.004916  -0.043881
    10  C   -0.001183   0.004791  -0.009180   0.238678   0.011470  -0.008473
    11  C   -0.000037   0.000231  -0.016222  -0.065216   0.262241   0.127411
    12  C    0.000014  -0.000150   0.016634  -0.010604   0.044972   0.058211
    13  C   -0.000546  -0.000141  -0.075337   0.005269  -0.030252  -0.324271
    14  H   -0.000075  -0.000002  -0.000000  -0.000000  -0.000000   0.000000
    15  H    0.002747  -0.000001  -0.000000  -0.000000   0.000000  -0.000000
    16  H   -0.006308   0.000383   0.000000  -0.000000   0.000000  -0.000000
    17  H    0.004335   0.000369  -0.000000  -0.000000   0.000000   0.000000
    18  H   -0.042993   0.002721   0.000001  -0.000000   0.000000  -0.000004
    19  H    0.534492   0.002585  -0.000002  -0.000000  -0.000000   0.000004
    20  H    0.002585   0.336419  -0.000001   0.000004  -0.000000   0.000000
    21  H   -0.000002  -0.000001   0.418787  -0.000090   0.000012  -0.004196
    22  H   -0.000000   0.000004  -0.000090   0.506590  -0.004218   0.000029
    23  H   -0.000000  -0.000000   0.000012  -0.004218   0.521994   0.000119
    24  N    0.000004   0.000000  -0.004196   0.000029   0.000119   7.018087
    25  H   -0.000000   0.000000  -0.000119  -0.000132  -0.004383  -0.005726
    26  O   -0.000000   0.000000   0.004213  -0.000001   0.000029   0.328626
    27  O    0.000000  -0.000000  -0.001117  -0.000003  -0.000082   0.350450
    28  H   -0.000561   0.000000   0.000000  -0.000000   0.000000  -0.000000
              25         26         27         28
     1  C    0.000000   0.000000   0.000000   0.426651
     2  C    0.000000   0.000010  -0.000000  -0.071129
     3  C    0.000005   0.000076   0.000140  -0.010004
     4  N    0.000000  -0.000175   0.000011   0.000129
     5  C    0.001024   0.001672   0.005082  -0.001317
     6  O    0.000007  -0.000449   0.000028  -0.000068
     7  N    0.000079  -0.000470  -0.000258   0.000017
     8  C    0.009116   0.111643   0.037738   0.000018
     9  C    0.038262  -0.201809  -0.084943  -0.000043
    10  C   -0.023399  -0.020604  -0.027893   0.000005
    11  C   -0.055838  -0.020824   0.073444   0.000000
    12  C    0.331269  -0.068477  -0.171217   0.000000
    13  C    0.002216   0.163956   0.117214  -0.000003
    14  H    0.000000  -0.000000   0.000000  -0.026202
    15  H   -0.000000  -0.000000   0.000000  -0.029890
    16  H    0.000000   0.000000   0.000000   0.004678
    17  H   -0.000000  -0.000000   0.000000  -0.005570
    18  H   -0.000000   0.000000  -0.000000   0.003608
    19  H   -0.000000  -0.000000   0.000000  -0.000561
    20  H    0.000000   0.000000  -0.000000   0.000000
    21  H   -0.000119   0.004213  -0.001117   0.000000
    22  H   -0.000132  -0.000001  -0.000003  -0.000000
    23  H   -0.004383   0.000029  -0.000082   0.000000
    24  N   -0.005726   0.328626   0.350450  -0.000000
    25  H    0.501503  -0.001083   0.003731   0.000000
    26  O   -0.001083   7.815492  -0.082896   0.000000
    27  O    0.003731  -0.082896   7.850553   0.000000
    28  H    0.000000   0.000000   0.000000   0.499152
 Mulliken charges:
               1
     1  C   -0.690706
     2  C   -0.371233
     3  C   -0.086413
     4  N   -0.677991
     5  C    0.493825
     6  O   -0.662775
     7  N   -0.509332
     8  C    0.001593
     9  C    0.552382
    10  C   -0.598951
    11  C   -0.313864
    12  C    0.181656
    13  C   -0.481772
    14  H    0.188569
    15  H    0.203613
    16  H    0.204201
    17  H    0.205010
    18  H    0.202747
    19  H    0.204773
    20  H    0.406267
    21  H    0.283044
    22  H    0.196643
    23  H    0.182135
    24  N   -0.428509
    25  H    0.203468
    26  O   -0.028928
    27  O   -0.069983
    28  H    0.210530
 Sum of Mulliken charges =  -1.00000
 Mulliken charges with hydrogens summed into heavy atoms:
               1
     1  C   -0.087994
     2  C    0.037978
     3  C    0.321107
     4  N   -0.271724
     5  C    0.493825
     6  O   -0.662775
     7  N   -0.509332
     8  C    0.001593
     9  C    0.835427
    10  C   -0.402307
    11  C   -0.131729
    12  C    0.385124
    13  C   -0.481772
    24  N   -0.428509
    26  O   -0.028928
    27  O   -0.069983
 Electronic spatial extent (au):  <R**2>=           6199.1278
 Charge=             -1.0000 electrons
 Dipole moment (field-independent basis, Debye):
    X=              5.3708    Y=              3.5952    Z=              0.0587  Tot=              6.4633
 Quadrupole moment (field-independent basis, Debye-Ang):
   XX=           -132.6749   YY=           -113.6725   ZZ=           -102.4911
   XY=            -14.1116   XZ=              3.7896   YZ=             -2.0217
 Traceless Quadrupole moment (field-independent basis, Debye-Ang):
   XX=            -16.3955   YY=              2.6070   ZZ=             13.7884
   XY=            -14.1116   XZ=              3.7896   YZ=             -2.0217
 Octapole moment (field-independent basis, Debye-Ang**2):
  XXX=            122.5629  YYY=             11.6032  ZZZ=              0.1085  XYY=             25.5083
  XXY=             79.3942  XXZ=            -20.0650  XZZ=              8.7758  YZZ=            -11.6859
  YYZ=              3.2327  XYZ=             -0.0127
 Hexadecapole moment (field-independent basis, Debye-Ang**3):
 XXXX=          -8113.8624 YYYY=          -1209.4221 ZZZZ=           -175.1347 XXXY=           -190.2338
 XXXZ=            122.3731 YYYX=            -48.0350 YYYZ=            -14.2125 ZZZX=             -7.2014
 ZZZY=              2.8317 XXYY=          -1551.0338 XXZZ=          -1270.6113 YYZZ=           -239.5745
 XXYZ=             14.5408 YYXZ=             -2.0153 ZZXY=             18.4080
 N-N= 1.006786084195D+03 E-N=-3.842172697857D+03  KE= 7.704977994696D+02
 Calling FoFJK, ICntrl=      2127 FMM=F ISym2X=0 I1Cent= 0 IOpClX= 0 NMat=1 NMatS=1 NMatT=0.
 ***** Axes restored to original set *****
 -------------------------------------------------------------------
 Center     Atomic                   Forces (Hartrees/Bohr)
 Number     Number              X              Y              Z
 -------------------------------------------------------------------
      1        6           0.008173277   -0.021445542    0.007103345
      2        6          -0.003976326   -0.003883172    0.004771821
      3        6          -0.003971224    0.000767349    0.005490470
      4        7          -0.009053240   -0.036554767   -0.018117010
      5        6          -0.043067220    0.018816930    0.053698882
      6        8           0.039522072    0.039680178   -0.010222018
      7        7          -0.030065049   -0.019268754    0.020454360
      8        6           0.044939280   -0.020189110   -0.062855885
      9        6          -0.000395403    0.017682761    0.016881091
     10        6          -0.008138612    0.001682523    0.009263156
     11        6           0.010790461    0.004151161   -0.011544780
     12        6          -0.009112883    0.013310312    0.012136463
     13        6          -0.005763853   -0.031492163   -0.010664126
     14        1           0.001810405    0.009111605    0.004936347
     15        1          -0.007748167   -0.000419558   -0.006652867
     16        1          -0.005302051    0.006975932   -0.003663481
     17        1           0.005992759   -0.001629380    0.006614489
     18        1           0.005335304   -0.005812179    0.005841457
     19        1          -0.006973378    0.003186834   -0.006303036
     20        1           0.007956678    0.017035968    0.004907804
     21        1           0.006962866   -0.001866029   -0.008482008
     22        1           0.003288989   -0.001912513   -0.005187887
     23        1          -0.001292788   -0.000552813    0.002458941
     24        7           0.036206981    0.119189460    0.025760787
     25        1           0.001038265    0.004885871    0.001254377
     26        8          -0.111642813   -0.043674913    0.004633050
     27        8           0.073391265   -0.082492339   -0.031426070
     28        1           0.001094403    0.014716349   -0.011087672
 -------------------------------------------------------------------
 Cartesian Forces:  Max     0.119189460 RMS     0.028167854

 GradGradGradGradGradGradGradGradGradGradGradGradGradGradGradGradGradGrad
 Berny optimization.
 FormGI is forming the generalized inverse of G from B-inverse, IUseBI=4.
 Internal  Forces:  Max     0.119654188 RMS     0.018416436
 Search for a local minimum.
 Step number   1 out of a maximum of  144
 All quantities printed in internal units (Hartrees-Bohrs-Radians)
 Mixed Optimization -- RFO/linear search
 Second derivative matrix not updated -- first step.
 ITU=  0
     Eigenvalues ---    0.00350   0.00465   0.00993   0.01159   0.01336
     Eigenvalues ---    0.01336   0.01467   0.01774   0.01799   0.01900
     Eigenvalues ---    0.01931   0.02022   0.02073   0.02097   0.02113
     Eigenvalues ---    0.02143   0.02149   0.02177   0.02181   0.03827
     Eigenvalues ---    0.04445   0.04970   0.05566   0.05747   0.05944
     Eigenvalues ---    0.07972   0.09180   0.11923   0.12670   0.16000
     Eigenvalues ---    0.16000   0.16000   0.16000   0.16000   0.16000
     Eigenvalues ---    0.16000   0.16000   0.21958   0.22000   0.22000
     Eigenvalues ---    0.22004   0.23449   0.23490   0.25000   0.25000
     Eigenvalues ---    0.25000   0.25000   0.25000   0.25000   0.25000
     Eigenvalues ---    0.29292   0.30103   0.32324   0.32328   0.32407
     Eigenvalues ---    0.32454   0.32502   0.32561   0.35630   0.35690
     Eigenvalues ---    0.35711   0.36937   0.37230   0.37881   0.39547
     Eigenvalues ---    0.40411   0.41035   0.41444   0.42436   0.43730
     Eigenvalues ---    0.44759   0.45640   0.46542   0.51092   0.52284
     Eigenvalues ---    0.57101   0.57105   0.95140
 RFO step:  Lambda=-8.46715422D-02 EMin= 3.50229510D-03
 Linear search not attempted -- first point.
 Maximum step size (   0.300) exceeded in Quadratic search.
    -- Step size scaled by   0.721
 Iteration  1 RMS(Cart)=  0.07307330 RMS(Int)=  0.00085739
 Iteration  2 RMS(Cart)=  0.00152257 RMS(Int)=  0.00003852
 Iteration  3 RMS(Cart)=  0.00000137 RMS(Int)=  0.00003851
 Iteration  4 RMS(Cart)=  0.00000000 RMS(Int)=  0.00003851
 Variable       Old X    -DE/DX   Delta X   Delta X   Delta X     New X
                                 (Linear)    (Quad)   (Total)
    R1        2.87758   0.00648   0.00000   0.01211   0.01211   2.88970
    R2        2.09829  -0.00980   0.00000  -0.01722  -0.01722   2.08107
    R3        2.09935  -0.01004   0.00000  -0.01768  -0.01768   2.08167
    R4        2.02201   0.01755   0.00000   0.02769   0.02769   2.04970
    R5        2.89398  -0.00385   0.00000  -0.00735  -0.00735   2.88663
    R6        2.10105  -0.00876   0.00000  -0.01546  -0.01546   2.08559
    R7        2.10021  -0.00839   0.00000  -0.01479  -0.01479   2.08542
    R8        2.74539  -0.00826   0.00000  -0.01286  -0.01286   2.73254
    R9        2.10256  -0.00879   0.00000  -0.01553  -0.01553   2.08702
   R10        2.10247  -0.00889   0.00000  -0.01571  -0.01571   2.08676
   R11        2.57629   0.01395   0.00000   0.01656   0.01656   2.59284
   R12        1.95071  -0.01917   0.00000  -0.02715  -0.02715   1.92356
   R13        2.30650   0.05262   0.00000   0.03662   0.03662   2.34312
   R14        2.58780  -0.02026   0.00000  -0.02453  -0.02453   2.56327
   R15        2.72174  -0.07047   0.00000  -0.10583  -0.10583   2.61591
   R16        2.67926  -0.00262   0.00000  -0.00377  -0.00379   2.67547
   R17        2.65986   0.00377   0.00000   0.00534   0.00526   2.66513
   R18        2.66467  -0.01118   0.00000  -0.01564  -0.01558   2.64909
   R19        2.02641   0.00823   0.00000   0.01307   0.01307   2.03948
   R20        2.63414   0.00013   0.00000   0.00042   0.00036   2.63450
   R21        2.04664   0.00189   0.00000   0.00308   0.00308   2.04972
   R22        2.63091  -0.00177   0.00000  -0.00223  -0.00221   2.62870
   R23        2.04570   0.00254   0.00000   0.00415   0.00415   2.04985
   R24        2.65221  -0.00716   0.00000  -0.00984  -0.00976   2.64245
   R25        2.04536   0.00272   0.00000   0.00444   0.00444   2.04980
   R26        2.69637  -0.00732   0.00000  -0.01057  -0.01057   2.68580
   R27        2.53311  -0.11965   0.00000  -0.13159  -0.13159   2.40153
   R28        2.53308  -0.11436   0.00000  -0.12575  -0.12575   2.40733
    A1        1.91871   0.00404   0.00000   0.01184   0.01176   1.93046
    A2        1.92965   0.00061   0.00000   0.00143   0.00141   1.93105
    A3        1.88959   0.00707   0.00000   0.02126   0.02116   1.91075
    A4        1.90222  -0.00292   0.00000  -0.00942  -0.00943   1.89279
    A5        1.91737  -0.00504   0.00000  -0.01409  -0.01425   1.90312
    A6        1.90628  -0.00383   0.00000  -0.01118  -0.01122   1.89506
    A7        1.93324   0.00195   0.00000   0.00626   0.00625   1.93950
    A8        1.90565   0.00108   0.00000   0.00573   0.00574   1.91139
    A9        1.89736   0.00066   0.00000   0.00440   0.00441   1.90177
   A10        1.91648  -0.00148   0.00000  -0.00515  -0.00519   1.91129
   A11        1.90988  -0.00086   0.00000  -0.00281  -0.00285   1.90703
   A12        1.90083  -0.00138   0.00000  -0.00858  -0.00861   1.89222
   A13        1.93759  -0.00332   0.00000  -0.00614  -0.00613   1.93146
   A14        1.90413   0.00174   0.00000   0.00499   0.00499   1.90912
   A15        1.90639   0.00159   0.00000   0.00452   0.00453   1.91092
   A16        1.90681   0.00149   0.00000   0.00460   0.00461   1.91142
   A17        1.90607   0.00166   0.00000   0.00522   0.00523   1.91130
   A18        1.90254  -0.00318   0.00000  -0.01343  -0.01343   1.88911
   A19        2.12692  -0.00251   0.00000  -0.00595  -0.00595   2.12098
   A20        2.07745   0.00437   0.00000   0.01215   0.01215   2.08961
   A21        2.07881  -0.00186   0.00000  -0.00621  -0.00621   2.07260
   A22        2.08058  -0.00447   0.00000  -0.00964  -0.00964   2.07095
   A23        2.08442  -0.04117   0.00000  -0.08870  -0.08870   1.99572
   A24        2.11818   0.04564   0.00000   0.09834   0.09834   2.21652
   A25        2.23661  -0.04825   0.00000  -0.10396  -0.10396   2.13265
   A26        2.17506   0.00582   0.00000   0.01218   0.01223   2.18729
   A27        2.05039  -0.00269   0.00000  -0.00617  -0.00612   2.04427
   A28        2.05774  -0.00313   0.00000  -0.00602  -0.00612   2.05162
   A29        2.11314  -0.00779   0.00000  -0.01844  -0.01839   2.09475
   A30        2.13080  -0.00364   0.00000  -0.01298  -0.01300   2.11780
   A31        2.03924   0.01143   0.00000   0.03142   0.03139   2.07064
   A32        2.11619   0.00222   0.00000   0.00666   0.00652   2.12271
   A33        2.09977  -0.00740   0.00000  -0.02188  -0.02181   2.07796
   A34        2.06722   0.00518   0.00000   0.01522   0.01528   2.08251
   A35        2.09858   0.00288   0.00000   0.00805   0.00800   2.10658
   A36        2.09236  -0.00033   0.00000  -0.00076  -0.00074   2.09162
   A37        2.09224  -0.00255   0.00000  -0.00729  -0.00726   2.08498
   A38        2.10139  -0.01440   0.00000  -0.03366  -0.03357   2.06783
   A39        2.07215   0.01167   0.00000   0.03001   0.02996   2.10211
   A40        2.10964   0.00273   0.00000   0.00365   0.00361   2.11324
   A41        2.07932   0.02023   0.00000   0.04341   0.04354   2.12286
   A42        2.10567  -0.00793   0.00000  -0.01699  -0.01706   2.08861
   A43        2.09819  -0.01230   0.00000  -0.02642  -0.02648   2.07171
   A44        2.10372  -0.00593   0.00000  -0.01278  -0.01278   2.09094
   A45        2.10645  -0.00905   0.00000  -0.01949  -0.01949   2.08696
   A46        2.07301   0.01498   0.00000   0.03227   0.03226   2.10527
    D1       -3.12078  -0.00058   0.00000  -0.00291  -0.00295  -3.12373
    D2        1.04985  -0.00068   0.00000  -0.00421  -0.00426   1.04559
    D3       -1.02175  -0.00003   0.00000   0.00027   0.00023  -1.02151
    D4        1.06141   0.00004   0.00000   0.00025   0.00026   1.06167
    D5       -1.05114  -0.00006   0.00000  -0.00105  -0.00105  -1.05219
    D6       -3.12274   0.00060   0.00000   0.00343   0.00344  -3.11929
    D7       -1.02616  -0.00002   0.00000  -0.00010  -0.00007  -1.02623
    D8       -3.13871  -0.00013   0.00000  -0.00140  -0.00138  -3.14009
    D9        1.07288   0.00053   0.00000   0.00308   0.00312   1.07599
   D10        3.13390  -0.00008   0.00000  -0.00020  -0.00020   3.13370
   D11        1.03162  -0.00097   0.00000  -0.00530  -0.00529   1.02632
   D12       -1.04645   0.00092   0.00000   0.00536   0.00537  -1.04108
   D13       -1.04315   0.00155   0.00000   0.00761   0.00759  -1.03556
   D14        3.13775   0.00066   0.00000   0.00251   0.00249   3.14024
   D15        1.05968   0.00255   0.00000   0.01317   0.01315   1.07284
   D16        1.04234  -0.00156   0.00000  -0.00777  -0.00775   1.03459
   D17       -1.05994  -0.00246   0.00000  -0.01286  -0.01285  -1.07279
   D18       -3.13801  -0.00056   0.00000  -0.00220  -0.00219  -3.14019
   D19       -3.14066  -0.00003   0.00000  -0.00011  -0.00011  -3.14077
   D20        0.00072   0.00000   0.00000   0.00013   0.00013   0.00085
   D21       -1.03997   0.00101   0.00000   0.00521   0.00521  -1.03476
   D22        2.10142   0.00104   0.00000   0.00545   0.00545   2.10687
   D23        1.03950  -0.00100   0.00000  -0.00526  -0.00526   1.03423
   D24       -2.10230  -0.00096   0.00000  -0.00502  -0.00502  -2.10732
   D25       -0.00023  -0.00027   0.00000  -0.00181  -0.00177  -0.00200
   D26        3.14095   0.00019   0.00000   0.00131   0.00127  -3.14096
   D27        3.14157  -0.00030   0.00000  -0.00205  -0.00201   3.13956
   D28       -0.00043   0.00016   0.00000   0.00107   0.00103   0.00060
   D29       -3.14146  -0.00041   0.00000  -0.00280  -0.00288   3.13885
   D30       -0.00029   0.00005   0.00000   0.00036   0.00043   0.00014
   D31        0.18671  -0.00196   0.00000  -0.01487  -0.01486   0.17185
   D32       -2.95480  -0.00269   0.00000  -0.02003  -0.02003  -2.97483
   D33        3.14155  -0.00128   0.00000  -0.00891  -0.00890   3.13266
   D34       -0.00031  -0.00103   0.00000  -0.00723  -0.00725  -0.00755
   D35       -0.00012  -0.00054   0.00000  -0.00373  -0.00371  -0.00383
   D36        3.14121  -0.00030   0.00000  -0.00205  -0.00206   3.13915
   D37       -3.14145   0.00089   0.00000   0.00623   0.00622  -3.13523
   D38       -0.00003   0.00080   0.00000   0.00561   0.00561   0.00558
   D39        0.00022   0.00021   0.00000   0.00143   0.00146   0.00168
   D40       -3.14155   0.00012   0.00000   0.00081   0.00085  -3.14070
   D41       -0.00006   0.00031   0.00000   0.00211   0.00209   0.00204
   D42        3.14152   0.00047   0.00000   0.00324   0.00325  -3.13842
   D43       -3.14140   0.00007   0.00000   0.00052   0.00049  -3.14090
   D44        0.00018   0.00024   0.00000   0.00165   0.00165   0.00183
   D45       -0.00014   0.00037   0.00000   0.00251   0.00254   0.00240
   D46        3.14145   0.00021   0.00000   0.00143   0.00145  -3.14028
   D47       -3.14156   0.00046   0.00000   0.00312   0.00315  -3.13840
   D48        0.00003   0.00030   0.00000   0.00204   0.00206   0.00209
   D49       -0.00005  -0.00062   0.00000  -0.00421  -0.00419  -0.00424
   D50       -3.14157  -0.00029   0.00000  -0.00200  -0.00198   3.13964
   D51        3.14155  -0.00046   0.00000  -0.00312  -0.00310   3.13845
   D52        0.00003  -0.00014   0.00000  -0.00091  -0.00089  -0.00087
   D53        0.00014   0.00028   0.00000   0.00191   0.00190   0.00204
   D54       -3.14144   0.00012   0.00000   0.00078   0.00076  -3.14068
   D55       -3.14152  -0.00005   0.00000  -0.00035  -0.00032   3.14134
   D56        0.00009  -0.00021   0.00000  -0.00147  -0.00146  -0.00138
   D57       -0.71453   0.00293   0.00000   0.02158   0.02159  -0.69294
   D58        2.42698   0.00358   0.00000   0.02637   0.02639   2.45337
   D59        2.42705   0.00309   0.00000   0.02272   0.02271   2.44976
   D60       -0.71462   0.00375   0.00000   0.02752   0.02750  -0.68712
         Item               Value     Threshold  Converged?
 Maximum Force            0.119654     0.000450     NO 
 RMS     Force            0.018416     0.000300     NO 
 Maximum Displacement     0.225922     0.001800     NO 
 RMS     Displacement     0.073944     0.001200     NO 
 Predicted change in Energy=-4.302226D-02
 GradGradGradGradGradGradGradGradGradGradGradGradGradGradGradGradGradGrad

                          Input orientation:                          
 ---------------------------------------------------------------------
 Center     Atomic      Atomic             Coordinates (Angstroms)
 Number     Number       Type             X           Y           Z
 ---------------------------------------------------------------------
      1          6           0       11.932860    0.089584   -7.446815
      2          6           0       10.794245   -0.225167   -6.475824
      3          6           0       10.615380    0.896877   -5.454848
      4          7           0        9.529958    0.594038   -4.548729
      5          6           0        9.175606    1.454812   -3.540718
      6          8           0        9.809204    2.512845   -3.412102
      7          7           0        8.139219    1.026120   -2.777822
      8          6           0        7.650734    1.765764   -1.714552
      9          6           0        8.009807    3.101705   -1.413193
     10          6           0        6.715005    1.135143   -0.868537
     11          6           0        6.157235    1.795461    0.225283
     12          6           0        6.508282    3.109706    0.516031
     13          6           0        7.436493    3.750354   -0.310596
     14          1           0       12.042420   -0.715825   -8.189830
     15          1           0       12.886319    0.196645   -6.905599
     16          1           0       11.009226   -1.171284   -5.949815
     17          1           0        9.858871   -0.349208   -7.048120
     18          1           0       10.401759    1.842780   -5.983381
     19          1           0       11.550013    1.025140   -4.880904
     20          1           0        9.011941   -0.275787   -4.654512
     21          1           0        8.721698    3.641790   -2.018417
     22          1           0        6.423043    0.111389   -1.076339
     23          1           0        5.440867    1.282216    0.857770
     24          7           0        7.799424    5.092811   -0.017206
     25          1           0        6.070367    3.620102    1.367099
     26          8           0        9.008344    5.462840   -0.146084
     27          8           0        6.908375    5.912967    0.378019
     28          1           0       11.721704    1.020259   -7.962311
 ---------------------------------------------------------------------
                    Distance matrix (angstroms):
                    1          2          3          4          5
     1  C    0.000000
     2  C    1.529162   0.000000
     3  C    2.520994   1.527537   0.000000
     4  N    3.798330   2.446061   1.445995   0.000000
     5  C    4.972312   3.749289   2.459295   1.372072   0.000000
     6  O    5.163430   4.225329   2.726551   2.247603   1.239928
     7  N    6.088375   4.721239   3.648910   2.292806   1.356424
     8  C    7.348811   6.042779   4.851175   3.596802   2.399335
     9  C    7.801782   6.667188   5.290108   4.293115   2.932184
    10  C    8.461262   7.066280   6.025275   4.664823   3.646546
    11  C    9.753407   8.395811   7.276427   5.967401   4.838323
    12  C   10.097232   8.853072   7.577351   6.411778   5.129377
    13  C    9.194790   8.067794   6.686626   5.683898   4.327553
    14  H    1.101253   2.176351   3.481003   4.613656   5.877459
    15  H    1.101572   2.177018   2.784272   4.120427   5.164765
    16  H    2.164231   1.103648   2.162729   2.695856   4.007779
    17  H    2.157065   1.103555   2.159525   2.691626   4.002899
    18  H    2.749474   2.161700   1.104406   2.092276   2.760538
    19  H    2.757849   2.162920   1.104265   2.092083   2.760167
    20  H    4.057367   2.548794   2.141657   1.017904   2.064533
    21  H    7.238593   6.254381   4.788489   4.042839   2.703018
    22  H    8.422679   6.955222   6.112611   4.684374   3.931228
    23  H   10.608227   9.203937   8.171488   6.813552   5.772761
    24  N    9.864921   8.886146   7.423167   6.615769   5.248243
    25  H   11.158783   9.930385   8.637826   7.491518   6.198198
    26  O    9.524986   8.695314   7.184258   6.584877   5.255075
    27  O   10.972021   9.987584   8.539635   7.709510   6.353895
    28  H    1.084656   2.149630   2.743456   4.078965   5.120736
                    6          7          8          9         10
     6  O    0.000000
     7  N    2.324115   0.000000
     8  C    2.845839   1.384281   0.000000
     9  C    2.753220   2.487370   1.415799   0.000000
    10  C    4.235783   2.384458   1.410324   2.416718   0.000000
    11  C    5.204045   3.679509   2.448343   2.796945   1.394119
    12  C    5.165516   4.225015   2.843744   2.444698   2.420467
    13  C    4.096404   3.741988   2.440407   1.401840   2.769687
    14  H    6.183708   6.896317   8.208192   8.761182   9.241687
    15  H    5.199802   6.345198   7.537934   7.898497   8.684009
    16  H    4.631722   4.809061   6.151680   6.916349   7.041259
    17  H    4.627573   4.804599   6.147838   6.861503   7.090447
    18  H    2.722422   4.007696   5.079071   5.309702   6.344646
    19  H    2.720489   4.007053   5.077271   5.373099   6.283987
    20  H    3.155262   2.445111   3.829383   4.787261   4.647606
    21  H    2.097509   2.785266   2.181461   1.079249   3.410619
    22  H    4.763283   2.583996   2.156733   3.401952   1.084664
    23  H    6.231262   4.534779   3.425518   3.881658   2.150626
    24  N    4.713890   4.926909   3.737959   2.440809   4.190926
    25  H    6.168118   5.309355   3.928447   3.429313   3.404209
    26  O    4.473335   5.231244   4.239289   2.859651   4.950788
    27  O    5.860090   5.946056   4.704173   3.510668   4.941547
    28  H    5.156536   6.301838   7.494202   7.810348   8.683425
                   11         12         13         14         15
    11  C    0.000000
    12  C    1.391046   0.000000
    13  C    2.396930   1.398326   0.000000
    14  H   10.571475  11.002426  10.160888   0.000000
    15  H    9.934096  10.210087   9.264098   1.787181   0.000000
    16  H    8.394953   8.966189   8.293837   2.508505   2.511619
    17  H    8.438252   8.966990   8.250366   2.491144   3.079564
    18  H    7.521019   7.681576   6.679231   3.755881   3.119821
    19  H    7.466498   7.674072   6.725738   3.771261   2.563495
    20  H    6.020948   6.668162   6.128739   4.677170   4.505707
    21  H    3.875512   3.406722   2.140138   8.252414   7.286812
    22  H    2.144988   3.396000   3.854284   9.102936   8.704107
    23  H    1.084732   2.143801   3.382205  11.376807  10.811250
    24  N    3.691626   2.425715   1.421263  10.887380   9.864021
    25  H    2.154205   1.084707   2.167470  12.074790  11.252323
    26  O    4.660086   3.496562   2.330319  10.586944   9.405453
    27  O    4.188244   2.835030   2.330235  11.987799  11.021036
    28  H    9.929801  10.169948   9.185053   1.780059   1.775192
                   16         17         18         19         20
    16  H    0.000000
    17  H    1.790362   0.000000
    18  H    3.074853   2.496639   0.000000
    19  H    2.501859   3.073372   1.789546   0.000000
    20  H    2.543398   2.540087   2.861086   2.861027   0.000000
    21  H    6.622262   6.520670   4.666902   4.800005   4.730819
    22  H    6.813890   6.905014   6.550340   6.449456   4.433465
    23  H    9.130690   9.202358   8.469122   8.385710   6.750199
    24  N    9.205301   9.126371   7.275307   7.366711   7.196989
    25  H   10.044249  10.046097   8.714894   8.706198   7.751812
    26  O    9.038719   9.063189   7.008600   6.969347   7.297793
    27  O   10.346259  10.152231   8.320911   8.549381   8.249365
    28  H    3.059513   2.486229   2.516935   3.086190   4.468119
                   21         22         23         24         25
    21  H    0.000000
    22  H    4.316834   0.000000
    23  H    4.960232   2.465012   0.000000
    24  N    2.638352   5.275486   4.566072   0.000000
    25  H    4.300203   4.290202   2.474146   2.659851   0.000000
    26  O    2.627551   6.015579   5.586791   1.270833   3.783796
    27  O    3.766867   6.000751   4.881352   1.273902   2.633964
    28  H    7.155580   8.736044  10.831037   9.751649  11.213147
                   26         27         28
    26  O    0.000000
    27  O    2.210693   0.000000
    28  H    9.391074  10.801288   0.000000
 Stoichiometry    C10H12N3O3(1-)
 Framework group  C1[X(C10H12N3O3)]
 Deg. of freedom    78
 Full point group                 C1      NOp   1
 Largest Abelian subgroup         C1      NOp   1
 Largest concise Abelian subgroup C1      NOp   1
                         Standard orientation:                         
 ---------------------------------------------------------------------
 Center     Atomic      Atomic             Coordinates (Angstroms)
 Number     Number       Type             X           Y           Z
 ---------------------------------------------------------------------
      1          6           0        6.316946   -0.879420    0.027960
      2          6           0        5.211555    0.174710    0.100462
      3          6           0        3.830219   -0.467303   -0.013988
      4          7           0        2.792661    0.536652    0.066324
      5          6           0        1.464031    0.202977   -0.011038
      6          8           0        1.157949   -0.989893   -0.155242
      7          7           0        0.616313    1.257960    0.079916
      8          6           0       -0.758317    1.106929    0.018134
      9          6           0       -1.448578   -0.128636    0.055644
     10          6           0       -1.530461    2.282617   -0.084651
     11          6           0       -2.922590    2.239842   -0.145599
     12          6           0       -3.598261    1.024642   -0.103602
     13          6           0       -2.848951   -0.151776   -0.004139
     14          1           0        7.307784   -0.409655    0.129543
     15          1           0        6.281497   -1.413694   -0.934722
     16          1           0        5.346332    0.906888   -0.714271
     17          1           0        5.286733    0.707497    1.063955
     18          1           0        3.698078   -1.200485    0.801301
     19          1           0        3.751487   -1.002826   -0.976493
     20          1           0        3.045619    1.515707    0.182909
     21          1           0       -0.918512   -1.065697    0.131300
     22          1           0       -1.026693    3.242680   -0.116178
     23          1           0       -3.487956    3.162123   -0.225630
     24          7           0       -3.534430   -1.396096    0.037987
     25          1           0       -4.681627    0.996308   -0.149494
     26          8           0       -3.066079   -2.396793   -0.589922
     27          8           0       -4.617013   -1.495369    0.702055
     28          1           0        6.183039   -1.599510    0.827971
 ---------------------------------------------------------------------
 Rotational constants (GHZ):      1.2242946      0.2019181      0.1756975
 Basis read from rwf:  (6D, 7F)
 There are   328 symmetry adapted cartesian basis functions of A   symmetry.
 There are   328 symmetry adapted basis functions of A   symmetry.
   328 basis functions,   560 primitive gaussians,   328 cartesian basis functions
    59 alpha electrons       59 beta electrons
       nuclear repulsion energy      1022.0205696435 Hartrees.
 NAtoms=   28 NActive=   28 NUniq=   28 SFac= 1.00D+00 NAtFMM=   60 NAOKFM=F Big=F
 Integral buffers will be    131072 words long.
 Raffenetti 2 integral format.
 Two-electron integral symmetry is turned on.
 One-electron integrals computed using PRISM.
 NBasis=   328 RedAO= T EigKep=  1.55D-06  NBF=   328
 NBsUse=   328 1.00D-06 EigRej= -1.00D+00 NBFU=   328
 Initial guess from the checkpoint file:  "3Nitro_a1.M062X_6-31pGd_opt.chk"
 B after Tr=     0.000000   -0.000000   -0.000000
         Rot=    0.999998    0.000036   -0.000199   -0.001967 Ang=   0.23 deg.
 ExpMin= 4.38D-02 ExpMax= 5.48D+03 ExpMxC= 8.25D+02 IAcc=2 IRadAn=         4 AccDes= 0.00D+00
 Harris functional with IExCor= 1009 and IRadAn=       4 diagonalized for initial guess.
 HarFok:  IExCor= 1009 AccDes= 0.00D+00 IRadAn=         4 IDoV= 1 UseB2=F ITyADJ=14
 ICtDFT=  3500011 ScaDFX=  1.000000  1.000000  1.000000  1.000000
 FoFCou: FMM=F IPFlag=           0 FMFlag=      100000 FMFlg1=           0
         NFxFlg=           0 DoJE=T BraDBF=F KetDBF=T FulRan=T
         wScrn=  0.000000 ICntrl=     500 IOpCl=  0 I1Cent=   200000004 NGrid=           0
         NMat0=    1 NMatS0=      1 NMatT0=    0 NMatD0=    1 NMtDS0=    0 NMtDT0=    0
 Petite list used in FoFCou.
 Requested convergence on RMS density matrix=1.00D-08 within 128 cycles.
 Requested convergence on MAX density matrix=1.00D-06.
 Requested convergence on             energy=1.00D-06.
 No special actions if energy rises.
 SCF Done:  E(RM062X) =  -777.890758043     A.U. after   17 cycles
            NFock= 17  Conv=0.72D-08     -V/T= 2.0088
 Calling FoFJK, ICntrl=      2127 FMM=F ISym2X=0 I1Cent= 0 IOpClX= 0 NMat=1 NMatS=1 NMatT=0.
 ***** Axes restored to original set *****
 -------------------------------------------------------------------
 Center     Atomic                   Forces (Hartrees/Bohr)
 Number     Number              X              Y              Z
 -------------------------------------------------------------------
      1        6           0.001471473   -0.010167389    0.004364663
      2        6           0.000794051    0.000663023    0.000452164
      3        6          -0.004117507   -0.002166985    0.003016779
      4        7           0.001563872   -0.016589383   -0.013817260
      5        6          -0.018590589    0.010708782    0.023688129
      6        8           0.014352033    0.009687415   -0.007051055
      7        7          -0.009609680   -0.006346722    0.008554755
      8        6           0.020710002   -0.011896228   -0.030817994
      9        6          -0.000621516    0.018045369    0.015155168
[...]
 ,-0.00063211,-0.00075487,-0.00094314,0.04690021,0.00000264,0.00000493,
 0.00000949,-0.00001926,-0.00000779,-0.00000575,0.00002255,0.00003783,-
 0.00000939,-0.00012900,0.00008725,0.00024296,0.00028359,0.00021655,0.0
 0009129,0.00012310,0.00042801,-0.00007703,0.00179678,0.00121663,-0.000
 75534,-0.00093054,-0.01304645,-0.00620336,-0.00320730,-0.00077394,0.00
 183847,-0.05376395,-0.32783414,-0.04166131,-0.00378085,-0.00963991,0.0
 0018640,0.00082699,0.00164395,-0.00327062,-0.00044705,0.00115673,0.000
 86086,-0.00000329,0.00000145,0.00000616,0.,-0.00000097,-0.00000132,0.0
 0000037,0.00001083,0.00000249,0.00000062,-0.00000401,0.00000266,0.0000
 0759,-0.00000254,-0.00001187,-0.00001815,-0.00000015,0.00000729,-0.000
 04451,-0.00000960,0.00000329,0.00035325,-0.00082213,-0.00030365,0.0578
 5781,0.34785246,0.00000479,0.00000295,0.00000679,-0.00002224,-0.000000
 38,0.00000683,0.00011449,-0.00002832,0.00000984,-0.00005173,-0.0000619
 7,0.00005472,-0.00027237,0.00021867,-0.00060775,-0.00008621,-0.0004843
 8,0.00018812,-0.00194313,0.00068036,-0.00025379,0.00462060,0.01871974,
 0.00752847,0.00474041,0.00064534,-0.00064108,0.00159158,-0.04397644,-0
 .05555369,-0.00513941,-0.02323273,0.00037954,0.00548171,-0.00247745,-0
 .00058999,0.00091368,0.00029616,-0.00069497,-0.00000396,0.00000188,0.0
 0000706,-0.00000538,0.00000186,-0.00000204,0.00000339,-0.00000444,-0.0
 0000165,-0.00000052,0.00000172,-0.00000666,-0.00000905,-0.00000688,0.0
 0000729,-0.00002352,0.00001776,-0.00000929,0.00008293,-0.00004486,-0.0
 0004738,-0.00049426,0.00109452,-0.00010820,-0.00643055,0.04864780,0.05
 149296,0.00000709,0.00000846,0.00001348,-0.00003195,-0.00001236,-0.000
 00083,0.00011209,0.00003184,-0.00003729,-0.00015028,0.00007710,0.00031
 741,0.00009618,0.00034004,-0.00055275,-0.00011588,-0.00019493,0.000161
 65,-0.00093153,-0.00019815,0.00095433,0.00506708,0.00080774,0.00404780
 ,-0.00034436,0.00064975,-0.00030239,-0.00539709,-0.00902250,0.00792823
 ,-0.15303709,-0.09054116,0.11556026,-0.00029829,-0.00132135,0.00345413
 ,0.00453855,-0.00189620,0.00159521,-0.00000653,0.00000330,0.00001349,-
 0.00000517,0.00000078,-0.00000362,0.00000256,0.00000741,0.00000112,0.0
 0000138,-0.00000217,-0.00000452,0.00000462,-0.00001145,-0.00000895,-0.
 00004623,0.00001417,0.00000274,-0.00000263,-0.00002476,-0.00002490,-0.
 00039732,0.00008552,-0.00032335,-0.00230372,0.00128570,-0.00243876,0.1
 5513079,0.00000131,0.00000183,0.00000236,-0.00000202,0.00000002,-0.000
 00497,0.00002349,0.00000213,-0.00005382,0.00001392,0.00008769,0.000127
 68,0.00043477,0.00000233,-0.00042173,-0.00010761,-0.00007266,0.0000745
 6,0.00001672,0.00045069,0.00017614,0.00008624,-0.00097517,-0.00351149,
 0.00054542,-0.00029443,-0.00051445,0.01008735,0.01149397,-0.00988682,-
 0.09045614,-0.12772920,0.08145816,-0.01991786,-0.01041633,0.02056649,-
 0.00064607,-0.00463064,-0.00332570,-0.00000160,0.00000214,0.00000598,-
 0.00000119,-0.00000026,-0.00000140,0.00000074,0.00000293,0.00000101,0.
 00000089,-0.00000162,-0.00000005,0.00000329,-0.00000383,-0.00000613,-0
 .00002106,0.00000414,0.00000526,-0.00001244,-0.00000066,-0.00000674,0.
 00008958,0.00003528,0.00015573,0.00062319,0.00044101,0.00109897,0.0994
 9870,0.13179891,-0.00000697,-0.00000973,-0.00001495,0.00003419,0.00001
 021,0.00000478,-0.00009830,-0.00005360,0.00005469,0.00020671,-0.000067
 05,-0.00035779,-0.00050840,-0.00022108,0.00010471,0.00020388,0.0001678
 6,-0.00009906,0.00104375,0.00048949,-0.00123345,0.00379125,-0.00442882
 ,0.00143378,-0.00032528,-0.00068480,-0.00059444,0.01514234,0.01459666,
 -0.01046040,0.11557535,0.08152062,-0.15376291,-0.00353933,-0.00322820,
 0.00611005,0.00204738,-0.00170128,0.00306648,0.00000722,-0.00000408,-0
 .00001584,0.00000245,0.00000078,0.00000348,-0.00000172,-0.00000954,-0.
 00000098,-0.00000338,0.00000426,0.00000030,-0.00000440,0.00001399,0.00
 001215,0.00004291,-0.00001045,-0.00000978,0.00001497,0.00002340,0.0000
 3946,-0.00031826,0.00015133,-0.00020951,-0.00268938,0.00027346,-0.0010
 2695,-0.12861471,-0.08748748,0.15750384,0.00001505,0.00004270,0.000014
 81,-0.00007214,0.00000026,0.00001116,0.00018166,0.00013943,-0.00010224
 ,-0.00044319,-0.00035082,0.00059821,0.00308006,0.00367005,-0.00242949,
 -0.00119992,-0.00336555,0.00024632,-0.00273705,0.00092308,0.00284589,0
 .00607103,0.00003655,0.00654692,0.00671777,0.01138549,-0.00877044,-0.0
 0222099,0.00081956,0.00070271,0.00042746,-0.00279310,0.00872839,-0.004
 58391,-0.02252974,-0.00885665,-0.09221865,-0.00691817,0.01487681,-0.00
 001325,-0.00000870,-0.00000332,0.00000008,0.00000263,0.00000448,-0.000
 00221,-0.00004472,-0.00001019,0.00001022,0.00001089,-0.00000638,-0.000
 03223,-0.00000692,0.00005662,-0.00009756,0.00003196,0.00001419,0.00005
 096,-0.00012395,-0.00011959,-0.00481034,0.00148026,-0.00014510,-0.0008
 3549,0.00013041,-0.00028638,0.00069055,-0.00139383,0.00030547,0.547542
 45,0.00006789,0.00011743,0.00010466,-0.00023799,-0.00003359,-0.0000456
 9,0.00099170,0.00036599,-0.00077274,-0.00124799,0.00086563,0.00316925,
 0.00550039,0.00266061,-0.00610549,-0.00281790,-0.00299349,0.00225508,-
 0.00552716,-0.00006302,0.00705799,0.00500033,0.00295919,-0.00946972,0.
 00726428,-0.03487474,-0.02122117,0.00279086,0.00095722,-0.00257829,-0.
 00536778,0.01127328,0.00813545,-0.01696607,-0.03912696,0.00901002,-0.0
 0917904,-0.12119061,-0.00416269,-0.00006646,0.00003664,0.00013948,-0.0
 0003262,0.00000260,-0.00002992,0.00001020,-0.00000044,0.00001318,0.000
 03653,-0.00001132,-0.00001965,0.00003214,-0.00011342,-0.00006322,-0.00
 047597,0.00013562,0.00007381,-0.00002846,-0.00016342,-0.00032315,-0.00
 024850,0.00052206,0.00252825,0.00032421,-0.00010638,-0.00002008,0.0002
 6893,0.00028975,-0.00073675,0.09299454,0.68371221,0.00001023,-0.000014
 06,0.00002543,-0.00000542,-0.00002198,-0.00002756,0.00019352,-0.000049
 81,-0.00012297,0.00012585,0.00080637,0.00041678,-0.00198985,-0.0037140
 3,0.00075511,0.00055106,0.00320064,0.00062260,0.00058647,-0.00086907,-
 0.00174284,0.00834643,-0.00318838,-0.00080580,-0.01038019,-0.02633104,
 -0.00004023,0.00150124,0.00000045,-0.00377285,0.00775076,0.00484245,-0
 .00016078,-0.00679943,0.01592307,0.00988927,0.01386187,-0.00706874,-0.
 09913909,-0.00000848,0.00002333,0.00005576,-0.00001887,0.00000307,-0.0
 0001954,0.00000618,0.00005783,0.00001641,-0.00000604,-0.00001744,-0.00
 000867,0.00006022,-0.00003880,-0.00008941,-0.00007008,0.00002662,-0.00
 000390,-0.00011619,0.00007624,0.00002212,-0.00065742,0.00025956,-0.004
 31744,-0.00021500,0.00021536,-0.00074744,0.00093105,0.00139860,0.00066
 975,-0.37210339,0.04750769,0.74394107,0.00000126,0.00000181,0.00000255
 ,-0.00000772,-0.00000468,0.00000104,0.00004015,-0.00000997,-0.00001436
 ,0.00006360,0.00002886,0.00011554,-0.00032832,-0.00022739,-0.00015452,
 -0.00011137,0.00026285,0.00012465,-0.00001474,0.00018060,-0.00029477,-
 0.00090008,-0.00024150,-0.00066183,0.00054200,-0.00396441,0.00314669,0
 .00378423,-0.00244853,0.00240524,0.00562168,-0.00329832,-0.00619349,-0
 .09738303,0.05979009,0.11067531,-0.00497636,0.01150555,0.01313734,-0.0
 0000155,0.00000056,0.00000270,-0.00000268,0.00000132,-0.00000123,0.000
 00009,0.00000011,0.00000069,-0.00000052,-0.00000003,-0.00000325,0.0000
 0652,0.00000356,-0.00000060,-0.00001318,0.00001493,-0.00000644,0.00002
 235,-0.00000596,0.00001130,0.00090042,0.00037859,0.00123589,0.00042198
 ,-0.00028912,-0.00005202,-0.00214060,0.00123608,-0.00201369,-0.0037049
 1,0.00281228,0.00058794,0.09624207,0.00000133,0.00000319,0.00000218,-0
 .00000376,-0.00000001,-0.00000353,0.00001673,0.00001546,-0.00002576,-0
 .00002540,0.00008508,0.00009353,0.00017513,-0.00005861,-0.00014031,-0.
 00004552,0.00010463,0.00012733,0.00002528,0.00038017,0.00021177,-0.000
 16093,-0.00128991,0.00021356,-0.00297948,-0.00129715,0.00178609,-0.003
 26488,-0.00444161,0.00011119,0.01433529,-0.00836501,-0.02224433,0.0618
 4706,-0.12937559,-0.11736829,-0.00512992,0.01137906,0.01016535,-0.0000
 0142,0.00000076,0.00000281,-0.00000016,-0.00000039,-0.00000039,0.00000
 007,0.00000185,0.00000123,0.00000116,-0.00000067,0.00000021,0.00000299
 ,-0.00000333,-0.00000602,-0.00001315,-0.00000089,0.00000436,-0.0000259
 3,0.00000381,0.00000175,-0.00047491,0.00073395,0.00023063,0.00056618,-
 0.00044355,-0.00106811,0.00061638,0.00086709,0.00107406,0.00055981,0.0
 0044184,0.00103287,-0.06513017,0.13568657,-0.00000205,-0.00000102,-0.0
 0000231,0.00000107,-0.00000617,0.00000550,-0.00001015,-0.00001108,-0.0
 0000102,0.00006031,-0.00009103,0.00003063,0.00003168,0.00049086,-0.000
 21188,0.00007025,-0.00031276,-0.00026611,-0.00036335,0.00005407,0.0001
 8504,-0.00063772,0.00033330,-0.00039830,0.00352499,0.00303604,0.000755
 15,0.00211115,-0.00093169,0.00330533,0.00043130,0.00043128,0.00136082,
 0.11146113,-0.11477810,-0.21540991,0.00685995,-0.01114013,-0.01115858,
 0.00000128,-0.00000148,-0.00000373,-0.00000061,0.00000070,0.00000068,-
 0.00000012,-0.00000245,-0.00000253,-0.00000130,0.00000121,-0.00000252,
 -0.00000405,0.00000802,0.00001211,-0.00000092,0.00000627,-0.00000280,0
 .00002190,-0.00001469,0.00000822,0.00085461,-0.00088213,0.00029213,0.0
 0026563,0.00002776,0.00013851,-0.00224228,0.00027958,-0.00108326,-0.00
 032349,-0.00197245,-0.00447226,-0.11952565,0.12645327,0.22377237,-0.00
 001415,-0.00003513,-0.00001442,0.00005723,0.00000221,-0.00000772,-0.00
 020182,-0.00011458,0.00013486,0.00035179,0.00011819,-0.00062668,-0.002
 22560,-0.00235142,0.00188111,0.00109406,0.00209929,-0.00027819,0.00207
 107,-0.00027294,-0.00233473,-0.00132971,0.00116492,0.00041412,-0.00094
 847,0.00302989,0.00481867,-0.00021907,0.00034268,0.00096745,-0.0003537
 8,-0.00213722,-0.00172979,0.00498000,-0.00042547,-0.00175684,-0.002907
 02,-0.02880756,0.01711403,0.00001342,0.00000403,-0.00000663,0.00000492
 ,-0.00000473,-0.00000037,0.00000158,0.00002790,0.00000579,-0.00000512,
 -0.00000564,0.00001049,0.00000839,0.00001272,-0.00003392,0.00010939,-0
 .00003778,-0.00001499,-0.00003604,0.00007928,0.00007747,0.00099262,-0.
 00036309,-0.00124476,0.00017041,-0.00002646,-0.00009112,-0.00045438,-0
 .00025820,-0.00026057,-0.27227613,-0.16009765,0.19338900,0.00082097,0.
 00075208,-0.00039807,0.30276506,-0.00003714,-0.00007125,-0.00005515,0.
 00013610,0.00001595,0.00002288,-0.00051683,-0.00022510,0.00041069,0.00
 069726,-0.00040642,-0.00174674,-0.00343446,-0.00193042,0.00372078,0.00
 170928,0.00211204,-0.00134372,0.00295545,-0.00106848,-0.00412400,-0.00
 172242,0.00372768,0.00405785,-0.00237804,-0.00446744,0.00079480,-0.000
 97946,-0.00018328,0.00105191,-0.00128393,-0.00374185,0.00059504,0.0037
 8213,-0.00367055,-0.00760169,-0.03830865,-0.03345784,0.03049465,0.0000
 3600,-0.00001478,-0.00006488,0.00001355,0.,0.00001175,-0.00000468,0.00
 001066,-0.00000546,-0.00002237,0.00000325,0.00000818,-0.00000932,0.000
 05550,0.00002272,0.00025626,-0.00006803,-0.00004594,0.00001523,0.00011
 047,0.00017684,-0.00187636,-0.00509621,0.00048450,-0.00011846,-0.00024
 016,0.00002562,-0.00020280,-0.00107594,0.00006278,-0.15471015,-0.26204
 990,0.13388912,-0.00009883,0.00059829,0.00028455,0.18869602,0.25879698
 ,0.00000286,0.00002256,-0.00000003,-0.00002530,0.00000937,0.00000565,0
 .00000450,0.00008508,-0.00004327,-0.00017327,-0.00027887,0.00017500,0.
 00158255,0.00225270,-0.00104203,-0.00049981,-0.00196346,0.00006515,-0.
 00125895,-0.00014863,0.00173064,-0.00057834,0.00041875,-0.00035440,0.0
 0279921,-0.00637904,-0.00404169,0.00044334,-0.00066973,-0.00042370,-0.
 00136898,0.00175589,0.00138943,-0.00023988,-0.00217622,0.00322454,0.01
 360097,0.01806868,0.00755327,-0.00000353,-0.00000683,-0.00001132,0.000
 00766,-0.00000369,0.00000758,-0.00000148,-0.00003166,-0.00000585,0.000
 01073,0.00000847,0.00000594,-0.00003097,0.00000649,0.00003584,-0.00001
 688,-0.00000481,0.00001517,0.00003444,-0.00004640,-0.00004872,-0.00184
 334,-0.00146149,0.00191369,-0.00012649,-0.00009613,0.00023679,-0.00023
 150,0.00015503,-0.00022002,0.19533076,0.14095598,-0.28225458,-0.000775
 64,-0.00086043,0.00089250,-0.28877383,-0.16073693,0.34707551,0.0000005
 6,-0.00000788,0.00000549,0.00000181,-0.00000236,-0.00000954,0.00003633
 ,-0.00003831,-0.00001277,0.00005171,0.00022846,0.00003455,-0.00083595,
 -0.00152765,0.00058066,0.00027101,0.00123843,0.00012671,0.00066276,-0.
 00006341,-0.00100418,-0.00032006,0.00125272,-0.00075728,0.00218472,-0.
 00212147,-0.00028732,0.00077267,-0.00043848,-0.00100169,0.00040584,0.0
 0213182,-0.00021949,-0.00237316,-0.00646132,0.00298555,0.01474965,0.00
 969558,0.00972512,-0.00000154,0.00000904,0.00001835,-0.00000328,-0.000
 00104,-0.00000554,0.00000268,0.00002145,0.00000518,-0.00000119,-0.0000
 0764,0.00000197,0.00001667,-0.00001355,-0.00003383,0.00000184,0.000001
 45,-0.00000209,-0.00002380,0.00002475,0.00000127,0.00058973,-0.0008449
 0,-0.00055714,0.00013937,-0.00003337,-0.00020122,0.00001234,0.00015660
 ,-0.00003382,-0.17952568,0.08422467,0.16445784,0.00111761,-0.00164350,
 -0.00218603,-0.03247809,0.00739007,0.08214199,0.19454171,-0.00003580,-
 0.00005219,-0.00006081,0.00012761,0.00002339,0.00003133,-0.00055458,-0
 .00014810,0.00039466,0.00065114,-0.00060689,-0.00169064,-0.00253000,-0
 .00053546,0.00306757,0.00123375,0.00084838,-0.00113338,0.00230162,-0.0
 0141686,-0.00334788,-0.00118915,-0.00130569,0.00160721,-0.00575136,-0.
 00416330,0.00478579,0.00075205,-0.00083390,-0.00129703,0.00131689,0.00
 012966,-0.00148066,-0.00023645,-0.00441132,-0.00215607,0.01908764,-0.0
 3184567,-0.04450900,0.00003533,-0.00002552,-0.00008572,0.00002073,-0.0
 0000160,0.00002052,-0.00000794,-0.00002058,-0.00001051,-0.00001643,0.0
 0001234,0.00001040,-0.00002588,0.00007117,0.00005706,0.00025132,-0.000
 07655,-0.00003328,0.00002450,0.00009804,0.00017576,-0.00013243,0.00061
 347,0.00021215,-0.00002407,-0.00016769,-0.00004410,-0.00026548,-0.0002
 7797,0.00025147,0.08004587,-0.24353905,-0.16795754,-0.00049696,-0.0050
 2374,-0.00126269,-0.00141478,0.05229450,0.01113871,-0.09317550,0.24032
 982,-0.00001756,-0.00000627,-0.00003320,0.00004611,0.00001499,0.000023
 25,-0.00027599,-0.00000637,0.00016049,0.00020030,-0.00053077,-0.000669
 08,0.00027594,0.00173709,0.00055382,0.00012145,-0.00128037,-0.00058822
 ,-0.00015135,-0.00044637,-0.00009847,-0.00161977,-0.00164212,0.0003173
 2,-0.00172489,0.00014777,0.00480840,-0.00058069,0.00021131,0.00092043,
 -0.00049650,-0.00259019,-0.00068199,0.00538298,0.00606601,-0.00280094,
 0.01333973,-0.03226375,-0.01038627,0.00001549,-0.00002006,-0.00005516,
 0.00001669,-0.00000293,0.00001708,-0.00000599,-0.00003565,-0.00001212,
 -0.00000128,0.00001283,0.00000732,-0.00003589,0.00004486,0.00006289,0.
 00010895,-0.00004006,-0.00000427,0.00002717,0.00000625,0.00005415,-0.0
 0034288,0.00122068,0.00118291,-0.00020238,-0.00001734,0.00023382,-0.00
 019251,-0.00028324,0.00008242,0.16285860,-0.17341659,-0.35866573,-0.00
 174951,0.00020576,0.00225485,0.07877024,-0.00039296,-0.07589053,-0.253
 76339,0.20330211,0.43919054,-0.06369931,-0.06264896,0.00600933,-0.0075
 0042,-0.02987677,0.00379984,0.00071081,-0.00084811,-0.00118746,0.00003
 301,0.00063187,0.00001693,0.00008282,-0.00026760,-0.00012853,0.0000292
 2,0.00023901,-0.00004089,-0.00001429,0.00005188,0.00004598,0.00002575,
 -0.00002813,-0.00003734,-0.00000352,0.00001430,0.00000560,-0.00001363,
 -0.00000482,0.00001422,0.00000385,-0.00000549,-0.00000634,-0.00000450,
 0.00000761,0.00000695,0.00000250,0.00000469,-0.00000160,-0.00188627,-0
 .00282567,0.00017695,0.00673203,0.02465013,-0.00157774,-0.00496467,-0.
 00014982,0.00372362,0.00079849,0.00002328,-0.00099488,0.00022853,0.000
 68331,0.00051088,-0.00000544,0.00016343,0.00005235,0.00006086,-0.00000
 759,-0.00036211,0.00000236,-0.00000453,0.00000376,0.00000173,0.0000014
 4,-0.00000174,-0.00000016,-0.00000025,0.00000036,-0.00001364,-0.000025
 37,0.00001068,0.00000013,-0.00000036,0.00000054,0.00000846,0.00001660,
 -0.00001082,0.00000374,0.00000839,-0.00000309,0.06938155,-0.06279788,-
 0.29600811,0.02851601,-0.00091915,-0.00212224,0.00041087,0.00053187,0.
 00059417,-0.00060538,-0.00004025,0.00072381,0.00038922,0.00012060,-0.0
 0046998,-0.00031555,0.00003433,0.00026657,0.00006550,-0.00015758,0.000
 11223,0.00023544,0.00007107,-0.00010526,-0.00014195,-0.00000310,0.0000
 5592,0.00002765,-0.00003847,-0.00000608,0.00004969,0.00001038,-0.00001
 561,-0.00001885,-0.00001768,0.00002032,0.00003007,0.00001373,0.0000075
 7,-0.00001377,-0.00228966,-0.01198641,0.00169630,-0.00357709,-0.013982
 32,0.00083291,-0.00054885,0.00162892,-0.00014538,-0.00042608,0.0005190
 9,0.00004587,-0.00008983,0.00008493,0.00064664,-0.00013837,-0.00007053
 ,0.00008984,0.00006682,-0.00009951,-0.00018075,-0.00000253,-0.00001076
 ,-0.00000262,0.00000302,0.00000179,-0.00000324,-0.00000250,-0.00000121
 ,0.00000247,-0.00002784,-0.00007374,0.00000765,-0.00000130,-0.00000129
 ,0.00000099,0.00002347,0.00004231,-0.00001336,0.00000535,0.00003128,0.
 00000537,0.07019752,0.32086415,0.00612408,0.02822861,-0.05230971,0.003
 83041,0.01714598,-0.00256645,0.00001475,0.00161413,0.00080761,-0.00011
 114,-0.00039257,-0.00012109,0.00011251,0.00019852,-0.00011271,-0.00018
 457,-0.00015879,0.00010286,-0.00012373,-0.00002106,0.00014588,0.000043
 59,-0.00006447,-0.00006640,-0.00000201,0.00003734,0.00001619,-0.000017
 67,0.00000340,0.00002004,0.00000187,-0.00000291,-0.00000741,-0.0000127
 2,0.00000555,0.00001843,0.00000709,-0.00000761,-0.00001746,-0.00728355
 ,-0.03008399,0.00463150,0.00483591,0.01629184,-0.00232020,0.00335936,0
 .00005535,-0.00135963,-0.00056863,-0.00058907,0.00051664,0.00022687,-0
 .00061835,-0.00021293,-0.00012398,0.00000872,-0.00005179,-0.00010576,-
 0.00003250,0.00019776,0.00000909,-0.00000567,-0.00000561,0.00000073,-0
 .00000265,0.00000016,-0.00000256,-0.00000154,0.00000348,0.00001532,-0.
 00001324,-0.00002322,0.00000012,-0.00000076,0.00000137,-0.00001061,0.0
 0000280,0.00000945,-0.00000935,0.00001458,0.00001630,-0.01002543,-0.03
 161164,0.05268696\\-0.00000058,-0.00000193,0.00000204,-0.00000724,-0.0
 0000408,-0.00000090,0.00001156,0.00000780,-0.00000072,-0.00001678,-0.0
 0000371,0.00000243,-0.00001262,-0.00000341,-0.00000762,0.00000786,0.00
 000710,0.00000264,0.00000428,0.00000112,0.00000121,0.00001230,-0.00000
 405,-0.00000198,-0.00000014,-0.00000232,-0.00000250,-0.00000299,-0.000
 00072,-0.00000285,-0.00000134,0.00000519,0.00000158,0.00000087,-0.0000
 0662,-0.00000220,0.00000034,0.00001608,0.00000571,0.00000138,-0.000000
 18,0.00000146,-0.00000134,0.00000036,-0.00000113,0.00000159,0.00000244
 ,-0.00000054,0.00000099,-0.00000136,0.00000112,-0.00000204,-0.00000629
 ,0.00000255,0.00000169,0.00000016,0.00000025,0.00000580,0.00000101,0.0
 0000240,-0.00000184,-0.00000096,0.00000002,0.00000120,0.00000081,-0.00
 000015,0.00000006,0.,0.00000082,-0.00000226,0.00000009,-0.00000191,0.,
 0.00000293,0.00000072,-0.00000016,-0.00000273,-0.00000266,-0.00000079,
 -0.00000767,0.00000098,0.00000022,0.00000094,-0.00000077\\\@


 A SCIENTIST IS SOMEONE WHOSE CURIOSITY SURVIVES
 EDUCATION'S ASSAULTS ON IT.
                          - SIR HERMANN BONDI
 Job cpu time:       0 days  2 hours 15 minutes 33.6 seconds.
 File lengths (MBytes):  RWF=    323 Int=      0 D2E=      0 Chk=      9 Scr=      1
 Normal termination of Gaussian 09 at Tue Feb  5 12:22:36 2019.
WARNING: pbs_rusage is deprecated and values produced may not be accurate


=============================================================================
                                     Resource usage:
                                       CPU time:              10:39:26
   JobId:    5387202.r-man2            Elapsed time:          02:41:23
   Project:             q95            Requested time:        32:00:00
   Service Units:     10.76 
                                       Max physical memory:      581MB
                                       Max virtual memory:      1147MB
                                       Requested memory:           0MB

                                       Number of cpus:               4

                                       Max jobfs disk use:       0.3GB
                                       Requested jobfs:         16.0GB
=============================================================================

