 Entering Gaussian System, Link 0=/apps/gaussian/g09e01/g09/g09
 AtFile(1): /home/507/hio507/Basis/6-31pGd.gbs
 Initial command:
 /apps/gaussian/g09e01/g09/l1.exe "/jobfs/local/1828131.r-man2/Gau-41695.inp" -scrdir="/jobfs/local/1828131.r-man2/"
 Entering Link 1 = /apps/gaussian/g09e01/g09/l1.exe PID=     41702.
  
 Copyright (c) 1988,1990,1992,1993,1995,1998,2003,2009,2015,
            Gaussian, Inc.  All Rights Reserved.
  
 This is part of the Gaussian(R) 09 program.  It is based on
 the Gaussian(R) 03 system (copyright 2003, Gaussian, Inc.),
 the Gaussian(R) 98 system (copyright 1998, Gaussian, Inc.),
 the Gaussian(R) 94 system (copyright 1995, Gaussian, Inc.),
 the Gaussian 92(TM) system (copyright 1992, Gaussian, Inc.),
 the Gaussian 90(TM) system (copyright 1990, Gaussian, Inc.),
 the Gaussian 88(TM) system (copyright 1988, Gaussian, Inc.),
 the Gaussian 86(TM) system (copyright 1986, Carnegie Mellon
 University), and the Gaussian 82(TM) system (copyright 1983,
 Carnegie Mellon University). Gaussian is a federally registered
 trademark of Gaussian, Inc.
  
 This software contains proprietary and confidential information,
 including trade secrets, belonging to Gaussian, Inc.
  
 This software is provided under written license and may be
 used, copied, transmitted, or stored only in accord with that
 written license.
  
 The following legend is applicable only to US Government
 contracts under FAR:
  
                    RESTRICTED RIGHTS LEGEND
  
 Use, reproduction and disclosure by the US Government is
 subject to restrictions as set forth in subparagraphs (a)
 and (c) of the Commercial Computer Software - Restricted
 Rights clause in FAR 52.227-19.
  
 Gaussian, Inc.
 340 Quinnipiac St., Bldg. 40, Wallingford CT 06492
  
  
 ---------------------------------------------------------------
 Warning -- This program may not be used in any manner that
 competes with the business of Gaussian, Inc. or will provide
 assistance to any competitor of Gaussian, Inc.  The licensee
 of this program is prohibited from giving any competitor of
 Gaussian, Inc. access to this program.  By using this program,
 the user acknowledges that Gaussian, Inc. is engaged in the
 business of creating and licensing software in the field of
 computational chemistry and represents and warrants to the
 licensee that it is not a competitor of Gaussian, Inc. and that
 it will not use this program in any manner prohibited above.
 ---------------------------------------------------------------
  

 Cite this work as:
 Gaussian 09, Revision E.01,
 M. J. Frisch, G. W. Trucks, H. B. Schlegel, G. E. Scuseria, 
 M. A. Robb, J. R. Cheeseman, G. Scalmani, V. Barone, B. Mennucci, 
 G. A. Petersson, H. Nakatsuji, M. Caricato, X. Li, H. P. Hratchian, 
 A. F. Izmaylov, J. Bloino, G. Zheng, J. L. Sonnenberg, M. Hada, 
 M. Ehara, K. Toyota, R. Fukuda, J. Hasegawa, M. Ishida, T. Nakajima, 
 Y. Honda, O. Kitao, H. Nakai, T. Vreven, J. A. Montgomery, Jr., 
 J. E. Peralta, F. Ogliaro, M. Bearpark, J. J. Heyd, E. Brothers, 
 K. N. Kudin, V. N. Staroverov, T. Keith, R. Kobayashi, J. Normand, 
 K. Raghavachari, A. Rendell, J. C. Burant, S. S. Iyengar, J. Tomasi, 
 M. Cossi, N. Rega, J. M. Millam, M. Klene, J. E. Knox, J. B. Cross, 
 V. Bakken, C. Adamo, J. Jaramillo, R. Gomperts, R. E. Stratmann, 
 O. Yazyev, A. J. Austin, R. Cammi, C. Pomelli, J. W. Ochterski, 
 R. L. Martin, K. Morokuma, V. G. Zakrzewski, G. A. Voth, 
 P. Salvador, J. J. Dannenberg, S. Dapprich, A. D. Daniels, 
 O. Farkas, J. B. Foresman, J. V. Ortiz, J. Cioslowski, 
 and D. J. Fox, Gaussian, Inc., Wallingford CT, 2013.
 
 ******************************************
 Gaussian 09:  ES64L-G09RevE.01 30-Nov-2015
                30-Oct-2018 
 ******************************************
 %chk=4SulfOxyMethyl.M062X_6-31pGd_opt.chk
 %mem=196608000
 %nproc=4
 Will use up to    4 processors via shared memory.
 ----------------------------------------------------------------------
 # M062X/Gen 6D SCF=Tight INT(grid=ultrafine) OPT IOP(2/17=4) maxdisk=2
 147483648
 ----------------------------------------------------------------------
 1/14=-1,18=20,19=15,26=4,38=1/1,3;
 2/9=110,12=2,17=4,18=5,40=1/2;
 3/5=7,8=2,11=2,16=1,25=1,30=1,71=1,74=-55,75=-5/1,2,3;
 4//1;
 5/5=2,32=2,38=5/2;
 6/7=2,8=2,9=2,10=2,28=1/1;
 7//1,2,3,16;
 1/14=-1,18=20,19=15,26=4/3(2);
 2/9=110,17=4/2;
 99//99;
 2/9=110,17=4/2;
 3/5=7,6=1,8=2,11=2,16=1,25=1,30=1,71=1,74=-55,75=-5,82=7/1,2,3;
 4/5=5,16=3,69=1/1;
 5/5=2,32=2,38=5/2;
 7//1,2,3,16;
 1/14=-1,18=20,19=15,26=4/3(-5);
 2/9=110,17=4/2;
 6/7=2,8=2,9=2,10=2,19=2,28=1/1;
 99/9=1/99;
 --------------------------------
 4SulfOxyMethyl.M062X_6-31pGd_opt
 --------------------------------
 Symbolic Z-matrix:
 Charge =  0 Multiplicity = 1
 C                    -2.11712   1.94256  -0.02386 
 C                    -0.79202   1.19505   0.09313 
 C                     0.39854   2.1541   -0.0209 
 N                     1.65725   1.43652   0.08472 
 C                     2.8588    2.07549   0.00505 
 O                     2.8813    3.28517  -0.15698 
 N                     4.01518   1.34927   0.10388 
 C                     5.3705    1.82978   0.03765 
 C                     5.73374   3.18851  -0.1322 
 C                     6.40672   0.88121   0.14803 
 C                     7.74908   1.26289   0.08969 
 C                     8.09037   2.60698  -0.08084 
 C                     7.07991   3.56437  -0.18937 
 H                    -2.95886   1.22338   0.06102 
 H                    -2.1855    2.45528  -1.00704 
 H                    -2.20892   2.69546   0.78774 
 H                    -0.73457   0.43561  -0.71695 
 H                    -0.75628   0.6744    1.07486 
 H                     0.33855   2.91147   0.79176 
 H                     0.35532   2.67336  -1.00384 
 H                     1.64084   0.41334   0.22043 
 H                     3.90395   0.33184   0.23706 
 H                     5.02039   3.98636  -0.22433 
 H                     6.17379  -0.16823   0.27964 
 H                     8.51864   0.50722   0.17795 
 S                     9.80958   3.11994  -0.16022 
 O                     10.65643   1.87293  -0.46005 
 O                     10.27371   3.38393   1.28004 
 H                     7.33533   4.60837  -0.32006 
 C                     10.44619   4.4613   -1.20643 
 H                     10.13672   4.30196  -2.21823 
 H                     11.51502   4.47458  -1.15825 
 H                     10.06185   5.39755  -0.85913 
 

 GradGradGradGradGradGradGradGradGradGradGradGradGradGradGradGradGradGrad
 Berny optimization.
 Initialization pass.
                           ----------------------------
                           !    Initial Parameters    !
                           ! (Angstroms and Degrees)  !
 --------------------------                            --------------------------
 ! Name  Definition              Value          Derivative Info.                !
 --------------------------------------------------------------------------------
 ! R1    R(1,2)                  1.5259         estimate D2E/DX2                !
 ! R2    R(1,14)                 1.1104         estimate D2E/DX2                !
 ! R3    R(1,15)                 1.1109         estimate D2E/DX2                !
 ! R4    R(1,16)                 1.1108         estimate D2E/DX2                !
 ! R5    R(2,3)                  1.533          estimate D2E/DX2                !
 ! R6    R(2,17)                 1.1119         estimate D2E/DX2                !
 ! R7    R(2,18)                 1.1118         estimate D2E/DX2                !
 ! R8    R(3,4)                  1.4527         estimate D2E/DX2                !
 ! R9    R(3,19)                 1.1125         estimate D2E/DX2                !
 ! R10   R(3,20)                 1.1125         estimate D2E/DX2                !
 ! R11   R(4,5)                  1.3632         estimate D2E/DX2                !
 ! R12   R(4,21)                 1.0323         estimate D2E/DX2                !
 ! R13   R(5,6)                  1.2207         estimate D2E/DX2                !
 ! R14   R(5,7)                  1.3691         estimate D2E/DX2                !
 ! R15   R(7,8)                  1.4395         estimate D2E/DX2                !
 ! R16   R(7,22)                 1.0321         estimate D2E/DX2                !
 ! R17   R(8,9)                  1.4167         estimate D2E/DX2                !
 ! R18   R(8,10)                 1.4092         estimate D2E/DX2                !
 ! R19   R(9,13)                 1.3988         estimate D2E/DX2                !
 ! R20   R(9,23)                 1.0742         estimate D2E/DX2                !
 ! R21   R(10,11)                1.3968         estimate D2E/DX2                !
 ! R22   R(10,24)                1.083          estimate D2E/DX2                !
 ! R23   R(11,12)                1.3972         estimate D2E/DX2                !
 ! R24   R(11,25)                1.0822         estimate D2E/DX2                !
 ! R25   R(12,13)                1.3962         estimate D2E/DX2                !
 ! R26   R(12,26)                1.7959         estimate D2E/DX2                !
 ! R27   R(13,29)                1.0827         estimate D2E/DX2                !
 ! R28   R(26,27)                1.5369         estimate D2E/DX2                !
 ! R29   R(26,28)                1.5361         estimate D2E/DX2                !
 ! R30   R(26,30)                1.8163         estimate D2E/DX2                !
 ! R31   R(30,31)                1.07           estimate D2E/DX2                !
 ! R32   R(30,32)                1.07           estimate D2E/DX2                !
 ! R33   R(30,33)                1.07           estimate D2E/DX2                !
 ! A1    A(2,1,14)             109.5821         estimate D2E/DX2                !
 ! A2    A(2,1,15)             110.328          estimate D2E/DX2                !
 ! A3    A(2,1,16)             110.3515         estimate D2E/DX2                !
 ! A4    A(14,1,15)            108.6574         estimate D2E/DX2                !
 ! A5    A(14,1,16)            108.6924         estimate D2E/DX2                !
 ! A6    A(15,1,16)            109.1899         estimate D2E/DX2                !
 ! A7    A(1,2,3)              111.2378         estimate D2E/DX2                !
 ! A8    A(1,2,17)             108.8815         estimate D2E/DX2                !
 ! A9    A(1,2,18)             108.9668         estimate D2E/DX2                !
 ! A10   A(3,2,17)             109.4492         estimate D2E/DX2                !
 ! A11   A(3,2,18)             109.4915         estimate D2E/DX2                !
 ! A12   A(17,2,18)            108.7723         estimate D2E/DX2                !
 ! A13   A(2,3,4)              111.0058         estimate D2E/DX2                !
 ! A14   A(2,3,19)             109.2494         estimate D2E/DX2                !
 ! A15   A(2,3,20)             109.1195         estimate D2E/DX2                !
 ! A16   A(4,3,19)             109.2621         estimate D2E/DX2                !
 ! A17   A(4,3,20)             109.1747         estimate D2E/DX2                !
 ! A18   A(19,3,20)            108.9996         estimate D2E/DX2                !
 ! A19   A(3,4,5)              121.8648         estimate D2E/DX2                !
 ! A20   A(3,4,21)             119.0378         estimate D2E/DX2                !
 ! A21   A(5,4,21)             119.097          estimate D2E/DX2                !
 ! A22   A(4,5,6)              119.242          estimate D2E/DX2                !
 ! A23   A(4,5,7)              119.4474         estimate D2E/DX2                !
 ! A24   A(6,5,7)              121.3103         estimate D2E/DX2                !
 ! A25   A(5,7,8)              127.9418         estimate D2E/DX2                !
 ! A26   A(5,7,22)             116.1794         estimate D2E/DX2                !
 ! A27   A(8,7,22)             115.8779         estimate D2E/DX2                !
 ! A28   A(7,8,9)              124.5467         estimate D2E/DX2                !
 ! A29   A(7,8,10)             117.6482         estimate D2E/DX2                !
 ! A30   A(9,8,10)             117.805          estimate D2E/DX2                !
 ! A31   A(8,9,13)             120.6213         estimate D2E/DX2                !
 ! A32   A(8,9,23)             123.5298         estimate D2E/DX2                !
 ! A33   A(13,9,23)            115.8488         estimate D2E/DX2                !
 ! A34   A(8,10,11)            121.2975         estimate D2E/DX2                !
 ! A35   A(8,10,24)            120.2416         estimate D2E/DX2                !
 ! A36   A(11,10,24)           118.4609         estimate D2E/DX2                !
 ! A37   A(10,11,12)           120.1801         estimate D2E/DX2                !
 ! A38   A(10,11,25)           119.2885         estimate D2E/DX2                !
 ! A39   A(12,11,25)           120.5314         estimate D2E/DX2                !
 ! A40   A(11,12,13)           119.4953         estimate D2E/DX2                !
 ! A41   A(11,12,26)           120.9318         estimate D2E/DX2                !
 ! A42   A(13,12,26)           119.5728         estimate D2E/DX2                !
 ! A43   A(9,13,12)            120.6005         estimate D2E/DX2                !
 ! A44   A(9,13,29)            119.4098         estimate D2E/DX2                !
 ! A45   A(12,13,29)           119.9897         estimate D2E/DX2                !
 ! A46   A(12,26,27)           107.7195         estimate D2E/DX2                !
 ! A47   A(12,26,28)           107.2719         estimate D2E/DX2                !
 ! A48   A(12,26,30)           124.8851         estimate D2E/DX2                !
 ! A49   A(27,26,28)            98.9675         estimate D2E/DX2                !
 ! A50   A(27,26,30)           107.0799         estimate D2E/DX2                !
 ! A51   A(28,26,30)           107.8939         estimate D2E/DX2                !
 ! A52   A(26,30,31)           109.4707         estimate D2E/DX2                !
 ! A53   A(26,30,32)           109.4715         estimate D2E/DX2                !
 ! A54   A(26,30,33)           109.4712         estimate D2E/DX2                !
 ! A55   A(31,30,32)           109.4714         estimate D2E/DX2                !
 ! A56   A(31,30,33)           109.4715         estimate D2E/DX2                !
 ! A57   A(32,30,33)           109.471          estimate D2E/DX2                !
 ! D1    D(14,1,2,3)           179.9313         estimate D2E/DX2                !
 ! D2    D(14,1,2,17)           59.2362         estimate D2E/DX2                !
 ! D3    D(14,1,2,18)          -59.2652         estimate D2E/DX2                !
 ! D4    D(15,1,2,3)            60.3349         estimate D2E/DX2                !
 ! D5    D(15,1,2,17)          -60.3601         estimate D2E/DX2                !
 ! D6    D(15,1,2,18)         -178.8615         estimate D2E/DX2                !
 ! D7    D(16,1,2,3)           -60.4147         estimate D2E/DX2                !
 ! D8    D(16,1,2,17)          178.8903         estimate D2E/DX2                !
 ! D9    D(16,1,2,18)           60.3889         estimate D2E/DX2                !
 ! D10   D(1,2,3,4)           -179.727          estimate D2E/DX2                !
 ! D11   D(1,2,3,19)            59.7164         estimate D2E/DX2                !
 ! D12   D(1,2,3,20)           -59.3636         estimate D2E/DX2                !
 ! D13   D(17,2,3,4)           -59.3666         estimate D2E/DX2                !
 ! D14   D(17,2,3,19)         -179.9231         estimate D2E/DX2                !
 ! D15   D(17,2,3,20)           60.9968         estimate D2E/DX2                !
 ! D16   D(18,2,3,4)            59.7783         estimate D2E/DX2                !
 ! D17   D(18,2,3,19)          -60.7783         estimate D2E/DX2                !
 ! D18   D(18,2,3,20)         -179.8583         estimate D2E/DX2                !
 ! D19   D(2,3,4,5)            179.6294         estimate D2E/DX2                !
 ! D20   D(2,3,4,21)            -0.1394         estimate D2E/DX2                !
 ! D21   D(19,3,4,5)           -59.8216         estimate D2E/DX2                !
 ! D22   D(19,3,4,21)          120.4096         estimate D2E/DX2                !
 ! D23   D(20,3,4,5)            59.2986         estimate D2E/DX2                !
 ! D24   D(20,3,4,21)         -120.4701         estimate D2E/DX2                !
 ! D25   D(3,4,5,6)              0.1463         estimate D2E/DX2                !
 ! D26   D(3,4,5,7)           -179.6508         estimate D2E/DX2                !
 ! D27   D(21,4,5,6)           179.9149         estimate D2E/DX2                !
 ! D28   D(21,4,5,7)             0.1178         estimate D2E/DX2                !
 ! D29   D(4,5,7,8)            179.6096         estimate D2E/DX2                !
 ! D30   D(4,5,7,22)            -0.0248         estimate D2E/DX2                !
 ! D31   D(6,5,7,8)             -0.1831         estimate D2E/DX2                !
 ! D32   D(6,5,7,22)          -179.8175         estimate D2E/DX2                !
 ! D33   D(5,7,8,9)              0.7812         estimate D2E/DX2                !
 ! D34   D(5,7,8,10)          -179.1406         estimate D2E/DX2                !
 ! D35   D(22,7,8,9)          -179.5835         estimate D2E/DX2                !
 ! D36   D(22,7,8,10)            0.4948         estimate D2E/DX2                !
 ! D37   D(7,8,9,13)          -179.8145         estimate D2E/DX2                !
 ! D38   D(7,8,9,23)             0.1874         estimate D2E/DX2                !
 ! D39   D(10,8,9,13)            0.1071         estimate D2E/DX2                !
 ! D40   D(10,8,9,23)         -179.891          estimate D2E/DX2                !
 ! D41   D(7,8,10,11)          179.7964         estimate D2E/DX2                !
 ! D42   D(7,8,10,24)           -0.117          estimate D2E/DX2                !
 ! D43   D(9,8,10,11)           -0.1308         estimate D2E/DX2                !
 ! D44   D(9,8,10,24)          179.9559         estimate D2E/DX2                !
 ! D45   D(8,9,13,12)            0.0376         estimate D2E/DX2                !
 ! D46   D(8,9,13,29)          179.9773         estimate D2E/DX2                !
 ! D47   D(23,9,13,12)        -179.9641         estimate D2E/DX2                !
 ! D48   D(23,9,13,29)          -0.0245         estimate D2E/DX2                !
 ! D49   D(8,10,11,12)           0.0093         estimate D2E/DX2                !
 ! D50   D(8,10,11,25)        -179.993          estimate D2E/DX2                !
 ! D51   D(24,10,11,12)        179.9242         estimate D2E/DX2                !
 ! D52   D(24,10,11,25)         -0.0782         estimate D2E/DX2                !
 ! D53   D(10,11,12,13)          0.1384         estimate D2E/DX2                !
 ! D54   D(10,11,12,26)       -179.9391         estimate D2E/DX2                !
 ! D55   D(25,11,12,13)       -179.8592         estimate D2E/DX2                !
 ! D56   D(25,11,12,26)          0.0632         estimate D2E/DX2                !
 ! D57   D(11,12,13,9)          -0.1618         estimate D2E/DX2                !
 ! D58   D(11,12,13,29)        179.899          estimate D2E/DX2                !
 ! D59   D(26,12,13,9)         179.9147         estimate D2E/DX2                !
 ! D60   D(26,12,13,29)         -0.0246         estimate D2E/DX2                !
 ! D61   D(11,12,26,27)         17.6597         estimate D2E/DX2                !
 ! D62   D(11,12,26,28)        -88.0469         estimate D2E/DX2                !
 ! D63   D(11,12,26,30)        144.4332         estimate D2E/DX2                !
 ! D64   D(13,12,26,27)       -162.4179         estimate D2E/DX2                !
 ! D65   D(13,12,26,28)         91.8756         estimate D2E/DX2                !
 ! D66   D(13,12,26,30)        -35.6444         estimate D2E/DX2                !
 ! D67   D(12,26,30,31)        -52.7379         estimate D2E/DX2                !
 ! D68   D(12,26,30,32)       -172.738          estimate D2E/DX2                !
 ! D69   D(12,26,30,33)         67.2622         estimate D2E/DX2                !
 ! D70   D(27,26,30,31)         74.3024         estimate D2E/DX2                !
 ! D71   D(27,26,30,32)        -45.6976         estimate D2E/DX2                !
 ! D72   D(27,26,30,33)       -165.6975         estimate D2E/DX2                !
 ! D73   D(28,26,30,31)       -180.0            estimate D2E/DX2                !
 ! D74   D(28,26,30,32)         59.9999         estimate D2E/DX2                !
 ! D75   D(28,26,30,33)        -59.9999         estimate D2E/DX2                !
 --------------------------------------------------------------------------------
 Trust Radius=3.00D-01 FncErr=1.00D-07 GrdErr=1.00D-06
 Number of steps in this run=    175 maximum allowed number of steps=    198.
 GradGradGradGradGradGradGradGradGradGradGradGradGradGradGradGradGradGrad

                          Input orientation:                          
 ---------------------------------------------------------------------
 Center     Atomic      Atomic             Coordinates (Angstroms)
 Number     Number       Type             X           Y           Z
 ---------------------------------------------------------------------
      1          6           0       -2.117120    1.942560   -0.023860
      2          6           0       -0.792020    1.195050    0.093130
      3          6           0        0.398540    2.154100   -0.020900
      4          7           0        1.657250    1.436520    0.084720
      5          6           0        2.858800    2.075490    0.005050
      6          8           0        2.881300    3.285170   -0.156980
      7          7           0        4.015180    1.349270    0.103880
      8          6           0        5.370500    1.829780    0.037650
      9          6           0        5.733740    3.188510   -0.132200
     10          6           0        6.406720    0.881210    0.148030
     11          6           0        7.749080    1.262890    0.089690
     12          6           0        8.090370    2.606980   -0.080840
     13          6           0        7.079910    3.564370   -0.189370
     14          1           0       -2.958860    1.223380    0.061020
     15          1           0       -2.185500    2.455280   -1.007040
     16          1           0       -2.208920    2.695460    0.787740
     17          1           0       -0.734570    0.435610   -0.716950
     18          1           0       -0.756280    0.674400    1.074860
     19          1           0        0.338550    2.911470    0.791760
     20          1           0        0.355320    2.673360   -1.003840
     21          1           0        1.640840    0.413340    0.220430
     22          1           0        3.903950    0.331840    0.237060
     23          1           0        5.020390    3.986360   -0.224330
     24          1           0        6.173790   -0.168230    0.279640
     25          1           0        8.518640    0.507220    0.177950
     26         16           0        9.809580    3.119940   -0.160220
     27          8           0       10.656430    1.872930   -0.460050
     28          8           0       10.273710    3.383930    1.280040
     29          1           0        7.335330    4.608370   -0.320060
     30          6           0       10.446190    4.461300   -1.206430
     31          1           0       10.136720    4.301960   -2.218230
     32          1           0       11.515020    4.474580   -1.158250
     33          1           0       10.061850    5.397550   -0.859130
 ---------------------------------------------------------------------
                    Distance matrix (angstroms):
                    1          2          3          4          5
     1  C    0.000000
     2  C    1.525892   0.000000
     3  C    2.524540   1.533040   0.000000
     4  N    3.809690   2.461159   1.452731   0.000000
     5  C    4.977779   3.756517   2.461652   1.363214   0.000000
     6  O    5.177309   4.233726   2.731654   2.230297   1.220691
     7  N    6.162257   4.809685   3.707210   2.359621   1.369079
     8  C    7.488722   6.195370   4.982870   3.734313   2.523900
     9  C    7.949851   6.827166   5.435692   4.442330   3.085925
    10  C    8.591383   7.205787   6.143860   4.782242   3.746263
    11  C    9.890235   8.541370   7.405196   6.094306   4.958056
    12  C   10.229250   8.995591   7.705384   6.540827   5.259200
    13  C    9.340397   8.225616   6.830662   5.831647   4.480216
    14  H    1.110383   2.167263   3.484980   4.621089   5.879999
    15  H    1.110946   2.177232   2.782165   4.122686   5.158830
    16  H    1.110847   2.177457   2.783131   4.126310   5.165148
    17  H    2.159332   1.111881   2.172932   2.713908   4.015320
    18  H    2.160394   1.111822   2.173433   2.717781   4.021983
    19  H    2.763031   2.170799   1.112486   2.101036   2.769375
    20  H    2.758150   2.169132   1.112506   2.099942   2.764547
    21  H    4.064536   2.558532   2.152161   1.032271   2.071849
    22  H    6.238252   4.776817   3.959176   2.508224   2.046090
    23  H    7.427069   6.455719   4.975948   4.231773   2.894220
    24  H    8.560767   7.100410   6.231938   4.797119   4.012336
    25  H   10.734073   9.336418   8.287809   6.924663   5.875641
    26  S   11.985449  10.777908   9.461497   8.327928   7.030756
    27  O   12.781185  11.481835  10.271135   9.026210   7.814114
    28  O   12.542343  11.342413  10.036130   8.914291   7.636655
    29  H    9.825634   8.824698   7.364237   6.516523   5.153688
    30  C   12.867761  11.775169  10.377086   9.384126   8.045388
    31  H   12.670384  11.594509  10.211450   9.242063   7.928951
    32  H   13.911621  12.797832  11.412901  10.389919   9.057541
    33  H   12.687078  11.677941  10.227520   9.339053   7.979149
                    6          7          8          9         10
     6  O    0.000000
     7  N    2.258637   0.000000
     8  C    2.890010   1.439503   0.000000
     9  C    2.854185   2.528238   1.416665   0.000000
    10  C    4.277925   2.437313   1.409156   2.419724   0.000000
    11  C    5.276907   3.734926   2.445755   2.796219   1.396787
    12  C    5.253584   4.268856   2.831214   2.427863   2.421847
    13  C    4.208008   3.792787   2.445899   1.398826   2.786821
    14  H    6.197255   6.975308   8.351437   8.914054   9.372232
    15  H    5.204208   6.395767   7.653480   8.001083   8.811250
    16  H    5.210623   6.404632   7.665484   8.010945   8.827796
    17  H    4.637680   4.905982   6.307536   7.054036   7.207272
    18  H    4.643871   4.915799   6.320454   7.063859   7.225673
    19  H    2.739587   4.053549   5.201851   5.480742   6.431099
    20  H    2.733507   4.046583   5.191181   5.472891   6.415454
    21  H    3.150966   2.554807   3.993754   4.957595   4.789338
    22  H    3.150117   1.032121   2.105791   3.412484   2.563902
    23  H    2.252090   2.841199   2.200465   1.074207   3.420895
    24  H    4.791357   2.644484   2.166997   3.410419   1.083006
    25  H    6.293551   4.582105   3.417548   3.878296   2.144987
    26  S    6.930251   6.064659   4.626996   4.076513   4.084897
    27  O    7.908155   6.685689   5.309484   5.105988   4.406053
    28  O    7.531434   6.685237   5.291539   4.758565   4.743276
    29  H    4.649283   4.671708   3.421853   2.148577   3.869515
    30  C    7.727366   7.263576   5.851091   4.998115   5.564973
    31  H    7.610764   7.182188   5.823875   4.997752   5.586915
    32  H    8.772591   8.222417   6.795607   6.010820   6.380706
    33  H    7.517677   7.340176   5.961708   4.913331   5.896751
                   11         12         13         14         15
    11  C    0.000000
    12  C    1.397189   0.000000
    13  C    2.412980   1.396211   0.000000
    14  H   10.708051  11.136425  10.311151   0.000000
    15  H   10.065808  10.318642   9.367310   1.804554   0.000000
    16  H   10.084706  10.336229   9.380411   1.804869   1.810931
    17  H    8.561973   9.110381   8.434072   2.484610   2.503681
    18  H    8.582426   9.128731   8.447253   2.486083   3.090067
    19  H    7.624085   7.806719   6.843598   3.775784   3.132829
    20  H    7.606111   7.790208   6.832084   3.770962   2.550164
    21  H    6.168422   6.819036   6.299239   4.673202   4.507447
    22  H    3.958989   4.775294   4.551683   6.922716   6.567966
    23  H    3.868029   3.368688   2.102598   8.448900   7.408218
    24  H    2.136755   3.391904   3.869538   9.240653   8.855285
    25  H    1.082150   2.158560   3.398681  11.500416  10.944302
    26  S    2.785094   1.795860   2.765767  12.910420  12.043289
    27  O    3.021100   2.695792   3.965568  13.640731  12.866759
    28  O    3.505638   2.687493   3.520239  13.463094  12.701379
    29  H    3.395780   2.152411   1.082707  10.843142   9.785394
    30  C    4.379972   3.202397   3.629151  13.848679  12.791539
    31  H    4.501474   3.410123   3.742245  13.644297  12.518559
    32  H    5.104372   4.046847   4.630055  14.884560  13.849357
    33  H    4.831623   3.504247   3.563859  13.704352  12.596683
                   16         17         18         19         20
    16  H    0.000000
    17  H    3.089453   0.000000
    18  H    2.505451   1.807782   0.000000
    19  H    2.556615   3.091549   2.506647   0.000000
    20  H    3.128190   2.505532   3.090710   1.811396   0.000000
    21  H    4.511160   2.553772   2.558200   2.874549   2.873863
    22  H    6.577015   4.736747   4.747315   4.435568   4.428919
    23  H    7.413072   6.780123   6.784312   4.909934   4.908613
    24  H    8.872920   7.005944   7.026256   6.617918   6.601254
    25  H   10.965436   9.296659   9.319685   8.548161   8.528106
    26  S   12.063298  10.894709  10.915287   9.521036   9.502324
    27  O   12.951863  11.484196  11.577667  10.445298  10.346461
    28  O   12.511291  11.569909  11.359768   9.958365  10.202719
    29  H    9.796895   9.093555   9.104728   7.284953   7.275463
    30  C   12.932390  11.893493  12.043265  10.419171  10.250045
    31  H   12.807479  11.635611  11.944081  10.343966   9.990138
    32  H   13.974930  12.905831  13.038901  11.452482  11.305182
    33  H   12.672224  11.882918  11.961622  10.170968  10.082603
                   21         22         23         24         25
    21  H    0.000000
    22  H    2.264638   0.000000
    23  H    4.938182   3.849004   0.000000
    24  H    4.570489   2.324663   4.341075   0.000000
    25  H    6.878572   4.618400   4.950151   2.442313   0.000000
    26  S    8.613878   6.542767   4.867354   4.921840   2.933801
    27  O    9.158292   6.961100   6.023877   4.980716   2.615789
    28  O    9.190953   7.139811   5.497583   5.516157   3.545467
    29  H    7.093492   5.511212   2.398960   4.952244   4.297402
    30  C    9.795718   7.870007   5.534383   6.472585   4.611584
    31  H    9.656521   7.787023   5.500188   6.475088   4.770735
    32  H   10.765401   8.777105   6.579573   7.221631   5.148171
    33  H    9.844857   8.048775   5.273590   6.884164   5.231860
                   26         27         28         29         30
    26  S    0.000000
    27  O    1.536908   0.000000
    28  O    1.536052   2.336131   0.000000
    29  H    2.891865   4.304873   3.562815   0.000000
    30  C    1.816335   2.702026   2.715328   3.238013   0.000000
    31  H    2.395746   3.043268   3.619315   3.397753   1.070000
    32  H    2.395754   2.827232   2.945442   4.265005   1.069998
    33  H    2.395751   3.596628   2.945437   2.889172   1.069999
                   31         32         33
    31  H    0.000000
    32  H    1.747303   0.000000
    33  H    1.747305   1.747298   0.000000
 Stoichiometry    C11H16N2O3S
 Framework group  C1[X(C11H16N2O3S)]
 Deg. of freedom    93
 Full point group                 C1      NOp   1
 Largest Abelian subgroup         C1      NOp   1
 Largest concise Abelian subgroup C1      NOp   1
                         Standard orientation:                         
 ---------------------------------------------------------------------
 Center     Atomic      Atomic             Coordinates (Angstroms)
 Number     Number       Type             X           Y           Z
 ---------------------------------------------------------------------
      1          6           0        7.630446   -0.547619   -0.008707
      2          6           0        6.415122    0.374089   -0.051011
      3          6           0        5.109021   -0.425492    0.019584
      4          7           0        3.955448    0.456257   -0.027491
      5          6           0        2.680321   -0.024104    0.013231
      6          8           0        2.499144   -1.228558    0.094174
      7          7           0        1.629188    0.851394   -0.041539
      8          6           0        0.222260    0.547647   -0.020081
      9          6           0       -0.316096   -0.758873    0.080513
     10          6           0       -0.680888    1.625848   -0.106835
     11          6           0       -2.062090    1.418002   -0.097159
     12          6           0       -2.576812    0.122719    0.000010
     13          6           0       -1.700304   -0.960337    0.090157
     14          1           0        8.559252    0.058490   -0.062599
     15          1           0        7.613178   -1.248847   -0.870207
     16          1           0        7.640277   -1.130836    0.936672
     17          1           0        6.440221    0.959495   -0.995971
     18          1           0        6.465745    1.078492    0.807709
     19          1           0        5.086757   -1.008707    0.966679
     20          1           0        5.065969   -1.129756   -0.840549
     21          1           0        4.106067    1.475093   -0.097285
     22          1           0        1.873032    1.851814   -0.112048
     23          1           0        0.286686   -1.645044    0.153138
     24          1           0       -0.312289    2.641238   -0.184430
     25          1           0       -2.726109    2.269733   -0.165582
     26         16           0       -4.348965   -0.167842    0.012618
     27          8           0       -5.033889    1.094709   -0.534128
     28          8           0       -4.815206   -0.079584    1.473538
     29          1           0       -2.090483   -1.967336    0.167426
     30          6           0       -5.173120   -1.595000   -0.750966
     31          1           0       -4.865389   -1.680222   -1.772210
     32          1           0       -6.233630   -1.459421   -0.708147
     33          1           0       -4.905845   -2.486093   -0.222368
 ---------------------------------------------------------------------
 Rotational constants (GHZ):      1.8629177      0.1169489      0.1127618
 General basis read from cards:  (6D, 7F)
 There are   359 symmetry adapted cartesian basis functions of A   symmetry.
 There are   359 symmetry adapted basis functions of A   symmetry.
   359 basis functions,   632 primitive gaussians,   359 cartesian basis functions
    68 alpha electrons       68 beta electrons
       nuclear repulsion energy      1276.0869606979 Hartrees.
 NAtoms=   33 NActive=   33 NUniq=   33 SFac= 1.00D+00 NAtFMM=   60 NAOKFM=F Big=F
 Integral buffers will be    131072 words long.
 Raffenetti 2 integral format.
 Two-electron integral symmetry is turned on.
 One-electron integrals computed using PRISM.
 NBasis=   359 RedAO= T EigKep=  1.33D-06  NBF=   359
 NBsUse=   359 1.00D-06 EigRej= -1.00D+00 NBFU=   359
 ExpMin= 4.05D-02 ExpMax= 2.19D+04 ExpMxC= 3.30D+03 IAcc=3 IRadAn=         5 AccDes= 0.00D+00
 Harris functional with IExCor= 1009 and IRadAn=       5 diagonalized for initial guess.
 HarFok:  IExCor= 1009 AccDes= 0.00D+00 IRadAn=         5 IDoV= 1 UseB2=F ITyADJ=14
 ICtDFT=  3500011 ScaDFX=  1.000000  1.000000  1.000000  1.000000
 FoFCou: FMM=F IPFlag=           0 FMFlag=      100000 FMFlg1=           0
         NFxFlg=           0 DoJE=T BraDBF=F KetDBF=T FulRan=T
         wScrn=  0.000000 ICntrl=     500 IOpCl=  0 I1Cent=   200000004 NGrid=           0
         NMat0=    1 NMatS0=      1 NMatT0=    0 NMatD0=    1 NMtDS0=    0 NMtDT0=    0
 Petite list used in FoFCou.
 Requested convergence on RMS density matrix=1.00D-08 within 128 cycles.
 Requested convergence on MAX density matrix=1.00D-06.
 Requested convergence on             energy=1.00D-06.
 No special actions if energy rises.
 SCF Done:  E(RM062X) =  -1161.73416342     A.U. after   17 cycles
            NFock= 17  Conv=0.37D-08     -V/T= 2.0073

 **********************************************************************

            Population analysis using the SCF density.

 **********************************************************************

 Orbital symmetries:
       Occupied  (A) (A) (A) (A) (A) (A) (A) (A) (A) (A) (A) (A)
                 (A) (A) (A) (A) (A) (A) (A) (A) (A) (A) (A) (A)
                 (A) (A) (A) (A) (A) (A) (A) (A) (A) (A) (A) (A)
                 (A) (A) (A) (A) (A) (A) (A) (A) (A) (A) (A) (A)
                 (A) (A) (A) (A) (A) (A) (A) (A) (A) (A) (A) (A)
                 (A) (A) (A) (A) (A) (A) (A) (A)
       Virtual   (A) (A) (A) (A) (A) (A) (A) (A) (A) (A) (A) (A)
                 (A) (A) (A) (A) (A) (A) (A) (A) (A) (A) (A) (A)
                 (A) (A) (A) (A) (A) (A) (A) (A) (A) (A) (A) (A)
                 (A) (A) (A) (A) (A) (A) (A) (A) (A) (A) (A) (A)
                 (A) (A) (A) (A) (A) (A) (A) (A) (A) (A) (A) (A)
                 (A) (A) (A) (A) (A) (A) (A) (A) (A) (A) (A) (A)
                 (A) (A) (A) (A) (A) (A) (A) (A) (A) (A) (A) (A)
                 (A) (A) (A) (A) (A) (A) (A) (A) (A) (A) (A) (A)
                 (A) (A) (A) (A) (A) (A) (A) (A) (A) (A) (A) (A)
                 (A) (A) (A) (A) (A) (A) (A) (A) (A) (A) (A) (A)
                 (A) (A) (A) (A) (A) (A) (A) (A) (A) (A) (A) (A)
                 (A) (A) (A) (A) (A) (A) (A) (A) (A) (A) (A) (A)
                 (A) (A) (A) (A) (A) (A) (A) (A) (A) (A) (A) (A)
                 (A) (A) (A) (A) (A) (A) (A) (A) (A) (A) (A) (A)
                 (A) (A) (A) (A) (A) (A) (A) (A) (A) (A) (A) (A)
                 (A) (A) (A) (A) (A) (A) (A) (A) (A) (A) (A) (A)
                 (A) (A) (A) (A) (A) (A) (A) (A) (A) (A) (A) (A)
                 (A) (A) (A) (A) (A) (A) (A) (A) (A) (A) (A) (A)
                 (A) (A) (A) (A) (A) (A) (A) (A) (A) (A) (A) (A)
                 (A) (A) (A) (A) (A) (A) (A) (A) (A) (A) (A) (A)
                 (A) (A) (A) (A) (A) (A) (A) (A) (A) (A) (A) (A)
                 (A) (A) (A) (A) (A) (A) (A) (A) (A) (A) (A) (A)
                 (A) (A) (A) (A) (A) (A) (A) (A) (A) (A) (A) (A)
                 (A) (A) (A) (A) (A) (A) (A) (A) (A) (A) (A) (A)
                 (A) (A) (A)
 The electronic state is 1-A.
 Alpha  occ. eigenvalues --  -90.13765 -19.61576 -19.60634 -19.60523 -14.83026
 Alpha  occ. eigenvalues --  -14.80643 -10.69763 -10.64358 -10.61320 -10.60663
 Alpha  occ. eigenvalues --  -10.60108 -10.59389 -10.59287 -10.58858 -10.57818
 Alpha  occ. eigenvalues --  -10.57271 -10.55963  -8.45219  -6.37319  -6.37299
 Alpha  occ. eigenvalues --   -6.37272  -1.19275  -1.17378  -1.06913  -1.04413
 Alpha  occ. eigenvalues --   -1.04260  -0.98693  -0.90631  -0.89520  -0.87515
 Alpha  occ. eigenvalues --   -0.87219  -0.80038  -0.76343  -0.73409  -0.70518
 Alpha  occ. eigenvalues --   -0.69812  -0.67884  -0.65265  -0.63253  -0.60162
 Alpha  occ. eigenvalues --   -0.57535  -0.56076  -0.55563  -0.54758  -0.54567
 Alpha  occ. eigenvalues --   -0.53783  -0.53245  -0.52007  -0.51463  -0.50355
 Alpha  occ. eigenvalues --   -0.48999  -0.48182  -0.47920  -0.47659  -0.46046
 Alpha  occ. eigenvalues --   -0.44141  -0.43790  -0.41900  -0.41840  -0.39864
 Alpha  occ. eigenvalues --   -0.36944  -0.35470  -0.34688  -0.34525  -0.33541
 Alpha  occ. eigenvalues --   -0.33222  -0.31489  -0.29336
 Alpha virt. eigenvalues --   -0.02680  -0.01529  -0.00681  -0.00211   0.01649
 Alpha virt. eigenvalues --    0.01937   0.02503   0.03227   0.03325   0.03691
 Alpha virt. eigenvalues --    0.04383   0.04983   0.05360   0.05967   0.06192
 Alpha virt. eigenvalues --    0.06335   0.06465   0.07078   0.07114   0.07851
 Alpha virt. eigenvalues --    0.08367   0.08615   0.09021   0.09245   0.09691
 Alpha virt. eigenvalues --    0.09963   0.10813   0.11257   0.11645   0.12340
 Alpha virt. eigenvalues --    0.12824   0.13356   0.13843   0.14184   0.14697
 Alpha virt. eigenvalues --    0.15012   0.15357   0.15907   0.16126   0.16872
 Alpha virt. eigenvalues --    0.17530   0.18088   0.18250   0.18440   0.18791
 Alpha virt. eigenvalues --    0.19518   0.20147   0.20384   0.20536   0.20980
 Alpha virt. eigenvalues --    0.21620   0.21920   0.22065   0.22546   0.22999
 Alpha virt. eigenvalues --    0.23308   0.23645   0.24376   0.24543   0.24899
 Alpha virt. eigenvalues --    0.25549   0.25994   0.26335   0.27118   0.27586
 Alpha virt. eigenvalues --    0.27672   0.28141   0.28499   0.28725   0.29150
 Alpha virt. eigenvalues --    0.29463   0.30364   0.30851   0.31464   0.31668
 Alpha virt. eigenvalues --    0.32276   0.32798   0.33250   0.33661   0.33935
 Alpha virt. eigenvalues --    0.34507   0.34800   0.35479   0.36338   0.36614
 Alpha virt. eigenvalues --    0.37247   0.37613   0.37765   0.38390   0.39709
 Alpha virt. eigenvalues --    0.39806   0.40565   0.41042   0.42787   0.44190
 Alpha virt. eigenvalues --    0.44688   0.45499   0.46925   0.47440   0.50120
 Alpha virt. eigenvalues --    0.52576   0.53089   0.55903   0.56161   0.58992
 Alpha virt. eigenvalues --    0.61897   0.62759   0.64522   0.67053   0.67641
 Alpha virt. eigenvalues --    0.67751   0.68579   0.70139   0.71167   0.72543
 Alpha virt. eigenvalues --    0.72859   0.73159   0.74455   0.75175   0.75649
 Alpha virt. eigenvalues --    0.76460   0.77430   0.77794   0.79980   0.80526
 Alpha virt. eigenvalues --    0.81739   0.82264   0.82672   0.83397   0.84151
 Alpha virt. eigenvalues --    0.86899   0.87195   0.87308   0.89984   0.90184
 Alpha virt. eigenvalues --    0.92116   0.94810   0.95518   0.96180   0.96628
 Alpha virt. eigenvalues --    0.98283   0.99033   0.99356   1.01244   1.02436
 Alpha virt. eigenvalues --    1.02701   1.03093   1.03511   1.04140   1.05699
 Alpha virt. eigenvalues --    1.06873   1.09026   1.09210   1.09575   1.10317
 Alpha virt. eigenvalues --    1.11561   1.12676   1.12920   1.13455   1.15475
 Alpha virt. eigenvalues --    1.16484   1.16600   1.18626   1.20445   1.20625
 Alpha virt. eigenvalues --    1.22425   1.24562   1.26676   1.28872   1.30165
 Alpha virt. eigenvalues --    1.31214   1.33786   1.34602   1.34923   1.35942
 Alpha virt. eigenvalues --    1.37136   1.38174   1.38866   1.39912   1.40937
 Alpha virt. eigenvalues --    1.42641   1.43346   1.43779   1.44834   1.46065
 Alpha virt. eigenvalues --    1.46547   1.47099   1.48438   1.49015   1.49695
 Alpha virt. eigenvalues --    1.53002   1.54182   1.54701   1.55877   1.56482
 Alpha virt. eigenvalues --    1.58282   1.58714   1.60900   1.67430   1.67987
 Alpha virt. eigenvalues --    1.72785   1.76659   1.78205   1.81527   1.82899
 Alpha virt. eigenvalues --    1.84154   1.85927   1.87124   1.87367   1.88455
 Alpha virt. eigenvalues --    1.90637   1.91100   1.93378   1.93593   1.95168
 Alpha virt. eigenvalues --    1.95427   1.96699   1.97717   1.98843   2.00772
 Alpha virt. eigenvalues --    2.02413   2.03028   2.03534   2.03795   2.04894
 Alpha virt. eigenvalues --    2.05819   2.07125   2.09722   2.12932   2.13717
 Alpha virt. eigenvalues --    2.15165   2.15656   2.18201   2.18494   2.19239
 Alpha virt. eigenvalues --    2.20499   2.22935   2.23268   2.23802   2.25764
 Alpha virt. eigenvalues --    2.28433   2.30371   2.31216   2.33112   2.33956
 Alpha virt. eigenvalues --    2.34315   2.36894   2.37456   2.38705   2.39834
 Alpha virt. eigenvalues --    2.41006   2.47707   2.54889   2.56555   2.63382
 Alpha virt. eigenvalues --    2.64103   2.65029   2.67488   2.70565   2.72857
 Alpha virt. eigenvalues --    2.75867   2.76909   2.78192   2.78738   2.80778
 Alpha virt. eigenvalues --    2.82428   2.88267   2.91524   2.96679   3.03797
 Alpha virt. eigenvalues --    3.10936   3.26488   3.30870   3.38641   4.03251
 Alpha virt. eigenvalues --    4.13296   4.17082   4.23757   4.26054   4.26657
 Alpha virt. eigenvalues --    4.29444   4.32809   4.36645   4.37800   4.40286
 Alpha virt. eigenvalues --    4.41800   4.46917   4.49058   4.57423   4.66106
 Alpha virt. eigenvalues --    4.74440
          Condensed to atoms (all electrons):
               1          2          3          4          5          6
     1  C    5.557708   0.005129   0.004006  -0.002844  -0.045682  -0.002353
     2  C    0.005129   6.134107  -0.379166  -0.084033   0.125355   0.020750
     3  C    0.004006  -0.379166   6.886550   0.384060  -0.476474  -0.093461
     4  N   -0.002844  -0.084033   0.384060   7.751164   0.369706  -0.210996
     5  C   -0.045682   0.125355  -0.476474   0.369706   7.082369   0.627675
     6  O   -0.002353   0.020750  -0.093461  -0.210996   0.627675   8.294816
     7  N   -0.003230   0.022077  -0.173462  -0.445041   0.071976  -0.070056
     8  C   -0.011003   0.010351  -0.496688  -0.239926  -1.129967  -0.447629
     9  C    0.000547  -0.004225   0.062484   0.099295   1.475604   0.343022
    10  C   -0.003121   0.001388  -0.177797  -0.128826  -2.448283  -0.152715
    11  C    0.000019   0.001081   0.019113   0.012320   0.512262   0.014918
    12  C   -0.000180  -0.000367  -0.031416   0.004871  -0.513085   0.000292
    13  C   -0.000530  -0.000164  -0.029413  -0.006395  -0.434594   0.260500
    14  H    0.410077  -0.083629   0.026605   0.000565  -0.002314   0.000009
    15  H    0.417530  -0.066842  -0.007007   0.000471   0.000405  -0.000064
    16  H    0.415499  -0.066175  -0.006017   0.000513   0.000815  -0.000062
    17  H   -0.030227   0.413903  -0.077105   0.007420  -0.002057  -0.000247
    18  H   -0.028224   0.411401  -0.074551   0.007108  -0.003692  -0.000233
    19  H    0.003998  -0.052119   0.419157  -0.056602  -0.005052   0.000961
    20  H    0.005923  -0.057144   0.428801  -0.059017  -0.009664   0.001155
    21  H   -0.001905   0.000903  -0.088047   0.228831   0.039981   0.008797
    22  H   -0.000141   0.000342   0.002180   0.023460  -0.010842   0.007660
    23  H    0.000007   0.000036   0.002956   0.000012   0.022664  -0.002219
    24  H    0.000001  -0.000008   0.000271   0.001776   0.008775   0.000011
    25  H    0.000000   0.000000   0.000022   0.000003   0.002744   0.000001
    26  S   -0.000005  -0.000024  -0.001428   0.000641  -0.062138  -0.000130
    27  O   -0.000000  -0.000000  -0.000009   0.000007  -0.001839  -0.000002
    28  O   -0.000000  -0.000000  -0.000022  -0.000000  -0.003715  -0.000002
    29  H    0.000000   0.000001   0.000023   0.000018   0.002426   0.000305
    30  C    0.000000   0.000001   0.000109  -0.000006   0.007890  -0.000019
    31  H   -0.000000  -0.000000  -0.000000   0.000000  -0.000072  -0.000000
    32  H    0.000000   0.000000   0.000000  -0.000000   0.000007   0.000000
    33  H   -0.000000  -0.000000  -0.000000  -0.000000  -0.000140  -0.000000
               7          8          9         10         11         12
     1  C   -0.003230  -0.011003   0.000547  -0.003121   0.000019  -0.000180
     2  C    0.022077   0.010351  -0.004225   0.001388   0.001081  -0.000367
     3  C   -0.173462  -0.496688   0.062484  -0.177797   0.019113  -0.031416
     4  N   -0.445041  -0.239926   0.099295  -0.128826   0.012320   0.004871
     5  C    0.071976  -1.129967   1.475604  -2.448283   0.512262  -0.513085
     6  O   -0.070056  -0.447629   0.343022  -0.152715   0.014918   0.000292
     7  N    7.866731   0.081023  -0.393036   0.419245   0.044161   0.015292
     8  C    0.081023  17.340146  -1.249357  -1.344766   2.348288  -5.725110
     9  C   -0.393036  -1.249357  23.125647  -5.139861  -1.052110  -1.880897
    10  C    0.419245  -1.344766  -5.139861  23.512983  -6.292588   1.253210
    11  C    0.044161   2.348288  -1.052110  -6.292588  24.848751  -1.556659
    12  C    0.015292  -5.725110  -1.880897   1.253210  -1.556659  21.473390
    13  C   -0.059720  -2.853170 -10.834876  -2.910991 -11.468564  -4.985106
    14  H    0.000011  -0.000045   0.000005  -0.000001  -0.000000  -0.000000
    15  H    0.000013   0.000033  -0.000050   0.000002   0.000000   0.000000
    16  H    0.000012   0.000026  -0.000046   0.000002   0.000000   0.000000
    17  H    0.000058  -0.000333  -0.000224   0.000094   0.000007  -0.000002
    18  H    0.000062  -0.000222  -0.000259   0.000120   0.000003   0.000000
    19  H    0.000421  -0.003894   0.002756  -0.000711   0.000044  -0.000030
    20  H    0.000392  -0.003387   0.002592  -0.001009  -0.000002   0.000004
    21  H    0.035024   0.019048   0.000059  -0.000273   0.000384  -0.000231
    22  H    0.226109   0.007007   0.038470  -0.138297   0.052693  -0.007690
    23  H   -0.014960   0.071293   0.210195   0.026944  -0.011052  -0.008384
    24  H   -0.010470   0.097575   0.122615   0.096317   0.041483   0.009759
    25  H    0.000208   0.023234  -0.021340  -0.077500   0.309343   0.038879
    26  S    0.001803  -0.603277   0.002794   0.704291  -1.421773  -1.389657
    27  O    0.000305  -0.095781   0.035967   0.123017  -0.593610   0.050324
    28  O   -0.000146  -0.050181   0.022315   0.000958  -0.624705  -0.306729
    29  H   -0.000530  -0.028652   0.197808  -0.028611   0.082752   0.157478
    30  C    0.000018   0.082423  -0.141550  -0.041536   0.860147   0.451237
    31  H    0.000003  -0.001422  -0.005764   0.000708  -0.044834  -0.080862
    32  H   -0.000000   0.000633   0.004300  -0.000304   0.012096   0.040675
    33  H   -0.000003  -0.002663   0.025495   0.001567  -0.038342  -0.070108
              13         14         15         16         17         18
     1  C   -0.000530   0.410077   0.417530   0.415499  -0.030227  -0.028224
     2  C   -0.000164  -0.083629  -0.066842  -0.066175   0.413903   0.411401
     3  C   -0.029413   0.026605  -0.007007  -0.006017  -0.077105  -0.074551
     4  N   -0.006395   0.000565   0.000471   0.000513   0.007420   0.007108
     5  C   -0.434594  -0.002314   0.000405   0.000815  -0.002057  -0.003692
     6  O    0.260500   0.000009  -0.000064  -0.000062  -0.000247  -0.000233
     7  N   -0.059720   0.000011   0.000013   0.000012   0.000058   0.000062
     8  C   -2.853170  -0.000045   0.000033   0.000026  -0.000333  -0.000222
     9  C  -10.834876   0.000005  -0.000050  -0.000046  -0.000224  -0.000259
    10  C   -2.910991  -0.000001   0.000002   0.000002   0.000094   0.000120
    11  C  -11.468564  -0.000000   0.000000   0.000000   0.000007   0.000003
    12  C   -4.985106  -0.000000   0.000000   0.000000  -0.000002   0.000000
    13  C   38.474861   0.000000  -0.000004  -0.000004  -0.000020  -0.000032
    14  H    0.000000   0.489554  -0.024028  -0.023900  -0.003081  -0.003061
    15  H   -0.000004  -0.024028   0.493046  -0.027886  -0.004866   0.003951
    16  H   -0.000004  -0.023900  -0.027886   0.492242   0.003959  -0.004842
    17  H   -0.000020  -0.003081  -0.004866   0.003959   0.511511  -0.033878
    18  H   -0.000032  -0.003061   0.003951  -0.004842  -0.033878   0.510483
    19  H    0.000738  -0.000063  -0.000325   0.002717   0.003898  -0.005381
    20  H    0.000300  -0.000060   0.002752  -0.000334  -0.005393   0.003915
    21  H    0.001169  -0.000003   0.000001   0.000001   0.000992   0.000985
    22  H    0.034397  -0.000000  -0.000000  -0.000000   0.000002   0.000002
    23  H    0.009130   0.000000  -0.000000  -0.000000  -0.000000  -0.000000
    24  H   -0.078409   0.000000  -0.000000  -0.000000   0.000000   0.000000
    25  H    0.039389  -0.000000   0.000000   0.000000  -0.000000   0.000000
    26  S    0.982170  -0.000000  -0.000000  -0.000000  -0.000000   0.000000
    27  O    0.186851  -0.000000  -0.000000   0.000000   0.000000  -0.000000
    28  O    0.696980  -0.000000   0.000000  -0.000000  -0.000000   0.000000
    29  H   -0.074117  -0.000000   0.000000   0.000000   0.000000   0.000000
    30  C   -1.029019  -0.000000   0.000000  -0.000000   0.000000  -0.000000
    31  H    0.090830   0.000000  -0.000000  -0.000000   0.000000   0.000000
    32  H   -0.020049   0.000000   0.000000   0.000000  -0.000000   0.000000
    33  H    0.064768   0.000000  -0.000000  -0.000000  -0.000000   0.000000
              19         20         21         22         23         24
     1  C    0.003998   0.005923  -0.001905  -0.000141   0.000007   0.000001
     2  C   -0.052119  -0.057144   0.000903   0.000342   0.000036  -0.000008
     3  C    0.419157   0.428801  -0.088047   0.002180   0.002956   0.000271
     4  N   -0.056602  -0.059017   0.228831   0.023460   0.000012   0.001776
     5  C   -0.005052  -0.009664   0.039981  -0.010842   0.022664   0.008775
     6  O    0.000961   0.001155   0.008797   0.007660  -0.002219   0.000011
     7  N    0.000421   0.000392   0.035024   0.226109  -0.014960  -0.010470
     8  C   -0.003894  -0.003387   0.019048   0.007007   0.071293   0.097575
     9  C    0.002756   0.002592   0.000059   0.038470   0.210195   0.122615
    10  C   -0.000711  -0.001009  -0.000273  -0.138297   0.026944   0.096317
    11  C    0.000044  -0.000002   0.000384   0.052693  -0.011052   0.041483
    12  C   -0.000030   0.000004  -0.000231  -0.007690  -0.008384   0.009759
    13  C    0.000738   0.000300   0.001169   0.034397   0.009130  -0.078409
    14  H   -0.000063  -0.000060  -0.000003  -0.000000   0.000000   0.000000
    15  H   -0.000325   0.002752   0.000001  -0.000000  -0.000000  -0.000000
    16  H    0.002717  -0.000334   0.000001  -0.000000  -0.000000  -0.000000
    17  H    0.003898  -0.005393   0.000992   0.000002  -0.000000   0.000000
    18  H   -0.005381   0.003915   0.000985   0.000002  -0.000000   0.000000
    19  H    0.492974  -0.035148   0.002779   0.000004  -0.000001   0.000000
    20  H   -0.035148   0.494625   0.002791   0.000004  -0.000000   0.000000
    21  H    0.002779   0.002791   0.345538   0.002617   0.000001   0.000003
    22  H    0.000004   0.000004   0.002617   0.345206  -0.000117   0.006681
    23  H   -0.000001  -0.000000   0.000001  -0.000117   0.421765  -0.000104
    24  H    0.000000   0.000000   0.000003   0.006681  -0.000104   0.496558
    25  H   -0.000000  -0.000000  -0.000000  -0.000010   0.000009  -0.004243
    26  S   -0.000000   0.000000  -0.000003   0.000250  -0.000462   0.003487
    27  O    0.000000  -0.000000  -0.000000   0.000001   0.000010   0.000230
    28  O   -0.000000   0.000000  -0.000000   0.000000   0.000012   0.000005
    29  H   -0.000000  -0.000000  -0.000000   0.000002  -0.004847   0.000014
    30  C    0.000000  -0.000000   0.000000   0.000002   0.000204   0.000139
    31  H    0.000000   0.000000  -0.000000  -0.000000   0.000000   0.000000
    32  H   -0.000000   0.000000  -0.000000   0.000000  -0.000000  -0.000000
    33  H    0.000000   0.000000  -0.000000  -0.000000   0.000000  -0.000000
              25         26         27         28         29         30
     1  C    0.000000  -0.000005  -0.000000  -0.000000   0.000000   0.000000
     2  C    0.000000  -0.000024  -0.000000  -0.000000   0.000001   0.000001
     3  C    0.000022  -0.001428  -0.000009  -0.000022   0.000023   0.000109
     4  N    0.000003   0.000641   0.000007  -0.000000   0.000018  -0.000006
     5  C    0.002744  -0.062138  -0.001839  -0.003715   0.002426   0.007890
     6  O    0.000001  -0.000130  -0.000002  -0.000002   0.000305  -0.000019
     7  N    0.000208   0.001803   0.000305  -0.000146  -0.000530   0.000018
     8  C    0.023234  -0.603277  -0.095781  -0.050181  -0.028652   0.082423
     9  C   -0.021340   0.002794   0.035967   0.022315   0.197808  -0.141550
    10  C   -0.077500   0.704291   0.123017   0.000958  -0.028611  -0.041536
    11  C    0.309343  -1.421773  -0.593610  -0.624705   0.082752   0.860147
    12  C    0.038879  -1.389657   0.050324  -0.306729   0.157478   0.451237
    13  C    0.039389   0.982170   0.186851   0.696980  -0.074117  -1.029019
    14  H   -0.000000  -0.000000  -0.000000  -0.000000  -0.000000  -0.000000
    15  H    0.000000  -0.000000  -0.000000   0.000000   0.000000   0.000000
    16  H    0.000000  -0.000000   0.000000  -0.000000   0.000000  -0.000000
    17  H   -0.000000  -0.000000   0.000000  -0.000000   0.000000   0.000000
    18  H    0.000000   0.000000  -0.000000   0.000000   0.000000  -0.000000
    19  H   -0.000000  -0.000000   0.000000  -0.000000  -0.000000   0.000000
    20  H   -0.000000   0.000000  -0.000000   0.000000  -0.000000  -0.000000
    21  H   -0.000000  -0.000003  -0.000000  -0.000000  -0.000000   0.000000
    22  H   -0.000010   0.000250   0.000001   0.000000   0.000002   0.000002
    23  H    0.000009  -0.000462   0.000010   0.000012  -0.004847   0.000204
    24  H   -0.004243   0.003487   0.000230   0.000005   0.000014   0.000139
    25  H    0.418518  -0.006936   0.002176  -0.000463  -0.000130   0.000695
    26  S   -0.006936  16.504832   0.474135   0.498306  -0.008271  -0.798790
    27  O    0.002176   0.474135   8.794415  -0.195121   0.000562  -0.196695
    28  O   -0.000463   0.498306  -0.195121   8.713304  -0.001695  -0.215435
    29  H   -0.000130  -0.008271   0.000562  -0.001695   0.486718   0.002742
    30  C    0.000695  -0.798790  -0.196695  -0.215435   0.002742   6.799505
    31  H    0.000002   0.052084  -0.002594   0.009628  -0.000101   0.301694
    32  H   -0.000000  -0.060878  -0.008445  -0.006883  -0.000005   0.390464
    33  H   -0.000002  -0.000482   0.009766  -0.001229  -0.000240   0.333556
              31         32         33
     1  C   -0.000000   0.000000  -0.000000
     2  C   -0.000000   0.000000  -0.000000
     3  C   -0.000000   0.000000  -0.000000
     4  N    0.000000  -0.000000  -0.000000
     5  C   -0.000072   0.000007  -0.000140
     6  O   -0.000000   0.000000  -0.000000
     7  N    0.000003  -0.000000  -0.000003
     8  C   -0.001422   0.000633  -0.002663
     9  C   -0.005764   0.004300   0.025495
    10  C    0.000708  -0.000304   0.001567
    11  C   -0.044834   0.012096  -0.038342
    12  C   -0.080862   0.040675  -0.070108
    13  C    0.090830  -0.020049   0.064768
    14  H    0.000000   0.000000   0.000000
    15  H   -0.000000   0.000000  -0.000000
    16  H   -0.000000   0.000000  -0.000000
    17  H    0.000000  -0.000000  -0.000000
    18  H    0.000000   0.000000   0.000000
    19  H    0.000000  -0.000000   0.000000
    20  H    0.000000   0.000000   0.000000
    21  H   -0.000000  -0.000000  -0.000000
    22  H   -0.000000   0.000000  -0.000000
    23  H    0.000000  -0.000000   0.000000
    24  H    0.000000  -0.000000  -0.000000
    25  H    0.000002  -0.000000  -0.000002
    26  S    0.052084  -0.060878  -0.000482
    27  O   -0.002594  -0.008445   0.009766
    28  O    0.009628  -0.006883  -0.001229
    29  H   -0.000101  -0.000005  -0.000240
    30  C    0.301694   0.390464   0.333556
    31  H    0.446152  -0.018556  -0.025521
    32  H   -0.018556   0.368635  -0.020544
    33  H   -0.025521  -0.020544   0.449782
 Mulliken charges:
               1
     1  C   -0.691000
     2  C   -0.352930
     3  C   -0.124273
     4  N   -0.658554
     5  C    0.798957
     6  O   -0.600684
     7  N   -0.614293
     8  C    0.206391
     9  C    0.951626
    10  C   -1.253654
    11  C   -0.055626
    12  C   -0.938899
    13  C   -0.056908
    14  H    0.213360
    15  H    0.212868
    16  H    0.213483
    17  H    0.215588
    18  H    0.216343
    19  H    0.228879
    20  H    0.227904
    21  H    0.400560
    22  H    0.410007
    23  H    0.276910
    24  H    0.207531
    25  H    0.275399
    26  S    1.129464
    27  O   -0.583672
    28  O   -0.535178
    29  H    0.216352
    30  C   -0.807776
    31  H    0.278627
    32  H    0.318854
    33  H    0.274342
 Sum of Mulliken charges =  -0.00000
 Mulliken charges with hydrogens summed into heavy atoms:
               1
     1  C   -0.051289
     2  C    0.079001
     3  C    0.332510
     4  N   -0.257994
     5  C    0.798957
     6  O   -0.600684
     7  N   -0.204286
     8  C    0.206391
     9  C    1.228536
    10  C   -1.046123
    11  C    0.219774
    12  C   -0.938899
    13  C    0.159444
    26  S    1.129464
    27  O   -0.583672
    28  O   -0.535178
    30  C    0.064048
 Electronic spatial extent (au):  <R**2>=           9232.8664
 Charge=             -0.0000 electrons
 Dipole moment (field-independent basis, Debye):
    X=              7.5990    Y=             -0.1624    Z=             -3.2404  Tot=              8.2626
 Quadrupole moment (field-independent basis, Debye-Ang):
   XX=           -114.3727   YY=            -99.0665   ZZ=           -118.0766
   XY=             33.8779   XZ=             14.2839   YZ=              3.0442
 Traceless Quadrupole moment (field-independent basis, Debye-Ang):
   XX=             -3.8674   YY=             11.4387   ZZ=             -7.5713
   XY=             33.8779   XZ=             14.2839   YZ=              3.0442
 Octapole moment (field-independent basis, Debye-Ang**2):
  XXX=            260.9166  YYY=             12.0684  ZZZ=             -8.1385  XYY=            -18.6703
  XXY=            -97.6983  XXZ=            -76.0507  XZZ=             22.3960  YZZ=             -5.7058
  YYZ=             -1.5560  XYZ=            -19.4305
 Hexadecapole moment (field-independent basis, Debye-Ang**3):
 XXXX=         -11164.6894 YYYY=           -645.0359 ZZZZ=           -277.7345 XXXY=            762.4550
 XXXZ=            361.8769 YYYX=             87.2567 YYYZ=             -3.0234 ZZZX=             43.1855
 ZZZY=              8.7054 XXYY=          -1930.4771 XXZZ=          -2060.3708 YYZZ=           -169.8658
 XXYZ=             99.8037 YYXZ=             -2.1252 ZZXY=              4.7629
 N-N= 1.276086960698D+03 E-N=-5.273852065865D+03  KE= 1.153292563696D+03
 Calling FoFJK, ICntrl=      2127 FMM=F ISym2X=0 I1Cent= 0 IOpClX= 0 NMat=1 NMatS=1 NMatT=0.
 ***** Axes restored to original set *****
 -------------------------------------------------------------------
 Center     Atomic                   Forces (Hartrees/Bohr)
 Number     Number              X              Y              Z
 -------------------------------------------------------------------
      1        6          -0.006049825    0.001466354   -0.000283772
      2        6           0.005112088   -0.005568665    0.000794142
      3        6          -0.005339094    0.006760131   -0.001136426
      4        7           0.009845671   -0.037728525    0.005206247
      5        6          -0.011851390    0.030021866   -0.004491213
      6        8           0.002369449    0.011446466   -0.001485733
      7        7           0.025611925   -0.027388645    0.003456308
      8        6          -0.013773766    0.002660307   -0.000212778
      9        6           0.005018711   -0.001467331    0.000960118
     10        6           0.002257426    0.010784652    0.000506288
     11        6           0.002446876   -0.001954657   -0.001075777
     12        6          -0.013999426    0.019971111   -0.021186433
     13        6          -0.002012051   -0.013062211    0.001532511
     14        1           0.006436674    0.009277173   -0.001117356
     15        1          -0.001224724   -0.003570023    0.010130707
     16        1          -0.001007514   -0.006092448   -0.008809412
     17        1           0.000942286    0.004294657    0.008262794
     18        1           0.001096230    0.002032397   -0.009065507
     19        1           0.001671307   -0.004709663   -0.009812705
     20        1           0.001505158   -0.001847028    0.010763877
     21        1          -0.003626368    0.017023066   -0.002225220
     22        1           0.007049837    0.015622968   -0.001954880
     23        1          -0.010238288   -0.002480132    0.000419753
     24        1          -0.000775672   -0.002402058    0.000547199
     25        1           0.003897672    0.000097622   -0.001410033
     26       16           0.115127553   -0.090371960    0.102293800
     27        8          -0.045318164    0.034824326   -0.035357196
     28        8          -0.040646393    0.033103807   -0.042806861
     29        1          -0.001634553    0.003378027   -0.000231951
     30        6          -0.035130393   -0.001409734   -0.004214015
     31        1          -0.004819543   -0.003948585   -0.015565812
     32        1           0.013749818   -0.011963528    0.010587547
     33        1          -0.006691517    0.013200262    0.006981788
 -------------------------------------------------------------------
 Cartesian Forces:  Max     0.115127553 RMS     0.022625702

 GradGradGradGradGradGradGradGradGradGradGradGradGradGradGradGradGradGrad
 Berny optimization.
 FormGI is forming the generalized inverse of G from B-inverse, IUseBI=4.
 Internal  Forces:  Max     0.046729557 RMS     0.011148833
 Search for a local minimum.
 Step number   1 out of a maximum of  175
 All quantities printed in internal units (Hartrees-Bohrs-Radians)
 Mixed Optimization -- RFO/linear search
 Second derivative matrix not updated -- first step.
 ITU=  0
     Eigenvalues ---    0.00230   0.00329   0.00423   0.00425   0.00994
     Eigenvalues ---    0.01169   0.01435   0.01468   0.01636   0.01695
     Eigenvalues ---    0.01942   0.01982   0.02047   0.02085   0.02101
     Eigenvalues ---    0.02120   0.02128   0.02131   0.02139   0.02178
     Eigenvalues ---    0.03755   0.03924   0.04436   0.04933   0.05553
     Eigenvalues ---    0.05673   0.05715   0.05715   0.05783   0.07395
     Eigenvalues ---    0.08034   0.09179   0.11976   0.12668   0.16000
     Eigenvalues ---    0.16000   0.16000   0.16000   0.16000   0.16000
     Eigenvalues ---    0.16000   0.16000   0.16000   0.16000   0.16000
     Eigenvalues ---    0.16000   0.17812   0.21964   0.22000   0.22000
     Eigenvalues ---    0.22000   0.22004   0.22005   0.22964   0.24000
     Eigenvalues ---    0.24871   0.25000   0.25000   0.25000   0.25000
     Eigenvalues ---    0.25000   0.26446   0.29144   0.29806   0.32336
     Eigenvalues ---    0.32338   0.32402   0.32408   0.32500   0.32511
     Eigenvalues ---    0.32559   0.35634   0.35669   0.35736   0.36703
     Eigenvalues ---    0.37230   0.37230   0.37230   0.37889   0.39654
     Eigenvalues ---    0.40682   0.41304   0.42437   0.42459   0.44216
     Eigenvalues ---    0.45268   0.45965   0.46171   0.51154   0.52303
     Eigenvalues ---    0.65646   0.65877   0.95078
 RFO step:  Lambda=-7.81626326D-02 EMin= 2.30000000D-03
 Linear search not attempted -- first point.
 Maximum step size (   0.300) exceeded in Quadratic search.
    -- Step size scaled by   0.722
 Iteration  1 RMS(Cart)=  0.08063086 RMS(Int)=  0.00233995
 Iteration  2 RMS(Cart)=  0.00500670 RMS(Int)=  0.00092455
 Iteration  3 RMS(Cart)=  0.00001100 RMS(Int)=  0.00092452
 Iteration  4 RMS(Cart)=  0.00000002 RMS(Int)=  0.00092452
 Variable       Old X    -DE/DX   Delta X   Delta X   Delta X     New X
                                 (Linear)    (Quad)   (Total)
    R1        2.88352   0.00214   0.00000   0.00410   0.00410   2.88762
    R2        2.09832  -0.01097   0.00000  -0.01963  -0.01963   2.07869
    R3        2.09938  -0.01054   0.00000  -0.01888  -0.01888   2.08051
    R4        2.09920  -0.01048   0.00000  -0.01877  -0.01877   2.08042
    R5        2.89703  -0.00527   0.00000  -0.01030  -0.01030   2.88672
    R6        2.10115  -0.00890   0.00000  -0.01599  -0.01599   2.08516
    R7        2.10104  -0.00892   0.00000  -0.01602  -0.01602   2.08502
    R8        2.74526  -0.00170   0.00000  -0.00268  -0.00268   2.74258
    R9        2.10229  -0.01047   0.00000  -0.01882  -0.01882   2.08347
   R10        2.10233  -0.01043   0.00000  -0.01876  -0.01876   2.08357
   R11        2.57610   0.00066   0.00000   0.00079   0.00079   2.57689
   R12        1.95071  -0.01711   0.00000  -0.02458  -0.02458   1.92613
   R13        2.30677   0.01158   0.00000   0.00813   0.00813   2.31490
   R14        2.58718   0.01243   0.00000   0.01522   0.01522   2.60240
   R15        2.72027  -0.03440   0.00000  -0.05234  -0.05234   2.66793
   R16        1.95043  -0.01641   0.00000  -0.02357  -0.02357   1.92685
   R17        2.67711  -0.01604   0.00000  -0.02296  -0.02295   2.65416
   R18        2.66292  -0.00574   0.00000  -0.00825  -0.00823   2.65468
   R19        2.64340  -0.00804   0.00000  -0.01070  -0.01071   2.63269
   R20        2.02996   0.00492   0.00000   0.00798   0.00798   2.03794
   R21        2.63954  -0.01131   0.00000  -0.01524  -0.01524   2.62431
   R22        2.04658   0.00256   0.00000   0.00426   0.00426   2.05084
   R23        2.64030  -0.01041   0.00000  -0.01380  -0.01381   2.62649
   R24        2.04497   0.00259   0.00000   0.00429   0.00429   2.04926
   R25        2.63846  -0.00153   0.00000  -0.00179  -0.00180   2.63665
   R26        3.39368  -0.01213   0.00000  -0.02556  -0.02556   3.36812
   R27        2.04602   0.00290   0.00000   0.00482   0.00482   2.05084
   R28        2.90434  -0.04633   0.00000  -0.04554  -0.04554   2.85879
   R29        2.90272  -0.04673   0.00000  -0.04579  -0.04579   2.85693
   R30        3.43238  -0.01330   0.00000  -0.02937  -0.02937   3.40300
   R31        2.02201   0.01670   0.00000   0.02678   0.02678   2.04878
   R32        2.02200   0.01406   0.00000   0.02254   0.02254   2.04455
   R33        2.02201   0.01622   0.00000   0.02600   0.02600   2.04801
    A1        1.91257   0.00342   0.00000   0.01086   0.01082   1.92339
    A2        1.92559   0.00218   0.00000   0.00637   0.00634   1.93193
    A3        1.92600   0.00219   0.00000   0.00638   0.00635   1.93235
    A4        1.89643  -0.00256   0.00000  -0.00726  -0.00731   1.88912
    A5        1.89704  -0.00260   0.00000  -0.00743  -0.00747   1.88957
    A6        1.90572  -0.00279   0.00000  -0.00940  -0.00940   1.89632
    A7        1.94147  -0.00088   0.00000  -0.00091  -0.00091   1.94056
    A8        1.90034   0.00138   0.00000   0.00567   0.00567   1.90601
    A9        1.90183   0.00128   0.00000   0.00522   0.00521   1.90704
   A10        1.91025  -0.00013   0.00000  -0.00118  -0.00118   1.90906
   A11        1.91099  -0.00011   0.00000  -0.00121  -0.00122   1.90977
   A12        1.89844  -0.00154   0.00000  -0.00772  -0.00774   1.89070
   A13        1.93742  -0.00413   0.00000  -0.00884  -0.00882   1.92860
   A14        1.90676   0.00259   0.00000   0.00841   0.00840   1.91516
   A15        1.90450   0.00272   0.00000   0.00910   0.00909   1.91359
   A16        1.90698   0.00074   0.00000   0.00072   0.00074   1.90773
   A17        1.90546   0.00079   0.00000   0.00115   0.00117   1.90663
   A18        1.90240  -0.00272   0.00000  -0.01066  -0.01069   1.89171
   A19        2.12694  -0.00635   0.00000  -0.01539  -0.01539   2.11156
   A20        2.07760  -0.00063   0.00000  -0.00383  -0.00383   2.07377
   A21        2.07864   0.00698   0.00000   0.01922   0.01922   2.09786
   A22        2.08117   0.01529   0.00000   0.03365   0.03365   2.11482
   A23        2.08475  -0.02561   0.00000  -0.05635  -0.05635   2.02840
   A24        2.11726   0.01032   0.00000   0.02271   0.02271   2.13997
   A25        2.23301  -0.00603   0.00000  -0.01461  -0.01461   2.21840
   A26        2.02771   0.00820   0.00000   0.02301   0.02301   2.05072
   A27        2.02245  -0.00216   0.00000  -0.00840  -0.00840   2.01405
   A28        2.17375  -0.00641   0.00000  -0.01407  -0.01409   2.15966
   A29        2.05335  -0.00378   0.00000  -0.00828  -0.00829   2.04505
   A30        2.05608   0.01019   0.00000   0.02236   0.02238   2.07847
   A31        2.10524  -0.00770   0.00000  -0.01801  -0.01800   2.08724
   A32        2.15600  -0.00561   0.00000  -0.01969  -0.01969   2.13631
   A33        2.02194   0.01332   0.00000   0.03770   0.03770   2.05964
   A34        2.11704  -0.00052   0.00000  -0.00125  -0.00123   2.11581
   A35        2.09861   0.00002   0.00000  -0.00010  -0.00011   2.09850
   A36        2.06753   0.00050   0.00000   0.00134   0.00133   2.06887
   A37        2.09754  -0.00816   0.00000  -0.01900  -0.01900   2.07854
   A38        2.08198   0.00709   0.00000   0.01862   0.01862   2.10060
   A39        2.10367   0.00107   0.00000   0.00038   0.00038   2.10405
   A40        2.08559   0.00820   0.00000   0.01937   0.01933   2.10492
   A41        2.11066  -0.01851   0.00000  -0.04141  -0.04140   2.06926
   A42        2.08694   0.01031   0.00000   0.02203   0.02203   2.10897
   A43        2.10488  -0.00201   0.00000  -0.00346  -0.00348   2.10139
   A44        2.08409  -0.00144   0.00000  -0.00567  -0.00567   2.07843
   A45        2.09421   0.00345   0.00000   0.00914   0.00915   2.10336
   A46        1.88006   0.00818   0.00000   0.00665   0.00093   1.88099
   A47        1.87225   0.01446   0.00000   0.02409   0.01838   1.89063
   A48        2.17966  -0.04278   0.00000  -0.13296  -0.13880   2.04086
   A49        1.72731   0.03614   0.00000   0.18666   0.18559   1.91290
   A50        1.86890   0.00376   0.00000   0.00154  -0.00282   1.86608
   A51        1.88310  -0.00140   0.00000  -0.00943  -0.01284   1.87027
   A52        1.91063   0.00257   0.00000   0.00956   0.00938   1.92001
   A53        1.91064  -0.02297   0.00000  -0.07300  -0.07333   1.83731
   A54        1.91063   0.00107   0.00000   0.00480   0.00454   1.91518
   A55        1.91064   0.00851   0.00000   0.02270   0.02245   1.93308
   A56        1.91064   0.00180   0.00000   0.01212   0.01199   1.92262
   A57        1.91063   0.00902   0.00000   0.02381   0.02337   1.93400
    D1        3.14039   0.00003   0.00000   0.00018   0.00019   3.14058
    D2        1.03387  -0.00016   0.00000  -0.00149  -0.00149   1.03238
    D3       -1.03437   0.00017   0.00000   0.00153   0.00153  -1.03284
    D4        1.05304  -0.00031   0.00000  -0.00162  -0.00163   1.05141
    D5       -1.05348  -0.00050   0.00000  -0.00330  -0.00331  -1.05679
    D6       -3.12172  -0.00017   0.00000  -0.00028  -0.00029  -3.12201
    D7       -1.05444   0.00033   0.00000   0.00181   0.00182  -1.05262
    D8        3.12222   0.00015   0.00000   0.00013   0.00014   3.12237
    D9        1.05399   0.00047   0.00000   0.00315   0.00316   1.05715
   D10       -3.13683  -0.00010   0.00000  -0.00061  -0.00061  -3.13744
   D11        1.04225  -0.00010   0.00000  -0.00141  -0.00139   1.04085
   D12       -1.03609   0.00006   0.00000   0.00117   0.00115  -1.03494
   D13       -1.03614   0.00097   0.00000   0.00511   0.00510  -1.03104
   D14       -3.14025   0.00097   0.00000   0.00431   0.00432  -3.13593
   D15        1.06460   0.00113   0.00000   0.00689   0.00687   1.07147
   D16        1.04333  -0.00106   0.00000  -0.00575  -0.00574   1.03758
   D17       -1.06078  -0.00106   0.00000  -0.00654  -0.00652  -1.06731
   D18       -3.13912  -0.00090   0.00000  -0.00397  -0.00398   3.14009
   D19        3.13512   0.00012   0.00000   0.00073   0.00073   3.13586
   D20       -0.00243   0.00004   0.00000   0.00019   0.00019  -0.00224
   D21       -1.04408   0.00121   0.00000   0.00607   0.00607  -1.03801
   D22        2.10154   0.00113   0.00000   0.00553   0.00553   2.10708
   D23        1.03496  -0.00119   0.00000  -0.00576  -0.00576   1.02919
   D24       -2.10260  -0.00126   0.00000  -0.00630  -0.00630  -2.10890
   D25        0.00255   0.00003   0.00000   0.00022   0.00022   0.00277
   D26       -3.13550  -0.00014   0.00000  -0.00106  -0.00106  -3.13656
   D27        3.14011   0.00009   0.00000   0.00071   0.00071   3.14082
   D28        0.00206  -0.00008   0.00000  -0.00057  -0.00057   0.00149
   D29        3.13478   0.00024   0.00000   0.00181   0.00181   3.13659
   D30       -0.00043   0.00021   0.00000   0.00147   0.00147   0.00104
   D31       -0.00320   0.00006   0.00000   0.00049   0.00049  -0.00270
   D32       -3.13841   0.00003   0.00000   0.00015   0.00015  -3.13826
   D33        0.01363   0.00010   0.00000   0.00087   0.00089   0.01452
   D34       -3.12659   0.00015   0.00000   0.00122   0.00121  -3.12538
   D35       -3.13432   0.00017   0.00000   0.00131   0.00132  -3.13300
   D36        0.00864   0.00021   0.00000   0.00166   0.00164   0.01028
   D37       -3.13835  -0.00008   0.00000  -0.00059  -0.00061  -3.13897
   D38        0.00327   0.00013   0.00000   0.00102   0.00101   0.00428
   D39        0.00187  -0.00014   0.00000  -0.00095  -0.00096   0.00091
   D40       -3.13969   0.00008   0.00000   0.00065   0.00066  -3.13903
   D41        3.13804  -0.00025   0.00000  -0.00180  -0.00184   3.13620
   D42       -0.00204   0.00001   0.00000   0.00007   0.00005  -0.00199
   D43       -0.00228  -0.00020   0.00000  -0.00145  -0.00150  -0.00378
   D44        3.14082   0.00007   0.00000   0.00042   0.00039   3.14121
   D45        0.00066  -0.00006   0.00000  -0.00034  -0.00027   0.00039
   D46        3.14120   0.00063   0.00000   0.00468   0.00474  -3.13725
   D47       -3.14097  -0.00026   0.00000  -0.00182  -0.00182   3.14040
   D48       -0.00043   0.00043   0.00000   0.00319   0.00319   0.00276
   D49        0.00016   0.00072   0.00000   0.00512   0.00510   0.00527
   D50       -3.14147   0.00032   0.00000   0.00224   0.00226  -3.13921
   D51        3.14027   0.00046   0.00000   0.00328   0.00324  -3.13967
   D52       -0.00136   0.00006   0.00000   0.00041   0.00040  -0.00097
   D53        0.00242  -0.00091   0.00000  -0.00633  -0.00632  -0.00391
   D54       -3.14053  -0.00191   0.00000  -0.01419  -0.01407   3.12858
   D55       -3.13914  -0.00051   0.00000  -0.00342  -0.00347   3.14058
   D56        0.00110  -0.00151   0.00000  -0.01128  -0.01122  -0.01012
   D57       -0.00282   0.00058   0.00000   0.00396   0.00394   0.00112
   D58        3.13983  -0.00012   0.00000  -0.00107  -0.00113   3.13870
   D59        3.14010   0.00159   0.00000   0.01175   0.01192  -3.13116
   D60       -0.00043   0.00089   0.00000   0.00672   0.00685   0.00642
   D61        0.30822   0.02456   0.00000   0.10840   0.10806   0.41628
   D62       -1.53671  -0.02565   0.00000  -0.11501  -0.11534  -1.65205
   D63        2.52083   0.00002   0.00000  -0.00420  -0.00366   2.51717
   D64       -2.83473   0.02355   0.00000   0.10054   0.10029  -2.73444
   D65        1.60353  -0.02665   0.00000  -0.12287  -0.12312   1.48041
   D66       -0.62211  -0.00099   0.00000  -0.01206  -0.01143  -0.63354
   D67       -0.92045  -0.00131   0.00000  -0.00898  -0.00873  -0.92918
   D68       -3.01485   0.00076   0.00000   0.00206   0.00233  -3.01251
   D69        1.17395   0.00312   0.00000   0.01466   0.01480   1.18874
   D70        1.29682  -0.02368   0.00000  -0.11831  -0.11723   1.17959
   D71       -0.79757  -0.02161   0.00000  -0.10726  -0.10617  -0.90374
   D72       -2.89197  -0.01925   0.00000  -0.09466  -0.09370  -2.98567
   D73       -3.14159   0.01809   0.00000   0.08902   0.08779  -3.05380
   D74        1.04720   0.02016   0.00000   0.10006   0.09885   1.14605
   D75       -1.04720   0.02252   0.00000   0.11267   0.11132  -0.93588
         Item               Value     Threshold  Converged?
 Maximum Force            0.046730     0.000450     NO 
 RMS     Force            0.011149     0.000300     NO 
 Maximum Displacement     0.434536     0.001800     NO 
 RMS     Displacement     0.084209     0.001200     NO 
 Predicted change in Energy=-4.390473D-02
 GradGradGradGradGradGradGradGradGradGradGradGradGradGradGradGradGradGrad

                          Input orientation:                          
 ---------------------------------------------------------------------
 Center     Atomic      Atomic             Coordinates (Angstroms)
 Number     Number       Type             X           Y           Z
 ---------------------------------------------------------------------
      1          6           0       -2.053271    1.912040   -0.030862
      2          6           0       -0.708424    1.195017    0.079767
      3          6           0        0.453418    2.180702   -0.030117
      4          7           0        1.722459    1.483870    0.071176
      5          6           0        2.903408    2.161201   -0.006771
[...]
 6,-0.00032466,-0.00019194,0.00000432,-0.00067955,-0.00026591,0.0001701
 8,0.00061559,0.00082311,-0.00024665,-0.02738520,-0.40998405,-0.2276684
 5,-0.00525322,-0.01055082,-0.02204921,0.03829655,0.42759807,-0.0000006
 2,-0.00001735,-0.00000801,-0.00000817,0.00002885,-0.00000275,0.0001191
 3,-0.00008188,-0.00002933,-0.00035468,-0.00005682,-0.00000070,0.000729
 78,-0.00033431,-0.00008589,-0.00021590,0.00019939,0.00010576,-0.000901
 26,0.00013418,0.00014414,0.00056340,0.00065645,0.00003791,-0.00089983,
 0.00028165,0.00014518,0.00054638,-0.00074870,-0.00071102,-0.00406332,-
 0.00017353,0.00090262,0.00377951,-0.00812777,0.00576058,0.00132165,-0.
 00148283,0.00036437,-0.00001257,-0.00000056,-0.00000204,0.00000222,0.0
 0000001,-0.00000070,-0.00000188,0.00000665,0.00000958,0.00000556,0.000
 00576,0.00000992,-0.00000008,-0.00000917,0.00000076,-0.00003472,0.0000
 2016,0.00002469,0.00000046,0.00000239,0.00000150,0.00001671,0.00002447
 ,-0.00002471,0.00005867,0.00002730,-0.00007670,-0.00013484,-0.00007315
 ,-0.00008934,-0.00035414,-0.00008779,-0.00014553,-0.00000760,0.0002727
 5,0.00006887,-0.01910354,-0.23349835,-0.24971865,-0.00571841,0.0082885
 3,0.01714221,0.02944241,0.26423697,0.24662515,-0.00000058,-0.00000513,
 -0.00000150,-0.00000899,0.00000927,0.00000361,0.00002584,-0.00003160,-
 0.00000159,-0.00010288,0.00012250,0.00001279,0.00038481,-0.00057306,0.
 00002442,0.00003421,0.00039928,0.00002659,0.00007703,-0.00139586,-0.00
 031295,-0.00529106,-0.00104178,0.00012263,-0.00243376,-0.02817223,-0.0
 0541153,-0.00120889,0.00019816,0.00011889,-0.00389097,0.00334143,0.000
 62041,0.01040979,0.02049696,0.00374796,-0.07622272,-0.06788026,-0.0123
 9034,-0.00000108,0.00000201,0.00000036,-0.00000121,0.00000056,-0.00000
 188,-0.00000127,-0.00000029,0.00000178,0.00000171,0.00000069,0.0000023
 0,0.00000171,0.00000178,-0.00000220,-0.00001296,0.00000341,0.00000777,
 -0.00000659,0.00000175,-0.00000330,0.00003244,0.00000991,-0.00002661,-
 0.00041443,-0.00013307,-0.00000362,0.00101208,0.00032363,0.00001324,0.
 00008912,-0.00004130,-0.00002933,0.00062463,0.00126272,0.00020371,-0.0
 0016826,0.00432942,0.00186764,0.00023863,-0.00089403,-0.00024791,0.000
 01008,-0.00190323,-0.00058118,0.07700980,-0.00000063,-0.00000172,-0.00
 000040,-0.00000186,0.00000411,0.00000148,0.00000878,-0.00000928,-0.000
 00281,-0.00004807,0.00000965,0.00000170,0.00013493,-0.00014870,-0.0000
 2127,0.00001528,0.00008292,-0.00001033,-0.00006192,-0.00011066,-0.0000
 1942,-0.00048343,0.00157366,-0.00145630,-0.00019227,-0.00180301,-0.001
 42479,0.00015562,0.00067147,0.00029858,0.00363211,-0.00066296,-0.00154
 976,-0.00489735,-0.01575328,-0.00378422,-0.06726299,-0.32106765,-0.054
 65407,-0.00000114,-0.00000003,-0.00000006,0.00000012,0.00000019,0.0000
 0041,0.00000005,0.00000055,0.00000002,0.00000063,-0.00000010,0.0000001
 4,0.00000014,-0.00000091,0.00000012,-0.00000444,0.00000219,0.00000102,
 -0.00000202,0.00000171,0.00000112,0.00000479,0.00000551,-0.00000039,-0
 .00003179,0.00002123,0.00005542,-0.00003102,0.00048650,0.00118005,-0.0
 0005846,-0.00008035,0.00016512,-0.00042099,-0.00066994,-0.00017481,-0.
 00106086,-0.00294541,-0.00043423,0.00028457,0.00059133,-0.00006290,-0.
 00173159,0.00113032,0.00051744,0.07182959,0.33859833,-0.00000017,-0.00
 000052,0.00000205,0.00000053,-0.00000095,0.00000174,-0.00000006,0.0000
 0296,0.00002033,0.00000022,0.00000087,-0.00002527,-0.00001991,-0.00004
 985,0.00007614,-0.00006267,-0.00000070,-0.00000365,-0.00004400,-0.0000
 2276,-0.00006283,0.00043240,-0.00084721,0.00767746,-0.00003329,-0.0001
 4279,0.00476029,0.00014511,0.00024782,-0.00084512,0.00067394,-0.001253
 63,0.00572717,-0.00126679,-0.00397973,0.00294009,-0.01229152,-0.056507
 67,-0.05130760,-0.00000011,-0.00000011,0.00000005,-0.00000055,0.000001
 29,-0.00000063,0.00000075,-0.00000056,-0.00000147,-0.00000042,-0.00000
 211,-0.00000167,0.00000012,0.00000225,-0.00000093,0.00000150,-0.000000
 04,-0.00000355,-0.00000184,-0.00000097,-0.00000060,-0.00000160,-0.0000
 0361,-0.00000295,0.00000608,0.00004522,-0.00024785,0.00004605,0.000860
 50,-0.00444182,-0.00003056,0.00010624,-0.00075625,-0.00008889,-0.00021
 473,0.00035247,0.00037065,0.00047876,-0.00222820,-0.00049323,0.0000924
 5,0.00007501,-0.00045943,-0.00048782,-0.00092397,0.01244448,0.06143091
 ,0.03957126,-0.00000896,-0.00005139,-0.00000628,-0.00001543,0.00008663
 ,0.00002176,0.00029610,-0.00017433,0.00002247,-0.00099739,-0.00025180,
 -0.00017603,0.00227840,-0.00119495,-0.00008880,-0.00049891,0.00065732,
 0.00002224,-0.00333827,-0.00008381,0.00026616,0.00235733,0.00049535,0.
 00005748,-0.00093233,-0.00074817,-0.00143786,-0.00171050,0.00049011,-0
 .00140935,-0.00104124,0.00243189,0.00189459,-0.00459928,-0.00859134,0.
 02019470,0.00124979,-0.00248748,0.00048085,-0.00003795,-0.00000528,-0.
 00000253,0.00000515,0.00001220,-0.00000201,0.00000401,0.00001010,0.000
 00596,0.00000875,-0.00000431,-0.00000077,-0.00000061,-0.00000843,-0.00
 000195,-0.00007709,0.00003897,0.00002688,-0.00001485,0.00001486,0.0000
 0640,0.00004983,0.00011360,0.00004539,-0.00002917,0.00012906,0.0000329
 0,-0.00008324,-0.00004169,-0.00006829,-0.00026982,-0.00012666,-0.00016
 323,-0.00028311,-0.00044525,0.00051778,-0.07401590,-0.00807328,0.02421
 303,0.00626925,0.01608309,-0.02007435,0.01067131,-0.00138354,-0.006749
 47,-0.00030422,0.00008235,0.00065766,0.58160787,-0.00000272,-0.0000158
 7,-0.00000243,-0.00000490,0.00002588,0.00001045,0.00009042,-0.00005306
 ,0.00000382,-0.00029910,-0.00008165,-0.00004896,0.00064877,-0.00028536
 ,-0.00004344,-0.00017618,0.00014743,0.00000792,-0.00091759,-0.00002679
 ,0.00007252,0.00067769,0.00015006,0.00004371,-0.00033529,0.00018620,-0
 .00018203,-0.00062142,0.00047218,-0.00046106,0.00105815,0.00059196,0.0
 0033795,-0.00332140,0.00504889,0.00626137,-0.00098903,-0.00161715,0.00
 057945,-0.00001158,-0.00000164,-0.00000038,0.00000149,0.00000410,-0.00
 000074,0.00000122,0.00000287,0.00000187,0.00000257,-0.00000139,-0.0000
 0034,-0.00000045,-0.00000267,-0.00000137,-0.00002290,0.00001186,0.0000
 0816,-0.00000392,0.00000526,0.00000225,0.00001390,0.00003212,0.0000150
 9,-0.00000808,0.00003375,0.00001843,-0.00007679,-0.00005164,-0.0000899
 0,0.00001587,-0.00003120,0.00001550,0.00014689,-0.00003012,0.00035955,
 -0.00577705,-0.07374255,0.02824136,0.00325278,-0.00851822,0.02486787,0
 .00341545,0.00045070,-0.03198465,-0.00017463,0.00001506,-0.00007451,-0
 .01862516,0.59100777,0.00000020,0.00000093,-0.00000143,-0.00000004,0.0
 0000177,-0.00000272,0.00000072,0.00000028,-0.00000813,-0.00000628,0.00
 000345,0.00000582,0.00007250,-0.00012242,-0.00002924,0.00002479,0.0000
 5899,0.00003316,-0.00024972,-0.00004374,0.00004070,0.00017288,0.000005
 08,-0.00000914,-0.00009827,-0.00010647,-0.00024726,-0.00027211,0.00029
 105,-0.00027278,0.00066316,0.00033045,-0.00071177,-0.00115668,0.000029
 21,0.00617972,0.00034888,-0.00001981,-0.00066581,0.00000074,0.00000065
 ,-0.00000037,0.00000017,-0.00000200,0.00000051,-0.00000073,0.00000042,
 0.00000139,0.00000062,0.00000225,0.00000164,0.00000011,-0.00000205,0.0
 0000190,-0.00000263,0.00000110,0.00000389,-0.00000098,-0.00000239,-0.0
 0000023,-0.00000173,0.00000317,-0.00000655,-0.00002122,0.00001942,-0.0
 0001321,-0.00003859,0.00000265,-0.00001417,0.00000686,-0.00000683,0.00
 000190,-0.00018904,-0.00024816,0.00023041,0.01433230,0.02549934,-0.156
 43051,0.00329553,0.00005319,-0.00084602,0.00320474,0.00267252,-0.01405
 232,-0.00030598,0.00003750,0.00016410,0.04441614,0.05710781,0.42316508
 ,0.00000078,0.00000556,0.00000151,0.00000156,-0.00000939,-0.00000048,-
 0.00003533,0.00002221,-0.00000599,0.00010481,0.00002780,0.00000769,-0.
 00021270,0.00006568,0.00003318,0.00005594,-0.00004070,-0.00001995,0.00
 023488,-0.00002226,-0.00002014,-0.00018469,-0.00003144,0.00006061,0.00
 002713,-0.00001363,0.00004880,-0.00000874,-0.00015018,-0.00005594,-0.0
 0026825,-0.00009784,-0.00004764,0.00003443,-0.00016946,-0.00038114,-0.
 00007508,0.00021127,-0.00004751,0.00000469,0.00000103,0.00000056,-0.00
 000091,-0.00000108,0.00000014,-0.00000028,-0.00000158,-0.00000124,-0.0
 0000121,-0.00000024,-0.00000062,0.00000016,0.00000147,-0.00000031,0.00
 000847,-0.00000456,-0.00000401,-0.00000040,-0.00000117,-0.00000053,-0.
 00000591,-0.00001093,-0.00000208,-0.00000839,-0.00001150,0.00000888,-0
 .00000534,0.00000157,0.00000550,-0.00000663,-0.00000366,0.00000342,0.0
 0010429,-0.00008485,0.00004816,-0.00098503,0.00537880,0.00388587,-0.00
 070823,0.00027297,-0.00058700,0.00116951,0.00028882,0.00285820,0.00009
 627,-0.00001422,-0.00005253,-0.05354530,-0.03282564,-0.02654346,0.0522
 4839,0.,-0.00000010,-0.00000045,0.00000031,0.00000112,-0.00000198,0.00
 000242,-0.00000159,0.00000206,-0.00000667,-0.00000540,0.00000016,0.000
 01119,0.00001269,-0.00001064,0.00000113,-0.00000427,0.00001197,-0.0000
 0568,-0.00001721,-0.00000180,-0.00000873,0.00009786,0.00000607,-0.0000
 3021,-0.00007333,0.00000103,0.00009929,-0.00009467,0.00002037,-0.00034
 527,0.00026529,0.00006377,0.00011538,-0.00026790,-0.00021790,0.0002415
 4,-0.00017090,-0.00003099,-0.00000035,-0.00000008,-0.00000016,0.000000
 31,-0.00000027,0.00000006,-0.00000004,0.00000017,0.00000034,0.00000005
 ,0.00000042,0.00000007,-0.00000028,-0.00000045,0.00000072,-0.00000049,
 0.00000019,0.00000083,0.00000053,-0.00000054,-0.00000023,-0.00000016,0
 .00000100,0.00000077,-0.00000590,0.00000348,-0.00000233,-0.00000346,-0
 .00000440,-0.00000258,-0.00002157,-0.00000281,-0.00001145,0.00005705,-
 0.00009025,0.00003340,0.00215616,0.00607110,0.00537128,-0.00031951,-0.
 00012101,-0.00001056,-0.00052614,0.00199394,0.00369357,-0.00000890,0.0
 0000732,0.00003352,-0.03317985,-0.22728838,-0.13750437,0.03660159,0.24
 008938,-0.00000102,-0.00000571,-0.00000065,-0.00000210,0.00000903,0.00
 000339,0.00003234,-0.00001993,-0.00000067,-0.00010826,-0.00002792,-0.0
 0001701,0.00022806,-0.00010291,-0.00001523,-0.00005756,0.00005401,0.00
 000719,-0.00029701,-0.00000018,0.00001711,0.00012203,0.00033587,0.0000
 1018,-0.00032756,-0.00018282,-0.00009565,0.00016719,0.00024156,0.00001
 880,0.00050329,-0.00004745,0.00008811,-0.00058743,0.00162227,0.0011920
 7,0.00030042,-0.00023911,0.00015763,-0.00000408,-0.00000056,-0.0000001
 7,0.00000044,0.00000140,-0.00000021,0.00000037,0.00000111,0.00000069,0
 .00000097,-0.00000047,0.00000014,-0.00000003,-0.00000100,-0.00000054,-
 0.00000840,0.00000450,0.00000302,-0.00000128,0.00000197,0.00000084,0.0
 0000510,0.00001071,0.00000354,0.00000155,0.00000855,0.00000517,0.00000
 148,-0.00000360,-0.00002627,0.00003499,-0.00000575,0.00000862,0.000030
 25,0.00018633,-0.00017211,-0.00526534,-0.02516332,-0.01438729,0.000686
 89,0.00256071,0.00303598,0.00168094,-0.00043657,-0.00835699,-0.0001132
 6,0.00002142,-0.00001460,-0.02688795,-0.13676928,-0.14953889,0.0272794
 3,0.14697843,0.15875256,-0.00000059,-0.00000349,-0.00000065,-0.0000011
 7,0.00000570,0.00000103,0.00001942,-0.00001189,0.00000250,-0.00006328,
 -0.00001503,-0.00000981,0.00014224,-0.00006132,-0.00000650,-0.00003720
 ,0.00003388,0.00000532,-0.00020502,0.00000036,0.00001339,0.00022869,-0
 .00006391,-0.00005236,0.00000196,0.00000707,-0.00004278,-0.00027121,0.
 00001567,-0.00005481,0.00025624,0.00040823,0.00022074,-0.00013379,-0.0
 0050345,0.00098100,0.00029388,-0.00022890,0.00010311,-0.00000250,-0.00
 000032,-0.00000015,0.00000037,0.00000083,-0.00000021,0.00000018,0.0000
 0068,0.00000054,0.00000054,-0.00000025,0.00000008,-0.00000011,-0.00000
 056,-0.00000024,-0.00000505,0.00000252,0.00000190,-0.00000081,0.000000
 83,0.00000030,0.00000360,0.00000682,0.00000242,0.00000086,0.00000912,-
 0.00000121,-0.00000136,-0.00000448,-0.00000864,-0.00001527,0.00000011,
 -0.00002308,-0.00001677,-0.00004194,0.00001445,-0.00685830,-0.00189243
 ,-0.00047406,0.00109926,0.00003456,-0.00019349,0.00114001,0.00111510,0
 .00008832,-0.00002654,0.00001691,-0.00004764,-0.31019242,-0.07852829,0
 .00461122,-0.00122211,0.00064912,0.00016648,0.33002909,-0.00000086,-0.
 00000412,-0.00000052,-0.00000128,0.00000757,0.00000207,0.00002345,-0.0
 0001336,0.00000329,-0.00008254,-0.00002410,-0.00001860,0.00019074,-0.0
 0009443,-0.00001097,-0.00004043,0.00004885,0.00000315,-0.00028173,-0.0
 0003771,0.00002239,0.00011039,0.00043755,0.00007663,-0.00046802,-0.000
 29260,-0.00021140,0.00022180,0.00004822,-0.00010389,-0.00018346,0.0000
 7802,0.00010131,-0.00046754,0.00022019,0.00178720,0.00048714,-0.000254
 67,-0.00003067,-0.00000319,-0.00000049,-0.00000020,0.00000044,0.000000
 93,0.00000011,0.00000041,0.00000085,0.00000017,0.00000066,-0.00000045,
 -0.00000046,0.00000014,-0.00000089,0.00000016,-0.00000627,0.00000312,0
 .00000176,-0.00000153,0.00000112,0.00000085,0.00000391,0.00001074,0.00
 000458,-0.00000681,0.00001131,0.00000630,-0.00001470,-0.00000729,-0.00
 002911,-0.00001764,-0.00001744,0.00000482,-0.00002229,-0.00000583,-0.0
 0002771,-0.00974428,-0.00303965,0.00021587,0.00192013,-0.00021331,-0.0
 0049679,0.00082536,-0.00029055,-0.00059017,-0.00004784,0.00000925,0.00
 018805,-0.07894717,-0.07077017,0.00068005,-0.02284743,-0.00557355,0.00
 313198,0.08567197,0.07033995,0.00000235,0.00001347,0.00000122,0.000004
 32,-0.00002301,-0.00000646,-0.00007607,0.00004520,-0.00000286,0.000260
 78,0.00006087,0.00005293,-0.00062065,0.00036623,0.00001045,0.00012975,
 -0.00019970,0.00000449,0.00096651,0.00003248,-0.00008487,-0.00070661,-
 0.00005317,-0.00006232,0.00030050,0.00015253,0.00045126,0.00066730,-0.
 00016259,0.00048884,0.00015331,-0.00067992,-0.00029639,0.00075460,0.00
 175692,-0.00542977,-0.00019727,0.00066134,0.00005847,0.00000954,0.0000
 0106,0.00000052,-0.00000113,-0.00000319,0.00000060,-0.00000102,-0.0000
 0243,-0.00000148,-0.00000219,0.00000132,0.00000033,-0.00000023,0.00000
 198,0.00000076,0.00002040,-0.00000994,-0.00000688,0.00000535,-0.000003
 99,-0.00000180,-0.00001322,-0.00003120,-0.00001321,0.00001174,-0.00003
 544,-0.00001658,0.00004394,0.00001835,0.00001637,0.00008422,0.00004057
 ,0.00004457,0.00004562,0.00013880,-0.00028403,0.03298036,0.00996084,-0
 .00150875,-0.00323666,-0.00170379,0.00139744,-0.00363539,-0.00131408,0
 .00139336,0.00006965,-0.00001259,-0.00025044,0.00624859,0.00115235,-0.
 04482126,-0.01987640,-0.00400020,0.00219192,-0.00643389,-0.00230152,0.
 04651847,0.00000101,0.00000469,0.00000140,0.00000046,-0.00000783,-0.00
 000015,-0.00002738,0.00001532,-0.00000108,0.00008232,0.00002956,0.0000
 1287,-0.00014854,0.00000164,-0.00000530,0.00004853,0.00000388,-0.00001
 554,0.00014234,0.00002242,-0.00001137,-0.00008006,-0.00014911,0.000037
 58,-0.00003357,0.00017581,0.00005786,-0.00003499,0.00002868,0.00005916
 ,0.00009556,0.00002847,-0.00004722,-0.00006971,0.00022806,-0.00027220,
 -0.00033781,-0.00030571,-0.00003219,0.00000377,0.00000087,0.00000037,-
 0.00000098,-0.00000103,0.00000006,-0.00000037,-0.00000116,-0.00000082,
 -0.00000064,0.00000001,-0.00000014,0.00000041,0.00000131,-0.00000011,0
 .00000572,-0.00000376,-0.00000276,-0.00000045,-0.00000113,-0.00000078,
 -0.00000324,-0.00000791,-0.00000286,0.00000336,-0.00000643,0.00000112,
 -0.00002856,-0.00000272,-0.00000266,0.00000372,0.00000645,0.00000275,0
 .00004940,0.00004362,-0.00002136,0.00273591,-0.00546837,0.00186035,0.0
 0177031,-0.00186263,0.00265138,-0.00038862,-0.00062245,-0.00039020,0.0
 0004825,0.00013920,0.00011571,-0.15280182,0.13339693,-0.04226411,0.003
 18323,-0.00547286,0.00241904,-0.01416283,0.02372847,-0.00795811,0.1599
 4527,0.00000080,0.00000560,0.00000145,0.00000146,-0.00000915,-0.000000
 60,-0.00003380,0.00002045,-0.00000452,0.00010265,0.00002802,0.00000860
 ,-0.00021510,0.00006910,0.00002260,0.00005655,-0.00004173,-0.00001819,
 0.00025134,-0.00000915,-0.00001533,-0.00024629,0.00012088,0.00009247,-
 0.00022577,-0.00002623,-0.00002423,0.00026982,-0.00001037,0.00002028,-
 0.00013970,-0.00042624,-0.00015303,-0.00023896,0.00067472,-0.00025027,
 -0.00012855,0.00018572,-0.00008008,0.00000439,0.00000074,0.00000048,-0
 .00000084,-0.00000102,0.00000034,-0.00000029,-0.00000140,-0.00000128,-
 0.00000108,-0.00000025,-0.00000063,0.00000030,0.00000141,-0.00000019,0
 .00000809,-0.00000447,-0.00000408,-0.00000017,-0.00000108,-0.00000013,
 -0.00000479,-0.00001075,-0.00000234,-0.00000028,-0.00001237,0.00000659
 ,-0.00001311,0.00000157,0.00000699,0.00001382,0.00000140,0.00001120,0.
 00007118,0.00007704,-0.00002473,0.00487044,-0.00793071,0.00010736,-0.0
 0008462,0.00013818,0.00240727,-0.00096351,0.00103514,-0.00112949,-0.00
 002985,0.00004272,0.00009944,0.13377839,-0.21566821,0.05125697,0.01346
 301,-0.01482687,0.00783673,-0.00662322,0.00942295,-0.00386754,-0.14394
 229,0.22715435,-0.00000105,-0.00000456,-0.00000032,-0.00000107,0.00000
 732,0.00000156,0.00002247,-0.00001255,0.00000524,-0.00008099,-0.000022
 34,-0.00001628,0.00017222,-0.00006784,0.00000835,-0.00004613,0.0000333
 3,-0.00000930,-0.00022452,-0.00001205,0.00001255,0.00019026,-0.0001533
 1,-0.00006477,0.00023637,-0.00014526,-0.00007006,-0.00031019,-0.000032
 08,-0.00008548,0.00004940,0.00012583,0.00024435,0.00050259,-0.00195383
 ,0.00032131,0.00040139,0.00048216,0.00015985,-0.00000315,-0.00000048,-
 0.00000020,0.00000038,0.00000131,0.00000003,0.00000051,0.00000083,-0.0
 0000010,0.00000062,-0.00000109,-0.00000046,-0.00000012,-0.00000068,-0.
 00000038,-0.00000549,0.00000343,0.00000069,-0.00000119,0.00000183,0.00
 000127,0.00000313,0.00000813,0.00000495,-0.00000361,0.00000724,0.00000
 206,0.00004238,0.00001802,0.00002406,-0.00001380,-0.00000250,-0.000030
 43,-0.00008902,-0.00005850,-0.00005650,-0.01942525,0.02153692,-0.00386
 126,-0.00003028,0.00549489,-0.00719641,0.00218024,-0.00256813,0.001492
 05,0.00014496,-0.00010407,-0.00024877,-0.04206211,0.05055166,-0.062158
 41,0.01340502,-0.01442278,0.00712932,0.00113673,-0.00240874,0.00015509
 ,0.04380933,-0.05630210,0.06423641\\0.00000164,-0.00000034,0.00000023,
 0.00000269,-0.00000092,0.00000186,0.00001113,-0.00000139,0.00000026,0.
 00001105,0.00001506,-0.00000501,-0.00003064,-0.00001931,-0.00000881,-0
 .00000957,0.00000383,0.00000215,0.00000163,0.00000266,0.00000526,0.000
 00812,-0.00002618,0.00000669,0.00002224,0.00002531,0.00000196,-0.00001
 784,0.00000220,-0.00000220,0.00001403,0.00001725,0.00000008,0.00000469
 ,-0.00000799,-0.00000220,-0.00002459,-0.00000746,-0.00000316,-0.000000
 13,-0.00000171,0.00000125,0.00000081,-0.00000021,-0.00000184,0.0000000
 3,0.00000063,0.00000224,0.00000084,0.00000067,-0.00000281,-0.00000121,
 -0.00000184,0.00000133,-0.00000245,0.00000247,0.00000487,0.00000393,-0
 .00000005,-0.00000005,-0.00000253,0.00000095,0.00000103,0.00000214,-0.
 00000387,-0.00000159,0.00000128,-0.00000320,-0.00000064,0.00000115,0.0
 0000031,-0.00000156,-0.00000445,-0.00000198,-0.00000118,-0.00001041,-0
 .00000066,-0.00000475,0.00000592,-0.00000093,0.00000109,0.00000718,0.0
 0000718,0.00000805,0.00000472,0.00000102,0.00000082,-0.00001359,-0.000
 00485,-0.00000557,0.00000453,0.00000245,0.00000076,0.00000227,0.000001
 40,-0.00000190,0.00000535,-0.00000051,0.00000335\\\@


 ONE BIG VICE IN A MAN IS APT TO KEEP OUT MANY SMALLER ONES.

                           -- BRET HARTE
 Job cpu time:       0 days  3 hours  1 minutes 15.7 seconds.
 File lengths (MBytes):  RWF=    475 Int=      0 D2E=      0 Chk=     11 Scr=      1
 Normal termination of Gaussian 09 at Tue Oct 30 14:02:42 2018.
WARNING: pbs_rusage is deprecated and values produced may not be accurate


=============================================================================
                                     Resource usage:
                                       CPU time:              15:07:09
   JobId:    1828131.r-man2            Elapsed time:          03:47:53
   Project:             q95            Requested time:        34:00:00
   Service Units:     15.19 
                                       Max physical memory:      694MB
                                       Max virtual memory:      1367MB
                                       Requested memory:           0MB

                                       Number of cpus:               4

                                       Max jobfs disk use:       0.5GB
                                       Requested jobfs:         16.0GB
=============================================================================

