 Entering Gaussian System, Link 0=/apps/gaussian/g09e01/g09/g09
 AtFile(1): /home/507/hio507/Basis/6-31pGd.gbs
 Initial command:
 /apps/gaussian/g09e01/g09/l1.exe "/jobfs/local/5960575.r-man2/Gau-33693.inp" -scrdir="/jobfs/local/5960575.r-man2/"
 Entering Link 1 = /apps/gaussian/g09e01/g09/l1.exe PID=     33694.
  
 Copyright (c) 1988,1990,1992,1993,1995,1998,2003,2009,2015,
            Gaussian, Inc.  All Rights Reserved.
  
 This is part of the Gaussian(R) 09 program.  It is based on
 the Gaussian(R) 03 system (copyright 2003, Gaussian, Inc.),
 the Gaussian(R) 98 system (copyright 1998, Gaussian, Inc.),
 the Gaussian(R) 94 system (copyright 1995, Gaussian, Inc.),
 the Gaussian 92(TM) system (copyright 1992, Gaussian, Inc.),
 the Gaussian 90(TM) system (copyright 1990, Gaussian, Inc.),
 the Gaussian 88(TM) system (copyright 1988, Gaussian, Inc.),
 the Gaussian 86(TM) system (copyright 1986, Carnegie Mellon
 University), and the Gaussian 82(TM) system (copyright 1983,
 Carnegie Mellon University). Gaussian is a federally registered
 trademark of Gaussian, Inc.
  
 This software contains proprietary and confidential information,
 including trade secrets, belonging to Gaussian, Inc.
  
 This software is provided under written license and may be
 used, copied, transmitted, or stored only in accord with that
 written license.
  
 The following legend is applicable only to US Government
 contracts under FAR:
  
                    RESTRICTED RIGHTS LEGEND
  
 Use, reproduction and disclosure by the US Government is
 subject to restrictions as set forth in subparagraphs (a)
 and (c) of the Commercial Computer Software - Restricted
 Rights clause in FAR 52.227-19.
  
 Gaussian, Inc.
 340 Quinnipiac St., Bldg. 40, Wallingford CT 06492
  
  
 ---------------------------------------------------------------
 Warning -- This program may not be used in any manner that
 competes with the business of Gaussian, Inc. or will provide
 assistance to any competitor of Gaussian, Inc.  The licensee
 of this program is prohibited from giving any competitor of
 Gaussian, Inc. access to this program.  By using this program,
 the user acknowledges that Gaussian, Inc. is engaged in the
 business of creating and licensing software in the field of
 computational chemistry and represents and warrants to the
 licensee that it is not a competitor of Gaussian, Inc. and that
 it will not use this program in any manner prohibited above.
 ---------------------------------------------------------------
  

 Cite this work as:
 Gaussian 09, Revision E.01,
 M. J. Frisch, G. W. Trucks, H. B. Schlegel, G. E. Scuseria, 
 M. A. Robb, J. R. Cheeseman, G. Scalmani, V. Barone, B. Mennucci, 
 G. A. Petersson, H. Nakatsuji, M. Caricato, X. Li, H. P. Hratchian, 
 A. F. Izmaylov, J. Bloino, G. Zheng, J. L. Sonnenberg, M. Hada, 
 M. Ehara, K. Toyota, R. Fukuda, J. Hasegawa, M. Ishida, T. Nakajima, 
 Y. Honda, O. Kitao, H. Nakai, T. Vreven, J. A. Montgomery, Jr., 
 J. E. Peralta, F. Ogliaro, M. Bearpark, J. J. Heyd, E. Brothers, 
 K. N. Kudin, V. N. Staroverov, T. Keith, R. Kobayashi, J. Normand, 
 K. Raghavachari, A. Rendell, J. C. Burant, S. S. Iyengar, J. Tomasi, 
 M. Cossi, N. Rega, J. M. Millam, M. Klene, J. E. Knox, J. B. Cross, 
 V. Bakken, C. Adamo, J. Jaramillo, R. Gomperts, R. E. Stratmann, 
 O. Yazyev, A. J. Austin, R. Cammi, C. Pomelli, J. W. Ochterski, 
 R. L. Martin, K. Morokuma, V. G. Zakrzewski, G. A. Voth, 
 P. Salvador, J. J. Dannenberg, S. Dapprich, A. D. Daniels, 
 O. Farkas, J. B. Foresman, J. V. Ortiz, J. Cioslowski, 
 and D. J. Fox, Gaussian, Inc., Wallingford CT, 2013.
 
 ******************************************
 Gaussian 09:  ES64L-G09RevE.01 30-Nov-2015
                21-Feb-2019 
 ******************************************
 %chk=4Ketone_EtO.M062X_6-31pGd_opt.chk
 %mem=196608000
 %nproc=8
 Will use up to    8 processors via shared memory.
 ----------------------------------------------------------------------
 # M062X/Gen 6D SCF=Tight INT(grid=ultrafine) OPT IOP(2/17=4) maxdisk=2
 684354560
 ----------------------------------------------------------------------
 1/14=-1,18=20,19=15,26=4,38=1/1,3;
 2/9=110,12=2,17=4,18=5,40=1/2;
 3/5=7,8=2,11=2,16=1,25=1,30=1,71=1,74=-55,75=-5/1,2,3;
 4//1;
 5/5=2,32=2,38=5/2;
 6/7=2,8=2,9=2,10=2,28=1/1;
 7//1,2,3,16;
 1/14=-1,18=20,19=15,26=4/3(2);
 2/9=110,17=4/2;
 99//99;
 2/9=110,17=4/2;
 3/5=7,6=1,8=2,11=2,16=1,25=1,30=1,71=1,74=-55,75=-5,82=7/1,2,3;
 4/5=5,16=3,69=1/1;
 5/5=2,32=2,38=5/2;
 7//1,2,3,16;
 1/14=-1,18=20,19=15,26=4/3(-5);
 2/9=110,17=4/2;
 6/7=2,8=2,9=2,10=2,19=2,28=1/1;
 99/9=1/99;
 -----------------------------
 4Ketone_EtO.M062X_6-31pGd_opt
 -----------------------------
 Symbolic Z-matrix:
 Charge = -1 Multiplicity = 1
 C                    -2.14859   2.38599  -0.19416 
 C                    -0.82847   1.66416   0.05663 
 C                     0.35737   2.56259  -0.26398 
 N                     1.60768   1.85429  -0.03109 
 C                     2.79125   2.46228  -0.24019 
 O                     2.87784   3.63547  -0.6476 
 N                     3.88987   1.66714   0.02706 
 C                     5.23348   1.99801  -0.09858 
 C                     5.72503   3.29916  -0.30234 
 C                     6.15502   0.93471   0.01396 
 C                     7.51397   1.16397  -0.08245 
 C                     8.01233   2.45956  -0.2964 
 C                     7.09561   3.51247  -0.40073 
 H                    -3.00071   1.74074   0.03945 
 H                    -2.23459   2.69162  -1.24287 
 H                    -2.22716   3.28579   0.42617 
 H                    -0.77301   0.75756  -0.55861 
 H                    -0.76809   1.34479   1.10439 
 H                     0.32014   3.46633   0.35752 
 H                     0.30818   2.88711  -1.3107 
 H                     1.56807   0.905     0.36491 
 H                     3.69444   0.6768    0.24365 
 H                     5.04512   4.13491  -0.38003 
 H                     5.78119  -0.07254   0.17574 
 H                     8.20581   0.3314    0.00387 
 C                     9.47477   2.67796  -0.40052 
 H                     7.44437   4.5289   -0.55791 
 O                     10.26045   1.73613  -0.28918 
 C                     9.99036   4.07131  -0.64561 
 H                     9.67338   4.74247   0.15948 
 H                     11.07978   4.05039  -0.69603 
 H                     9.58726   4.46795  -1.58321 
 O                     1.30362  -0.78979   1.09426 
 O                     3.44794  -1.11585   0.55694 
 C                     2.32584  -1.52829   0.96747 
 C                     2.16316  -2.99999   1.33561 
 C                     3.43168  -3.83551   1.2406 
 H                     1.382    -3.4053    0.68073 
 H                     1.75034  -3.03292   2.35075 
 H                     3.8314   -3.83556   0.22197 
 H                     3.2272   -4.87301   1.52342 
 H                     4.20986  -3.4509    1.90723 
 
 Add virtual bond connecting atoms O33        and H21        Dist= 3.52D+00.
 Add virtual bond connecting atoms O34        and H22        Dist= 3.47D+00.

 GradGradGradGradGradGradGradGradGradGradGradGradGradGradGradGradGradGrad
 Berny optimization.
 Initialization pass.
                           ----------------------------
                           !    Initial Parameters    !
                           ! (Angstroms and Degrees)  !
 --------------------------                            --------------------------
 ! Name  Definition              Value          Derivative Info.                !
 --------------------------------------------------------------------------------
 ! R1    R(1,2)                  1.5253         estimate D2E/DX2                !
 ! R2    R(1,14)                 1.0941         estimate D2E/DX2                !
 ! R3    R(1,15)                 1.0957         estimate D2E/DX2                !
 ! R4    R(1,16)                 1.0957         estimate D2E/DX2                !
 ! R5    R(2,3)                  1.5219         estimate D2E/DX2                !
 ! R6    R(2,17)                 1.097          estimate D2E/DX2                !
 ! R7    R(2,18)                 1.097          estimate D2E/DX2                !
 ! R8    R(3,4)                  1.4558         estimate D2E/DX2                !
 ! R9    R(3,19)                 1.0974         estimate D2E/DX2                !
 ! R10   R(3,20)                 1.097          estimate D2E/DX2                !
 ! R11   R(4,5)                  1.3469         estimate D2E/DX2                !
 ! R12   R(4,21)                 1.0293         estimate D2E/DX2                !
 ! R13   R(5,6)                  1.2449         estimate D2E/DX2                !
 ! R14   R(5,7)                  1.3823         estimate D2E/DX2                !
 ! R15   R(7,8)                  1.3894         estimate D2E/DX2                !
 ! R16   R(7,22)                 1.0324         estimate D2E/DX2                !
 ! R17   R(8,9)                  1.4057         estimate D2E/DX2                !
 ! R18   R(8,10)                 1.4116         estimate D2E/DX2                !
 ! R19   R(9,13)                 1.3906         estimate D2E/DX2                !
 ! R20   R(9,23)                 1.0802         estimate D2E/DX2                !
 ! R21   R(10,11)                1.3815         estimate D2E/DX2                !
 ! R22   R(10,24)                1.0865         estimate D2E/DX2                !
 ! R23   R(11,12)                1.4045         estimate D2E/DX2                !
 ! R24   R(11,25)                1.0859         estimate D2E/DX2                !
 ! R25   R(12,13)                1.4            estimate D2E/DX2                !
 ! R26   R(12,26)                1.4823         estimate D2E/DX2                !
 ! R27   R(13,27)                1.086          estimate D2E/DX2                !
 ! R28   R(21,33)                1.8639         estimate D2E/DX2                !
 ! R29   R(22,34)                1.8364         estimate D2E/DX2                !
 ! R30   R(26,28)                1.2316         estimate D2E/DX2                !
 ! R31   R(26,29)                1.5058         estimate D2E/DX2                !
 ! R32   R(29,30)                1.095          estimate D2E/DX2                !
 ! R33   R(29,31)                1.0908         estimate D2E/DX2                !
 ! R34   R(29,32)                1.095          estimate D2E/DX2                !
 ! R35   R(33,35)                1.2674         estimate D2E/DX2                !
 ! R36   R(34,35)                1.264          estimate D2E/DX2                !
 ! R37   R(35,36)                1.5257         estimate D2E/DX2                !
 ! R38   R(36,37)                1.5219         estimate D2E/DX2                !
 ! R39   R(36,38)                1.097          estimate D2E/DX2                !
 ! R40   R(36,39)                1.0964         estimate D2E/DX2                !
 ! R41   R(37,40)                1.0942         estimate D2E/DX2                !
 ! R42   R(37,41)                1.0946         estimate D2E/DX2                !
 ! R43   R(37,42)                1.0945         estimate D2E/DX2                !
 ! A1    A(2,1,14)             111.0911         estimate D2E/DX2                !
 ! A2    A(2,1,15)             110.9336         estimate D2E/DX2                !
 ! A3    A(2,1,16)             110.9523         estimate D2E/DX2                !
 ! A4    A(14,1,15)            107.9227         estimate D2E/DX2                !
 ! A5    A(14,1,16)            107.9133         estimate D2E/DX2                !
 ! A6    A(15,1,16)            107.8886         estimate D2E/DX2                !
 ! A7    A(1,2,3)              111.1216         estimate D2E/DX2                !
 ! A8    A(1,2,17)             110.037          estimate D2E/DX2                !
 ! A9    A(1,2,18)             110.0253         estimate D2E/DX2                !
 ! A10   A(3,2,17)             109.2884         estimate D2E/DX2                !
 ! A11   A(3,2,18)             109.2791         estimate D2E/DX2                !
 ! A12   A(17,2,18)            106.9938         estimate D2E/DX2                !
 ! A13   A(2,3,4)              110.3828         estimate D2E/DX2                !
 ! A14   A(2,3,19)             109.9018         estimate D2E/DX2                !
 ! A15   A(2,3,20)             109.9204         estimate D2E/DX2                !
 ! A16   A(4,3,19)             109.8291         estimate D2E/DX2                !
 ! A17   A(4,3,20)             109.5783         estimate D2E/DX2                !
 ! A18   A(19,3,20)            107.1712         estimate D2E/DX2                !
 ! A19   A(3,4,5)              120.6803         estimate D2E/DX2                !
 ! A20   A(3,4,21)             118.5034         estimate D2E/DX2                !
 ! A21   A(5,4,21)             120.6525         estimate D2E/DX2                !
 ! A22   A(4,5,6)              122.5001         estimate D2E/DX2                !
 ! A23   A(4,5,7)              114.1247         estimate D2E/DX2                !
 ! A24   A(6,5,7)              123.3734         estimate D2E/DX2                !
 ! A25   A(5,7,8)              127.8872         estimate D2E/DX2                !
 ! A26   A(5,7,22)             116.2261         estimate D2E/DX2                !
 ! A27   A(8,7,22)             115.4966         estimate D2E/DX2                !
 ! A28   A(7,8,9)              124.8662         estimate D2E/DX2                !
 ! A29   A(7,8,10)             116.4053         estimate D2E/DX2                !
 ! A30   A(9,8,10)             118.7184         estimate D2E/DX2                !
 ! A31   A(8,9,13)             119.7943         estimate D2E/DX2                !
 ! A32   A(8,9,23)             120.4285         estimate D2E/DX2                !
 ! A33   A(13,9,23)            119.7769         estimate D2E/DX2                !
 ! A34   A(8,10,11)            120.7715         estimate D2E/DX2                !
 ! A35   A(8,10,24)            119.0508         estimate D2E/DX2                !
 ! A36   A(11,10,24)           120.1776         estimate D2E/DX2                !
 ! A37   A(10,11,12)           120.8458         estimate D2E/DX2                !
 ! A38   A(10,11,25)           119.5976         estimate D2E/DX2                !
 ! A39   A(12,11,25)           119.5561         estimate D2E/DX2                !
 ! A40   A(11,12,13)           118.215          estimate D2E/DX2                !
 ! A41   A(11,12,26)           119.7801         estimate D2E/DX2                !
 ! A42   A(13,12,26)           122.0047         estimate D2E/DX2                !
 ! A43   A(9,13,12)            121.6521         estimate D2E/DX2                !
 ! A44   A(9,13,27)            118.0556         estimate D2E/DX2                !
 ! A45   A(12,13,27)           120.2917         estimate D2E/DX2                !
 ! A46   A(12,26,28)           120.6889         estimate D2E/DX2                !
 ! A47   A(12,26,29)           119.0509         estimate D2E/DX2                !
 ! A48   A(28,26,29)           120.2602         estimate D2E/DX2                !
 ! A49   A(26,29,30)           110.3879         estimate D2E/DX2                !
 ! A50   A(26,29,31)           109.3754         estimate D2E/DX2                !
 ! A51   A(26,29,32)           110.3973         estimate D2E/DX2                !
 ! A52   A(30,29,31)           109.5631         estimate D2E/DX2                !
 ! A53   A(30,29,32)           107.5158         estimate D2E/DX2                !
 ! A54   A(31,29,32)           109.5754         estimate D2E/DX2                !
 ! A55   A(21,33,35)           112.1003         estimate D2E/DX2                !
 ! A56   A(22,34,35)           119.5433         estimate D2E/DX2                !
 ! A57   A(33,35,34)           123.9405         estimate D2E/DX2                !
 ! A58   A(33,35,36)           116.8661         estimate D2E/DX2                !
 ! A59   A(34,35,36)           119.1931         estimate D2E/DX2                !
 ! A60   A(35,36,37)           115.1896         estimate D2E/DX2                !
 ! A61   A(35,36,38)           106.7546         estimate D2E/DX2                !
 ! A62   A(35,36,39)           107.0094         estimate D2E/DX2                !
 ! A63   A(37,36,38)           110.6968         estimate D2E/DX2                !
 ! A64   A(37,36,39)           110.8033         estimate D2E/DX2                !
 ! A65   A(38,36,39)           105.8738         estimate D2E/DX2                !
 ! A66   A(36,37,40)           111.2603         estimate D2E/DX2                !
 ! A67   A(36,37,41)           110.3958         estimate D2E/DX2                !
 ! A68   A(36,37,42)           111.2025         estimate D2E/DX2                !
 ! A69   A(40,37,41)           107.9821         estimate D2E/DX2                !
 ! A70   A(40,37,42)           107.896          estimate D2E/DX2                !
 ! A71   A(41,37,42)           107.9701         estimate D2E/DX2                !
 ! A72   L(4,21,33,1,-1)       174.0391         estimate D2E/DX2                !
 ! A73   L(7,22,34,1,-1)       183.1579         estimate D2E/DX2                !
 ! A74   L(4,21,33,1,-2)       180.5684         estimate D2E/DX2                !
 ! A75   L(7,22,34,1,-2)       177.5352         estimate D2E/DX2                !
 ! D1    D(14,1,2,3)          -179.8225         estimate D2E/DX2                !
 ! D2    D(14,1,2,17)           58.9918         estimate D2E/DX2                !
 ! D3    D(14,1,2,18)          -58.6564         estimate D2E/DX2                !
 ! D4    D(15,1,2,3)            60.1327         estimate D2E/DX2                !
 ! D5    D(15,1,2,17)          -61.053          estimate D2E/DX2                !
 ! D6    D(15,1,2,18)         -178.7011         estimate D2E/DX2                !
 ! D7    D(16,1,2,3)           -59.777          estimate D2E/DX2                !
 ! D8    D(16,1,2,17)          179.0372         estimate D2E/DX2                !
 ! D9    D(16,1,2,18)           61.3891         estimate D2E/DX2                !
 ! D10   D(1,2,3,4)           -179.4723         estimate D2E/DX2                !
 ! D11   D(1,2,3,19)            59.2375         estimate D2E/DX2                !
 ! D12   D(1,2,3,20)           -58.483          estimate D2E/DX2                !
 ! D13   D(17,2,3,4)           -57.8485         estimate D2E/DX2                !
 ! D14   D(17,2,3,19)         -179.1386         estimate D2E/DX2                !
 ! D15   D(17,2,3,20)           63.1408         estimate D2E/DX2                !
 ! D16   D(18,2,3,4)            58.9247         estimate D2E/DX2                !
 ! D17   D(18,2,3,19)          -62.3655         estimate D2E/DX2                !
 ! D18   D(18,2,3,20)          179.914          estimate D2E/DX2                !
 ! D19   D(2,3,4,5)           -179.4706         estimate D2E/DX2                !
 ! D20   D(2,3,4,21)            -4.0918         estimate D2E/DX2                !
 ! D21   D(19,3,4,5)           -58.1373         estimate D2E/DX2                !
 ! D22   D(19,3,4,21)          117.2415         estimate D2E/DX2                !
 ! D23   D(20,3,4,5)            59.3365         estimate D2E/DX2                !
 ! D24   D(20,3,4,21)         -125.2847         estimate D2E/DX2                !
 ! D25   D(3,4,5,6)             -0.6665         estimate D2E/DX2                !
 ! D26   D(3,4,5,7)            179.8035         estimate D2E/DX2                !
 ! D27   D(21,4,5,6)          -175.9457         estimate D2E/DX2                !
 ! D28   D(21,4,5,7)             4.5243         estimate D2E/DX2                !
 ! D29   D(3,4,33,35)          162.1862         estimate D2E/DX2                !
 ! D30   D(5,4,33,35)          -22.906          estimate D2E/DX2                !
 ! D31   D(4,5,7,8)            179.4951         estimate D2E/DX2                !
 ! D32   D(4,5,7,22)             7.0442         estimate D2E/DX2                !
 ! D33   D(6,5,7,8)             -0.0302         estimate D2E/DX2                !
 ! D34   D(6,5,7,22)          -172.4811         estimate D2E/DX2                !
 ! D35   D(5,7,8,9)             11.9066         estimate D2E/DX2                !
 ! D36   D(5,7,8,10)          -169.2677         estimate D2E/DX2                !
 ! D37   D(22,7,8,9)          -175.5958         estimate D2E/DX2                !
 ! D38   D(22,7,8,10)            3.2299         estimate D2E/DX2                !
 ! D39   D(5,7,34,35)          -22.8575         estimate D2E/DX2                !
 ! D40   D(8,7,34,35)          165.2659         estimate D2E/DX2                !
 ! D41   D(7,8,9,13)           179.3817         estimate D2E/DX2                !
 ! D42   D(7,8,9,23)            -0.4342         estimate D2E/DX2                !
 ! D43   D(10,8,9,13)            0.5811         estimate D2E/DX2                !
 ! D44   D(10,8,9,23)         -179.2348         estimate D2E/DX2                !
 ! D45   D(7,8,10,11)         -179.3122         estimate D2E/DX2                !
 ! D46   D(7,8,10,24)            0.841          estimate D2E/DX2                !
 ! D47   D(9,8,10,11)           -0.4109         estimate D2E/DX2                !
 ! D48   D(9,8,10,24)          179.7423         estimate D2E/DX2                !
 ! D49   D(8,9,13,12)           -0.2699         estimate D2E/DX2                !
 ! D50   D(8,9,13,27)         -179.9869         estimate D2E/DX2                !
 ! D51   D(23,9,13,12)         179.5472         estimate D2E/DX2                !
 ! D52   D(23,9,13,27)          -0.1698         estimate D2E/DX2                !
 ! D53   D(8,10,11,12)          -0.0819         estimate D2E/DX2                !
 ! D54   D(8,10,11,25)        -179.8096         estimate D2E/DX2                !
 ! D55   D(24,10,11,12)        179.7632         estimate D2E/DX2                !
 ! D56   D(24,10,11,25)          0.0355         estimate D2E/DX2                !
 ! D57   D(10,11,12,13)          0.397          estimate D2E/DX2                !
 ! D58   D(10,11,12,26)       -179.8            estimate D2E/DX2                !
 ! D59   D(25,11,12,13)       -179.8752         estimate D2E/DX2                !
 ! D60   D(25,11,12,26)         -0.0722         estimate D2E/DX2                !
 ! D61   D(11,12,13,9)          -0.2213         estimate D2E/DX2                !
 ! D62   D(11,12,13,27)        179.4895         estimate D2E/DX2                !
 ! D63   D(26,12,13,9)         179.9803         estimate D2E/DX2                !
 ! D64   D(26,12,13,27)         -0.3089         estimate D2E/DX2                !
 ! D65   D(11,12,26,28)         -0.6672         estimate D2E/DX2                !
 ! D66   D(11,12,26,29)        179.3117         estimate D2E/DX2                !
 ! D67   D(13,12,26,28)        179.1281         estimate D2E/DX2                !
 ! D68   D(13,12,26,29)         -0.893          estimate D2E/DX2                !
 ! D69   D(12,26,29,30)         59.4842         estimate D2E/DX2                !
 ! D70   D(12,26,29,31)       -179.8939         estimate D2E/DX2                !
 ! D71   D(12,26,29,32)        -59.2509         estimate D2E/DX2                !
 ! D72   D(28,26,29,30)       -120.5368         estimate D2E/DX2                !
 ! D73   D(28,26,29,31)          0.0851         estimate D2E/DX2                !
 ! D74   D(28,26,29,32)        120.7281         estimate D2E/DX2                !
 ! D75   D(21,33,35,34)          8.7147         estimate D2E/DX2                !
 ! D76   D(21,33,35,36)       -171.1022         estimate D2E/DX2                !
 ! D77   D(22,34,35,33)          5.2198         estimate D2E/DX2                !
 ! D78   D(22,34,35,36)       -174.9672         estimate D2E/DX2                !
 ! D79   D(33,35,36,37)       -176.8627         estimate D2E/DX2                !
 ! D80   D(33,35,36,38)         59.8061         estimate D2E/DX2                !
 ! D81   D(33,35,36,39)        -53.1987         estimate D2E/DX2                !
 ! D82   D(34,35,36,37)          3.3113         estimate D2E/DX2                !
 ! D83   D(34,35,36,38)       -120.0199         estimate D2E/DX2                !
 ! D84   D(34,35,36,39)        126.9753         estimate D2E/DX2                !
 ! D85   D(35,36,37,40)        -60.2986         estimate D2E/DX2                !
 ! D86   D(35,36,37,41)        179.8277         estimate D2E/DX2                !
 ! D87   D(35,36,37,42)         60.0067         estimate D2E/DX2                !
 ! D88   D(38,36,37,40)         60.9159         estimate D2E/DX2                !
 ! D89   D(38,36,37,41)        -58.9578         estimate D2E/DX2                !
 ! D90   D(38,36,37,42)       -178.7788         estimate D2E/DX2                !
 ! D91   D(39,36,37,40)        178.0659         estimate D2E/DX2                !
 ! D92   D(39,36,37,41)         58.1922         estimate D2E/DX2                !
 ! D93   D(39,36,37,42)        -61.6288         estimate D2E/DX2                !
 --------------------------------------------------------------------------------
 Trust Radius=3.00D-01 FncErr=1.00D-07 GrdErr=1.00D-06
 Number of steps in this run=    221 maximum allowed number of steps=    252.
 GradGradGradGradGradGradGradGradGradGradGradGradGradGradGradGradGradGrad

                          Input orientation:                          
 ---------------------------------------------------------------------
 Center     Atomic      Atomic             Coordinates (Angstroms)
 Number     Number       Type             X           Y           Z
 ---------------------------------------------------------------------
      1          6           0       -2.148590    2.385994   -0.194159
      2          6           0       -0.828475    1.664156    0.056625
      3          6           0        0.357367    2.562592   -0.263976
      4          7           0        1.607683    1.854287   -0.031087
      5          6           0        2.791254    2.462282   -0.240188
      6          8           0        2.877841    3.635468   -0.647604
      7          7           0        3.889874    1.667135    0.027063
      8          6           0        5.233483    1.998014   -0.098579
      9          6           0        5.725032    3.299162   -0.302340
     10          6           0        6.155020    0.934710    0.013959
     11          6           0        7.513971    1.163968   -0.082446
     12          6           0        8.012326    2.459558   -0.296398
     13          6           0        7.095606    3.512473   -0.400734
     14          1           0       -3.000712    1.740737    0.039453
     15          1           0       -2.234591    2.691623   -1.242870
     16          1           0       -2.227159    3.285785    0.426169
     17          1           0       -0.773015    0.757563   -0.558607
     18          1           0       -0.768091    1.344791    1.104393
     19          1           0        0.320136    3.466333    0.357515
     20          1           0        0.308185    2.887114   -1.310704
     21          1           0        1.568071    0.904999    0.364908
     22          1           0        3.694441    0.676802    0.243651
     23          1           0        5.045116    4.134906   -0.380032
     24          1           0        5.781188   -0.072542    0.175740
     25          1           0        8.205805    0.331403    0.003874
     26          6           0        9.474773    2.677959   -0.400516
     27          1           0        7.444368    4.528899   -0.557911
     28          8           0       10.260454    1.736129   -0.289176
     29          6           0        9.990356    4.071305   -0.645606
     30          1           0        9.673383    4.742469    0.159478
     31          1           0       11.079776    4.050386   -0.696030
     32          1           0        9.587255    4.467951   -1.583210
     33          8           0        1.303615   -0.789786    1.094260
     34          8           0        3.447938   -1.115847    0.556940
     35          6           0        2.325840   -1.528294    0.967474
     36          6           0        2.163164   -2.999986    1.335613
     37          6           0        3.431685   -3.835514    1.240599
     38          1           0        1.382001   -3.405298    0.680734
     39          1           0        1.750335   -3.032916    2.350752
     40          1           0        3.831401   -3.835563    0.221974
     41          1           0        3.227198   -4.873006    1.523425
     42          1           0        4.209860   -3.450899    1.907234
 ---------------------------------------------------------------------
                    Distance matrix (angstroms):
                    1          2          3          4          5
     1  C    0.000000
     2  C    1.525336   0.000000
     3  C    2.513142   1.521905   0.000000
     4  N    3.797222   2.445140   1.455756   0.000000
     5  C    4.940648   3.718540   2.436069   1.346930   0.000000
     6  O    5.199213   4.256617   2.766049   2.272884   1.244931
     7  N    6.085125   4.718442   3.655838   2.290590   1.382262
     8  C    7.392879   6.073127   4.911477   3.629275   2.489996
     9  C    7.927137   6.763915   5.418102   4.371934   3.051440
    10  C    8.432050   7.021617   6.028269   4.639603   3.703105
    11  C    9.740170   8.358584   7.294250   5.946715   4.900465
    12  C   10.161696   8.883526   7.655721   6.438648   5.221375
    13  C    9.314870   8.149633   6.806236   5.744869   4.433523
    14  H    1.094095   2.173655   3.470477   4.610334   5.843432
    15  H    1.095720   2.172911   2.773649   4.114927   5.130018
    16  H    1.095721   2.173146   2.771116   4.118773   5.129002
    17  H    2.162595   1.097040   2.150047   2.673725   3.963769
    18  H    2.162433   1.097022   2.149914   2.682014   3.965553
    19  H    2.750652   2.158167   1.097445   2.099400   2.733457
    20  H    2.744729   2.158058   1.096984   2.095913   2.737174
    21  H    4.039737   2.532743   2.146838   1.029334   2.070615
    22  H    6.103608   4.633207   3.866517   2.411744   2.058588
    23  H    7.405582   6.387045   4.945769   4.139919   2.810182
    24  H    8.310391   6.835053   6.046083   4.601477   3.941831
    25  H   10.558128   9.132208   8.163818   6.771677   5.823880
    26  C   11.628860  10.363092   9.119158   7.918713   6.688920
    27  H    9.836117   8.776351   7.360594   6.441893   5.101306
    28  O   12.426413  11.094552   9.937545   8.657425   7.504575
    29  C   12.263691  11.105611   9.757886   8.692641   7.387855
    30  H   12.059730  10.944204   9.577021   8.569330   7.261039
    31  H   13.342105  12.168279  10.833756   9.746053   8.451596
    32  H   11.999753  10.910443   9.516386   8.538964   7.211938
    33  O    4.864496   3.412378   3.738801   2.889634   3.817036
    34  O    6.644409   5.125079   4.874058   3.543163   3.724198
    35  C    6.057356   4.579419   4.703903   3.599267   4.195206
    36  C    7.066839   5.686821   6.063156   5.073499   5.719616
    37  C    8.479691   7.056707   7.256097   6.108846   6.501163
    38  H    6.838828   5.565525   6.128463   5.312330   6.104308
    39  H    7.144423   5.828873   6.331420   5.438590   6.163901
    40  H    8.639516   7.210318   7.296674   6.114193   6.399870
    41  H    9.194688   7.831633   8.168161   7.091954   7.556906
    42  H    8.883414   7.414401   7.464444   6.218794   6.448997
                    6          7          8          9         10
     6  O    0.000000
     7  N    2.313811   0.000000
     8  C    2.920912   1.389443   0.000000
     9  C    2.887699   2.477866   1.405746   0.000000
    10  C    4.297866   2.380652   1.411563   2.423956   0.000000
    11  C    5.284072   3.660499   2.428275   2.794228   1.381522
    12  C    5.279113   4.210364   2.823849   2.436531   2.423028
    13  C    4.226773   3.723574   2.419171   1.390560   2.775164
    14  H    6.214455   6.890991   8.239370   8.870407   9.191178
    15  H    5.232796   6.338089   7.587003   8.037991   8.663252
    16  H    5.228413   6.340143   7.589130   7.985503   8.715411
    17  H    4.649625   4.786738   6.150476   6.982121   6.953911
    18  H    4.648604   4.791782   6.155707   6.925251   7.020446
    19  H    2.753312   4.011152   5.148296   5.447591   6.369694
    20  H    2.757331   4.013287   5.149593   5.525289   6.304926
    21  H    3.193140   2.466933   3.852888   4.843300   4.600451
    22  H    3.196072   1.032407   2.057031   3.361277   2.484698
    23  H    2.240114   2.755032   2.163562   1.080181   3.410039
    24  H    4.780863   2.574034   2.159267   3.405891   1.086499
    25  H    6.303053   4.517962   3.409222   3.880154   2.137710
    26  C    6.670636   5.691721   4.306046   3.802116   3.772462
    27  H    4.653969   4.600686   3.391810   2.129245   3.861042
    28  O    7.631443   6.378797   5.037395   4.797218   4.193895
    29  C    7.125856   6.591540   5.217818   4.348221   4.998306
    30  H    6.932259   6.551655   5.226025   4.229171   5.186432
    31  H    8.212566   7.609037   6.224815   5.421496   5.870668
    32  H    6.825293   6.549634   5.221116   4.233611   5.178318
    33  O    5.009506   3.723453   4.963724   6.182144   5.260899
    34  O    4.934666   2.867240   3.648837   5.041411   3.439172
    35  C    5.438531   3.679856   4.693156   6.039144   4.651688
    36  C    6.962267   5.145469   6.038524   7.419505   5.758777
    37  C    7.725777   5.653473   6.250595   7.651386   5.628165
    38  H    7.319454   5.696164   6.681094   8.048486   6.485520
    39  H    7.397889   5.662829   6.591040   7.932989   6.372120
    40  H    7.581672   5.506459   6.008262   7.400340   5.310177
    41  H    8.788035   6.741787   7.339414   8.738245   6.676841
    42  H    7.649710   5.461840   5.895909   7.262319   5.157684
                   11         12         13         14         15
    11  C    0.000000
    12  C    1.404523   0.000000
    13  C    2.406619   1.399961   0.000000
    14  H   10.531196  11.041581  10.260042   0.000000
    15  H    9.935531  10.293151   9.404019   1.770728   0.000000
    16  H    9.982506  10.298146   9.362111   1.770624   1.771660
    17  H    8.310597   8.952527   8.338444   2.507378   2.518930
    18  H    8.368622   8.961062   8.294696   2.505089   3.078023
    19  H    7.566089   7.785305   6.817922   3.755913   3.112562
    20  H    7.510074   7.782378   6.876643   3.753119   2.551181
    21  H    5.968326   6.662011   6.159446   4.655981   4.498579
    22  H    3.864257   4.702553   4.474840   6.782236   6.436044
    23  H    3.874310   3.408536   2.142980   8.404961   7.471391
    24  H    2.144330   3.407699   3.861651   8.968184   8.596847
    25  H    1.085933   2.157925   3.393443  11.294845  10.776218
    26  C    2.497615   1.482326   2.521279  12.518374  11.739631
    27  H    3.399069   2.161744   1.086030  10.827299   9.875576
    28  O    2.813054   2.361669   3.630992  13.265239  12.567762
    29  C    3.860343   2.575322   2.958350  13.216230  12.317045
    30  H    4.186557   2.859829   2.910611  13.025264  12.164390
    31  H    4.628484   3.478461   4.031149  14.287602  13.394687
    32  H    4.179366   2.858309   2.918818  12.981821  11.959399
    33  O    6.615913   7.582807   7.368283   5.103274   5.486464
    34  O    4.705209   5.860490   5.970257   7.071984   7.072996
    35  C    5.938629   7.059494   7.073330   6.318223   6.594759
    36  C    6.926799   8.165952   8.352006   7.128822   7.640892
    37  C    6.588652   7.935526   8.373244   8.597271   8.993210
    38  H    7.685160   8.905757   9.037168   6.789779   7.345232
    39  H    7.533511   8.739977   8.887335   7.120556   7.846279
    40  H    6.216856   7.574786   8.064517   8.820783   9.030292
    41  H    7.576299   8.942913   9.433093   9.204925   9.731760
    42  H    6.014397   7.365340   7.883070   9.079319   9.443764
                   16         17         18         19         20
    16  H    0.000000
    17  H    3.078349   0.000000
    18  H    2.521176   1.763641   0.000000
    19  H    2.554609   3.061322   2.498600   0.000000
    20  H    3.098974   2.503923   3.061017   1.765954   0.000000
    21  H    4.480588   2.520972   2.489559   2.849180   2.885095
    22  H    6.473442   4.539636   4.593612   4.379541   4.332232
    23  H    7.365932   6.729708   6.616769   4.828706   4.986146
    24  H    8.687618   6.647249   6.764930   6.509974   6.397097
    25  H   10.851427   9.006509   9.097742   8.493328   8.404296
    26  C   11.746832  10.427371  10.438311   9.219735   9.214040
    27  H    9.800621   9.041480   8.963608   7.260973   7.361200
    28  O   12.603715  11.080055  11.123128  10.110476  10.070549
    29  C   12.289566  11.262265  11.235682   9.740914   9.776969
    30  H   11.992329  11.203675  11.020955   9.441979   9.659747
    31  H   13.376041  12.302448  12.285508  10.826861  10.851646
    32  H   12.042239  11.052239  11.144978   9.520985   9.416712
    33  O    5.433507   3.072239   2.974641   4.429963   4.504923
    34  O    7.183188   4.750847   4.912162   5.551512   5.419395
    35  C    6.648171   4.142097   4.224425   5.416751   5.362542
    36  C    7.720942   5.131120   5.246218   6.794608   6.715794
    37  C    9.132290   6.481743   6.670249   7.986147   7.839588
    38  H    7.606670   4.848656   5.231226   6.960699   6.686805
    39  H    7.710413   5.403646   5.201942   6.946848   7.108644
    40  H    9.352083   6.550325   6.983556   8.103396   7.743161
    41  H    9.875215   7.213867   7.402630   8.908138   8.761986
    42  H    9.434600   6.972844   6.958677   8.085769   8.108551
                   21         22         23         24         25
    21  H    0.000000
    22  H    2.142014   0.000000
    23  H    4.803860   3.764543   0.000000
    24  H    4.329171   2.218252   4.307354   0.000000
    25  H    6.672246   4.530916   4.960239   2.464037   0.000000
    26  C    8.139115   6.150758   4.663150   4.641109   2.698173
    27  H    6.965279   5.435357   2.437885   4.947491   4.302832
    28  O    8.756490   6.672227   5.741266   4.852964   2.506136
    29  C    9.054365   7.207773   4.952775   5.963487   4.194439
    30  H    8.970198   7.230801   4.699049   6.191427   4.651398
    31  H   10.074303   8.173570   6.043519   6.770048   4.751885
    32  H    8.988721   7.241236   4.710583   6.180301   4.640934
    33  O    1.863917   2.930949   6.358062   4.626746   7.077163
    34  O    2.766694   1.836437   5.567701   2.584155   5.003770
    35  C    2.618819   2.694334   6.425112   3.832165   6.241874
    36  C    4.067593   4.129886   7.883892   4.796387   7.027460
    37  C    5.168400   4.628600   8.291996   4.562242   6.456386
    38  H    4.325856   4.711895   8.449751   5.542123   7.809313
    39  H    4.414065   4.688435   8.348079   5.453647   7.648501
    40  H    5.255095   4.514494   8.084793   4.238412   6.045377
    41  H    6.122108   5.714587   9.384586   5.602105   7.360804
    42  H    5.322749   4.480075   7.967036   4.108581   5.822041
                   26         27         28         29         30
    26  C    0.000000
    27  H    2.751962   0.000000
    28  O    1.231558   3.975188   0.000000
    29  C    1.505759   2.588270   2.377613   0.000000
    30  H    2.148311   2.351333   3.095808   1.095031   0.000000
    31  H    2.132351   3.669366   2.488494   1.090787   1.785726
    32  H    2.148368   2.376325   3.096864   1.094951   1.766279
    33  O    9.001523   8.290170   9.408459  10.105286  10.076342
    34  O    7.185571   7.005534   7.433711   8.435396   8.557687
    35  C    8.406617   8.075625   8.671432   9.628206   9.693385
    36  C    9.418749   9.389390   9.520337  10.732815  10.850451
    37  C    9.035348   9.449851   8.945139  10.444699  10.663462
    38  H   10.181752  10.061710  10.305431  11.478787  11.636358
    39  H    9.992523   9.902695  10.106193  11.284772  11.315166
    40  H    8.640666   9.144723   8.522778  10.060019  10.378597
    41  H    9.987533  10.512483   9.820024  11.421283  11.656372
    42  H    8.402852   8.956347   8.266750   9.824189  10.001800
                   31         32         33         34         35
    31  H    0.000000
    32  H    1.785796   0.000000
    33  O   11.054670  10.170120   0.000000
    34  O    9.300798   8.570313   2.234535   0.000000
    35  C   10.512865   9.756490   1.267443   1.264023   0.000000
    36  C   11.547350  10.927339   2.383707   2.409762   1.525735
    37  C   11.154876  10.715059   3.718407   2.804326   2.573083
    38  H   12.309733  11.594813   2.649160   3.086261   2.120423
    39  H   12.103492  11.539340   2.609590   3.126463   2.123335
    40  H   10.750342  10.263376   4.053065   2.766966   2.854115
    41  H   12.091976  11.719854   4.533987   3.885752   3.508366
    42  H   10.499619  10.188609   4.023519   2.802906   2.851156
                   36         37         38         39         40
    36  C    0.000000
    37  C    1.521933   0.000000
    38  H    1.096978   2.167888   0.000000
    39  H    1.096366   2.168764   1.750228   0.000000
    40  H    2.172877   1.094245   2.528863   3.083306   0.000000
    41  H    2.162324   1.094621   2.503807   2.500305   1.770629
    42  H    2.172334   1.094481   3.082721   2.533906   1.769548
                   41         42
    41  H    0.000000
    42  H    1.770685   0.000000
 Stoichiometry    C15H21N2O4(1-)
 Framework group  C1[X(C15H21N2O4)]
 Deg. of freedom   120
 Full point group                 C1      NOp   1
 Largest Abelian subgroup         C1      NOp   1
 Largest concise Abelian subgroup C1      NOp   1
                         Standard orientation:                         
 ---------------------------------------------------------------------
 Center     Atomic      Atomic             Coordinates (Angstroms)
 Number     Number       Type             X           Y           Z
 ---------------------------------------------------------------------
      1          6           0       -5.719183   -2.904665    0.110024
      2          6           0       -4.672238   -1.798901    0.021484
      3          6           0       -3.263460   -2.371059    0.086093
      4          7           0       -2.278149   -1.301936    0.012846
      5          6           0       -0.960278   -1.578709    0.041713
      6          8           0       -0.522689   -2.739790    0.143002
      7          7           0       -0.146967   -0.464062   -0.040340
      8          6           0        1.241647   -0.418125   -0.026457
      9          6           0        2.084052   -1.535324   -0.161901
     10          6           0        1.826133    0.859333    0.111340
     11          6           0        3.199270    1.010942    0.121877
     12          6           0        4.047589   -0.101526   -0.002444
     13          6           0        3.464174   -1.366041   -0.145695
     14          1           0       -6.731696   -2.493088    0.060381
     15          1           0       -5.625797   -3.457745    1.051291
     16          1           0       -5.605069   -3.619091   -0.712885
     17          1           0       -4.810796   -1.083549    0.841589
     18          1           0       -4.793820   -1.240569   -0.914967
     19          1           0       -3.108761   -3.077105   -0.739710
     20          1           0       -3.129835   -2.930751    1.020043
     21          1           0       -2.608914   -0.338308   -0.133930
     22          1           0       -0.622329    0.451517   -0.000208
     23          1           0        1.666252   -2.524230   -0.281474
     24          1           0        1.180059    1.727035    0.212146
     25          1           0        3.628591    2.002299    0.232078
     26          6           0        5.517647    0.087870    0.016292
     27          1           0        4.088306   -2.248343   -0.252764
     28          8           0        6.005024    1.213392    0.127639
     29          6           0        6.411777   -1.117837   -0.102502
     30          1           0        6.218984   -1.644565   -1.042971
     31          1           0        7.454609   -0.799707   -0.069183
     32          1           0        6.216148   -1.820006    0.714571
     33          8           0       -3.387084    1.332089   -0.413954
     34          8           0       -1.373041    2.121056    0.146678
     35          6           0       -2.596732    2.280474   -0.127037
     36          6           0       -3.184815    3.688264   -0.114644
     37          6           0       -2.187580    4.804443    0.160937
     38          1           0       -3.985535    3.689898    0.635160
     39          1           0       -3.679241    3.837827   -1.081698
     40          1           0       -1.714367    4.680993    1.139814
     41          1           0       -2.690286    5.776726    0.148818
     42          1           0       -1.396384    4.823939   -0.595049
 ---------------------------------------------------------------------
 Rotational constants (GHZ):      0.3883764      0.1343792      0.1004542
 General basis read from cards:  (6D, 7F)
 There are   441 symmetry adapted cartesian basis functions of A   symmetry.
 There are   441 symmetry adapted basis functions of A   symmetry.
   441 basis functions,   756 primitive gaussians,   441 cartesian basis functions
    79 alpha electrons       79 beta electrons
       nuclear repulsion energy      1603.3699719647 Hartrees.
 NAtoms=   42 NActive=   42 NUniq=   42 SFac= 1.00D+00 NAtFMM=   60 NAOKFM=F Big=F
 Integral buffers will be    131072 words long.
 Raffenetti 2 integral format.
 Two-electron integral symmetry is turned on.
 One-electron integrals computed using PRISM.
 NBasis=   441 RedAO= T EigKep=  1.72D-06  NBF=   441
 NBsUse=   439 1.00D-06 EigRej=  8.77D-07 NBFU=   439
 ExpMin= 4.38D-02 ExpMax= 5.48D+03 ExpMxC= 8.25D+02 IAcc=3 IRadAn=         5 AccDes= 0.00D+00
 Harris functional with IExCor= 1009 and IRadAn=       5 diagonalized for initial guess.
 HarFok:  IExCor= 1009 AccDes= 0.00D+00 IRadAn=         5 IDoV= 1 UseB2=F ITyADJ=14
 ICtDFT=  3500011 ScaDFX=  1.000000  1.000000  1.000000  1.000000
 FoFCou: FMM=F IPFlag=           0 FMFlag=      100000 FMFlg1=           0
         NFxFlg=           0 DoJE=T BraDBF=F KetDBF=T FulRan=T
         wScrn=  0.000000 ICntrl=     500 IOpCl=  0 I1Cent=   200000004 NGrid=           0
         NMat0=    1 NMatS0=      1 NMatT0=    0 NMatD0=    1 NMtDS0=    0 NMtDT0=    0
 Petite list used in FoFCou.
 Requested convergence on RMS density matrix=1.00D-08 within 128 cycles.
 Requested convergence on MAX density matrix=1.00D-06.
 Requested convergence on             energy=1.00D-06.
 No special actions if energy rises.
 SCF Done:  E(RM062X) =  -994.403560775     A.U. after   15 cycles
            NFock= 15  Conv=0.93D-08     -V/T= 2.0087

 **********************************************************************

            Population analysis using the SCF density.

 **********************************************************************

 Orbital symmetries:
       Occupied  (A) (A) (A) (A) (A) (A) (A) (A) (A) (A) (A) (A)
                 (A) (A) (A) (A) (A) (A) (A) (A) (A) (A) (A) (A)
                 (A) (A) (A) (A) (A) (A) (A) (A) (A) (A) (A) (A)
                 (A) (A) (A) (A) (A) (A) (A) (A) (A) (A) (A) (A)
                 (A) (A) (A) (A) (A) (A) (A) (A) (A) (A) (A) (A)
                 (A) (A) (A) (A) (A) (A) (A) (A) (A) (A) (A) (A)
                 (A) (A) (A) (A) (A) (A) (A)
       Virtual   (A) (A) (A) (A) (A) (A) (A) (A) (A) (A) (A) (A)
                 (A) (A) (A) (A) (A) (A) (A) (A) (A) (A) (A) (A)
                 (A) (A) (A) (A) (A) (A) (A) (A) (A) (A) (A) (A)
                 (A) (A) (A) (A) (A) (A) (A) (A) (A) (A) (A) (A)
                 (A) (A) (A) (A) (A) (A) (A) (A) (A) (A) (A) (A)
                 (A) (A) (A) (A) (A) (A) (A) (A) (A) (A) (A) (A)
                 (A) (A) (A) (A) (A) (A) (A) (A) (A) (A) (A) (A)
                 (A) (A) (A) (A) (A) (A) (A) (A) (A) (A) (A) (A)
                 (A) (A) (A) (A) (A) (A) (A) (A) (A) (A) (A) (A)
                 (A) (A) (A) (A) (A) (A) (A) (A) (A) (A) (A) (A)
                 (A) (A) (A) (A) (A) (A) (A) (A) (A) (A) (A) (A)
                 (A) (A) (A) (A) (A) (A) (A) (A) (A) (A) (A) (A)
                 (A) (A) (A) (A) (A) (A) (A) (A) (A) (A) (A) (A)
                 (A) (A) (A) (A) (A) (A) (A) (A) (A) (A) (A) (A)
                 (A) (A) (A) (A) (A) (A) (A) (A) (A) (A) (A) (A)
                 (A) (A) (A) (A) (A) (A) (A) (A) (A) (A) (A) (A)
                 (A) (A) (A) (A) (A) (A) (A) (A) (A) (A) (A) (A)
                 (A) (A) (A) (A) (A) (A) (A) (A) (A) (A) (A) (A)
                 (A) (A) (A) (A) (A) (A) (A) (A) (A) (A) (A) (A)
                 (A) (A) (A) (A) (A) (A) (A) (A) (A) (A) (A) (A)
                 (A) (A) (A) (A) (A) (A) (A) (A) (A) (A) (A) (A)
                 (A) (A) (A) (A) (A) (A) (A) (A) (A) (A) (A) (A)
                 (A) (A) (A) (A) (A) (A) (A) (A) (A) (A) (A) (A)
                 (A) (A) (A) (A) (A) (A) (A) (A) (A) (A) (A) (A)
                 (A) (A) (A) (A) (A) (A) (A) (A) (A) (A) (A) (A)
                 (A) (A) (A) (A) (A) (A) (A) (A) (A) (A) (A) (A)
                 (A) (A) (A) (A) (A) (A) (A) (A) (A) (A) (A) (A)
                 (A) (A) (A) (A) (A) (A) (A) (A) (A) (A) (A) (A)
                 (A) (A) (A) (A) (A) (A) (A) (A) (A) (A) (A) (A)
                 (A) (A) (A) (A) (A) (A) (A) (A) (A) (A) (A) (A)
 The electronic state is 1-A.
 Alpha  occ. eigenvalues --  -19.54127 -19.48467 -19.46098 -19.45457 -14.66826
 Alpha  occ. eigenvalues --  -14.64954 -10.55729 -10.55005 -10.50875 -10.50321
 Alpha  occ. eigenvalues --  -10.47138 -10.47015 -10.46627 -10.45835 -10.45557
 Alpha  occ. eigenvalues --  -10.45291 -10.44688 -10.44592 -10.44508 -10.42675
 Alpha  occ. eigenvalues --  -10.42614  -1.06458  -1.04412  -1.01819  -0.93182
 Alpha  occ. eigenvalues --   -0.91850  -0.90258  -0.85400  -0.78724  -0.77315
 Alpha  occ. eigenvalues --   -0.74831  -0.74609  -0.73218  -0.67842  -0.62125
 Alpha  occ. eigenvalues --   -0.61138  -0.60201  -0.57931  -0.55046  -0.53512
 Alpha  occ. eigenvalues --   -0.50516  -0.50041  -0.46805  -0.45546  -0.45185
 Alpha  occ. eigenvalues --   -0.43281  -0.43183  -0.42800  -0.41496  -0.41187
 Alpha  occ. eigenvalues --   -0.40475  -0.39720  -0.39447  -0.39073  -0.38587
 Alpha  occ. eigenvalues --   -0.37572  -0.36858  -0.36426  -0.35726  -0.34930
 Alpha  occ. eigenvalues --   -0.34158  -0.33381  -0.33000  -0.32611  -0.32337
 Alpha  occ. eigenvalues --   -0.30635  -0.30419  -0.29947  -0.29825  -0.28275
 Alpha  occ. eigenvalues --   -0.25918  -0.23356  -0.22010  -0.21040  -0.19594
 Alpha  occ. eigenvalues --   -0.18688  -0.18453  -0.17706  -0.15446
 Alpha virt. eigenvalues --    0.07449   0.08939   0.10279   0.11397   0.11911
 Alpha virt. eigenvalues --    0.12048   0.12097   0.12623   0.13285   0.13428
 Alpha virt. eigenvalues --    0.13584   0.13724   0.14523   0.14854   0.15190
 Alpha virt. eigenvalues --    0.15519   0.16030   0.16289   0.16389   0.16656
 Alpha virt. eigenvalues --    0.17666   0.17728   0.18146   0.18203   0.18723
 Alpha virt. eigenvalues --    0.18874   0.18988   0.19479   0.20549   0.20762
 Alpha virt. eigenvalues --    0.21321   0.21585   0.22078   0.22474   0.22627
 Alpha virt. eigenvalues --    0.22887   0.23392   0.23813   0.24347   0.24993
 Alpha virt. eigenvalues --    0.25359   0.25816   0.26283   0.26659   0.26842
 Alpha virt. eigenvalues --    0.27796   0.28478   0.28693   0.28836   0.29134
 Alpha virt. eigenvalues --    0.30162   0.30813   0.31177   0.31477   0.31994
 Alpha virt. eigenvalues --    0.32086   0.32768   0.32937   0.33087   0.33690
 Alpha virt. eigenvalues --    0.33903   0.34089   0.34375   0.34802   0.35272
 Alpha virt. eigenvalues --    0.35391   0.35671   0.35985   0.36135   0.36447
 Alpha virt. eigenvalues --    0.37117   0.37724   0.37833   0.37963   0.38443
 Alpha virt. eigenvalues --    0.38705   0.39348   0.39612   0.40068   0.40288
 Alpha virt. eigenvalues --    0.40589   0.41421   0.41528   0.41793   0.42248
 Alpha virt. eigenvalues --    0.42316   0.42586   0.43152   0.43393   0.43757
 Alpha virt. eigenvalues --    0.44077   0.44480   0.44795   0.45025   0.45198
 Alpha virt. eigenvalues --    0.46111   0.46424   0.46494   0.47272   0.47557
 Alpha virt. eigenvalues --    0.48020   0.48564   0.48822   0.49682   0.50082
 Alpha virt. eigenvalues --    0.50261   0.51246   0.52408   0.52700   0.53285
 Alpha virt. eigenvalues --    0.53651   0.55877   0.56642   0.56772   0.57618
 Alpha virt. eigenvalues --    0.57943   0.58252   0.60036   0.61514   0.63149
 Alpha virt. eigenvalues --    0.63995   0.65264   0.65905   0.66725   0.70012
 Alpha virt. eigenvalues --    0.70207   0.72146   0.74791   0.77967   0.78261
 Alpha virt. eigenvalues --    0.78699   0.81035   0.81115   0.81750   0.83614
 Alpha virt. eigenvalues --    0.84499   0.84684   0.84972   0.86116   0.86730
 Alpha virt. eigenvalues --    0.87088   0.87417   0.87984   0.88167   0.88433
 Alpha virt. eigenvalues --    0.89834   0.90577   0.91050   0.92201   0.92768
 Alpha virt. eigenvalues --    0.93206   0.93526   0.94585   0.95740   0.96033
 Alpha virt. eigenvalues --    0.97333   0.98542   0.98815   0.99856   1.00434
 Alpha virt. eigenvalues --    1.01181   1.04166   1.04977   1.06344   1.07232
 Alpha virt. eigenvalues --    1.08082   1.08598   1.09089   1.09929   1.11041
 Alpha virt. eigenvalues --    1.11558   1.12381   1.13671   1.15307   1.15673
 Alpha virt. eigenvalues --    1.17008   1.17694   1.17956   1.18518   1.18797
 Alpha virt. eigenvalues --    1.19571   1.21507   1.22060   1.22466   1.24000
 Alpha virt. eigenvalues --    1.26334   1.26661   1.27191   1.27866   1.28412
 Alpha virt. eigenvalues --    1.28972   1.29248   1.31296   1.32056   1.33097
 Alpha virt. eigenvalues --    1.33810   1.34981   1.36447   1.38039   1.39616
 Alpha virt. eigenvalues --    1.42338   1.42668   1.43353   1.44155   1.45555
 Alpha virt. eigenvalues --    1.46331   1.46926   1.47534   1.48540   1.48885
 Alpha virt. eigenvalues --    1.50081   1.50847   1.51299   1.52017   1.53055
 Alpha virt. eigenvalues --    1.53106   1.54019   1.55090   1.56490   1.56810
 Alpha virt. eigenvalues --    1.57407   1.57987   1.58320   1.59858   1.61392
 Alpha virt. eigenvalues --    1.61688   1.61861   1.63242   1.63991   1.65470
 Alpha virt. eigenvalues --    1.66363   1.66735   1.68733   1.69276   1.70048
 Alpha virt. eigenvalues --    1.71001   1.72724   1.74031   1.78332   1.80013
 Alpha virt. eigenvalues --    1.85040   1.85950   1.86272   1.90231   1.90421
 Alpha virt. eigenvalues --    1.91680   1.93317   1.96013   1.96790   1.98407
 Alpha virt. eigenvalues --    1.98839   1.99940   2.00105   2.01169   2.02303
 Alpha virt. eigenvalues --    2.03895   2.04808   2.05667   2.06865   2.07454
 Alpha virt. eigenvalues --    2.07813   2.08348   2.08944   2.09495   2.12298
 Alpha virt. eigenvalues --    2.13356   2.13931   2.15099   2.16740   2.17429
 Alpha virt. eigenvalues --    2.18427   2.18516   2.19796   2.20868   2.21537
 Alpha virt. eigenvalues --    2.22450   2.22907   2.23856   2.24591   2.25346
 Alpha virt. eigenvalues --    2.26514   2.28993   2.29499   2.31605   2.32061
 Alpha virt. eigenvalues --    2.33389   2.35850   2.38576   2.38708   2.39349
 Alpha virt. eigenvalues --    2.41690   2.42011   2.43591   2.44911   2.46232
 Alpha virt. eigenvalues --    2.47186   2.49047   2.49989   2.50500   2.50914
 Alpha virt. eigenvalues --    2.53217   2.54917   2.55046   2.57319   2.58176
 Alpha virt. eigenvalues --    2.59296   2.65003   2.67320   2.68046   2.68601
 Alpha virt. eigenvalues --    2.71876   2.73147   2.74892   2.76002   2.76903
 Alpha virt. eigenvalues --    2.79308   2.80063   2.85312   2.86258   2.87899
 Alpha virt. eigenvalues --    2.89041   2.90103   2.91481   2.94303   2.98411
 Alpha virt. eigenvalues --    3.01050   3.05707   3.07330   3.10570   3.15724
 Alpha virt. eigenvalues --    3.22767   3.23498   3.25538   3.28144   3.33320
 Alpha virt. eigenvalues --    3.34762   3.41113   3.48729   3.56960   4.32162
 Alpha virt. eigenvalues --    4.35215   4.36827   4.38837   4.41503   4.42220
 Alpha virt. eigenvalues --    4.46090   4.52459   4.53270   4.54039   4.55807
 Alpha virt. eigenvalues --    4.57605   4.60312   4.62147   4.66675   4.71902
 Alpha virt. eigenvalues --    4.76346   4.79237   4.86256   4.88800   4.97055
          Condensed to atoms (all electrons):
               1          2          3          4          5          6
     1  C    5.964073  -0.330848   0.080376  -0.019076  -0.097758  -0.001869
     2  C   -0.330848   6.579826  -0.729809  -0.087557   0.324674   0.027506
     3  C    0.080376  -0.729809   7.694876   0.446992  -1.043870  -0.109504
     4  N   -0.019076  -0.087557   0.446992   7.885828   0.372421  -0.179990
     5  C   -0.097758   0.324674  -1.043870   0.372421   7.000146   0.624371
     6  O   -0.001869   0.027506  -0.109504  -0.179990   0.624371   8.374746
     7  N   -0.001823   0.032391  -0.148204  -0.387736   0.233413  -0.080443
     8  C   -0.011046   0.031336  -0.419942  -0.131708  -0.637802  -0.306288
     9  C   -0.002099  -0.008308  -0.184108  -0.078013  -0.176734   0.309426
    10  C   -0.004709   0.011312  -0.074200  -0.036247  -0.264755  -0.110812
    11  C   -0.000642   0.001039  -0.022537  -0.012709  -0.305978  -0.016966
    12  C   -0.000538   0.000870  -0.050649  -0.012883  -0.377050  -0.002178
    13  C    0.000218  -0.002609  -0.023033   0.001663  -0.019999   0.102544
    14  H    0.465235  -0.140516   0.030024   0.000366  -0.001370   0.000003
    15  H    0.424098  -0.069379  -0.009182   0.000430   0.000638  -0.000024
    16  H    0.416110  -0.060086  -0.010681   0.000052   0.001071  -0.000016
    17  H   -0.043662   0.434199  -0.073668   0.004352  -0.003466  -0.000105
    18  H   -0.034074   0.432126  -0.082111   0.006274  -0.001968  -0.000112
    19  H   -0.024339  -0.046404   0.425651  -0.064666   0.005118   0.002258
    20  H   -0.004510  -0.058170   0.491435  -0.045215  -0.065198  -0.001106
    21  H    0.003199   0.000671  -0.030766   0.154918  -0.000471   0.003303
    22  H   -0.000033  -0.000699  -0.007557   0.010479  -0.050311   0.003741
    23  H    0.000020  -0.000082   0.003876   0.001257   0.035341  -0.009292
    24  H   -0.000007   0.000054  -0.001380  -0.000056  -0.018933   0.000107
    25  H    0.000000   0.000000   0.000027   0.000016   0.003048  -0.000001
    26  C   -0.000038   0.000087  -0.008332  -0.002750  -0.205840   0.000497
    27  H   -0.000000   0.000003  -0.000190  -0.000051  -0.010553   0.000316
    28  O   -0.000000   0.000000  -0.000008  -0.000002  -0.000903   0.000000
    29  C    0.000000   0.000003   0.000138   0.000023   0.003038  -0.000196
    30  H   -0.000000   0.000000  -0.000002  -0.000000  -0.000393  -0.000000
    31  H   -0.000000   0.000000  -0.000000  -0.000000  -0.000000   0.000000
    32  H    0.000000  -0.000000   0.000002   0.000000   0.000325   0.000001
    33  O    0.012220   0.006235  -0.004333  -0.044447   0.002054  -0.000269
    34  O   -0.001079  -0.004373   0.001745   0.016407  -0.021921  -0.000003
    35  C   -0.006098  -0.011037   0.024989   0.001547   0.001920  -0.001142
    36  C    0.006329  -0.005952   0.045487  -0.030818  -0.029393  -0.001269
    37  C   -0.000896  -0.000754  -0.003354   0.005010  -0.000343   0.000071
    38  H    0.000108   0.000381   0.000043  -0.000204  -0.000049  -0.000000
    39  H    0.000005  -0.000026   0.000087  -0.000170  -0.000356  -0.000000
    40  H    0.000001   0.000021  -0.000031  -0.000033  -0.000082  -0.000000
    41  H    0.000000   0.000003  -0.000008  -0.000005   0.000028   0.000000
    42  H    0.000001   0.000025  -0.000002   0.000001   0.000135  -0.000000
               7          8          9         10         11         12
     1  C   -0.001823  -0.011046  -0.002099  -0.004709  -0.000642  -0.000538
     2  C    0.032391   0.031336  -0.008308   0.011312   0.001039   0.000870
     3  C   -0.148204  -0.419942  -0.184108  -0.074200  -0.022537  -0.050649
     4  N   -0.387736  -0.131708  -0.078013  -0.036247  -0.012709  -0.012883
     5  C    0.233413  -0.637802  -0.176734  -0.264755  -0.305978  -0.377050
     6  O   -0.080443  -0.306288   0.309426  -0.110812  -0.016966  -0.002178
     7  N    7.906469   0.203667  -0.090748  -0.118591  -0.049334  -0.020014
     8  C    0.203667  13.999462  -0.063137   1.028336  -1.938618  -1.834498
     9  C   -0.090748  -0.063137  10.538370  -2.920484  -1.956846  -0.699110
    10  C   -0.118591   1.028336  -2.920484   9.875465   1.383769  -1.002768
    11  C   -0.049334  -1.938618  -1.956846   1.383769   9.170938   0.532008
    12  C   -0.020014  -1.834498  -0.699110  -1.002768   0.532008  10.857906
    13  C    0.090267  -3.008415   2.134763  -2.199937  -1.617733   0.982680
    14  H    0.000015  -0.000028   0.000001  -0.000004  -0.000000  -0.000000
    15  H    0.000030   0.000014  -0.000021   0.000003   0.000000  -0.000000
    16  H    0.000027   0.000013  -0.000020   0.000009   0.000000  -0.000000
    17  H   -0.000345  -0.000706  -0.000456   0.000465   0.000024  -0.000000
    18  H    0.000086  -0.001045   0.000183  -0.000160  -0.000007  -0.000005
    19  H    0.000761  -0.001266   0.005446  -0.000121  -0.000030   0.000167
    20  H   -0.001687  -0.001209  -0.007512   0.001111   0.000098  -0.000167
    21  H    0.007344   0.007878  -0.000028  -0.002925  -0.000878  -0.000167
    22  H    0.123107   0.012192   0.053330  -0.040152   0.000320   0.010673
    23  H   -0.011457  -0.065242   0.334749  -0.006331  -0.008018   0.033257
    24  H   -0.010754  -0.015122  -0.008791   0.334660  -0.033637   0.035130
    25  H    0.000328   0.023047   0.005444  -0.081593   0.325330   0.059613
    26  C   -0.016524  -0.655721  -0.471883  -0.025995   0.405601  -2.624154
    27  H   -0.001756   0.061919  -0.042690   0.005871   0.020327  -0.034707
    28  O   -0.000185   0.014922  -0.028815   0.135587   0.094753  -0.355612
    29  C   -0.000299  -0.033444  -0.149954   0.143076   0.062140  -0.237167
    30  H   -0.000005  -0.002226   0.006422  -0.002849  -0.005835  -0.035897
    31  H   -0.000001  -0.000372   0.002430  -0.001482  -0.019363   0.057631
    32  H    0.000004   0.008949   0.037448  -0.004381  -0.015550   0.000285
    33  O    0.010248   0.007424  -0.002720  -0.016126  -0.006150  -0.001197
    34  O   -0.003922  -0.259386  -0.018830   0.230774   0.062883   0.006892
    35  C   -0.009699   0.082808  -0.006013  -0.076848  -0.032666  -0.009685
    36  C   -0.025571  -0.036196  -0.020904   0.022712  -0.002063  -0.002831
    37  C    0.003217  -0.026926  -0.002258   0.012623   0.018571   0.002147
    38  H    0.000056  -0.000030   0.000015  -0.000212  -0.000094  -0.000008
    39  H    0.000143  -0.001402  -0.000193   0.001466   0.000144   0.000004
    40  H   -0.000024  -0.000912  -0.000099   0.000589   0.000415  -0.000016
    41  H    0.000020   0.000154   0.000009  -0.000147  -0.000071  -0.000002
    42  H   -0.000071   0.000125   0.000096  -0.000906   0.000089  -0.000058
              13         14         15         16         17         18
     1  C    0.000218   0.465235   0.424098   0.416110  -0.043662  -0.034074
     2  C   -0.002609  -0.140516  -0.069379  -0.060086   0.434199   0.432126
     3  C   -0.023033   0.030024  -0.009182  -0.010681  -0.073668  -0.082111
     4  N    0.001663   0.000366   0.000430   0.000052   0.004352   0.006274
     5  C   -0.019999  -0.001370   0.000638   0.001071  -0.003466  -0.001968
     6  O    0.102544   0.000003  -0.000024  -0.000016  -0.000105  -0.000112
     7  N    0.090267   0.000015   0.000030   0.000027  -0.000345   0.000086
     8  C   -3.008415  -0.000028   0.000014   0.000013  -0.000706  -0.001045
     9  C    2.134763   0.000001  -0.000021  -0.000020  -0.000456   0.000183
    10  C   -2.199937  -0.000004   0.000003   0.000009   0.000465  -0.000160
    11  C   -1.617733  -0.000000   0.000000   0.000000   0.000024  -0.000007
    12  C    0.982680  -0.000000  -0.000000  -0.000000  -0.000000  -0.000005
    13  C    9.967969   0.000000  -0.000000  -0.000002  -0.000027   0.000011
    14  H    0.000000   0.509357  -0.027677  -0.027588  -0.003129  -0.003105
    15  H   -0.000000  -0.027677   0.514042  -0.033340  -0.004601   0.003869
    16  H   -0.000002  -0.027588  -0.033340   0.513681   0.003916  -0.004465
    17  H   -0.000027  -0.003129  -0.004601   0.003916   0.482349  -0.029225
    18  H    0.000011  -0.003105   0.003869  -0.004465  -0.029225   0.475561
    19  H    0.000635  -0.000075  -0.000379   0.003003   0.004323  -0.005624
    20  H   -0.000704  -0.000068   0.003054  -0.000390  -0.005510   0.004234
    21  H    0.000095   0.000000  -0.000000  -0.000001   0.000485   0.000949
    22  H    0.008705  -0.000000  -0.000000  -0.000000   0.000001   0.000002
    23  H   -0.007976   0.000000  -0.000000   0.000000  -0.000000  -0.000000
    24  H    0.000071   0.000000  -0.000000   0.000000  -0.000000  -0.000000
    25  H    0.001208  -0.000000   0.000000   0.000000  -0.000000   0.000000
    26  C    0.570983  -0.000000  -0.000000   0.000000   0.000000  -0.000000
    27  H    0.277853  -0.000000   0.000000  -0.000000  -0.000000  -0.000000
    28  O   -0.068725  -0.000000  -0.000000  -0.000000  -0.000000  -0.000000
    29  C   -0.365895  -0.000000   0.000000  -0.000000  -0.000000   0.000000
    30  H    0.026272   0.000000  -0.000000  -0.000000  -0.000000  -0.000000
    31  H   -0.000195   0.000000   0.000000   0.000000  -0.000000   0.000000
    32  H    0.029132   0.000000   0.000000   0.000000   0.000000  -0.000000
    33  O    0.000073  -0.000024  -0.000031  -0.000001  -0.001840  -0.003673
    34  O    0.003005   0.000000  -0.000000   0.000000   0.000077  -0.000085
    35  C   -0.004247  -0.000167  -0.000003  -0.000035  -0.000284  -0.000462
    36  C   -0.002675   0.000067  -0.000005  -0.000018  -0.000270   0.000168
    37  C   -0.000452  -0.000000   0.000000  -0.000000  -0.000052  -0.000004
    38  H    0.000001  -0.000000  -0.000000   0.000000  -0.000000  -0.000000
    39  H   -0.000010  -0.000000  -0.000000  -0.000000   0.000000  -0.000000
    40  H   -0.000005  -0.000000  -0.000000  -0.000000  -0.000000  -0.000000
    41  H    0.000000   0.000000  -0.000000  -0.000000  -0.000000  -0.000000
    42  H    0.000009   0.000000  -0.000000  -0.000000  -0.000000   0.000000
              19         20         21         22         23         24
     1  C   -0.024339  -0.004510   0.003199  -0.000033   0.000020  -0.000007
     2  C   -0.046404  -0.058170   0.000671  -0.000699  -0.000082   0.000054
     3  C    0.425651   0.491435  -0.030766  -0.007557   0.003876  -0.001380
     4  N   -0.064666  -0.045215   0.154918   0.010479   0.001257  -0.000056
     5  C    0.005118  -0.065198  -0.000471  -0.050311   0.035341  -0.018933
     6  O    0.002258  -0.001106   0.003303   0.003741  -0.009292   0.000107
     7  N    0.000761  -0.001687   0.007344   0.123107  -0.011457  -0.010754
     8  C   -0.001266  -0.001209   0.007878   0.012192  -0.065242  -0.015122
     9  C    0.005446  -0.007512  -0.000028   0.053330   0.334749  -0.008791
    10  C   -0.000121   0.001111  -0.002925  -0.040152  -0.006331   0.334660
    11  C   -0.000030   0.000098  -0.000878   0.000320  -0.008018  -0.033637
    12  C    0.000167  -0.000167  -0.000167   0.010673   0.033257   0.035130
    13  C    0.000635  -0.000704   0.000095   0.008705  -0.007976   0.000071
    14  H   -0.000075  -0.000068   0.000000  -0.000000   0.000000   0.000000
    15  H   -0.000379   0.003054  -0.000000  -0.000000  -0.000000  -0.000000
    16  H    0.003003  -0.000390  -0.000001  -0.000000   0.000000   0.000000
    17  H    0.004323  -0.005510   0.000485   0.000001  -0.000000  -0.000000
    18  H   -0.005624   0.004234   0.000949   0.000002  -0.000000  -0.000000
    19  H    0.531827  -0.047042   0.001550   0.000019  -0.000000   0.000000
    20  H   -0.047042   0.526136   0.001606   0.000000  -0.000000  -0.000000
    21  H    0.001550   0.001606   0.239232   0.008010   0.000000   0.000005
    22  H    0.000019   0.000000   0.008010   0.254878  -0.000177   0.007275
    23  H   -0.000000  -0.000000   0.000000  -0.000177   0.443737  -0.000103
    24  H    0.000000  -0.000000   0.000005   0.007275  -0.000103   0.437866
    25  H    0.000000  -0.000000   0.000000  -0.000011   0.000012  -0.003112
    26  C    0.000005  -0.000005  -0.000010   0.001148   0.000802   0.011446
    27  H   -0.000000   0.000000  -0.000000   0.000002  -0.003891   0.000014
    28  O    0.000000  -0.000000   0.000000   0.000001   0.000034   0.000095
    29  C   -0.000000   0.000000  -0.000000   0.000010   0.001255   0.000018
    30  H    0.000000   0.000000  -0.000000  -0.000000  -0.000002   0.000000
    31  H   -0.000000   0.000000  -0.000000   0.000000  -0.000000  -0.000000
    32  H    0.000000  -0.000000   0.000000  -0.000000  -0.000002   0.000000
    33  O    0.000099  -0.000233   0.071126  -0.001799   0.000002  -0.000047
    34  O    0.000022  -0.000034   0.000721   0.080432   0.000013  -0.002438
    35  C   -0.000144   0.001245  -0.004812  -0.007814  -0.000034   0.000096
    36  C   -0.000181   0.000179   0.014450   0.014475  -0.000002   0.001858
    37  C    0.000002   0.000007  -0.002848  -0.002385  -0.000001  -0.000383
    38  H    0.000000  -0.000000  -0.000010  -0.000017  -0.000000  -0.000000
    39  H   -0.000000  -0.000000   0.000005  -0.000020   0.000000   0.000000
    40  H   -0.000000  -0.000000   0.000000  -0.000009   0.000000   0.000005
    41  H   -0.000000  -0.000000   0.000000   0.000000  -0.000000   0.000000
    42  H    0.000000  -0.000000  -0.000000  -0.000007   0.000000   0.000010
              25         26         27         28         29         30
     1  C    0.000000  -0.000038  -0.000000  -0.000000   0.000000  -0.000000
     2  C    0.000000   0.000087   0.000003   0.000000   0.000003   0.000000
     3  C    0.000027  -0.008332  -0.000190  -0.000008   0.000138  -0.000002
     4  N    0.000016  -0.002750  -0.000051  -0.000002   0.000023  -0.000000
     5  C    0.003048  -0.205840  -0.010553  -0.000903   0.003038  -0.000393
     6  O   -0.000001   0.000497   0.000316   0.000000  -0.000196  -0.000000
     7  N    0.000328  -0.016524  -0.001756  -0.000185  -0.000299  -0.000005
     8  C    0.023047  -0.655721   0.061919   0.014922  -0.033444  -0.002226
     9  C    0.005444  -0.471883  -0.042690  -0.028815  -0.149954   0.006422
    10  C   -0.081593  -0.025995   0.005871   0.135587   0.143076  -0.002849
    11  C    0.325330   0.405601   0.020327   0.094753   0.062140  -0.005835
    12  C    0.059613  -2.624154  -0.034707  -0.355612  -0.237167  -0.035897
    13  C    0.001208   0.570983   0.277853  -0.068725  -0.365895   0.026272
    14  H   -0.000000  -0.000000  -0.000000  -0.000000  -0.000000   0.000000
    15  H    0.000000  -0.000000   0.000000  -0.000000   0.000000  -0.000000
    16  H    0.000000   0.000000  -0.000000  -0.000000  -0.000000  -0.000000
    17  H   -0.000000   0.000000  -0.000000  -0.000000  -0.000000  -0.000000
    18  H    0.000000  -0.000000  -0.000000  -0.000000   0.000000  -0.000000
    19  H    0.000000   0.000005  -0.000000   0.000000  -0.000000   0.000000
    20  H   -0.000000  -0.000005   0.000000  -0.000000   0.000000   0.000000
    21  H    0.000000  -0.000010  -0.000000   0.000000  -0.000000  -0.000000
    22  H   -0.000011   0.001148   0.000002   0.000001   0.000010  -0.000000
    23  H    0.000012   0.000802  -0.003891   0.000034   0.001255  -0.000002
    24  H   -0.003112   0.011446   0.000014   0.000095   0.000018   0.000000
    25  H    0.471287  -0.048180  -0.000130   0.005148   0.008000  -0.000001
    26  C   -0.048180   9.028463   0.018036   0.479272  -0.742684  -0.024033
    27  H   -0.000130   0.018036   0.533727  -0.000643  -0.003303  -0.001403
    28  O    0.005148   0.479272  -0.000643   8.285184  -0.087606   0.002974
    29  C    0.008000  -0.742684  -0.003303  -0.087606   7.077260   0.376644
    30  H   -0.000001  -0.024033  -0.001403   0.002974   0.376644   0.481035
    31  H   -0.000004  -0.144351   0.000207   0.000748   0.455812  -0.021167
    32  H   -0.000001  -0.100737  -0.001332   0.002695   0.383323  -0.029065
    33  O    0.000000  -0.000050  -0.000000  -0.000000  -0.000001   0.000000
    34  O    0.000032  -0.000200  -0.000001   0.000005   0.000071  -0.000000
    35  C    0.000015  -0.001141   0.000003   0.000004  -0.000007  -0.000000
    36  C   -0.000015  -0.000925   0.000000  -0.000004  -0.000017  -0.000000
    37  C   -0.000001   0.000291   0.000000   0.000000   0.000001   0.000000
    38  H    0.000000  -0.000000   0.000000  -0.000000  -0.000000  -0.000000
    39  H   -0.000000   0.000000   0.000000  -0.000000  -0.000000  -0.000000
    40  H   -0.000000   0.000000  -0.000000   0.000000   0.000000  -0.000000
    41  H    0.000000   0.000000   0.000000   0.000000   0.000000  -0.000000
    42  H   -0.000000  -0.000005  -0.000000  -0.000000   0.000000  -0.000000
              31         32         33         34         35         36
     1  C   -0.000000   0.000000   0.012220  -0.001079  -0.006098   0.006329
     2  C    0.000000  -0.000000   0.006235  -0.004373  -0.011037  -0.005952
     3  C   -0.000000   0.000002  -0.004333   0.001745   0.024989   0.045487
     4  N   -0.000000   0.000000  -0.044447   0.016407   0.001547  -0.030818
     5  C   -0.000000   0.000325   0.002054  -0.021921   0.001920  -0.029393
     6  O    0.000000   0.000001  -0.000269  -0.000003  -0.001142  -0.001269
     7  N   -0.000001   0.000004   0.010248  -0.003922  -0.009699  -0.025571
     8  C   -0.000372   0.008949   0.007424  -0.259386   0.082808  -0.036196
     9  C    0.002430   0.037448  -0.002720  -0.018830  -0.006013  -0.020904
    10  C   -0.001482  -0.004381  -0.016126   0.230774  -0.076848   0.022712
    11  C   -0.019363  -0.015550  -0.006150   0.062883  -0.032666  -0.002063
    12  C    0.057631   0.000285  -0.001197   0.006892  -0.009685  -0.002831
    13  C   -0.000195   0.029132   0.000073   0.003005  -0.004247  -0.002675
    14  H    0.000000   0.000000  -0.000024   0.000000  -0.000167   0.000067
    15  H    0.000000   0.000000  -0.000031  -0.000000  -0.000003  -0.000005
    16  H    0.000000   0.000000  -0.000001   0.000000  -0.000035  -0.000018
    17  H   -0.000000   0.000000  -0.001840   0.000077  -0.000284  -0.000270
    18  H    0.000000  -0.000000  -0.003673  -0.000085  -0.000462   0.000168
    19  H   -0.000000   0.000000   0.000099   0.000022  -0.000144  -0.000181
    20  H    0.000000  -0.000000  -0.000233  -0.000034   0.001245   0.000179
    21  H   -0.000000   0.000000   0.071126   0.000721  -0.004812   0.014450
    22  H    0.000000  -0.000000  -0.001799   0.080432  -0.007814   0.014475
    23  H   -0.000000  -0.000002   0.000002   0.000013  -0.000034  -0.000002
    24  H   -0.000000   0.000000  -0.000047  -0.002438   0.000096   0.001858
    25  H   -0.000004  -0.000001   0.000000   0.000032   0.000015  -0.000015
    26  C   -0.144351  -0.100737  -0.000050  -0.000200  -0.001141  -0.000925
    27  H    0.000207  -0.001332  -0.000000  -0.000001   0.000003   0.000000
    28  O    0.000748   0.002695  -0.000000   0.000005   0.000004  -0.000004
    29  C    0.455812   0.383323  -0.000001   0.000071  -0.000007  -0.000017
    30  H   -0.021167  -0.029065   0.000000  -0.000000  -0.000000  -0.000000
    31  H    0.456368  -0.021010   0.000000   0.000000   0.000000  -0.000000
    32  H   -0.021010   0.478350  -0.000000  -0.000000   0.000000   0.000000
    33  O    0.000000  -0.000000   8.570456  -0.191850   0.524022  -0.313921
    34  O    0.000000  -0.000000  -0.191850   8.574647   0.286273  -0.138900
    35  C    0.000000   0.000000   0.524022   0.286273   5.695829  -0.989343
    36  C   -0.000000   0.000000  -0.313921  -0.138900  -0.989343   7.648366
    37  C    0.000000  -0.000000   0.038285   0.063278   0.038356  -0.400396
    38  H    0.000000  -0.000000  -0.001574   0.000058  -0.073655   0.439701
    39  H    0.000000  -0.000000  -0.002798   0.002850  -0.101118   0.474605
    40  H   -0.000000  -0.000000   0.000065  -0.004815  -0.015843  -0.040928
    41  H    0.000000  -0.000000  -0.000232   0.002104   0.037881  -0.092138
    42  H   -0.000000  -0.000000   0.000106  -0.004988  -0.004888  -0.056406
              37         38         39         40         41         42
     1  C   -0.000896   0.000108   0.000005   0.000001   0.000000   0.000001
     2  C   -0.000754   0.000381  -0.000026   0.000021   0.000003   0.000025
     3  C   -0.003354   0.000043   0.000087  -0.000031  -0.000008  -0.000002
     4  N    0.005010  -0.000204  -0.000170  -0.000033  -0.000005   0.000001
     5  C   -0.000343  -0.000049  -0.000356  -0.000082   0.000028   0.000135
     6  O    0.000071  -0.000000  -0.000000  -0.000000   0.000000  -0.000000
     7  N    0.003217   0.000056   0.000143  -0.000024   0.000020  -0.000071
     8  C   -0.026926  -0.000030  -0.001402  -0.000912   0.000154   0.000125
     9  C   -0.002258   0.000015  -0.000193  -0.000099   0.000009   0.000096
    10  C    0.012623  -0.000212   0.001466   0.000589  -0.000147  -0.000906
    11  C    0.018571  -0.000094   0.000144   0.000415  -0.000071   0.000089
    12  C    0.002147  -0.000008   0.000004  -0.000016  -0.000002  -0.000058
    13  C   -0.000452   0.000001  -0.000010  -0.000005   0.000000   0.000009
    14  H   -0.000000  -0.000000  -0.000000  -0.000000   0.000000   0.000000
    15  H    0.000000  -0.000000  -0.000000  -0.000000  -0.000000  -0.000000
    16  H   -0.000000   0.000000  -0.000000  -0.000000  -0.000000  -0.000000
    17  H   -0.000052  -0.000000   0.000000  -0.000000  -0.000000  -0.000000
    18  H   -0.000004  -0.000000  -0.000000  -0.000000  -0.000000   0.000000
    19  H    0.000002   0.000000  -0.000000  -0.000000  -0.000000   0.000000
    20  H    0.000007  -0.000000  -0.000000  -0.000000  -0.000000  -0.000000
    21  H   -0.002848  -0.000010   0.000005   0.000000   0.000000  -0.000000
    22  H   -0.002385  -0.000017  -0.000020  -0.000009   0.000000  -0.000007
    23  H   -0.000001  -0.000000   0.000000   0.000000  -0.000000   0.000000
    24  H   -0.000383  -0.000000   0.000000   0.000005   0.000000   0.000010
    25  H   -0.000001   0.000000  -0.000000  -0.000000   0.000000  -0.000000
    26  C    0.000291  -0.000000   0.000000   0.000000   0.000000  -0.000005
    27  H    0.000000   0.000000   0.000000  -0.000000   0.000000  -0.000000
    28  O    0.000000  -0.000000  -0.000000   0.000000   0.000000  -0.000000
    29  C    0.000001  -0.000000  -0.000000   0.000000   0.000000   0.000000
    30  H    0.000000  -0.000000  -0.000000  -0.000000  -0.000000  -0.000000
    31  H    0.000000   0.000000   0.000000  -0.000000   0.000000  -0.000000
    32  H   -0.000000  -0.000000  -0.000000  -0.000000  -0.000000  -0.000000
    33  O    0.038285  -0.001574  -0.002798   0.000065  -0.000232   0.000106
    34  O    0.063278   0.000058   0.002850  -0.004815   0.002104  -0.004988
    35  C    0.038356  -0.073655  -0.101118  -0.015843   0.037881  -0.004888
    36  C   -0.400396   0.439701   0.474605  -0.040928  -0.092138  -0.056406
    37  C    5.854682  -0.047134  -0.054972   0.414382   0.392132   0.419490
    38  H   -0.047134   0.506057  -0.029782  -0.003968  -0.002236   0.003675
    39  H   -0.054972  -0.029782   0.503782   0.003658  -0.002353  -0.003783
    40  H    0.414382  -0.003968   0.003658   0.487038  -0.031217  -0.025315
    41  H    0.392132  -0.002236  -0.002353  -0.031217   0.555602  -0.031206
    42  H    0.419490   0.003675  -0.003783  -0.025315  -0.031206   0.488807
 Mulliken charges:
               1
     1  C   -0.786848
     2  C   -0.326153
     3  C   -0.208288
     4  N   -0.773702
     5  C    0.727754
     6  O   -0.627304
     7  N   -0.632399
     8  C   -0.029560
     9  C   -0.487358
    10  C   -0.195093
    11  C   -0.032724
    12  C    0.722100
    13  C   -0.875516
    14  H    0.198683
    15  H    0.198463
    16  H    0.198758
    17  H    0.237153
[...]
 .00045284,0.00040340,0.00002437,0.11934871,0.08127528,0.17269450,0.000
 00676,0.00000751,0.00000235,-0.00000603,-0.00001372,-0.00000626,0.0000
 0803,-0.00000186,0.00000965,0.00011578,0.00009514,-0.00000633,-0.00026
 877,0.00001387,0.00001885,0.00006749,-0.00000712,-0.00001311,0.0000734
 1,-0.00023950,0.00005647,-0.00003005,-0.00002850,0.00001055,0.00000534
 ,0.00000084,-0.00000129,0.00001987,0.00002292,-0.00002303,-0.00000329,
 -0.00000429,-0.00000423,0.00000055,-0.00000983,0.00000036,-0.00001274,
 -0.00000909,-0.00000014,-0.00000356,-0.00000072,-0.00000106,-0.0000026
 3,0.00000108,-0.00000202,-0.00000175,0.00000063,0.00000056,0.00000624,
 0.00000023,0.00000481,0.00001441,0.00000263,-0.00000118,0.00000240,-0.
 00000154,0.00000089,-0.00000064,0.00000103,-0.00000490,-0.00005902,-0.
 00018487,-0.00000669,0.00000621,0.00032165,-0.00011519,-0.00000532,-0.
 00000325,0.00000353,0.00001179,0.00003128,0.00001889,0.00000880,0.0000
 0526,0.00000550,0.00000998,0.00001132,0.00000031,-0.00000155,-0.000003
 07,0.00000221,-0.00000518,-0.00001207,-0.00000385,-0.00000370,-0.00000
 446,0.00000231,0.00000059,-0.00000113,-0.00000017,-0.00000143,-0.00000
 012,0.00000053,-0.00000010,0.00000008,-0.00000018,0.00020095,0.0013763
 7,-0.00134538,0.00006276,-0.00252149,-0.00050928,-0.00443097,-0.000289
 95,0.00545606,-0.10161180,-0.00149348,0.10903601,-0.01315268,-0.000668
 44,0.02588714,0.00964022,0.00110238,-0.01888120,0.11235993,0.00000345,
 0.00000567,-0.00000124,0.00000668,-0.00001515,0.00001670,-0.00004064,0
 .00003599,-0.00000117,0.00008939,0.00007246,0.00002045,-0.00026351,0.0
 0012051,0.00000330,0.00007423,-0.00013134,0.00000496,-0.00009638,-0.00
 056744,0.00024445,0.00026496,-0.00000041,-0.00000421,-0.00006966,-0.00
 004333,0.00000293,-0.00008272,0.00008133,-0.00001018,0.00004571,-0.000
 00318,-0.00000232,-0.00009360,-0.00002596,0.00000731,0.00003301,-0.000
 01634,0.00000200,0.00000536,0.00000011,0.00000185,-0.00000074,0.000000
 17,-0.00000221,0.00000121,-0.00000517,-0.00000035,-0.00000294,0.000000
 42,-0.00000757,-0.00000896,0.00000481,0.00000375,0.00000773,-0.0000139
 4,-0.00000412,0.00000830,-0.00000552,0.00000031,-0.00006758,-0.0000284
 7,-0.00010625,0.00007432,0.00088610,-0.00045946,0.00000357,0.00000115,
 0.00000094,0.00007034,-0.00001034,-0.00000041,-0.00000800,0.00000002,0
 .00000068,0.00010322,-0.00001248,0.00000161,-0.00000565,-0.00000443,0.
 00000255,-0.00005645,0.00003491,-0.00000709,-0.00000671,-0.00000561,0.
 00000136,0.00000012,-0.00000043,0.00000117,-0.00000354,-0.00000116,0.0
 0000033,0.00000013,-0.00000069,-0.00000100,0.00075431,-0.00056997,-0.0
 0385092,-0.00251500,-0.00647270,-0.00204096,-0.01408755,0.00240238,0.0
 3223593,-0.00165046,-0.04513638,0.00924408,0.00840164,-0.00022692,-0.0
 1623422,0.00711728,0.00023335,-0.01393134,0.00005733,0.05018777,0.0000
 0209,-0.00000088,0.00000695,-0.00001074,0.00001151,-0.00004109,0.00008
 905,-0.00004729,0.00000367,-0.00009331,0.00004655,-0.00000526,0.000222
 77,-0.00013597,0.00000041,-0.00006254,0.00013115,-0.00001353,0.0000428
 9,0.00037111,-0.00008777,-0.00016052,0.00000580,0.00000731,0.00004605,
 0.00003586,-0.00000787,0.00004668,-0.00007072,0.00001199,-0.00004251,-
 0.00000312,0.00000829,0.00008462,0.00003380,-0.00000940,-0.00002173,0.
 00001716,-0.00000095,-0.00001836,-0.00000176,-0.00000689,0.00000023,-0
 .00000466,0.00000513,-0.00000226,0.00000918,0.00000140,0.00000966,-0.0
 0000035,0.00001025,0.00001394,0.00000578,0.00000723,-0.00001468,0.0000
 1882,0.00000833,-0.00001590,0.00000490,-0.00000227,0.00003071,-0.00007
 288,0.00004978,-0.00006574,-0.00056704,0.00015415,0.00000062,0.0000006
 4,-0.00000287,-0.00004876,-0.00001035,-0.00000688,-0.00000420,-0.00000
 349,-0.00000205,-0.00011646,-0.00000642,0.00000198,0.00000477,0.000007
 42,-0.00000308,0.00006384,-0.00001928,0.00000684,0.00001023,0.00001247
 ,-0.00000397,-0.00000105,0.00000085,-0.00000057,0.00000565,0.00000089,
 -0.00000062,-0.00000053,0.00000033,0.00000077,-0.00179102,0.00098645,0
 .00226762,-0.00021659,0.00244257,0.00022611,0.00542283,-0.00375521,-0.
 00803860,0.10760001,0.00607134,-0.25667380,-0.00235380,-0.00005310,0.0
 0375652,0.00999694,0.00109034,-0.02044600,-0.11866538,-0.00608166,0.27
 644939,0.00000285,0.00000028,-0.00000584,-0.00000015,-0.00000270,0.000
 02574,0.00000401,-0.00000308,-0.00000007,0.00002527,0.00007340,-0.0000
 4819,-0.00005573,-0.00001611,0.00002050,0.00001526,0.00002760,-0.00001
 324,-0.00000592,-0.00000300,-0.00001818,0.00003300,0.00000568,0.000002
 09,-0.00000636,0.00000713,-0.00000322,-0.00002477,-0.00001664,0.000003
 35,0.00000748,-0.00000391,-0.00000080,0.00000455,0.00000696,-0.0000007
 7,0.00000338,0.00000434,-0.00000301,0.00000073,-0.00000112,0.00000314,
 -0.00000248,0.00000638,-0.00000442,-0.00000001,-0.00000148,0.00000036,
 -0.00000142,-0.00000297,-0.00000028,0.00000490,-0.00000714,-0.00001089
 ,-0.00000050,-0.00000058,0.,-0.00000028,0.00000785,-0.00000385,-0.0000
 1513,-0.00011376,0.00005030,0.00000786,0.00000744,0.00001659,0.0000005
 7,0.00000238,0.00000127,0.00001643,-0.00001787,0.00000140,-0.00001126,
 -0.00000550,-0.00000041,-0.00001688,-0.00000809,0.00000308,-0.00000013
 ,0.00000310,-0.00000009,0.00001002,0.00000551,-0.00000192,0.00000306,0
 .00000415,-0.00000067,-0.00000021,0.00000032,-0.00000031,0.00000150,0.
 00000032,-0.00000001,-0.00000037,0.00000080,-0.00000015,0.00056602,0.0
 0020870,-0.00047853,0.00121865,0.00000699,-0.00075587,-0.00117360,-0.0
 0149665,0.00087247,-0.01406116,0.00003990,0.02752780,-0.10224613,-0.00
 309304,0.10981968,0.00074572,-0.00099375,-0.00006536,-0.00487994,0.003
 46643,-0.00098482,0.11320202,0.00000088,-0.00000324,0.00000032,-0.0000
 0288,0.00000817,-0.00000342,0.00005187,-0.00002983,0.00000162,-0.00007
 421,0.00001609,0.00001119,0.00016459,-0.00011759,0.00000674,-0.0000442
 5,0.00009740,-0.00001469,0.00001717,0.00022317,-0.00004265,-0.00005519
 ,0.00001736,0.00000546,0.00001692,0.00002799,-0.00000851,0.00000726,-0
 .00008128,0.00004158,-0.00004790,0.00000693,0.00000951,0.00008546,0.00
 003697,-0.00001485,-0.00000895,0.00001909,-0.00000192,-0.00000919,-0.0
 0000176,-0.00000070,-0.00000021,0.00000169,-0.00000045,-0.00000094,0.0
 0000361,0.00000106,0.00000555,-0.00000079,0.00000349,0.00000644,-0.000
 00261,-0.00000110,-0.00001080,0.00001149,0.00000507,-0.00000672,0.0000
 0637,-0.00000324,0.00002868,-0.00005664,0.00000234,-0.00006814,-0.0003
 5845,0.00006498,0.00000342,0.00000434,-0.00000289,-0.00004702,-0.00007
 239,-0.00004545,-0.00001224,-0.00000555,-0.00000236,-0.00013407,0.0000
 0366,0.00000032,0.00000338,0.00000834,-0.00000226,0.00007697,-0.000028
 48,0.00000703,0.00001277,0.00001217,-0.00000335,-0.00000098,0.00000041
 ,-0.00000125,0.00000661,0.00000180,-0.00000047,-0.00000103,0.00000046,
 0.00000125,-0.00097527,0.00004015,0.00025624,-0.00121704,-0.00007117,0
 .00089536,0.00214060,0.00072999,-0.00139026,0.00735130,0.00012183,-0.0
 1583116,-0.00402534,-0.04739461,0.00677350,-0.00067204,0.00058737,0.00
 036117,0.00327042,-0.00161124,0.00035127,0.00119404,0.04776888,-0.0000
 0413,-0.00000314,0.00000193,0.00000150,0.00001164,-0.00001180,0.000008
 56,-0.00000459,-0.00000086,-0.00010537,-0.00010133,0.00004197,0.000193
 91,-0.00001498,-0.00001037,-0.00005180,-0.00001752,0.00001219,-0.00015
 892,0.00000524,0.00002406,0.00017873,0.00003727,-0.00002110,-0.0000443
 8,-0.00001497,0.00000726,-0.00007552,0.00000087,0.00003210,0.00002863,
 0.00000165,0.00000779,-0.00003772,0.00000800,-0.00000043,0.00003335,0.
 00000659,-0.00000082,-0.00000289,0.00000078,-0.00000149,0.00000218,-0.
 00000401,0.00000409,0.00000094,0.00000032,-0.00000114,-0.00000033,0.00
 000162,-0.00000345,-0.00000437,0.00000197,0.00000833,-0.00000475,0.000
 00291,-0.00000003,-0.00000077,-0.00000381,0.00000384,0.00003110,0.0001
 2623,-0.00005128,0.00000781,0.00002745,-0.00003335,0.00000954,0.000006
 21,-0.00000422,0.00001984,-0.00008120,-0.00002346,-0.00002262,-0.00001
 102,-0.00000764,0.00001903,-0.00002759,0.00000201,-0.00000059,0.000004
 12,-0.00000221,-0.00001023,0.00003554,0.00000144,0.00000388,0.00000691
 ,-0.00000300,-0.00000098,0.00000154,0.00000070,0.00000148,-0.00000019,
 -0.00000066,0.,-0.00000011,-0.00000033,-0.00052072,-0.00061278,0.00014
 632,-0.00169370,0.00047134,0.00059341,0.00180049,0.00159514,-0.0004000
 2,-0.00145253,-0.00070097,0.00272707,0.11046150,0.00460911,-0.26645822
 ,0.00045274,-0.00031147,0.00073217,-0.00056292,0.00070479,0.00153104,-
 0.12052373,-0.00717288,0.28697321,0.00001033,0.00000639,-0.00000629,-0
 .00001220,-0.00001207,0.00001692,0.00004048,-0.00001580,-0.00000821,0.
 00018494,0.00032519,-0.00009471,-0.00033951,-0.00000204,0.00000521,0.0
 0009137,0.00006767,-0.00001480,0.00016349,-0.00004554,0.00000643,-0.00
 016122,-0.00004545,0.00001124,0.00003944,0.00001802,-0.00000425,0.0000
 6109,0.00002218,-0.00000323,-0.00000078,-0.00000724,0.00000184,0.00001
 557,-0.00000915,0.00000216,-0.00002812,-0.00000798,0.00000192,-0.00000
 502,-0.00000193,0.00000016,-0.00000554,0.00000623,-0.00000343,-0.00000
 307,0.00000422,0.00000237,0.00000641,-0.00000457,0.00001122,0.00001842
 ,-0.00000913,-0.00001769,-0.00000279,0.00000805,0.00000402,-0.00000760
 ,0.00001299,-0.00000677,-0.00011484,-0.00046329,0.00014753,-0.00000615
 ,0.00003029,-0.00000623,-0.00001094,-0.00000709,0.00000182,-0.00000975
 ,0.00005362,-0.00001748,0.00001634,0.00000388,-0.00000167,0.00001385,0
 .00000490,-0.00000151,0.00000033,-0.00000320,0.00000080,-0.00001093,-0
 .00000699,0.00000191,-0.00000469,-0.00000406,0.00000102,0.00000050,0.0
 0000018,0.00000002,-0.00000199,-0.00000070,0.00000022,0.00000049,0.000
 00014,-0.00000012,-0.00050156,0.00342006,-0.00085254,0.00231523,-0.000
 55631,-0.00001933,-0.00726174,-0.00220028,0.00140209,0.00591973,0.0309
 1425,-0.00879512,-0.05434714,-0.03920148,0.01064601,0.00107862,-0.0009
 2114,-0.00027718,0.00109703,-0.00078203,0.00049061,-0.00305250,-0.0140
 9190,0.00184055,0.05794488,-0.00001924,-0.00000326,0.00000939,0.000015
 10,0.00001510,-0.00002546,-0.00013742,0.00007747,0.00000695,-0.0001294
 5,-0.00045919,0.00012886,0.00021714,0.00027395,-0.00006274,-0.00005484
 ,-0.00030971,0.00007003,-0.00033219,-0.00036164,0.00009985,0.00039116,
 0.00004577,-0.00002087,-0.00010966,-0.00009997,0.00002489,-0.00012260,
 0.00012997,-0.00001953,0.00010419,0.00002084,-0.00000547,-0.00022013,-
 0.00007014,0.00002040,0.00007605,-0.00002838,0.00000530,0.00001990,0.0
 0000927,-0.00000049,0.00001027,-0.00001761,0.00001200,0.00000627,-0.00
 001455,-0.00000924,-0.00001517,0.00000764,-0.00002737,-0.00003939,0.00
 002424,0.00003502,0.00001909,-0.00003089,-0.00001813,0.00001910,-0.000
 03393,0.00002033,0.00006185,0.00075303,-0.00022454,0.00016704,0.000676
 77,-0.00017910,0.00001166,0.00000204,-0.00000108,0.00008611,0.00003558
 ,-0.00002443,0.00000628,0.00000541,-0.00000228,0.00029727,-0.00000931,
 -0.00000399,-0.00000699,-0.00001479,0.00000367,-0.00016779,0.00007638,
 -0.00001435,-0.00002118,-0.00002382,0.00000594,0.00000188,-0.00000045,
 0.00000271,-0.00001285,-0.00000267,0.00000094,0.00000172,-0.00000164,-
 0.00000233,0.00172080,-0.00292046,0.00060267,0.00058224,-0.00110561,0.
 00041360,0.00160267,0.00260239,-0.00070375,-0.00495459,-0.01450652,0.0
 0402109,-0.03916311,-0.28515129,0.06516218,0.00022419,0.00063044,0.000
 42179,0.00004390,0.00014946,-0.00067366,-0.00030463,0.00029936,0.00015
 223,0.04173133,0.31210838,0.00000435,0.00000080,-0.00000186,-0.0000030
 4,-0.00000276,0.00000757,0.00003209,-0.00001749,-0.00000041,0.00001718
 ,0.00008915,-0.00001946,-0.00002739,-0.00007162,0.00001109,0.00000616,
 0.00007414,-0.00001531,0.00007660,0.00010491,-0.00000892,-0.00009393,-
 0.00001066,-0.00000215,0.00002664,0.00002442,-0.00000515,0.00002978,-0
 .00002799,0.00002876,-0.00002659,-0.00000348,0.00000827,0.00005517,0.0
 0001772,-0.00000719,-0.00001822,0.00000769,-0.00000110,-0.00000517,-0.
 00000215,0.00000096,-0.00000195,0.00000438,-0.00000324,-0.00000149,0.0
 0000227,0.00000170,0.00000431,-0.00000113,0.00000420,0.00000844,-0.000
 00498,-0.00000690,-0.00000510,0.00000669,0.00000411,-0.00000404,0.0000
 0736,-0.00000490,-0.00000438,-0.00015078,0.00003999,-0.00004599,-0.000
 18928,0.00002416,-0.00000237,-0.00000036,-0.00000037,-0.00002311,-0.00
 002003,-0.00004165,-0.00000213,-0.00000232,-0.00000324,-0.00007612,0.0
 0000175,0.00000015,0.00000181,0.00000389,-0.00000097,0.00004305,-0.000
 01873,0.00000466,0.00000554,0.00000626,-0.00000166,-0.00000041,0.00000
 019,-0.00000069,0.00000336,0.00000071,-0.00000014,-0.00000055,0.000000
 28,0.00000060,-0.00039860,0.00041639,-0.00004617,-0.00031703,0.0005430
 5,0.00063375,0.00039937,-0.00030832,0.00059908,0.00055850,0.00030277,-
 0.00122000,0.01061623,0.06516315,-0.06899978,0.00001218,0.00025964,-0.
 00021164,-0.00030657,-0.00029957,0.00020537,0.00335671,0.02904262,-0.0
 0612419,-0.01200087,-0.07329017,0.06807218,0.00000467,0.00000129,-0.00
 000087,-0.00000035,-0.00000989,-0.00000327,-0.00000555,-0.00000431,-0.
 00001117,0.00006098,0.00010723,-0.00000110,-0.00012117,-0.00001701,-0.
 00001064,0.00003206,0.00003155,0.00000178,0.00003572,-0.00000606,0.000
 02319,-0.00000595,-0.00000477,-0.00000339,0.00000335,0.00001156,-0.000
 00111,-0.00001004,-0.00000855,0.00001253,0.00000583,-0.00000314,0.0000
 0565,0.00000832,0.00000268,-0.00000116,-0.00000424,0.00000306,0.000001
 61,0.00000446,-0.00000180,-0.00000050,-0.00000210,0.00000322,-0.000002
 67,-0.00000303,0.00000653,0.00000422,0.00000113,-0.00000322,0.00001750
 ,0.00000131,-0.00001078,-0.00001312,0.00000182,0.00000867,0.00000403,0
 .00000065,0.00000398,-0.00000100,-0.00002307,-0.00013621,0.00002332,0.
 00000530,0.00000435,-0.00002717,-0.00000210,-0.00000022,-0.00000240,0.
 00001646,-0.00000153,-0.00001884,-0.00000634,-0.00000401,-0.00000093,-
 0.00001289,-0.00000311,-0.00000116,-0.00000029,0.00000140,-0.00000119,
 0.00000777,0.00000095,0.00000335,0.00000137,0.00000149,-0.00000124,-0.
 00000034,0.00000093,-0.00000026,0.00000075,0.00000016,-0.00000035,0.00
 000012,0.00000019,0.00000043,0.00076677,0.00048305,0.00014126,0.001712
 73,0.00030681,0.00048910,-0.00163135,-0.00199805,0.00035418,-0.0189750
 8,-0.01229118,-0.02069733,-0.14901903,-0.07193551,-0.11139499,-0.00463
 436,0.00377097,0.00040336,0.00076261,-0.00074659,0.00050669,0.00968167
 ,0.00706198,0.01018320,-0.00313046,-0.00160598,-0.00189243,0.16447188,
 0.00000221,-0.00000179,-0.00000247,-0.00000308,0.00000153,0.00000584,0
 .00004192,-0.00002485,0.00000077,-0.00001724,0.00005774,-0.00002148,0.
 00005690,-0.00009059,0.00002487,-0.00001500,0.00009075,-0.00002207,0.0
 0008917,0.00019040,-0.00004785,-0.00012851,-0.00000578,-0.00000690,0.0
 0003459,0.00003348,-0.00000479,0.00003956,-0.00008041,0.00000704,-0.00
 006016,0.00000545,-0.00000517,0.00009706,0.00003141,-0.00000601,-0.000
 02321,0.00001358,-0.00000377,-0.00000658,-0.00000168,-0.00000027,-0.00
 000153,0.00000299,-0.00000187,-0.00000043,0.00000276,0.00000175,0.0000
 0301,-0.00000015,0.00000180,0.00000887,-0.00000291,-0.00000347,-0.0000
 0707,0.00000741,0.00000457,-0.00000577,0.00000737,-0.00000469,0.000009
 87,-0.00010615,0.00003255,-0.00006194,-0.00032116,0.00008712,-0.000001
 21,0.00000147,0.00000032,-0.00005089,-0.00000865,0.00004624,0.00000007
 ,0.00000015,-0.00000126,-0.00013316,0.00001944,-0.00000209,0.00000323,
 0.00000524,-0.00000171,0.00007654,-0.00004479,0.00001146,0.00000987,0.
 00000694,-0.00000218,-0.00000093,-0.00000026,-0.00000140,0.00000526,0.
 00000168,-0.00000087,-0.00000037,0.00000026,0.00000162,-0.00065818,0.0
 0023261,-0.00019327,-0.00036698,-0.00046569,-0.00024065,0.00121318,0.0
 0040999,0.00072744,0.01085216,0.00796354,0.01237011,-0.07335044,-0.097
 67782,-0.07947137,0.00345459,-0.00164966,0.00060955,-0.00086737,0.0006
 9199,-0.00014834,0.00101233,-0.00021946,0.00126309,-0.01823021,-0.0127
 7767,-0.02165839,0.07697987,0.10370127,0.00000339,0.00000464,0.0000005
 0,-0.00000017,-0.00001647,-0.00000274,-0.00003513,0.00001800,-0.000007
 62,0.00013316,0.00007690,-0.00000181,-0.00025614,0.00006909,-0.0000214
 2,0.00006824,-0.00003370,0.00001333,0.00015006,-0.00010328,0.00003321,
 -0.00015707,-0.00004621,0.00001643,0.00003719,-0.00000073,-0.00000159,
 0.00007835,0.00005861,0.00000869,-0.00000483,0.00000059,0.00000967,-0.
 00000740,-0.00002890,0.00000478,-0.00002892,-0.00001603,0.00000656,0.0
 0000767,0.00000035,-0.00000006,-0.00000097,-0.00000021,-0.00000142,-0.
 00000153,0.00000099,0.00000199,-0.00000037,0.00000116,0.00000624,-0.00
 000185,-0.00000052,-0.00000389,0.00000876,-0.00000369,-0.00000022,0.00
 000488,-0.00000366,0.00000080,-0.00003885,-0.00006699,0.00000937,0.000
 01903,0.00012890,-0.00005804,-0.00001127,-0.00000999,0.00000040,-0.000
 00322,0.00009557,-0.00007731,0.00003057,0.00001039,-0.00001087,0.00005
 351,0.00002487,-0.00000957,-0.00000106,-0.00000933,0.00000152,-0.00003
 138,-0.00001739,0.00001083,-0.00001101,-0.00001424,0.00000268,0.000000
 79,-0.00000044,0.00000030,-0.00000516,-0.00000103,0.,0.00000135,-0.000
 00134,0.00000048,0.00079047,0.00044325,-0.00025289,0.00193341,-0.00003
 151,0.00051940,-0.00238325,-0.00155163,0.00042150,0.00030616,0.0004494
 3,-0.00037210,-0.11138426,-0.07761865,-0.16912343,0.00012506,0.0002013
 5,0.00136595,-0.00005663,0.00054480,0.00063294,-0.01877979,-0.01329824
 ,-0.01969084,0.00753535,0.00408914,0.00708052,0.12191289,0.08665617,0.
 17948774\\0.00000033,-0.00000149,0.00000029,-0.00000094,-0.00000012,0.
 00000158,0.00000099,-0.00000136,-0.00000049,0.00000084,-0.00000088,0.0
 0000342,0.00000056,-0.00000391,0.00000330,-0.00000263,0.00000159,-0.00
 000103,-0.00000124,0.00000010,-0.00000598,0.00000090,0.00000170,0.0000
 0470,-0.00000075,0.00000026,-0.00000098,-0.00000139,0.00000107,-0.0000
 0036,0.00000059,0.00000097,-0.00000086,-0.00000131,0.00000086,-0.00000
 125,-0.00000008,0.00000084,0.00000011,-0.00000005,-0.00000187,0.000000
 44,-0.00000084,-0.00000171,0.00000045,-0.00000064,-0.00000150,0.000000
 48,0.00000063,-0.00000160,0.00000049,0.00000053,-0.00000203,-0.0000006
 2,-0.00000091,0.00000026,0.00000013,-0.00000136,-0.00000062,0.00000049
 ,0.00000065,0.00000151,-0.00000140,0.00000054,-0.00000211,0.00000014,-
 0.00000056,0.00000021,0.00000023,0.00000028,0.00000042,-0.00000022,0.0
 0000025,0.00000123,-0.00000016,0.00000089,0.00000139,0.00000034,-0.000
 00081,0.00000119,0.00000004,-0.00000054,0.00000246,0.00000123,-0.00000
 122,0.00000039,-0.00000417,-0.00000050,0.00000132,0.00000139,-0.000000
 83,0.00000202,-0.00000021,-0.00000151,0.00000256,0.00000100,0.00000094
 ,-0.00000238,0.00000090,0.00000101,0.00000173,-0.00000138,-0.00000165,
 -0.00000004,-0.00000012,0.00000156,-0.00000078,-0.00000060,0.00000140,
 -0.00000015,-0.00000101,0.00000134,-0.00000090,0.00000013,0.00000142,-
 0.00000026,-0.00000008,0.00000119,0.00000071,-0.00000007,0.00000166,-0
 .00000047,-0.00000032,0.00000124,-0.00000062,0.00000003\\\@


 ACCORDING TO HEN3RY, LIFE IS MUCH LIKE A SEWER........
 YOU GET OUT OF IT JUST WHAT YOU PUT INTO IT...........
                         TOM LEHRER - (THE 3 IS SILENT)
 Job cpu time:       0 days  6 hours 11 minutes 49.6 seconds.
 File lengths (MBytes):  RWF=    851 Int=      0 D2E=      0 Chk=     17 Scr=      1
 Normal termination of Gaussian 09 at Thu Feb 21 12:33:39 2019.
WARNING: pbs_rusage is deprecated and values produced may not be accurate


=============================================================================
                                     Resource usage:
                                       CPU time:              24:05:39
   JobId:    5960575.r-man2            Elapsed time:          03:01:13
   Project:             q95            Requested time:        42:00:00
   Service Units:     24.16 
                                       Max physical memory:     1552MB
                                       Max virtual memory:      2760MB
                                       Requested memory:           0MB

                                       Number of cpus:               8

                                       Max jobfs disk use:       0.8GB
                                       Requested jobfs:         20.0GB
=============================================================================

