 Entering Gaussian System, Link 0=/apps/gaussian/g09e01/g09/g09
 AtFile(1): /home/507/hio507/Basis/6-31pGd.gbs
 Initial command:
 /apps/gaussian/g09e01/g09/l1.exe "/jobfs/local/5875175.r-man2/Gau-37233.inp" -scrdir="/jobfs/local/5875175.r-man2/"
 Entering Link 1 = /apps/gaussian/g09e01/g09/l1.exe PID=     37234.
  
 Copyright (c) 1988,1990,1992,1993,1995,1998,2003,2009,2015,
            Gaussian, Inc.  All Rights Reserved.
  
 This is part of the Gaussian(R) 09 program.  It is based on
 the Gaussian(R) 03 system (copyright 2003, Gaussian, Inc.),
 the Gaussian(R) 98 system (copyright 1998, Gaussian, Inc.),
 the Gaussian(R) 94 system (copyright 1995, Gaussian, Inc.),
 the Gaussian 92(TM) system (copyright 1992, Gaussian, Inc.),
 the Gaussian 90(TM) system (copyright 1990, Gaussian, Inc.),
 the Gaussian 88(TM) system (copyright 1988, Gaussian, Inc.),
 the Gaussian 86(TM) system (copyright 1986, Carnegie Mellon
 University), and the Gaussian 82(TM) system (copyright 1983,
 Carnegie Mellon University). Gaussian is a federally registered
 trademark of Gaussian, Inc.
  
 This software contains proprietary and confidential information,
 including trade secrets, belonging to Gaussian, Inc.
  
 This software is provided under written license and may be
 used, copied, transmitted, or stored only in accord with that
 written license.
  
 The following legend is applicable only to US Government
 contracts under FAR:
  
                    RESTRICTED RIGHTS LEGEND
  
 Use, reproduction and disclosure by the US Government is
 subject to restrictions as set forth in subparagraphs (a)
 and (c) of the Commercial Computer Software - Restricted
 Rights clause in FAR 52.227-19.
  
 Gaussian, Inc.
 340 Quinnipiac St., Bldg. 40, Wallingford CT 06492
  
  
 ---------------------------------------------------------------
 Warning -- This program may not be used in any manner that
 competes with the business of Gaussian, Inc. or will provide
 assistance to any competitor of Gaussian, Inc.  The licensee
 of this program is prohibited from giving any competitor of
 Gaussian, Inc. access to this program.  By using this program,
 the user acknowledges that Gaussian, Inc. is engaged in the
 business of creating and licensing software in the field of
 computational chemistry and represents and warrants to the
 licensee that it is not a competitor of Gaussian, Inc. and that
 it will not use this program in any manner prohibited above.
 ---------------------------------------------------------------
  

 Cite this work as:
 Gaussian 09, Revision E.01,
 M. J. Frisch, G. W. Trucks, H. B. Schlegel, G. E. Scuseria, 
 M. A. Robb, J. R. Cheeseman, G. Scalmani, V. Barone, B. Mennucci, 
 G. A. Petersson, H. Nakatsuji, M. Caricato, X. Li, H. P. Hratchian, 
 A. F. Izmaylov, J. Bloino, G. Zheng, J. L. Sonnenberg, M. Hada, 
 M. Ehara, K. Toyota, R. Fukuda, J. Hasegawa, M. Ishida, T. Nakajima, 
 Y. Honda, O. Kitao, H. Nakai, T. Vreven, J. A. Montgomery, Jr., 
 J. E. Peralta, F. Ogliaro, M. Bearpark, J. J. Heyd, E. Brothers, 
 K. N. Kudin, V. N. Staroverov, T. Keith, R. Kobayashi, J. Normand, 
 K. Raghavachari, A. Rendell, J. C. Burant, S. S. Iyengar, J. Tomasi, 
 M. Cossi, N. Rega, J. M. Millam, M. Klene, J. E. Knox, J. B. Cross, 
 V. Bakken, C. Adamo, J. Jaramillo, R. Gomperts, R. E. Stratmann, 
 O. Yazyev, A. J. Austin, R. Cammi, C. Pomelli, J. W. Ochterski, 
 R. L. Martin, K. Morokuma, V. G. Zakrzewski, G. A. Voth, 
 P. Salvador, J. J. Dannenberg, S. Dapprich, A. D. Daniels, 
 O. Farkas, J. B. Foresman, J. V. Ortiz, J. Cioslowski, 
 and D. J. Fox, Gaussian, Inc., Wallingford CT, 2013.
 
 ******************************************
 Gaussian 09:  ES64L-G09RevE.01 30-Nov-2015
                19-Feb-2019 
 ******************************************
 %chk=4Ketone_EtO.M062X_6-31pGd_opt_Pentadecane.chk
 %mem=196608000
 %nproc=8
 Will use up to    8 processors via shared memory.
 ----------------------------------------------------------------------
 # M062X/Gen 6D SCF=Tight INT(grid=ultrafine) OPT IOP(2/17=4) SCRF=(SMD
 ,Solvent=n-Pentadecane) maxdisk=2684354560
 ----------------------------------------------------------------------
 1/14=-1,18=20,19=15,26=4,38=1/1,3;
 2/9=110,12=2,17=4,18=5,40=1/2;
 3/5=7,8=2,11=2,16=1,25=1,30=1,70=32201,71=1,72=151,74=-55,75=-5/1,2,3;
 4//1;
 5/5=2,32=2,38=5,53=151/2;
 6/7=2,8=2,9=2,10=2,28=1/1;
 7//1,2,3,16;
 1/14=-1,18=20,19=15,26=4/3(2);
 2/9=110,17=4/2;
 99//99;
 2/9=110,17=4/2;
 3/5=7,6=1,8=2,11=2,16=1,25=1,30=1,70=32205,71=1,72=151,74=-55,75=-5,82=7/1,2,3;
 4/5=5,16=3,69=1/1;
 5/5=2,32=2,38=5,53=151/2;
 7//1,2,3,16;
 1/14=-1,18=20,19=15,26=4/3(-5);
 2/9=110,17=4/2;
 6/7=2,8=2,9=2,10=2,19=2,28=1/1;
 99/9=1/99;
 -----------------------------------------
 4Ketone_EtO.M062X_6-31pGd_opt_Pentadecane
 -----------------------------------------
 Symbolic Z-matrix:
 Charge = -1 Multiplicity = 1
 C                    -2.16603   2.65955  -0.11772 
 C                    -0.90256   1.8232    0.06216 
 C                     0.35677   2.66379  -0.17318 
 N                     1.56087   1.86703  -0.00184 
 C                     2.80258   2.40967  -0.1626 
 O                     2.89881   3.59017  -0.45648 
 N                     3.91564   1.62591   0.00779 
 C                     5.29743   2.023    -0.11977 
 C                     5.72927   3.32747  -0.45651 
 C                     6.28847   1.05059   0.10472 
 C                     7.6466    1.35665   0.00048 
 C                     8.07537   2.65306  -0.33416 
 C                     7.09077   3.63284  -0.56075 
 H                    -3.06031   2.02549   0.05872 
 H                    -2.21626   3.06598  -1.15038 
 H                    -2.17827   3.50143   0.60698 
 H                    -0.92504   0.97812  -0.65994 
 H                    -0.88703   1.41284   1.09535 
 H                     0.37133   3.50848   0.55061 
 H                     0.33349   3.07324  -1.2073 
 H                     1.46094   0.76292   0.2734 
 H                     3.72784   0.53076   0.28318 
 H                     5.05813   4.14322  -0.64846 
 H                     6.01772   0.03674   0.36521 
 H                     8.3638    0.56637   0.1848 
 C                     9.54469   2.93527  -0.43474 
 H                     7.34217   4.64738  -0.82104 
 O                     10.33573   2.02755  -0.22217 
 C                     10.13491   4.27728  -0.78446 
 H                     9.3938    5.07192  -0.96966 
 H                     10.78764   4.61574   0.04747 
 H                     10.75249   4.1754   -1.70148 
 O                     1.23605  -1.24479   0.74685 
 O                     3.45237  -1.47202   0.75645 
 C                     2.20552  -1.97495   0.89833 
 C                     1.98722  -3.42371   1.24062 
 C                     3.29482  -4.19724   1.39515 
 H                     1.38449  -3.89579   0.43522 
 H                     1.41911  -3.4857    2.19361 
 H                     3.87316  -4.17162   0.44686 
 H                     3.07266  -5.25584   1.64631 
 H                     3.90801  -3.7601    2.21203 
 
 Add virtual bond connecting atoms O33        and H21        Dist= 3.92D+00.
 Add virtual bond connecting atoms O34        and H22        Dist= 3.92D+00.

 GradGradGradGradGradGradGradGradGradGradGradGradGradGradGradGradGradGrad
 Berny optimization.
 Initialization pass.
                           ----------------------------
                           !    Initial Parameters    !
                           ! (Angstroms and Degrees)  !
 --------------------------                            --------------------------
 ! Name  Definition              Value          Derivative Info.                !
 --------------------------------------------------------------------------------
 ! R1    R(1,2)                  1.5258         estimate D2E/DX2                !
 ! R2    R(1,14)                 1.1104         estimate D2E/DX2                !
 ! R3    R(1,15)                 1.1109         estimate D2E/DX2                !
 ! R4    R(1,16)                 1.1109         estimate D2E/DX2                !
 ! R5    R(2,3)                  1.5323         estimate D2E/DX2                !
 ! R6    R(2,17)                 1.1118         estimate D2E/DX2                !
 ! R7    R(2,18)                 1.1118         estimate D2E/DX2                !
 ! R8    R(3,4)                  1.454          estimate D2E/DX2                !
 ! R9    R(3,19)                 1.1125         estimate D2E/DX2                !
 ! R10   R(3,20)                 1.1125         estimate D2E/DX2                !
 ! R11   R(4,5)                  1.3646         estimate D2E/DX2                !
 ! R12   R(4,21)                 1.1423         estimate D2E/DX2                !
 ! R13   R(5,6)                  1.2203         estimate D2E/DX2                !
 ! R14   R(5,7)                  1.3719         estimate D2E/DX2                !
 ! R15   R(7,8)                  1.4434         estimate D2E/DX2                !
 ! R16   R(7,22)                 1.1448         estimate D2E/DX2                !
 ! R17   R(8,9)                  1.4148         estimate D2E/DX2                !
 ! R18   R(8,10)                 1.4065         estimate D2E/DX2                !
 ! R19   R(9,13)                 1.3992         estimate D2E/DX2                !
 ! R20   R(9,23)                 1.0736         estimate D2E/DX2                !
 ! R21   R(10,11)                1.3961         estimate D2E/DX2                !
 ! R22   R(10,24)                1.0812         estimate D2E/DX2                !
 ! R23   R(11,12)                1.4059         estimate D2E/DX2                !
 ! R24   R(11,25)                1.083          estimate D2E/DX2                !
 ! R25   R(12,13)                1.4074         estimate D2E/DX2                !
 ! R26   R(12,26)                1.4996         estimate D2E/DX2                !
 ! R27   R(13,27)                1.0771         estimate D2E/DX2                !
 ! R28   R(21,33)                2.075          estimate D2E/DX2                !
 ! R29   R(22,34)                2.0763         estimate D2E/DX2                !
 ! R30   R(26,28)                1.2227         estimate D2E/DX2                !
 ! R31   R(26,29)                1.5072         estimate D2E/DX2                !
 ! R32   R(29,30)                1.1023         estimate D2E/DX2                !
 ! R33   R(29,31)                1.1103         estimate D2E/DX2                !
 ! R34   R(29,32)                1.1103         estimate D2E/DX2                !
 ! R35   R(33,35)                1.2231         estimate D2E/DX2                !
 ! R36   R(34,35)                1.3519         estimate D2E/DX2                !
 ! R37   R(35,36)                1.5046         estimate D2E/DX2                !
 ! R38   R(36,37)                1.5271         estimate D2E/DX2                !
 ! R39   R(36,38)                1.1112         estimate D2E/DX2                !
 ! R40   R(36,39)                1.1112         estimate D2E/DX2                !
 ! R41   R(37,40)                1.111          estimate D2E/DX2                !
 ! R42   R(37,41)                1.1104         estimate D2E/DX2                !
 ! R43   R(37,42)                1.111          estimate D2E/DX2                !
 ! A1    A(2,1,14)             109.5831         estimate D2E/DX2                !
 ! A2    A(2,1,15)             110.3383         estimate D2E/DX2                !
 ! A3    A(2,1,16)             110.3409         estimate D2E/DX2                !
 ! A4    A(14,1,15)            108.6759         estimate D2E/DX2                !
 ! A5    A(14,1,16)            108.6762         estimate D2E/DX2                !
 ! A6    A(15,1,16)            109.187          estimate D2E/DX2                !
 ! A7    A(1,2,3)              111.2073         estimate D2E/DX2                !
 ! A8    A(1,2,17)             108.8638         estimate D2E/DX2                !
 ! A9    A(1,2,18)             108.8703         estimate D2E/DX2                !
 ! A10   A(3,2,17)             109.5024         estimate D2E/DX2                !
 ! A11   A(3,2,18)             109.4951         estimate D2E/DX2                !
 ! A12   A(17,2,18)            108.8624         estimate D2E/DX2                !
 ! A13   A(2,3,4)              111.2172         estimate D2E/DX2                !
 ! A14   A(2,3,19)             109.1091         estimate D2E/DX2                !
 ! A15   A(2,3,20)             109.116          estimate D2E/DX2                !
 ! A16   A(4,3,19)             109.1823         estimate D2E/DX2                !
 ! A17   A(4,3,20)             109.1815         estimate D2E/DX2                !
 ! A18   A(19,3,20)            109.0023         estimate D2E/DX2                !
 ! A19   A(3,4,5)              121.4511         estimate D2E/DX2                !
 ! A20   A(3,4,21)             119.0533         estimate D2E/DX2                !
 ! A21   A(5,4,21)             119.4956         estimate D2E/DX2                !
 ! A22   A(4,5,6)              118.9993         estimate D2E/DX2                !
 ! A23   A(4,5,7)              119.7646         estimate D2E/DX2                !
 ! A24   A(6,5,7)              121.2361         estimate D2E/DX2                !
 ! A25   A(5,7,8)              127.4849         estimate D2E/DX2                !
 ! A26   A(5,7,22)             116.315          estimate D2E/DX2                !
 ! A27   A(8,7,22)             116.2002         estimate D2E/DX2                !
 ! A28   A(7,8,9)              124.536          estimate D2E/DX2                !
 ! A29   A(7,8,10)             118.051          estimate D2E/DX2                !
 ! A30   A(9,8,10)             117.413          estimate D2E/DX2                !
 ! A31   A(8,9,13)             121.0628         estimate D2E/DX2                !
 ! A32   A(8,9,23)             123.5258         estimate D2E/DX2                !
 ! A33   A(13,9,23)            115.4113         estimate D2E/DX2                !
 ! A34   A(8,10,11)            121.4657         estimate D2E/DX2                !
 ! A35   A(8,10,24)            120.6845         estimate D2E/DX2                !
 ! A36   A(11,10,24)           117.8499         estimate D2E/DX2                !
 ! A37   A(10,11,12)           121.1058         estimate D2E/DX2                !
 ! A38   A(10,11,25)           118.1349         estimate D2E/DX2                !
 ! A39   A(12,11,25)           120.7593         estimate D2E/DX2                !
 ! A40   A(11,12,13)           117.8344         estimate D2E/DX2                !
 ! A41   A(11,12,26)           119.2316         estimate D2E/DX2                !
 ! A42   A(13,12,26)           122.934          estimate D2E/DX2                !
 ! A43   A(9,13,12)            121.1183         estimate D2E/DX2                !
 ! A44   A(9,13,27)            116.7864         estimate D2E/DX2                !
 ! A45   A(12,13,27)           122.0953         estimate D2E/DX2                !
 ! A46   A(12,26,28)           118.8527         estimate D2E/DX2                !
 ! A47   A(12,26,29)           124.53           estimate D2E/DX2                !
 ! A48   A(28,26,29)           116.6173         estimate D2E/DX2                !
 ! A49   A(26,29,30)           114.6828         estimate D2E/DX2                !
 ! A50   A(26,29,31)           109.1347         estimate D2E/DX2                !
 ! A51   A(26,29,32)           109.1332         estimate D2E/DX2                !
 ! A52   A(30,29,31)           107.5419         estimate D2E/DX2                !
 ! A53   A(30,29,32)           107.5398         estimate D2E/DX2                !
 ! A54   A(31,29,32)           108.653          estimate D2E/DX2                !
 ! A55   A(21,33,35)           121.3303         estimate D2E/DX2                !
 ! A56   A(22,34,35)           120.3395         estimate D2E/DX2                !
 ! A57   A(33,35,34)           119.7326         estimate D2E/DX2                !
 ! A58   A(33,35,36)           119.2097         estimate D2E/DX2                !
 ! A59   A(34,35,36)           121.0577         estimate D2E/DX2                !
 ! A60   A(35,36,37)           112.7388         estimate D2E/DX2                !
 ! A61   A(35,36,38)           108.8372         estimate D2E/DX2                !
 ! A62   A(35,36,39)           108.8447         estimate D2E/DX2                !
 ! A63   A(37,36,38)           108.8197         estimate D2E/DX2                !
 ! A64   A(37,36,39)           108.8279         estimate D2E/DX2                !
 ! A65   A(38,36,39)           108.6983         estimate D2E/DX2                !
 ! A66   A(36,37,40)           110.345          estimate D2E/DX2                !
 ! A67   A(36,37,41)           109.5402         estimate D2E/DX2                !
 ! A68   A(36,37,42)           110.3457         estimate D2E/DX2                !
 ! A69   A(40,37,41)           108.6132         estimate D2E/DX2                !
 ! A70   A(40,37,42)           109.3406         estimate D2E/DX2                !
 ! A71   A(41,37,42)           108.615          estimate D2E/DX2                !
 ! A72   L(4,21,33,2,-1)       178.8102         estimate D2E/DX2                !
 ! A73   L(7,22,34,1,-1)       181.8329         estimate D2E/DX2                !
 ! A74   L(4,21,33,2,-2)       179.2101         estimate D2E/DX2                !
 ! A75   L(7,22,34,1,-2)       179.2073         estimate D2E/DX2                !
 ! D1    D(14,1,2,3)          -179.9935         estimate D2E/DX2                !
 ! D2    D(14,1,2,17)           59.2761         estimate D2E/DX2                !
 ! D3    D(14,1,2,18)          -59.2679         estimate D2E/DX2                !
 ! D4    D(15,1,2,3)            60.3804         estimate D2E/DX2                !
 ! D5    D(15,1,2,17)          -60.35           estimate D2E/DX2                !
 ! D6    D(15,1,2,18)         -178.894          estimate D2E/DX2                !
 ! D7    D(16,1,2,3)           -60.3654         estimate D2E/DX2                !
 ! D8    D(16,1,2,17)          178.9042         estimate D2E/DX2                !
 ! D9    D(16,1,2,18)           60.3602         estimate D2E/DX2                !
 ! D10   D(1,2,3,4)           -179.9994         estimate D2E/DX2                !
 ! D11   D(1,2,3,19)            59.5016         estimate D2E/DX2                !
 ! D12   D(1,2,3,20)           -59.4968         estimate D2E/DX2                !
 ! D13   D(17,2,3,4)           -59.6455         estimate D2E/DX2                !
 ! D14   D(17,2,3,19)          179.8554         estimate D2E/DX2                !
 ! D15   D(17,2,3,20)           60.857          estimate D2E/DX2                !
 ! D16   D(18,2,3,4)            59.6435         estimate D2E/DX2                !
 ! D17   D(18,2,3,19)          -60.8556         estimate D2E/DX2                !
 ! D18   D(18,2,3,20)         -179.854          estimate D2E/DX2                !
 ! D19   D(2,3,4,5)           -179.9803         estimate D2E/DX2                !
 ! D20   D(2,3,4,21)             0.0194         estimate D2E/DX2                !
 ! D21   D(19,3,4,5)           -59.5244         estimate D2E/DX2                !
 ! D22   D(19,3,4,21)          120.4753         estimate D2E/DX2                !
 ! D23   D(20,3,4,5)            59.5558         estimate D2E/DX2                !
 ! D24   D(20,3,4,21)         -120.4445         estimate D2E/DX2                !
 ! D25   D(3,4,5,6)              0.0088         estimate D2E/DX2                !
 ! D26   D(3,4,5,7)            179.9851         estimate D2E/DX2                !
 ! D27   D(21,4,5,6)          -179.9908         estimate D2E/DX2                !
 ! D28   D(21,4,5,7)            -0.0146         estimate D2E/DX2                !
 ! D29   D(3,4,33,35)          179.5898         estimate D2E/DX2                !
 ! D30   D(5,4,33,35)            0.1317         estimate D2E/DX2                !
 ! D31   D(4,5,7,8)           -179.9932         estimate D2E/DX2                !
 ! D32   D(4,5,7,22)            -0.013          estimate D2E/DX2                !
 ! D33   D(6,5,7,8)             -0.0175         estimate D2E/DX2                !
 ! D34   D(6,5,7,22)           179.9627         estimate D2E/DX2                !
 ! D35   D(5,7,8,9)             -0.2261         estimate D2E/DX2                !
 ! D36   D(5,7,8,10)           179.7839         estimate D2E/DX2                !
 ! D37   D(22,7,8,9)           179.7937         estimate D2E/DX2                !
 ! D38   D(22,7,8,10)           -0.1963         estimate D2E/DX2                !
 ! D39   D(5,7,34,35)           -0.1071         estimate D2E/DX2                !
 ! D40   D(8,7,34,35)         -179.6319         estimate D2E/DX2                !
 ! D41   D(7,8,9,13)          -179.9928         estimate D2E/DX2                !
 ! D42   D(7,8,9,23)            -0.0142         estimate D2E/DX2                !
 ! D43   D(10,8,9,13)           -0.0027         estimate D2E/DX2                !
 ! D44   D(10,8,9,23)          179.9759         estimate D2E/DX2                !
 ! D45   D(7,8,10,11)          179.9984         estimate D2E/DX2                !
 ! D46   D(7,8,10,24)           -0.0142         estimate D2E/DX2                !
 ! D47   D(9,8,10,11)            0.0076         estimate D2E/DX2                !
 ! D48   D(9,8,10,24)          179.9951         estimate D2E/DX2                !
 ! D49   D(8,9,13,12)           -0.0026         estimate D2E/DX2                !
 ! D50   D(8,9,13,27)          179.9944         estimate D2E/DX2                !
 ! D51   D(23,9,13,12)        -179.9828         estimate D2E/DX2                !
 ! D52   D(23,9,13,27)           0.0142         estimate D2E/DX2                !
 ! D53   D(8,10,11,12)          -0.0074         estimate D2E/DX2                !
 ! D54   D(8,10,11,25)         179.994          estimate D2E/DX2                !
 ! D55   D(24,10,11,12)       -179.9952         estimate D2E/DX2                !
 ! D56   D(24,10,11,25)          0.0063         estimate D2E/DX2                !
 ! D57   D(10,11,12,13)          0.0019         estimate D2E/DX2                !
 ! D58   D(10,11,12,26)       -179.9955         estimate D2E/DX2                !
 ! D59   D(25,11,12,13)       -179.9996         estimate D2E/DX2                !
 ! D60   D(25,11,12,26)          0.003          estimate D2E/DX2                !
 ! D61   D(11,12,13,9)           0.003          estimate D2E/DX2                !
 ! D62   D(11,12,13,27)       -179.9939         estimate D2E/DX2                !
 ! D63   D(26,12,13,9)        -179.9997         estimate D2E/DX2                !
 ! D64   D(26,12,13,27)          0.0035         estimate D2E/DX2                !
 ! D65   D(11,12,26,28)         -0.0133         estimate D2E/DX2                !
 ! D66   D(11,12,26,29)        179.9839         estimate D2E/DX2                !
 ! D67   D(13,12,26,28)        179.9894         estimate D2E/DX2                !
 ! D68   D(13,12,26,29)         -0.0134         estimate D2E/DX2                !
 ! D69   D(12,26,29,30)         -0.0023         estimate D2E/DX2                !
 ! D70   D(12,26,29,31)        120.6992         estimate D2E/DX2                !
 ! D71   D(12,26,29,32)       -120.7            estimate D2E/DX2                !
 ! D72   D(28,26,29,30)        179.995          estimate D2E/DX2                !
 ! D73   D(28,26,29,31)        -59.3035         estimate D2E/DX2                !
 ! D74   D(28,26,29,32)         59.2973         estimate D2E/DX2                !
 ! D75   D(21,33,35,34)          0.0078         estimate D2E/DX2                !
 ! D76   D(21,33,35,36)       -179.9807         estimate D2E/DX2                !
 ! D77   D(22,34,35,33)         -0.0071         estimate D2E/DX2                !
 ! D78   D(22,34,35,36)        179.9812         estimate D2E/DX2                !
 ! D79   D(33,35,36,37)        179.9809         estimate D2E/DX2                !
 ! D80   D(33,35,36,38)         59.1471         estimate D2E/DX2                !
 ! D81   D(33,35,36,39)        -59.1697         estimate D2E/DX2                !
 ! D82   D(34,35,36,37)         -0.0075         estimate D2E/DX2                !
 ! D83   D(34,35,36,38)       -120.8413         estimate D2E/DX2                !
 ! D84   D(34,35,36,39)        120.8419         estimate D2E/DX2                !
 ! D85   D(35,36,37,40)        -60.4639         estimate D2E/DX2                !
 ! D86   D(35,36,37,41)       -179.9898         estimate D2E/DX2                !
 ! D87   D(35,36,37,42)         60.4815         estimate D2E/DX2                !
 ! D88   D(38,36,37,40)         60.38           estimate D2E/DX2                !
 ! D89   D(38,36,37,41)        -59.146          estimate D2E/DX2                !
 ! D90   D(38,36,37,42)       -178.6746         estimate D2E/DX2                !
 ! D91   D(39,36,37,40)        178.6772         estimate D2E/DX2                !
 ! D92   D(39,36,37,41)         59.1512         estimate D2E/DX2                !
 ! D93   D(39,36,37,42)        -60.3774         estimate D2E/DX2                !
 --------------------------------------------------------------------------------
 Trust Radius=3.00D-01 FncErr=1.00D-07 GrdErr=1.00D-06
 Number of steps in this run=    221 maximum allowed number of steps=    252.
 GradGradGradGradGradGradGradGradGradGradGradGradGradGradGradGradGradGrad

                          Input orientation:                          
 ---------------------------------------------------------------------
 Center     Atomic      Atomic             Coordinates (Angstroms)
 Number     Number       Type             X           Y           Z
 ---------------------------------------------------------------------
      1          6           0       -2.166030    2.659550   -0.117720
      2          6           0       -0.902560    1.823200    0.062160
      3          6           0        0.356770    2.663790   -0.173180
      4          7           0        1.560870    1.867030   -0.001840
      5          6           0        2.802580    2.409670   -0.162600
      6          8           0        2.898810    3.590170   -0.456480
      7          7           0        3.915640    1.625910    0.007790
      8          6           0        5.297430    2.023000   -0.119770
      9          6           0        5.729270    3.327470   -0.456510
     10          6           0        6.288470    1.050590    0.104720
     11          6           0        7.646600    1.356650    0.000480
     12          6           0        8.075370    2.653060   -0.334160
     13          6           0        7.090770    3.632840   -0.560750
     14          1           0       -3.060310    2.025490    0.058720
     15          1           0       -2.216260    3.065980   -1.150380
     16          1           0       -2.178270    3.501430    0.606980
     17          1           0       -0.925040    0.978120   -0.659940
     18          1           0       -0.887030    1.412840    1.095350
     19          1           0        0.371330    3.508480    0.550610
     20          1           0        0.333490    3.073240   -1.207300
     21          1           0        1.460940    0.762920    0.273400
     22          1           0        3.727840    0.530760    0.283180
     23          1           0        5.058130    4.143220   -0.648460
     24          1           0        6.017720    0.036740    0.365210
     25          1           0        8.363800    0.566370    0.184800
     26          6           0        9.544690    2.935270   -0.434740
     27          1           0        7.342170    4.647380   -0.821040
     28          8           0       10.335730    2.027550   -0.222170
     29          6           0       10.134910    4.277280   -0.784460
     30          1           0        9.393800    5.071920   -0.969660
     31          1           0       10.787640    4.615740    0.047470
     32          1           0       10.752490    4.175400   -1.701480
     33          8           0        1.236050   -1.244790    0.746850
     34          8           0        3.452370   -1.472020    0.756450
     35          6           0        2.205520   -1.974950    0.898330
     36          6           0        1.987220   -3.423710    1.240620
     37          6           0        3.294820   -4.197240    1.395150
     38          1           0        1.384490   -3.895790    0.435220
     39          1           0        1.419110   -3.485700    2.193610
     40          1           0        3.873160   -4.171620    0.446860
     41          1           0        3.072660   -5.255840    1.646310
     42          1           0        3.908010   -3.760100    2.212030
 ---------------------------------------------------------------------
                    Distance matrix (angstroms):
                    1          2          3          4          5
     1  C    0.000000
     2  C    1.525842   0.000000
     3  C    2.523413   1.532282   0.000000
     4  N    3.811994   2.464651   1.453974   0.000000
     5  C    4.975092   3.757995   2.458999   1.364605   0.000000
     6  O    5.160757   4.223930   2.720369   2.228451   1.220330
     7  N    6.170160   4.822544   3.711536   2.367102   1.371938
     8  C    7.490556   6.205876   4.982327   3.741673   2.525000
     9  C    7.930741   6.820045   5.420747   4.440177   3.081275
    10  C    8.609112   7.232541   6.153431   4.798763   3.750998
    11  C    9.899456   8.562103   7.408130   6.107094   4.959836
    12  C   10.243689   9.024908   7.720286   6.570159   5.281192
    13  C    9.318364   8.219254   6.814398   5.831832   4.476968
    14  H    1.110360   2.167214   3.483912   4.624293   5.879631
    15  H    1.110898   2.177283   2.781575   4.125935   5.157054
    16  H    1.110901   2.177320   2.781496   4.125905   5.156846
    17  H    2.158996   1.111798   2.172891   2.720846   4.023908
    18  H    2.159089   1.111808   2.172805   2.720722   4.023597
    19  H    2.757815   2.168305   1.112468   2.101087   2.761708
    20  H    2.757884   2.168398   1.112473   2.101080   2.761907
    21  H    4.111580   2.599028   2.243197   1.142279   2.168382
    22  H    6.279345   4.812469   4.015245   2.561760   2.141291
    23  H    7.394014   6.435627   4.951504   4.222557   2.885959
    24  H    8.607329   7.153569   6.263993   4.831997   4.030695
    25  H   10.740123   9.352010   8.284917   6.928666   5.869038
    26  C   11.718254  10.518015   9.195651   8.066593   6.768040
    27  H    9.739199   8.759658   7.290416   6.467215   5.103799
    28  O   12.518160  11.243743   9.999342   8.779093   7.543071
    29  C   12.424762  11.338652   9.929201   8.940691   7.591952
    30  H   11.839552  10.845915   9.386234   8.518379   7.154237
    31  H   13.101585  12.019121  10.614228   9.627623   8.286861
    32  H   13.103215  12.020127  10.615633   9.628251   8.287763
    33  O    5.250286   3.801975   4.110546   3.217059   4.078749
    34  O    7.028546   5.505082   5.248988   3.911781   4.041584
    35  C    6.451465   4.978482   5.107242   3.998336   4.550489
    36  C    7.490035   6.104888   6.458704   5.451368   6.054929
    37  C    8.895236   7.459260   7.626633   6.460150   6.805890
    38  H    7.475588   6.170625   6.667417   5.782061   6.490546
    39  H    7.480613   6.173949   6.674316   5.787211   6.497777
    40  H    9.135395   7.674201   7.711827   6.481768   6.695593
    41  H    9.654485   8.271923   8.567797   7.465734   7.880682
    42  H    9.139672   7.677028   7.717959   6.486515   6.702754
                    6          7          8          9         10
     6  O    0.000000
     7  N    2.260046   0.000000
     8  C    2.884922   1.443363   0.000000
     9  C    2.842625   2.529849   1.414751   0.000000
    10  C    4.272494   2.443504   1.406463   2.410781   0.000000
    11  C    5.266776   3.740671   2.444807   2.787315   1.396086
    12  C    5.262120   4.298293   2.856552   2.444173   2.439987
    13  C    4.193474   3.799007   2.449922   1.399214   2.784699
    14  H    6.182618   6.987570   8.359646   8.900412   9.399587
    15  H    5.188469   6.404323   7.655423   7.980055   8.829921
    16  H    5.188021   6.404088   7.655064   7.980630   8.828622
    17  H    4.635303   4.929268   6.332669   7.059793   7.254287
    18  H    4.634817   4.928877   6.332168   7.060418   7.252611
    19  H    2.721959   4.049797   5.188692   5.454776   6.422818
    20  H    2.722465   4.050063   5.189068   5.453692   6.424507
    21  H    3.254771   2.615502   4.057221   5.032726   4.839034
    22  H    3.254900   1.144754   2.202898   3.517734   2.618950
    23  H    2.237271   2.841267   2.198206   1.073649   3.412532
    24  H    4.798921   2.659314   2.167776   3.404017   1.081227
    25  H    6.278592   4.576034   3.408395   3.869845   2.132575
    26  C    6.678105   5.796245   4.355532   3.835587   3.800790
    27  H    4.581926   4.642989   3.400016   2.115772   3.860598
    28  O    7.602925   6.436750   5.039343   4.792096   4.176317
    29  C    7.276045   6.807110   5.378178   4.518778   5.098752
    30  H    6.681604   6.545275   5.176724   4.090869   5.193117
    31  H    7.971160   7.494334   6.073934   5.244115   5.740741
    32  H    7.973256   7.494266   6.073904   5.244204   5.740581
    33  O    5.252581   3.995914   5.284344   6.522474   5.586416
    34  O    5.234825   3.220603   4.048107   5.448913   3.851205
    35  C    5.769465   4.084576   5.155583   6.509075   5.143364
    36  C    7.273628   5.544126   6.517269   7.903266   6.309547
    37  C    8.014307   6.018244   6.707967   8.122589   6.177934
    38  H    7.689466   6.089219   7.116965   8.476307   6.973157
    39  H    7.699378   6.094180   7.123122   8.486454   6.975103
    40  H    7.874691   5.814288   6.381452   7.778019   5.763875
    41  H    9.094165   7.124173   7.813460   9.227819   7.244929
    42  H    7.884535   5.819608   6.388429   7.789207   5.766289
                   11         12         13         14         15
    11  C    0.000000
    12  C    1.405883   0.000000
    13  C    2.409350   1.407391   0.000000
    14  H   10.727938  11.160267  10.296200   0.000000
    15  H   10.075827  10.332200   9.342901   1.804706   0.000000
    16  H   10.074522  10.331631   9.343231   1.804711   1.810904
    17  H    8.605373   9.160728   8.444560   2.484519   2.503386
    18  H    8.603763   9.160036   8.444901   2.484570   3.089179
    19  H    7.606745   7.801717   6.811862   3.770593   3.128066
    20  H    7.608350   7.802284   6.811168   3.770738   2.550396
    21  H    6.220080   6.905972   6.373950   4.699135   4.566512
    22  H    4.014809   4.877118   4.652356   6.954393   6.619272
    23  H    3.858273   3.379807   2.097571   8.419855   7.370829
    24  H    2.128013   3.401202   3.865330   9.298370   8.903468
    25  H    1.083001   2.169513   3.402894  11.517605  10.953010
    26  C    2.506831   1.499553   2.554252  12.647420  11.783428
    27  H    3.405360   2.179896   1.077146  10.763823   9.693961
    28  O    2.780486   2.347985   3.636119  13.398985  12.629029
    29  C    3.916363   2.661309   3.119637  13.412507  12.415818
    30  H    4.218662   2.827190   2.746289  12.862471  11.783461
    31  H    4.526589   3.369594   3.873354  14.088124  13.150590
    32  H    4.526430   3.369578   3.873478  14.089495  13.027778
    33  O    6.958427   7.945950   7.731678   5.443066   5.839577
    34  O    5.115118   6.291092   6.405667   7.425254   7.507517
    35  C    6.442907   7.575794   7.579043   6.666141   7.011443
    36  C    7.511216   8.744863   8.893034   7.521185   8.093343
    37  C    7.192273   8.530579   8.918797   8.994225   9.466049
    38  H    8.184812   9.394001   9.499150   7.413471   7.996610
    39  H    8.187784   9.401053   9.509355   7.415941   8.205041
    40  H    6.708195   8.052628   8.501640   9.307407   9.592448
    41  H    8.206991   9.565567  10.001248   9.651504  10.249236
    42  H    6.711866   8.060930   8.513156   9.309526   9.767694
                   16         17         18         19         20
    16  H    0.000000
    17  H    3.089137   0.000000
    18  H    2.503600   1.808720   0.000000
    19  H    2.550233   3.090102   2.504380   0.000000
    20  H    3.127922   2.504601   3.090112   1.811384   0.000000
    21  H    4.566680   2.571057   2.571179   2.966849   2.966681
    22  H    6.619053   4.768532   4.768093   4.494941   4.495258
    23  H    7.372483   6.768775   6.770582   4.879217   4.876411
    24  H    8.901504   7.080893   7.078300   6.630918   6.633520
    25  H   10.951167   9.336256   9.333995   8.524635   8.526911
    26  C   11.782763  10.653469  10.652687   9.243918   9.244571
    27  H    9.694907   9.046335   9.047349   7.195216   7.193658
    28  O   12.627748  11.318034  11.316540  10.103445  10.104888
    29  C   12.415815  11.542203  11.542178   9.884380   9.884146
    30  H   11.784101  11.105565  11.106241   9.282270   9.281186
    31  H   13.025727  12.284933  12.151318  10.487072  10.641570
    32  H   13.152482  12.152041  12.285456  10.643551  10.488781
    33  O    5.848397   3.404511   3.419345   4.835269   4.824800
    34  O    7.514097   5.212587   5.221845   5.860082   5.851762
    35  C    7.020914   4.577033   4.591275   5.792510   5.781211
    36  C    8.106193   5.609768   5.628022   7.151397   7.137051
    37  C    9.478684   6.986771   7.003624   8.284815   8.270556
    38  H    8.212285   5.503481   5.811809   7.474157   7.236702
    39  H    8.017389   5.793399   5.524505   7.260568   7.467560
    40  H    9.773492   7.125135   7.366556   8.441417   8.231252
    41  H   10.263637   7.756459   7.775217   9.236398   9.220614
    42  H    9.609829   7.352368   7.141337   8.252313   8.435849
                   21         22         23         24         25
    21  H    0.000000
    22  H    2.278778   0.000000
    23  H    5.021557   3.960744   0.000000
    24  H    4.615193   2.344000   4.337225   0.000000
    25  H    6.906226   4.637140   4.941218   2.411876   0.000000
    26  C    8.400451   6.335047   4.651241   4.634751   2.718459
    27  H    7.132720   5.588313   2.345378   4.941595   4.325516
    28  O    8.978128   6.794113   5.701828   4.790986   2.487806
    29  C    9.418469   7.498454   5.080370   6.021227   4.224589
    30  H    9.112790   7.368504   4.445637   6.207482   4.763786
    31  H   10.093691   8.159865   5.790931   6.619693   4.721362
    32  H   10.093467   8.158920   5.790995   6.619499   4.721122
    33  O    2.075001   3.094606   6.751728   4.965112   7.375705
    34  O    3.032175   2.076294   6.006926   3.001741   5.348267
    35  C    2.905317   2.995739   6.925456   4.343269   6.700138
    36  C    4.329013   4.425413   8.381977   5.383864   7.595806
    37  C    5.405981   4.876266   8.766349   5.138244   7.060558
    38  H    4.662146   5.010863   8.904812   6.077542   8.287602
    39  H    4.662588   5.011180   8.917413   6.074360   8.287539
    40  H    5.495323   4.707471   8.469973   4.723992   6.533228
    41  H    6.380282   5.980980   9.876760   6.190800   8.001894
    42  H    5.495830   4.707909   8.483375   4.719917   6.533152
                   26         27         28         29         30
    26  C    0.000000
    27  H    2.816317   0.000000
    28  O    1.222655   4.022879   0.000000
    29  C    1.507201   2.817394   2.327613   0.000000
    30  H    2.207755   2.100359   3.273249   1.102268   0.000000
    31  H    2.145095   3.553389   2.641147   1.110279   1.784781
    32  H    2.145072   3.553621   2.641081   1.110275   1.784754
    33  O    9.375636   8.629058   9.718610  10.584322  10.459260
    34  O    7.613114   7.420652   7.783658   8.949033   9.005731
    35  C    8.930328   8.555505   9.131037  10.237060  10.238122
    36  C   10.017924   9.902950  10.077381  11.392587  11.485578
    37  C    9.658264   9.975963   9.536150  11.106531  11.344920
    38  H   10.677503  10.490848  10.753735  12.035636  12.105476
    39  H   10.684668  10.503225  10.758161  12.045660  12.117542
    40  H    9.135171   9.561190   8.980096  10.588181  10.859421
    41  H   10.644821  11.063015  10.454242  12.110508  12.388008
    42  H    9.143606   9.574899   8.985422  10.599656  10.872977
                   31         32         33         34         35
    31  H    0.000000
    32  H    1.803874   0.000000
    33  O   11.227993  11.222095   0.000000
    34  O    9.558748   9.551258   2.227959   0.000000
    35  C   10.854213  10.846037   1.223091   1.351926   0.000000
    36  C   11.979305  11.967973   2.357065   2.488007   1.504567
    37  C   11.645910  11.632156   3.657292   2.803495   2.524278
    38  H   12.689197  12.548666   2.673378   3.202183   2.139670
    39  H   12.570147  12.687638   2.673631   3.202262   2.139756
    40  H   11.188710  11.027842   3.951035   2.749682   2.794675
    41  H   12.630332  12.614903   4.502298   3.905550   3.475003
    42  H   11.053023  11.186359   3.951317   2.749842   2.794824
                   36         37         38         39         40
    36  C    0.000000
    37  C    1.527104   0.000000
    38  H    1.111221   2.159097   0.000000
    39  H    1.111207   2.159193   1.805909   0.000000
    40  H    2.178576   1.111030   2.503936   3.089334   0.000000
    41  H    2.167825   1.110437   2.483222   2.483377   1.804166
    42  H    2.178584   1.111029   3.089275   2.504048   1.812840
                   41         42
    41  H    0.000000
    42  H    1.804186   0.000000
 Stoichiometry    C15H21N2O4(1-)
 Framework group  C1[X(C15H21N2O4)]
 Deg. of freedom   120
 Full point group                 C1      NOp   1
 Largest Abelian subgroup         C1      NOp   1
 Largest concise Abelian subgroup C1      NOp   1
                         Standard orientation:                         
 ---------------------------------------------------------------------
 Center     Atomic      Atomic             Coordinates (Angstroms)
 Number     Number       Type             X           Y           Z
 ---------------------------------------------------------------------
      1          6           0       -5.458124   -3.510599    0.000358
      2          6           0       -4.566326   -2.272516   -0.006045
      3          6           0       -3.083244   -2.657628    0.000713
      4          7           0       -2.233247   -1.478006   -0.005371
      5          6           0       -0.872530   -1.580866   -0.001353
      6          8           0       -0.363073   -2.689732    0.007383
      7          7           0       -0.103597   -0.444681   -0.007644
      8          6           0        1.337227   -0.359152   -0.004920
      9          6           0        2.206904   -1.474936    0.009615
     10          6           0        1.923941    0.919030   -0.017324
     11          6           0        3.310171    1.084614   -0.015574
     12          6           0        4.174095   -0.024410   -0.001140
     13          6           0        3.596069   -1.307561    0.011454
     14          1           0       -6.524488   -3.201180   -0.004851
     15          1           0       -5.268507   -4.118319    0.910752
     16          1           0       -5.263447   -4.131389   -0.900098
     17          1           0       -4.794907   -1.660201    0.893353
     18          1           0       -4.789865   -1.673036   -0.915315
     19          1           0       -2.862393   -3.271954   -0.900072
     20          1           0       -2.867188   -3.259141    0.911261
     21          1           0       -2.719092   -0.444233   -0.013701
     22          1           0       -0.668975    0.550675   -0.016376
     23          1           0        1.865477   -2.492795    0.020206
     24          1           0        1.309039    1.808309   -0.028778
     25          1           0        3.704002    2.093419   -0.025641
     26          6           0        5.656450    0.202046    0.000289
     27          1           0        4.193017   -2.204091    0.022957
     28          8           0        6.077991    1.349675   -0.011426
     29          6           0        6.688476   -0.896293    0.015398
     30          1           0        6.273730   -1.917505    0.025803
     31          1           0        7.330372   -0.804967   -0.885906
     32          1           0        7.325528   -0.784666    0.917847
     33          8           0       -3.640395    1.414983   -0.001654
     34          8           0       -1.636107    2.387929   -0.004248
     35          6           0       -2.986657    2.448700    0.000947
     36          6           0       -3.704114    3.771158    0.010177
     37          6           0       -2.747626    4.961607    0.012868
     38          1           0       -4.345851    3.824883    0.915770
     39          1           0       -4.352434    3.834066   -0.890103
     40          1           0       -2.102184    4.936483    0.916838
     41          1           0       -3.330776    5.906571    0.019896
     42          1           0       -2.108752    4.945873   -0.895966
 ---------------------------------------------------------------------
 Rotational constants (GHZ):      0.3446056      0.1272081      0.0932510
 General basis read from cards:  (6D, 7F)
 There are   441 symmetry adapted cartesian basis functions of A   symmetry.
 There are   441 symmetry adapted basis functions of A   symmetry.
   441 basis functions,   756 primitive gaussians,   441 cartesian basis functions
    79 alpha electrons       79 beta electrons
       nuclear repulsion energy      1564.0498751725 Hartrees.
 NAtoms=   42 NActive=   42 NUniq=   42 SFac= 1.00D+00 NAtFMM=   60 NAOKFM=F Big=F
 Integral buffers will be    131072 words long.
 Raffenetti 2 integral format.
 Two-electron integral symmetry is turned on.
 ------------------------------------------------------------------------------
 Polarizable Continuum Model (PCM)
 =================================
 Model                : PCM (using non-symmetric T matrix).
 Atomic radii         : SMD-Coulomb.
 Polarization charges : Total charges.
 Charge compensation  : None.
 Solution method      : On-the-fly selection.
 Cavity type          : VdW (van der Waals Surface) (Alpha=1.000).
 Cavity algorithm     : GePol (No added spheres)
                        Default sphere list used, NSphG=   42.
                        Lebedev-Laikov grids with approx.  5.0 points / Ang**2.
                        Smoothing algorithm: York/Karplus (Gamma=1.0000).
                        Polarization charges: spherical gaussians, with
                                              point-specific exponents (IZeta= 3).
                        Self-potential: point-specific (ISelfS= 7).
                        Self-field    : sphere-specific E.n sum rule (ISelfD= 2).
 1st derivatives      : Analytical E(r).r(x)/FMM algorithm (CHGder, D1EAlg=3).
                        Cavity 1st derivative terms included.
 Solvent              : n-Pentadecane, Eps=   2.033300 Eps(inf)=   2.049192
 ------------------------------------------------------------------------------
 ------------------------------------------------------------------------------
 Atomic radii for non-electrostatic terms: SMD-CDS.
 ------------------------------------------------------------------------------
 Nuclear repulsion after PCM non-electrostatic terms =     1564.0376662393 Hartrees.
 One-electron integrals computed using PRISM.
 NBasis=   441 RedAO= T EigKep=  1.75D-06  NBF=   441
 NBsUse=   439 1.00D-06 EigRej=  9.90D-07 NBFU=   439
 ExpMin= 4.38D-02 ExpMax= 5.48D+03 ExpMxC= 8.25D+02 IAcc=3 IRadAn=         5 AccDes= 0.00D+00
 Harris functional with IExCor= 1009 and IRadAn=       5 diagonalized for initial guess.
 HarFok:  IExCor= 1009 AccDes= 0.00D+00 IRadAn=         5 IDoV= 1 UseB2=F ITyADJ=14
 ICtDFT=  3500011 ScaDFX=  1.000000  1.000000  1.000000  1.000000
 FoFCou: FMM=F IPFlag=           0 FMFlag=      100000 FMFlg1=           0
         NFxFlg=           0 DoJE=T BraDBF=F KetDBF=T FulRan=T
         wScrn=  0.000000 ICntrl=     500 IOpCl=  0 I1Cent=   200000004 NGrid=           0
         NMat0=    1 NMatS0=      1 NMatT0=    0 NMatD0=    1 NMtDS0=    0 NMtDT0=    0
 Petite list used in FoFCou.
 Requested convergence on RMS density matrix=1.00D-08 within 128 cycles.
 Requested convergence on MAX density matrix=1.00D-06.
 Requested convergence on             energy=1.00D-06.
 No special actions if energy rises.
 Inv3:  Mode=1 IEnd=    34010067.
 Iteration    1 A*A^-1 deviation from unit magnitude is 6.22D-15 for   3362.
 Iteration    1 A*A^-1 deviation from orthogonality  is 2.38D-15 for   2150    133.
 Iteration    1 A^-1*A deviation from unit magnitude is 5.77D-15 for   3362.
 Iteration    1 A^-1*A deviation from orthogonality  is 2.35D-14 for   1757   1755.
 Error on total polarization charges =  0.03067
 SCF Done:  E(RM062X) =  -994.400908529     A.U. after   15 cycles
            NFock= 15  Conv=0.95D-08     -V/T= 2.0095
 SMD-CDS (non-electrostatic) energy       (kcal/mol) =      -7.66
 (included in total energy above)

 **********************************************************************

            Population analysis using the SCF density.

 **********************************************************************

 Orbital symmetries:
       Occupied  (A) (A) (A) (A) (A) (A) (A) (A) (A) (A) (A) (A)
                 (A) (A) (A) (A) (A) (A) (A) (A) (A) (A) (A) (A)
                 (A) (A) (A) (A) (A) (A) (A) (A) (A) (A) (A) (A)
                 (A) (A) (A) (A) (A) (A) (A) (A) (A) (A) (A) (A)
                 (A) (A) (A) (A) (A) (A) (A) (A) (A) (A) (A) (A)
                 (A) (A) (A) (A) (A) (A) (A) (A) (A) (A) (A) (A)
                 (A) (A) (A) (A) (A) (A) (A)
       Virtual   (A) (A) (A) (A) (A) (A) (A) (A) (A) (A) (A) (A)
                 (A) (A) (A) (A) (A) (A) (A) (A) (A) (A) (A) (A)
                 (A) (A) (A) (A) (A) (A) (A) (A) (A) (A) (A) (A)
                 (A) (A) (A) (A) (A) (A) (A) (A) (A) (A) (A) (A)
                 (A) (A) (A) (A) (A) (A) (A) (A) (A) (A) (A) (A)
                 (A) (A) (A) (A) (A) (A) (A) (A) (A) (A) (A) (A)
                 (A) (A) (A) (A) (A) (A) (A) (A) (A) (A) (A) (A)
                 (A) (A) (A) (A) (A) (A) (A) (A) (A) (A) (A) (A)
                 (A) (A) (A) (A) (A) (A) (A) (A) (A) (A) (A) (A)
                 (A) (A) (A) (A) (A) (A) (A) (A) (A) (A) (A) (A)
                 (A) (A) (A) (A) (A) (A) (A) (A) (A) (A) (A) (A)
                 (A) (A) (A) (A) (A) (A) (A) (A) (A) (A) (A) (A)
                 (A) (A) (A) (A) (A) (A) (A) (A) (A) (A) (A) (A)
                 (A) (A) (A) (A) (A) (A) (A) (A) (A) (A) (A) (A)
                 (A) (A) (A) (A) (A) (A) (A) (A) (A) (A) (A) (A)
                 (A) (A) (A) (A) (A) (A) (A) (A) (A) (A) (A) (A)
                 (A) (A) (A) (A) (A) (A) (A) (A) (A) (A) (A) (A)
                 (A) (A) (A) (A) (A) (A) (A) (A) (A) (A) (A) (A)
                 (A) (A) (A) (A) (A) (A) (A) (A) (A) (A) (A) (A)
                 (A) (A) (A) (A) (A) (A) (A) (A) (A) (A) (A) (A)
                 (A) (A) (A) (A) (A) (A) (A) (A) (A) (A) (A) (A)
                 (A) (A) (A) (A) (A) (A) (A) (A) (A) (A) (A) (A)
                 (A) (A) (A) (A) (A) (A) (A) (A) (A) (A) (A) (A)
                 (A) (A) (A) (A) (A) (A) (A) (A) (A) (A) (A) (A)
                 (A) (A) (A) (A) (A) (A) (A) (A) (A) (A) (A) (A)
                 (A) (A) (A) (A) (A) (A) (A) (A) (A) (A) (A) (A)
                 (A) (A) (A) (A) (A) (A) (A) (A) (A) (A) (A) (A)
                 (A) (A) (A) (A) (A) (A) (A) (A) (A) (A) (A) (A)
                 (A) (A) (A) (A) (A) (A) (A) (A) (A) (A) (A) (A)
                 (A) (A) (A) (A) (A) (A) (A) (A) (A) (A) (A) (A)
 The electronic state is 1-A.
 Alpha  occ. eigenvalues --  -19.58914 -19.53740 -19.51741 -19.49969 -14.73710
 Alpha  occ. eigenvalues --  -14.71517 -10.61242 -10.60089 -10.56577 -10.56129
 Alpha  occ. eigenvalues --  -10.52678 -10.51822 -10.51456 -10.51455 -10.51371
 Alpha  occ. eigenvalues --  -10.50611 -10.50272 -10.49929 -10.49870 -10.48327
 Alpha  occ. eigenvalues --  -10.47734  -1.12012  -1.11024  -1.07192  -0.97018
 Alpha  occ. eigenvalues --   -0.94693  -0.94193  -0.90386  -0.83008  -0.81392
 Alpha  occ. eigenvalues --   -0.79848  -0.79754  -0.78127  -0.72120  -0.67040
 Alpha  occ. eigenvalues --   -0.65607  -0.64921  -0.62163  -0.59096  -0.58713
 Alpha  occ. eigenvalues --   -0.54846  -0.53666  -0.51599  -0.50809  -0.50013
 Alpha  occ. eigenvalues --   -0.48203  -0.47502  -0.47456  -0.46401  -0.46386
 Alpha  occ. eigenvalues --   -0.45746  -0.44618  -0.44466  -0.44330  -0.43041
 Alpha  occ. eigenvalues --   -0.41815  -0.41567  -0.40965  -0.40103  -0.39777
 Alpha  occ. eigenvalues --   -0.39001  -0.38007  -0.37496  -0.37347  -0.36925
 Alpha  occ. eigenvalues --   -0.35850  -0.34885  -0.34735  -0.34417  -0.33191
 Alpha  occ. eigenvalues --   -0.31064  -0.28289  -0.27282  -0.26289  -0.24857
 Alpha  occ. eigenvalues --   -0.24135  -0.22720  -0.21784  -0.21435
 Alpha virt. eigenvalues --    0.02164   0.05553   0.06494   0.06869   0.07357
 Alpha virt. eigenvalues --    0.07841   0.08083   0.08457   0.08931   0.09003
 Alpha virt. eigenvalues --    0.09361   0.09700   0.10345   0.10600   0.10773
 Alpha virt. eigenvalues --    0.11370   0.11457   0.11738   0.12030   0.12115
 Alpha virt. eigenvalues --    0.12896   0.13307   0.13598   0.13800   0.14147
 Alpha virt. eigenvalues --    0.14425   0.14772   0.14959   0.15924   0.15997
 Alpha virt. eigenvalues --    0.16199   0.16784   0.17298   0.17366   0.17908
 Alpha virt. eigenvalues --    0.18192   0.18396   0.18680   0.19118   0.20313
 Alpha virt. eigenvalues --    0.20328   0.20815   0.21002   0.21289   0.22006
 Alpha virt. eigenvalues --    0.22191   0.22829   0.22898   0.23462   0.24067
 Alpha virt. eigenvalues --    0.24719   0.24938   0.25652   0.25921   0.26331
 Alpha virt. eigenvalues --    0.26757   0.26789   0.27739   0.28310   0.28437
 Alpha virt. eigenvalues --    0.28797   0.29311   0.29617   0.29979   0.30027
 Alpha virt. eigenvalues --    0.30369   0.30508   0.30605   0.30961   0.31493
 Alpha virt. eigenvalues --    0.31762   0.32468   0.32560   0.32892   0.32938
 Alpha virt. eigenvalues --    0.33201   0.34183   0.34385   0.34418   0.35022
 Alpha virt. eigenvalues --    0.35100   0.35655   0.36151   0.36636   0.36740
 Alpha virt. eigenvalues --    0.37232   0.37338   0.37581   0.37656   0.37890
 Alpha virt. eigenvalues --    0.38478   0.38619   0.39249   0.39420   0.39530
 Alpha virt. eigenvalues --    0.40088   0.40846   0.41056   0.41544   0.42212
 Alpha virt. eigenvalues --    0.42338   0.42792   0.43306   0.43629   0.44663
 Alpha virt. eigenvalues --    0.45162   0.45588   0.46210   0.47705   0.48124
 Alpha virt. eigenvalues --    0.48534   0.49611   0.50730   0.52119   0.52404
 Alpha virt. eigenvalues --    0.53223   0.53810   0.54277   0.57162   0.57248
 Alpha virt. eigenvalues --    0.58591   0.59752   0.60920   0.62191   0.63639
 Alpha virt. eigenvalues --    0.65553   0.67345   0.68666   0.73480   0.73726
 Alpha virt. eigenvalues --    0.74363   0.76367   0.76417   0.77198   0.77639
 Alpha virt. eigenvalues --    0.78760   0.79166   0.80805   0.80947   0.81738
 Alpha virt. eigenvalues --    0.81763   0.81999   0.82334   0.82817   0.83118
 Alpha virt. eigenvalues --    0.83539   0.85413   0.86199   0.86942   0.87061
 Alpha virt. eigenvalues --    0.87584   0.87827   0.88047   0.89301   0.90752
 Alpha virt. eigenvalues --    0.92262   0.92695   0.93538   0.93580   0.94428
 Alpha virt. eigenvalues --    0.95576   0.98154   0.99838   1.00561   1.01712
 Alpha virt. eigenvalues --    1.02789   1.03511   1.04436   1.05244   1.05599
 Alpha virt. eigenvalues --    1.05917   1.06821   1.08097   1.10000   1.10494
 Alpha virt. eigenvalues --    1.11733   1.11796   1.11976   1.12291   1.13626
 Alpha virt. eigenvalues --    1.14280   1.15946   1.16730   1.17201   1.18102
 Alpha virt. eigenvalues --    1.19551   1.20391   1.20558   1.21214   1.21552
 Alpha virt. eigenvalues --    1.22474   1.22757   1.23920   1.24707   1.26436
 Alpha virt. eigenvalues --    1.26965   1.28281   1.30003   1.31679   1.32940
 Alpha virt. eigenvalues --    1.33918   1.35429   1.37230   1.37265   1.38521
 Alpha virt. eigenvalues --    1.38792   1.39606   1.41353   1.41533   1.42419
 Alpha virt. eigenvalues --    1.42732   1.44156   1.46010   1.46321   1.46746
 Alpha virt. eigenvalues --    1.47649   1.48738   1.49868   1.51852   1.52190
 Alpha virt. eigenvalues --    1.52373   1.52513   1.52763   1.54482   1.55438
 Alpha virt. eigenvalues --    1.55692   1.56017   1.56712   1.59069   1.59269
 Alpha virt. eigenvalues --    1.60917   1.62167   1.62634   1.64017   1.65006
 Alpha virt. eigenvalues --    1.65163   1.66785   1.69468   1.72448   1.74585
 Alpha virt. eigenvalues --    1.79107   1.80422   1.82270   1.83877   1.84473
 Alpha virt. eigenvalues --    1.84940   1.87524   1.88892   1.91588   1.92022
 Alpha virt. eigenvalues --    1.92553   1.93483   1.93504   1.94684   1.95010
 Alpha virt. eigenvalues --    1.95079   1.96883   1.98314   2.00028   2.00456
 Alpha virt. eigenvalues --    2.01091   2.02838   2.04164   2.04317   2.04756
 Alpha virt. eigenvalues --    2.05419   2.08412   2.09077   2.10328   2.10880
 Alpha virt. eigenvalues --    2.11362   2.12095   2.13053   2.14575   2.15352
 Alpha virt. eigenvalues --    2.16504   2.17300   2.18069   2.18520   2.19015
 Alpha virt. eigenvalues --    2.21143   2.22547   2.22884   2.23839   2.23952
 Alpha virt. eigenvalues --    2.26338   2.27267   2.30760   2.32380   2.32626
 Alpha virt. eigenvalues --    2.35151   2.35501   2.36721   2.37553   2.38522
 Alpha virt. eigenvalues --    2.39079   2.41040   2.41057   2.42962   2.43530
 Alpha virt. eigenvalues --    2.43818   2.45325   2.45550   2.47633   2.51297
 Alpha virt. eigenvalues --    2.52269   2.56869   2.61748   2.62578   2.63094
 Alpha virt. eigenvalues --    2.63131   2.68068   2.69848   2.70797   2.71266
 Alpha virt. eigenvalues --    2.72175   2.74144   2.78947   2.80062   2.80211
 Alpha virt. eigenvalues --    2.80925   2.82933   2.85919   2.87480   2.91247
 Alpha virt. eigenvalues --    2.93459   2.94411   3.02971   3.04361   3.10016
 Alpha virt. eigenvalues --    3.11770   3.17922   3.20779   3.25159   3.27839
 Alpha virt. eigenvalues --    3.28655   3.34029   3.39607   3.48788   4.26625
 Alpha virt. eigenvalues --    4.28442   4.29439   4.31942   4.33893   4.35373
 Alpha virt. eigenvalues --    4.39528   4.41534   4.45610   4.47495   4.49845
 Alpha virt. eigenvalues --    4.51915   4.53920   4.55759   4.58418   4.62129
 Alpha virt. eigenvalues --    4.70209   4.71209   4.79460   4.82433   4.86120
          Condensed to atoms (all electrons):
               1          2          3          4          5          6
     1  C    5.816943  -0.192806   0.036454  -0.011387  -0.054379  -0.000718
     2  C   -0.192806   6.382532  -0.556216  -0.075783   0.211001   0.025937
     3  C    0.036454  -0.556216   7.251357   0.337127  -0.871698  -0.118342
     4  N   -0.011387  -0.075783   0.337127   7.758402   0.421586  -0.191809
     5  C   -0.054379   0.211001  -0.871698   0.421586   6.402170   0.590728
     6  O   -0.000718   0.025937  -0.118342  -0.191809   0.590728   8.363345
     7  N   -0.003671   0.019500  -0.188300  -0.374618   0.274531  -0.081989
     8  C   -0.004851   0.025444  -0.217609  -0.134044  -0.448654  -0.448708
     9  C   -0.005171  -0.019675  -0.173437  -0.032538  -0.461228   0.474061
    10  C   -0.000055   0.013750  -0.012520  -0.043090   0.016446  -0.129401
    11  C   -0.000091   0.002692  -0.012178  -0.020811  -0.217901  -0.028347
    12  C   -0.000308   0.000396  -0.026391  -0.004715  -0.270808   0.026896
    13  C   -0.000388  -0.003682  -0.019719   0.013897  -0.030686   0.151790
    14  H    0.452106  -0.128601   0.029389   0.000258  -0.002357   0.000005
    15  H    0.420730  -0.068122  -0.008918   0.000175  -0.000013  -0.000041
    16  H    0.421162  -0.068346  -0.009253   0.000157   0.000104  -0.000039
    17  H   -0.030562   0.420056  -0.072904   0.005263  -0.006564  -0.000172
    18  H   -0.030653   0.419465  -0.071737   0.005268  -0.007252  -0.000178
    19  H   -0.006029  -0.053332   0.453261  -0.056439  -0.030984   0.000761
    20  H   -0.005998  -0.053593   0.453167  -0.056489  -0.030765   0.000774
    21  H   -0.001366   0.000270  -0.059914   0.183803   0.028931   0.004763
    22  H    0.000001  -0.000520   0.003832   0.029762  -0.048099   0.003944
    23  H    0.000021  -0.000030   0.004468   0.000649   0.034991  -0.006750
    24  H   -0.000003   0.000041  -0.001065   0.000129  -0.024240   0.000101
    25  H    0.000000   0.000000   0.000030   0.000012   0.003922   0.000000
    26  C   -0.000019   0.000057  -0.003613  -0.000820  -0.106570   0.003019
    27  H   -0.000000   0.000005  -0.000174  -0.000023  -0.010978   0.000379
    28  O   -0.000000   0.000000  -0.000004  -0.000000  -0.000565   0.000003
    29  C    0.000000   0.000003   0.000098  -0.000024   0.001261  -0.000213
    30  H   -0.000000  -0.000000  -0.000001  -0.000000  -0.000230   0.000001
    31  H    0.000000   0.000000   0.000000  -0.000000   0.000006   0.000000
    32  H    0.000000   0.000000   0.000000  -0.000000   0.000007   0.000000
    33  O    0.004959   0.015849  -0.018760  -0.017799   0.009988  -0.000016
    34  O   -0.000309  -0.003220   0.011257   0.008214  -0.009637  -0.000236
    35  C   -0.002254  -0.003125   0.008151  -0.005271  -0.002959  -0.000779
    36  C    0.001226  -0.005202   0.020043  -0.009033  -0.019198  -0.000650
    37  C   -0.000119   0.000406  -0.001839   0.001635   0.000877   0.000039
    38  H    0.000016   0.000070   0.000024  -0.000029  -0.000098  -0.000000
    39  H    0.000015   0.000066   0.000024  -0.000026  -0.000098  -0.000000
    40  H    0.000001   0.000013  -0.000008  -0.000002  -0.000027  -0.000000
    41  H   -0.000000   0.000001  -0.000004  -0.000002   0.000017   0.000000
    42  H    0.000001   0.000013  -0.000008  -0.000002  -0.000027  -0.000000
               7          8          9         10         11         12
     1  C   -0.003671  -0.004851  -0.005171  -0.000055  -0.000091  -0.000308
     2  C    0.019500   0.025444  -0.019675   0.013750   0.002692   0.000396
     3  C   -0.188300  -0.217609  -0.173437  -0.012520  -0.012178  -0.026391
     4  N   -0.374618  -0.134044  -0.032538  -0.043090  -0.020811  -0.004715
     5  C    0.274531  -0.448654  -0.461228   0.016446  -0.217901  -0.270808
     6  O   -0.081989  -0.448708   0.474061  -0.129401  -0.028347   0.026896
     7  N    7.874382   0.169223  -0.053362  -0.089025  -0.056825  -0.031871
     8  C    0.169223  11.032037  -0.426946   0.962443  -1.046587  -1.076803
     9  C   -0.053362  -0.426946   9.574807  -2.211781  -1.829473  -0.377758
    10  C   -0.089025   0.962443  -2.211781   8.411196   0.980031  -0.504915
    11  C   -0.056825  -1.046587  -1.829473   0.980031   8.687921   0.460734
    12  C   -0.031871  -1.076803  -0.377758  -0.504915   0.460734  10.748435
    13  C    0.079336  -2.182533   1.903563  -1.379587  -1.321671   0.342736
    14  H    0.000007  -0.000036  -0.000000  -0.000002  -0.000000  -0.000000
    15  H    0.000013   0.000013  -0.000037   0.000006   0.000000  -0.000000
    16  H    0.000013   0.000011  -0.000033   0.000005   0.000000  -0.000000
    17  H   -0.000181  -0.000654  -0.000203   0.000141   0.000006  -0.000003
    18  H   -0.000201  -0.000663  -0.000242   0.000159   0.000007  -0.000003
    19  H   -0.000273  -0.000740  -0.002148   0.000329   0.000017  -0.000039
    20  H   -0.000348  -0.000696  -0.002032   0.000332   0.000017  -0.000033
    21  H    0.028458   0.009428  -0.003249   0.004655   0.000504  -0.000085
    22  H    0.153100   0.018998   0.018673  -0.019094  -0.000615   0.007272
    23  H   -0.012020  -0.004549   0.342485  -0.005165  -0.007398   0.008701
    24  H   -0.003422  -0.089728  -0.030135   0.354345   0.050184   0.038596
    25  H    0.000516   0.033703   0.003274  -0.067488   0.320819   0.056073
    26  C   -0.010423  -0.368063  -0.252137  -0.256044   0.282047  -3.364299
    27  H   -0.001650   0.025916  -0.108721   0.003583   0.036993   0.009080
    28  O   -0.000111   0.007728  -0.031286   0.096424   0.135816  -0.244065
    29  C    0.000066  -0.024690  -0.031634   0.022928  -0.072192  -0.607922
    30  H   -0.000002  -0.006190  -0.010266   0.002976   0.002574   0.095163
    31  H   -0.000001   0.000695   0.003876  -0.001635  -0.010292   0.005750
    32  H   -0.000001   0.000739   0.004026  -0.001703  -0.010500   0.005565
    33  O    0.008669  -0.000906  -0.004640  -0.001500  -0.002090  -0.000468
    34  O   -0.006498  -0.198611  -0.035649   0.172619   0.055712   0.003645
    35  C   -0.008259   0.036078  -0.000141  -0.038959  -0.011501  -0.002650
    36  C   -0.019571  -0.015396  -0.005250   0.013317   0.001579   0.000480
    37  C    0.002616  -0.008403  -0.000642   0.002698   0.005434   0.000187
    38  H    0.000034  -0.000196  -0.000022   0.000142   0.000008  -0.000001
    39  H    0.000035  -0.000221  -0.000023   0.000166   0.000012  -0.000001
    40  H   -0.000029  -0.000264  -0.000004  -0.000115   0.000242  -0.000006
    41  H    0.000007   0.000052   0.000002  -0.000027  -0.000028   0.000000
    42  H   -0.000032  -0.000178   0.000001  -0.000176   0.000203  -0.000008
              13         14         15         16         17         18
     1  C   -0.000388   0.452106   0.420730   0.421162  -0.030562  -0.030653
     2  C   -0.003682  -0.128601  -0.068122  -0.068346   0.420056   0.419465
     3  C   -0.019719   0.029389  -0.008918  -0.009253  -0.072904  -0.071737
     4  N    0.013897   0.000258   0.000175   0.000157   0.005263   0.005268
     5  C   -0.030686  -0.002357  -0.000013   0.000104  -0.006564  -0.007252
     6  O    0.151790   0.000005  -0.000041  -0.000039  -0.000172  -0.000178
     7  N    0.079336   0.000007   0.000013   0.000013  -0.000181  -0.000201
     8  C   -2.182533  -0.000036   0.000013   0.000011  -0.000654  -0.000663
     9  C    1.903563  -0.000000  -0.000037  -0.000033  -0.000203  -0.000242
    10  C   -1.379587  -0.000002   0.000006   0.000005   0.000141   0.000159
    11  C   -1.321671  -0.000000   0.000000   0.000000   0.000006   0.000007
    12  C    0.342736  -0.000000  -0.000000  -0.000000  -0.000003  -0.000003
    13  C    8.269092   0.000000  -0.000001  -0.000001  -0.000008  -0.000010
    14  H    0.000000   0.499205  -0.025307  -0.025331  -0.003254  -0.003258
    15  H   -0.000001  -0.025307   0.503794  -0.029881  -0.004657   0.003905
    16  H   -0.000001  -0.025331  -0.029881   0.503914   0.003901  -0.004663
    17  H   -0.000008  -0.003254  -0.004657   0.003901   0.488223  -0.028732
    18  H   -0.000010  -0.003258   0.003905  -0.004663  -0.028732   0.488969
    19  H   -0.000154  -0.000065  -0.000355   0.002988   0.003996  -0.005431
    20  H   -0.000133  -0.000065   0.002974  -0.000351  -0.005410   0.003997
    21  H   -0.000555  -0.000001  -0.000000  -0.000000   0.000621   0.000619
    22  H    0.002405  -0.000000  -0.000000  -0.000000   0.000002   0.000002
    23  H   -0.052701   0.000000  -0.000000  -0.000000  -0.000000  -0.000000
    24  H   -0.008417  -0.000000  -0.000000  -0.000000  -0.000000  -0.000000
    25  H    0.008023  -0.000000   0.000000   0.000000   0.000000  -0.000000
    26  C    0.838093  -0.000000  -0.000000  -0.000000  -0.000000  -0.000000
    27  H    0.292205  -0.000000   0.000000   0.000000   0.000000   0.000000
    28  O   -0.104262  -0.000000  -0.000000  -0.000000  -0.000000  -0.000000
    29  C   -0.072933  -0.000000   0.000000   0.000000   0.000000   0.000000
    30  H   -0.024715   0.000000   0.000000   0.000000   0.000000   0.000000
    31  H    0.007138   0.000000   0.000000   0.000000  -0.000000   0.000000
    32  H    0.007548   0.000000   0.000000   0.000000   0.000000  -0.000000
    33  O   -0.000321  -0.000024  -0.000005  -0.000005  -0.001160  -0.001130
    34  O   -0.002075  -0.000000   0.000000   0.000000   0.000005   0.000005
    35  C   -0.000581  -0.000077  -0.000002  -0.000004  -0.000164  -0.000114
    36  C   -0.000196   0.000040  -0.000003  -0.000003   0.000055   0.000092
    37  C   -0.000116  -0.000000   0.000000   0.000000  -0.000013  -0.000014
    38  H   -0.000001  -0.000000   0.000000   0.000000  -0.000000  -0.000000
    39  H   -0.000001  -0.000000   0.000000   0.000000  -0.000000  -0.000000
    40  H    0.000000   0.000000  -0.000000  -0.000000  -0.000000  -0.000000
    41  H   -0.000000   0.000000  -0.000000  -0.000000  -0.000000  -0.000000
    42  H    0.000001   0.000000  -0.000000  -0.000000  -0.000000  -0.000000
              19         20         21         22         23         24
     1  C   -0.006029  -0.005998  -0.001366   0.000001   0.000021  -0.000003
     2  C   -0.053332  -0.053593   0.000270  -0.000520  -0.000030   0.000041
     3  C    0.453261   0.453167  -0.059914   0.003832   0.004468  -0.001065
     4  N   -0.056439  -0.056489   0.183803   0.029762   0.000649   0.000129
     5  C   -0.030984  -0.030765   0.028931  -0.048099   0.034991  -0.024240
     6  O    0.000761   0.000774   0.004763   0.003944  -0.006750   0.000101
     7  N   -0.000273  -0.000348   0.028458   0.153100  -0.012020  -0.003422
     8  C   -0.000740  -0.000696   0.009428   0.018998  -0.004549  -0.089728
     9  C   -0.002148  -0.002032  -0.003249   0.018673   0.342485  -0.030135
    10  C    0.000329   0.000332   0.004655  -0.019094  -0.005165   0.354345
    11  C    0.000017   0.000017   0.000504  -0.000615  -0.007398   0.050184
    12  C   -0.000039  -0.000033  -0.000085   0.007272   0.008701   0.038596
    13  C   -0.000154  -0.000133  -0.000555   0.002405  -0.052701  -0.008417
    14  H   -0.000065  -0.000065  -0.000001  -0.000000   0.000000  -0.000000
    15  H   -0.000355   0.002974  -0.000000  -0.000000  -0.000000  -0.000000
    16  H    0.002988  -0.000351  -0.000000  -0.000000  -0.000000  -0.000000
    17  H    0.003996  -0.005410   0.000621   0.000002  -0.000000  -0.000000
    18  H   -0.005431   0.003997   0.000619   0.000002  -0.000000  -0.000000
    19  H    0.523717  -0.042749   0.001720   0.000004  -0.000000  -0.000000
    20  H   -0.042749   0.523469   0.001724   0.000004  -0.000000  -0.000000
    21  H    0.001720   0.001724   0.258667   0.004342   0.000001   0.000006
    22  H    0.000004   0.000004   0.004342   0.258787  -0.000087   0.004918
    23  H   -0.000000  -0.000000   0.000001  -0.000087   0.441261  -0.000096
    24  H   -0.000000  -0.000000   0.000006   0.004918  -0.000096   0.443102
    25  H   -0.000000  -0.000000  -0.000000  -0.000009   0.000011  -0.003700
    26  C   -0.000001  -0.000001  -0.000007   0.001081  -0.000325   0.015601
    27  H   -0.000000  -0.000000   0.000000   0.000001  -0.004885   0.000014
    28  O   -0.000000  -0.000000  -0.000000   0.000001   0.000032   0.000167
    29  C    0.000000   0.000000  -0.000000  -0.000017   0.000459   0.000012
    30  H    0.000000   0.000000  -0.000000   0.000000  -0.000006   0.000000
    31  H   -0.000000   0.000000   0.000000  -0.000000  -0.000000  -0.000000
    32  H    0.000000  -0.000000   0.000000  -0.000000  -0.000000  -0.000000
    33  O   -0.000041  -0.000041   0.040855  -0.001898   0.000001  -0.000032
    34  O   -0.000004  -0.000004   0.002655   0.057486   0.000006  -0.002400
    35  C    0.000331   0.000347  -0.004728  -0.004415  -0.000026  -0.000278
    36  C    0.000032   0.000036   0.004047   0.009523  -0.000002   0.001315
    37  C    0.000001   0.000000  -0.000771  -0.000880  -0.000000  -0.000248
    38  H    0.000000  -0.000000  -0.000003  -0.000006   0.000000  -0.000000
    39  H   -0.000000   0.000000  -0.000003  -0.000006   0.000000  -0.000000
    40  H   -0.000000   0.000000   0.000000  -0.000001   0.000000  -0.000000
    41  H   -0.000000  -0.000000   0.000000  -0.000000  -0.000000   0.000000
    42  H    0.000000  -0.000000   0.000000  -0.000001   0.000000  -0.000000
              25         26         27         28         29         30
     1  C    0.000000  -0.000019  -0.000000  -0.000000   0.000000  -0.000000
     2  C    0.000000   0.000057   0.000005   0.000000   0.000003  -0.000000
     3  C    0.000030  -0.003613  -0.000174  -0.000004   0.000098  -0.000001
     4  N    0.000012  -0.000820  -0.000023  -0.000000  -0.000024  -0.000000
     5  C    0.003922  -0.106570  -0.010978  -0.000565   0.001261  -0.000230
     6  O    0.000000   0.003019   0.000379   0.000003  -0.000213   0.000001
     7  N    0.000516  -0.010423  -0.001650  -0.000111   0.000066  -0.000002
     8  C    0.033703  -0.368063   0.025916   0.007728  -0.024690  -0.006190
     9  C    0.003274  -0.252137  -0.108721  -0.031286  -0.031634  -0.010266
    10  C   -0.067488  -0.256044   0.003583   0.096424   0.022928   0.002976
    11  C    0.320819   0.282047   0.036993   0.135816  -0.072192   0.002574
    12  C    0.056073  -3.364299   0.009080  -0.244065  -0.607922   0.095163
    13  C    0.008023   0.838093   0.292205  -0.104262  -0.072933  -0.024715
    14  H   -0.000000  -0.000000  -0.000000  -0.000000  -0.000000   0.000000
    15  H    0.000000  -0.000000   0.000000  -0.000000   0.000000   0.000000
    16  H    0.000000  -0.000000   0.000000  -0.000000   0.000000   0.000000
    17  H    0.000000  -0.000000   0.000000  -0.000000   0.000000   0.000000
    18  H   -0.000000  -0.000000   0.000000  -0.000000   0.000000   0.000000
    19  H   -0.000000  -0.000001  -0.000000  -0.000000   0.000000   0.000000
    20  H   -0.000000  -0.000001  -0.000000  -0.000000   0.000000   0.000000
    21  H   -0.000000  -0.000007   0.000000  -0.000000  -0.000000  -0.000000
    22  H   -0.000009   0.001081   0.000001   0.000001  -0.000017   0.000000
    23  H    0.000011  -0.000325  -0.004885   0.000032   0.000459  -0.000006
    24  H   -0.003700   0.015601   0.000014   0.000167   0.000012   0.000000
    25  H    0.455125  -0.063813  -0.000119   0.005710   0.003370   0.000004
    26  C   -0.063813   9.104408   0.064910   0.421195  -0.101292  -0.152287
    27  H   -0.000119   0.064910   0.500802  -0.000055  -0.016291   0.003080
    28  O    0.005710   0.421195  -0.000055   8.303048  -0.140550   0.010667
    29  C    0.003370  -0.101292  -0.016291  -0.140550   6.564413   0.421055
    30  H    0.000004  -0.152287   0.003080   0.010667   0.421055   0.495545
    31  H   -0.000004  -0.062710  -0.000039  -0.006293   0.409906  -0.025917
    32  H   -0.000004  -0.062718  -0.000038  -0.006302   0.409786  -0.025916
    33  O   -0.000000  -0.000027  -0.000000  -0.000000  -0.000001  -0.000000
    34  O    0.000000  -0.000133  -0.000000  -0.000000  -0.000000   0.000000
    35  C    0.000005  -0.000181  -0.000001  -0.000001  -0.000018  -0.000000
    36  C    0.000001  -0.000043  -0.000000  -0.000001  -0.000007  -0.000000
    37  C    0.000001   0.000003   0.000000   0.000000   0.000003   0.000000
    38  H   -0.000000  -0.000000   0.000000  -0.000000  -0.000000   0.000000
    39  H   -0.000000  -0.000000   0.000000  -0.000000  -0.000000   0.000000
    40  H   -0.000000  -0.000000  -0.000000   0.000000   0.000000   0.000000
    41  H   -0.000000   0.000000   0.000000   0.000000  -0.000000  -0.000000
    42  H   -0.000000  -0.000000  -0.000000   0.000000   0.000000   0.000000
              31         32         33         34         35         36
     1  C    0.000000   0.000000   0.004959  -0.000309  -0.002254   0.001226
     2  C    0.000000   0.000000   0.015849  -0.003220  -0.003125  -0.005202
     3  C    0.000000   0.000000  -0.018760   0.011257   0.008151   0.020043
     4  N   -0.000000  -0.000000  -0.017799   0.008214  -0.005271  -0.009033
     5  C    0.000006   0.000007   0.009988  -0.009637  -0.002959  -0.019198
     6  O    0.000000   0.000000  -0.000016  -0.000236  -0.000779  -0.000650
     7  N   -0.000001  -0.000001   0.008669  -0.006498  -0.008259  -0.019571
     8  C    0.000695   0.000739  -0.000906  -0.198611   0.036078  -0.015396
     9  C    0.003876   0.004026  -0.004640  -0.035649  -0.000141  -0.005250
    10  C   -0.001635  -0.001703  -0.001500   0.172619  -0.038959   0.013317
    11  C   -0.010292  -0.010500  -0.002090   0.055712  -0.011501   0.001579
    12  C    0.005750   0.005565  -0.000468   0.003645  -0.002650   0.000480
    13  C    0.007138   0.007548  -0.000321  -0.002075  -0.000581  -0.000196
    14  H    0.000000   0.000000  -0.000024  -0.000000  -0.000077   0.000040
    15  H    0.000000   0.000000  -0.000005   0.000000  -0.000002  -0.000003
    16  H    0.000000   0.000000  -0.000005   0.000000  -0.000004  -0.000003
    17  H   -0.000000   0.000000  -0.001160   0.000005  -0.000164   0.000055
    18  H    0.000000  -0.000000  -0.001130   0.000005  -0.000114   0.000092
    19  H   -0.000000   0.000000  -0.000041  -0.000004   0.000331   0.000032
    20  H    0.000000  -0.000000  -0.000041  -0.000004   0.000347   0.000036
    21  H    0.000000   0.000000   0.040855   0.002655  -0.004728   0.004047
    22  H   -0.000000  -0.000000  -0.001898   0.057486  -0.004415   0.009523
    23  H   -0.000000  -0.000000   0.000001   0.000006  -0.000026  -0.000002
    24  H   -0.000000  -0.000000  -0.000032  -0.002400  -0.000278   0.001315
    25  H   -0.000004  -0.000004  -0.000000   0.000000   0.000005   0.000001
    26  C   -0.062710  -0.062718  -0.000027  -0.000133  -0.000181  -0.000043
    27  H   -0.000039  -0.000038  -0.000000  -0.000000  -0.000001  -0.000000
    28  O   -0.006293  -0.006302  -0.000000  -0.000000  -0.000001  -0.000001
    29  C    0.409906   0.409786  -0.000001  -0.000000  -0.000018  -0.000007
    30  H   -0.025917  -0.025916  -0.000000   0.000000  -0.000000  -0.000000
    31  H    0.451158  -0.019230   0.000000   0.000000   0.000000   0.000000
    32  H   -0.019230   0.451129   0.000000   0.000000   0.000000   0.000000
    33  O    0.000000   0.000000   8.572274  -0.192075   0.498025  -0.315232
    34  O    0.000000   0.000000  -0.192075   8.631899   0.315838  -0.109497
    35  C    0.000000   0.000000   0.498025   0.315838   5.429150  -0.664900
    36  C    0.000000   0.000000  -0.315232  -0.109497  -0.664900   7.099678
    37  C    0.000000  -0.000000   0.040858   0.037950  -0.045335  -0.171123
    38  H    0.000000   0.000000  -0.002598   0.000829  -0.062194   0.429140
    39  H    0.000000   0.000000  -0.002641   0.000843  -0.061843   0.428899
    40  H   -0.000000   0.000000   0.000149  -0.006249  -0.009540  -0.045647
    41  H    0.000000   0.000000  -0.000245   0.002423   0.039015  -0.093914
    42  H    0.000000  -0.000000   0.000154  -0.006258  -0.009187  -0.046093
              37         38         39         40         41         42
     1  C   -0.000119   0.000016   0.000015   0.000001  -0.000000   0.000001
     2  C    0.000406   0.000070   0.000066   0.000013   0.000001   0.000013
     3  C   -0.001839   0.000024   0.000024  -0.000008  -0.000004  -0.000008
     4  N    0.001635  -0.000029  -0.000026  -0.000002  -0.000002  -0.000002
     5  C    0.000877  -0.000098  -0.000098  -0.000027   0.000017  -0.000027
     6  O    0.000039  -0.000000  -0.000000  -0.000000   0.000000  -0.000000
     7  N    0.002616   0.000034   0.000035  -0.000029   0.000007  -0.000032
     8  C   -0.008403  -0.000196  -0.000221  -0.000264   0.000052  -0.000178
     9  C   -0.000642  -0.000022  -0.000023  -0.000004   0.000002   0.000001
    10  C    0.002698   0.000142   0.000166  -0.000115  -0.000027  -0.000176
    11  C    0.005434   0.000008   0.000012   0.000242  -0.000028   0.000203
    12  C    0.000187  -0.000001  -0.000001  -0.000006   0.000000  -0.000008
    13  C   -0.000116  -0.000001  -0.000001   0.000000  -0.000000   0.000001
    14  H   -0.000000  -0.000000  -0.000000   0.000000   0.000000   0.000000
    15  H    0.000000   0.000000   0.000000  -0.000000  -0.000000  -0.000000
    16  H    0.000000   0.000000   0.000000  -0.000000  -0.000000  -0.000000
    17  H   -0.000013  -0.000000  -0.000000  -0.000000  -0.000000  -0.000000
    18  H   -0.000014  -0.000000  -0.000000  -0.000000  -0.000000  -0.000000
[...]
 .10704451,-0.07848596,-0.17777475,-0.00033909,-0.00018939,-0.00097478,
 0.11846830,0.08462906,0.19271517,0.00000566,0.00000664,-0.00000071,-0.
 00000611,-0.00001330,0.00000433,0.00001274,-0.00000207,0.00001066,0.00
 010171,0.00009479,-0.00001091,-0.00025254,0.00001126,0.00002245,0.0000
 6272,-0.00000867,-0.00001286,0.00005375,-0.00025296,0.00005478,-0.0000
 0771,-0.00002522,0.00000977,-0.00000089,-0.00000266,-0.00000007,0.0000
 1201,0.00002373,-0.00002093,-0.00000242,-0.00000383,-0.00000467,-0.000
 00258,-0.00000884,0.00000028,-0.00000894,-0.00000909,-0.00000080,-0.00
 000337,0.00000011,0.00000036,-0.00000250,0.00000148,-0.00000261,-0.000
 00127,-0.00000065,0.00000037,0.00000644,0.00000212,0.00000084,0.000011
 26,0.00000255,-0.00000343,0.00000019,-0.00000068,0.00000144,0.00000038
 ,0.00000149,-0.00000536,-0.00005040,-0.00018779,-0.00000928,0.00000862
 ,0.00035086,-0.00011088,-0.00000333,-0.00000262,0.00000395,0.00001620,
 0.00002463,0.00001775,0.00000736,0.00000508,0.00000579,0.00000919,0.00
 001039,0.00000103,-0.00000181,-0.00000232,0.00000234,-0.00000423,-0.00
 001012,-0.00000388,-0.00000268,-0.00000376,0.00000197,0.00000012,-0.00
 000121,-0.00000007,-0.00000102,-0.00000030,0.00000060,-0.00000049,0.00
 000023,-0.00000016,0.00065392,0.00133759,-0.00140501,0.00020212,-0.002
 62575,-0.00031815,-0.00506622,-0.00026858,0.00513811,-0.11655858,-0.00
 647630,0.11846121,-0.01476572,-0.00144014,0.02460420,0.00996352,0.0017
 1380,-0.01652532,0.12842486,0.00000203,0.00000388,-0.00000227,0.000006
 50,-0.00000915,0.00001313,-0.00003694,0.00003369,-0.00000414,0.0000764
 1,0.00006170,0.00001622,-0.00025592,0.00013741,-0.00000839,0.00007113,
 -0.00015101,0.00001521,-0.00010645,-0.00060369,0.00025198,0.00028521,-
 0.00000004,-0.00000436,-0.00007477,-0.00004513,0.00000461,-0.00008998,
 0.00009037,-0.00001303,0.00004658,-0.00000603,-0.00000057,-0.00009625,
 -0.00002772,0.00000713,0.00003203,-0.00001732,0.00000249,0.00000455,0.
 00000035,0.00000210,0.00000003,-0.00000018,-0.00000091,0.00000148,-0.0
 0000492,-0.00000016,-0.00000340,-0.00000008,-0.00000828,-0.00000710,0.
 00000337,0.00000369,0.00000534,-0.00001205,-0.00000198,0.00000931,-0.0
 0000577,0.00000253,-0.00006537,-0.00000839,-0.00009865,0.00007320,0.00
 097600,-0.00046250,0.00000512,0.00000144,0.00000101,0.00008161,-0.0000
 0804,0.00000077,-0.00000791,-0.00000017,0.00000092,0.00010242,-0.00001
 072,0.00000137,-0.00000650,-0.00000410,0.00000250,-0.00005490,0.000032
 01,-0.00000698,-0.00000676,-0.00000591,0.00000152,-0.00000036,-0.00000
 049,0.00000131,-0.00000326,-0.00000145,0.00000043,-0.00000036,-0.00000
 078,-0.00000106,0.00045295,-0.00037700,-0.00373766,-0.00264696,-0.0068
 8724,-0.00192516,-0.01594472,0.00110152,0.03119471,-0.00647337,-0.0460
 2827,0.01653515,0.00946845,0.00021145,-0.01550836,0.00775710,0.0007860
 3,-0.01282275,0.00544653,0.05141938,0.00000172,0.00000163,0.00000573,-
 0.00001260,0.00000697,-0.00003004,0.00007032,-0.00003634,0.00000241,-0
 .00007198,0.00003660,0.00000204,0.00019163,-0.00011511,0.00000266,-0.0
 0005147,0.00011269,-0.00001605,0.00003847,0.00032971,-0.00007429,-0.00
 014320,0.00000539,0.00000469,0.00004107,0.00002956,-0.00000657,0.00004
 238,-0.00006060,0.00000963,-0.00003439,0.,0.00000674,0.00006678,0.0000
 2672,-0.00000798,-0.00001687,0.00001399,-0.00000070,-0.00001602,-0.000
 00017,-0.00000442,0.00000089,-0.00000457,0.00000503,-0.00000191,0.0000
 0424,-0.00000058,0.00001047,0.00000310,-0.00000068,0.00001037,0.000006
 28,0.00001327,-0.00001168,0.00001249,0.00000359,-0.00001454,0.00000172
 ,-0.00000114,0.00002415,-0.00006045,0.00003958,-0.00005519,-0.00052255
 ,0.00013130,-0.00000111,0.00000028,-0.00000280,-0.00004683,-0.00000287
 ,-0.00000692,-0.00000261,-0.00000246,-0.00000187,-0.00008699,-0.000006
 94,0.00000178,0.00000485,0.00000483,-0.00000231,0.00004627,-0.00001274
 ,0.00000472,0.00000655,0.00000941,-0.00000292,0.00000015,0.00000075,-0
 .00000052,0.00000383,0.00000113,-0.00000059,0.00000051,0.00000025,0.00
 000055,-0.00162207,0.00060486,0.00185406,-0.00020001,0.00219460,0.0001
 1097,0.00507091,-0.00358322,-0.00637699,0.11703858,0.01405921,-0.24216
 862,-0.00326907,-0.00033158,0.00466538,0.01204770,0.00197926,-0.020872
 24,-0.12875488,-0.01441485,0.26043831,0.00000187,-0.00000097,-0.000004
 15,0.00000028,0.00000136,0.00001931,0.00000524,-0.00000209,0.00000475,
 0.00001972,0.00007017,-0.00004898,-0.00004639,-0.00000941,0.00002237,0
 .00001296,0.00002188,-0.00001390,-0.00001551,-0.00000771,-0.00001910,0
 .00003765,0.00000458,0.00000297,-0.00000781,0.00000428,-0.00000327,-0.
 00002599,-0.00000900,-0.00000211,0.00001237,-0.00000484,-0.00000187,-0
 .00000488,0.00000410,-0.00000018,0.00000554,0.00000312,-0.00000309,0.0
 0000171,-0.00000051,0.00000275,-0.00000232,0.00000516,-0.00000433,-0.0
 0000005,-0.00000088,0.00000029,-0.00000159,-0.00000394,0.00000374,0.00
 000244,-0.00000592,-0.00001313,-0.00000096,0.00000047,-0.00000075,-0.0
 0000053,0.00000795,-0.00000454,-0.00001356,-0.00011402,0.00004817,0.00
 001150,0.00001125,0.00001650,0.00000053,0.00000243,0.00000196,0.000018
 13,-0.00000626,0.00000624,-0.00001035,-0.00000583,0.00000138,-0.000001
 90,-0.00001099,0.00000426,-0.00000016,0.00000246,0.00000036,0.00000082
 ,0.00001051,-0.00000416,0.00000152,0.00000339,-0.00000037,0.00000019,0
 .00000027,-0.00000006,0.00000087,0.00000027,0.00000010,-0.00000007,0.0
 0000091,-0.00000048,0.00057697,0.00033056,-0.00044933,0.00122019,-0.00
 008146,-0.00083911,-0.00116378,-0.00163545,0.00082626,-0.01552483,-0.0
 0095798,0.02615544,-0.11830546,-0.00637743,0.11956287,0.00086070,-0.00
 092652,-0.00005823,-0.00476970,0.00347441,-0.00123409,0.13017398,0.000
 00006,-0.00000194,0.00000065,-0.00000311,0.00000640,-0.00000192,0.0000
 3546,-0.00002036,0.00000291,-0.00004814,0.00001766,0.00000438,0.000120
 73,-0.00008502,0.00000757,-0.00003107,0.00007485,-0.00001340,0.0000165
 6,0.00018971,-0.00004228,-0.00004254,0.00001570,0.00000582,0.00001390,
 0.00002055,-0.00000651,0.00000261,-0.00005911,0.00002500,-0.00002924,0
 .00000532,0.00000620,0.00005426,0.00002437,-0.00001006,-0.00000451,0.0
 0001448,-0.00000147,-0.00000571,-0.00000026,-0.00000015,-0.00000014,0.
 00000075,0.,-0.00000080,0.00000165,-0.00000027,0.00000460,-0.00000026,
 0.00000199,0.00000408,-0.00000167,-0.00000081,-0.00000712,0.00000754,0
 .00000135,-0.00000590,0.00000433,-0.00000261,0.00001711,-0.00005912,0.
 00001354,-0.00006148,-0.00031466,0.00006612,0.00000120,0.00000319,-0.0
 0000229,-0.00003803,-0.00004190,-0.00002771,-0.00001071,-0.00000461,-0
 .00000177,-0.00008336,0.00000105,0.00000044,0.00000305,0.00000495,-0.0
 0000139,0.00004705,-0.00001575,0.00000401,0.00000742,0.00000751,-0.000
 00206,0.00000023,0.00000040,-0.00000103,0.00000370,0.00000168,-0.00000
 038,0.00000013,0.00000051,0.00000086,-0.00082283,0.00012590,0.00022272
 ,-0.00103275,0.00012542,0.00066894,0.00159579,0.00048498,-0.00113835,0
 .00829517,0.00060928,-0.01521560,-0.00712794,-0.04799775,0.01102151,-0
 .00074803,0.00059388,0.00030482,0.00318183,-0.00153854,0.00049276,0.00
 511683,0.04795851,-0.00000270,-0.00000206,0.00000144,-0.00000004,0.000
 00865,-0.00000843,0.00001070,-0.00000664,-0.00000171,-0.00008123,-0.00
 006386,0.00003311,0.00015338,-0.00003232,-0.00000512,-0.00003990,0.000
 00494,0.00000519,-0.00010980,0.00003556,0.00000990,0.00012551,0.000027
 58,-0.00001561,-0.00002910,-0.00000222,0.00000396,-0.00005841,-0.00000
 999,0.00002355,0.00001861,-0.00000405,0.00000806,-0.00001693,0.0000130
 3,-0.00000273,0.00002241,0.00000876,-0.00000137,-0.00000314,0.00000046
 ,-0.00000098,0.00000135,-0.00000177,0.00000314,0.00000053,0.00000012,-
 0.00000112,0.00000046,0.00000059,-0.00000259,-0.00000080,0.00000026,0.
 00000620,-0.00000410,0.00000247,-0.00000034,-0.00000232,-0.00000124,0.
 00000260,0.00002618,0.00007504,-0.00003549,-0.00000815,-0.00003240,-0.
 00001453,0.00000615,0.00000556,-0.00000378,0.00000917,-0.00006741,-0.0
 0001381,-0.00002258,-0.00001055,-0.00000511,-0.00000473,-0.00002675,0.
 00000318,0.00000032,0.00000434,-0.00000213,0.00000205,0.00002648,-0.00
 000009,0.00000389,0.00000854,-0.00000291,-0.00000012,0.00000131,0.0000
 0027,0.00000175,0.00000041,-0.00000065,0.00000056,-0.00000002,-0.00000
 013,-0.00049677,-0.00053088,0.00009423,-0.00177974,0.00071231,0.000240
 27,0.00179357,0.00138650,-0.00029717,-0.00247919,-0.00079875,0.0040226
 6,0.12048787,0.00905913,-0.25201797,0.00041516,-0.00037872,0.00076880,
 -0.00083060,0.00080852,0.00140907,-0.13097110,-0.01238600,0.27081967,0
 .00000832,0.00000454,-0.00000355,-0.00001224,-0.00000621,0.00001019,0.
 00005400,-0.00002027,-0.00000036,0.00015050,0.00032106,-0.00009876,-0.
 00027812,-0.00002259,0.00001060,0.00007471,0.00008243,-0.00002113,0.00
 013852,-0.00000712,-0.00000453,-0.00014471,-0.00003404,0.00001022,0.00
 003525,0.00001621,-0.00000409,0.00005466,0.00000662,-0.00000080,-0.000
 00656,-0.00000280,0.00000045,0.00002153,-0.00000396,0.00000090,-0.0000
 2266,-0.00000496,0.00000130,-0.00000548,-0.00000101,0.00000032,-0.0000
 0450,0.00000482,-0.00000336,-0.00000343,0.00000464,0.00000117,0.000008
 49,-0.00000248,0.00001439,0.00001330,-0.00000919,-0.00001817,-0.000006
 73,0.00001239,0.00000245,-0.00000829,0.00001287,-0.00000788,-0.0000962
 0,-0.00047819,0.00015431,-0.00001442,-0.00003218,0.00001256,-0.0000079
 1,-0.00000567,0.00000137,-0.00001534,0.00003301,-0.00001002,0.00001429
 ,0.00000339,-0.00000148,-0.00000004,0.00000614,-0.00000148,0.00000074,
 -0.00000176,0.00000041,-0.00000229,-0.00000922,0.00000248,-0.00000228,
 -0.00000251,0.00000056,0.00000011,0.00000015,-0.00000013,-0.00000101,-
 0.00000050,0.00000013,0.00000013,0.00000016,0.00000006,-0.00064530,0.0
 0351949,-0.00070264,0.00220263,-0.00041677,0.00002909,-0.00693104,-0.0
 0219009,0.00086472,0.00613234,0.03119865,-0.00758302,-0.05612879,-0.04
 378083,0.01027586,0.00117279,-0.00088800,-0.00016180,0.00112895,-0.000
 75555,0.00047219,-0.00332011,-0.01598846,0.00169071,0.05986579,-0.0000
 1200,-0.00000249,0.00000321,0.00001531,0.00000604,-0.00001001,-0.00012
 137,0.00006277,-0.00000760,-0.00009829,-0.00040057,0.00011655,0.000154
 62,0.00022511,-0.00006051,-0.00004109,-0.00025877,0.00006647,-0.000243
 14,-0.00032147,0.00008500,0.00029719,0.00002944,-0.00001347,-0.0000831
 2,-0.00006960,0.00001831,-0.00009192,0.00009635,-0.00001715,0.00007185
 ,0.00001123,-0.00000242,-0.00014940,-0.00004965,0.00001485,0.00004911,
 -0.00002107,0.00000454,0.00001353,0.00000467,-0.00000106,0.00000705,-0
 .00000968,0.00000927,0.00000575,-0.00001153,-0.00000439,-0.00001588,0.
 00000213,-0.00002706,-0.00002356,0.00001644,0.00003062,0.00001761,-0.0
 0002905,-0.00000847,0.00001733,-0.00002497,0.00001870,0.00004784,0.000
 67928,-0.00020448,0.00014340,0.00061397,-0.00015189,0.00000967,0.00000
 153,-0.00000060,0.00007508,0.00002060,-0.00001441,0.00000470,0.0000036
 8,-0.00000197,0.00019439,-0.00000233,-0.00000376,-0.00000691,-0.000008
 91,0.00000211,-0.00010707,0.00004544,-0.00000836,-0.00001248,-0.000015
 76,0.00000384,-0.00000030,-0.00000056,0.00000206,-0.00000779,-0.000002
 57,0.00000081,-0.00000036,-0.00000149,-0.00000151,0.00163443,-0.002953
 82,0.00049731,0.00045711,-0.00115178,0.00038126,0.00175576,0.00286043,
 -0.00045846,-0.00498685,-0.01453832,0.00335505,-0.04325389,-0.29142411
 ,0.05683907,0.00009779,0.00065654,0.00039112,0.00001282,0.00025059,-0.
 00059339,-0.00037368,-0.00020183,0.00028937,0.04641301,0.31792384,0.00
 000264,0.00000034,-0.00000117,-0.00000317,-0.00000009,0.00000613,0.000
 02724,-0.00001367,0.00000243,0.00001798,0.00008427,-0.00002120,-0.0000
 2687,-0.00005471,0.00001080,0.00000700,0.00006002,-0.00001466,0.000058
 08,0.00008748,-0.00000703,-0.00006968,-0.00000659,-0.00000242,0.000019
 69,0.00001643,-0.00000304,0.00002176,-0.00001978,0.00001986,-0.0000170
 3,-0.00000090,0.00000688,0.00003532,0.00001143,-0.00000501,-0.00001132
 ,0.00000540,-0.00000081,-0.00000320,-0.00000085,0.00000129,-0.00000143
 ,0.00000288,-0.00000273,-0.00000134,0.00000151,0.00000070,0.00000412,-
 0.00000043,0.00000441,0.00000496,-0.00000371,-0.00000732,-0.00000448,0
 .00000592,0.00000175,-0.00000357,0.00000575,-0.00000457,-0.00000685,-0
 .00014623,0.00004206,-0.00003993,-0.00015935,0.00002235,-0.00000215,-0
 .00000036,-0.00000033,-0.00001959,-0.00001390,-0.00002999,-0.00000136,
 -0.00000180,-0.00000302,-0.00004624,0.00000050,-0.00000001,0.00000167,
 0.00000215,-0.00000056,0.00002549,-0.00001059,0.00000286,0.00000299,0.
 00000369,-0.00000102,0.00000018,0.00000023,-0.00000051,0.00000186,0.00
 000065,-0.00000007,0.,0.00000027,0.00000039,-0.00040735,0.00055255,-0.
 00006104,-0.00028000,0.00052188,0.00051691,0.00005600,-0.00032430,0.00
 065625,0.00095697,0.00181904,-0.00154371,0.01009081,0.05685715,-0.0641
 7144,0.00015429,0.00022818,-0.00015374,-0.00025191,-0.00034041,0.00021
 894,0.00362638,0.02809098,-0.00499732,-0.01107836,-0.06379037,0.062737
 13,0.00000269,0.00000115,0.00000224,0.00000008,-0.00000746,-0.00001151
 ,0.00000130,-0.00000532,-0.00000753,0.00003302,0.00008412,0.00000725,-
 0.00006817,-0.00001626,-0.00001422,0.00001790,0.00002618,0.00000215,0.
 00000752,0.00000990,0.00002291,0.00001395,0.00000057,-0.00000481,-0.00
 000180,0.00000695,0.00000037,-0.00001628,-0.00000480,0.00000787,0.0000
 1072,-0.00000271,0.00000530,-0.00000200,0.00000196,-0.00000084,0.00000
 175,0.00000340,0.00000177,0.00000296,-0.00000164,-0.00000171,-0.000000
 80,0.00000016,-0.00000090,-0.00000264,0.00000672,0.00000241,0.00000186
 ,-0.00000015,0.00001577,-0.00000075,-0.00000687,-0.00000646,0.00000036
 ,0.00000951,0.00000207,-0.00000013,0.00000177,-0.00000015,-0.00001517,
 -0.00011595,0.00001626,0.00000160,-0.00001647,-0.00002091,-0.00000062,
 0.00000035,-0.00000306,0.00001500,-0.00000371,-0.00001195,-0.00000729,
 -0.00000525,0.00000018,-0.00000068,-0.00000788,-0.00000026,-0.00000019
 ,0.00000134,-0.00000141,0.00000032,0.00000785,0.00000090,0.00000079,0.
 00000176,-0.00000110,-0.00000010,0.00000111,-0.00000007,0.00000054,0.0
 0000012,-0.00000031,0.00000025,0.00000017,0.00000008,0.00052137,0.0004
 8639,0.00017264,0.00123547,0.00046270,0.00027073,-0.00110672,-0.001919
 70,0.00030801,-0.01716040,-0.01175635,-0.02192896,-0.13495556,-0.06306
 789,-0.11057325,-0.00470246,0.00374076,-0.00000331,0.00083080,-0.00076
 558,0.00045774,0.01025077,0.00757011,0.01217112,-0.00341961,-0.0018662
 5,-0.00283957,0.14851035,0.00000086,-0.00000123,-0.00000094,-0.0000025
 2,0.00000189,0.00000192,0.00002671,-0.00001476,0.00000310,-0.00000799,
 0.00004353,-0.00001635,0.00003910,-0.00005452,0.00002034,-0.00000964,0
 .00005947,-0.00001696,0.00005908,0.00014170,-0.00003196,-0.00008543,-0
 .00000253,-0.00000772,0.00002387,0.00001904,-0.00000282,0.00002505,-0.
 00004705,0.00000609,-0.00003429,0.00000451,-0.00000299,0.00005376,0.00
 001635,-0.00000375,-0.00001321,0.00000823,-0.00000250,-0.00000353,-0.0
 0000040,0.,-0.00000093,0.00000121,-0.00000091,-0.00000028,0.00000134,0
 .00000051,0.00000198,0.00000026,0.00000141,0.00000448,-0.00000149,-0.0
 0000288,-0.00000438,0.00000485,0.00000148,-0.00000438,0.00000442,-0.00
 000330,0.00000391,-0.00008223,0.00002396,-0.00004935,-0.00024842,0.000
 05156,-0.00000153,0.00000056,0.00000039,-0.00003164,0.00000655,0.00002
 361,0.00000010,0.00000040,-0.00000023,-0.00007103,0.00001210,-0.000001
 58,0.00000239,0.00000231,-0.00000083,0.00004039,-0.00002448,0.00000630
 ,0.00000488,0.00000282,-0.00000084,-0.00000015,-0.00000007,-0.00000089
 ,0.00000251,0.00000114,-0.00000061,0.00000027,0.00000026,0.00000096,-0
 .00041538,0.00022039,-0.00024901,-0.00005078,-0.00052451,-0.00010211,0
 .00067317,0.00033291,0.00078119,0.00996105,0.00743297,0.01334255,-0.06
 424702,-0.09282204,-0.08064472,0.00336237,-0.00152385,0.00070498,-0.00
 088104,0.00064502,-0.00019058,0.00145856,0.00004220,0.00187571,-0.0169
 7518,-0.01200978,-0.02347065,0.06714519,0.09835092,0.00000293,0.000003
 44,0.00000033,0.00000072,-0.00001391,-0.00000253,-0.00002333,0.0000117
 6,-0.00000761,0.00009896,0.00006372,0.00000027,-0.00019789,0.00005425,
 -0.00002300,0.00005108,-0.00002711,0.00001281,0.00011328,-0.00008713,0
 .00003110,-0.00011828,-0.00003055,0.00001433,0.00002651,-0.00000357,-0
 .00000039,0.00006115,0.00004180,0.00000956,-0.00000719,0.00000599,0.00
 000932,-0.00000207,-0.00002283,0.00000383,-0.00002184,-0.00001302,0.00
 000633,0.00000526,-0.00000065,-0.00000042,-0.00000047,-0.00000066,-0.0
 0000130,-0.00000137,0.00000230,0.00000220,-0.00000012,0.00000225,0.000
 00581,-0.00000209,-0.00000080,-0.00000245,0.00000566,-0.00000051,0.000
 00149,0.00000514,-0.00000343,0.00000092,-0.00002942,-0.00005620,0.0000
 0657,0.00001836,0.00011765,-0.00005047,-0.00000694,-0.00000816,-0.0000
 0060,-0.00000013,0.00005892,-0.00006193,0.00002673,0.00000817,-0.00001
 154,0.00003576,0.00002480,-0.00001009,-0.00000135,-0.00000672,0.000000
 54,-0.00001951,-0.00001776,0.00001115,-0.00000682,-0.00001176,0.000001
 97,-0.00000056,-0.00000009,0.00000026,-0.00000320,-0.00000125,-0.00000
 003,0.00000003,-0.00000130,0.00000054,0.00066718,0.00041847,-0.0002162
 7,0.00172127,-0.00010688,0.00044081,-0.00212524,-0.00138236,0.00033020
 ,-0.00036543,-0.00002849,-0.00119726,-0.11110944,-0.07889961,-0.189880
 38,-0.00020745,0.00034163,0.00139236,-0.00006976,0.00049519,0.00064776
 ,-0.01662976,-0.01208651,-0.02002420,0.00614512,0.00325184,0.00678157,
 0.12196456,0.08790909,0.20177841\\-0.00000041,-0.00000217,0.00000080,-
 0.00000028,-0.00000309,-0.00000114,-0.00000187,-0.00000164,-0.00000461
 ,0.00000411,0.00001348,0.00000570,-0.00001202,0.00000077,-0.00000729,-
 0.00000324,-0.00000548,0.00000044,0.00000542,-0.00000477,0.00001021,-0
 .00000206,-0.00000200,0.00000064,0.00000037,0.00000213,-0.00000427,0.0
 0000080,0.00000048,0.00000246,0.00000070,0.00000229,-0.00000009,-0.000
 00098,0.00000598,0.00000070,-0.00000110,-0.00000177,-0.00000154,0.0000
 0004,-0.00000307,0.00000013,-0.00000050,-0.00000277,-0.00000020,-0.000
 00070,-0.00000270,-0.00000003,0.00000040,-0.00000259,0.00000068,-0.000
 00004,-0.00000148,0.00000045,-0.00000138,-0.00000197,0.00000085,0.0000
 0063,-0.00000113,0.00000056,-0.00000477,-0.00001905,0.00000389,-0.0000
 0413,0.00001287,-0.00000842,-0.00000008,-0.00000006,-0.00000066,-0.000
 00014,0.00000102,0.00000023,-0.00000065,0.00000140,0.00000024,-0.00000
 067,0.00000191,-0.00000111,-0.00000211,0.00000178,-0.00000115,0.000000
 41,0.00000195,-0.00000266,-0.00000059,0.00000224,0.00000549,-0.0000024
 4,0.00000226,-0.00000234,-0.00000179,0.00000253,-0.00000394,-0.0000001
 0,0.00000271,-0.00000163,0.00000240,0.00001741,-0.00000453,0.00000343,
 -0.00001884,0.00000488,0.00001001,0.00000002,-0.00000012,0.00000382,0.
 00000054,-0.00000679,0.00000105,0.00000060,0.00000203,-0.00000137,-0.0
 0000088,0.00000482,0.00000279,-0.00000042,0.00000309,0.00000334,0.0000
 0049,0.00000185,0.00000172,0.00000047,0.00000104,0.00000198,0.00000056
 ,0.00000132\\\@


 THERE ARE PEOPLE SO ADDICTED TO EXAGERATING THEY
 CAN'T TELL THE TRUTH WITHOUT LYING. -- FORTUNE COOKIE
 Job cpu time:       0 days  6 hours  3 minutes 18.7 seconds.
 File lengths (MBytes):  RWF=   1028 Int=      0 D2E=      0 Chk=     27 Scr=      1
 Normal termination of Gaussian 09 at Tue Feb 19 13:52:50 2019.
WARNING: pbs_rusage is deprecated and values produced may not be accurate


=============================================================================
                                     Resource usage:
                                       CPU time:              32:49:29
   JobId:    5875175.r-man2            Elapsed time:          04:09:25
   Project:             q95            Requested time:        42:00:00
   Service Units:     33.26 
                                       Max physical memory:     1558MB
                                       Max virtual memory:      2913MB
                                       Requested memory:           0MB

                                       Number of cpus:               8

                                       Max jobfs disk use:       1.0GB
                                       Requested jobfs:         20.0GB
=============================================================================

