 Entering Gaussian System, Link 0=/apps/gaussian/g09e01/g09/g09
 AtFile(1): /home/507/hio507/Basis/6-31pGd.gbs
 Initial command:
 /apps/gaussian/g09e01/g09/l1.exe "/jobfs/local/6014032.r-man2/Gau-39037.inp" -scrdir="/jobfs/local/6014032.r-man2/"
 Entering Link 1 = /apps/gaussian/g09e01/g09/l1.exe PID=     39038.
  
 Copyright (c) 1988,1990,1992,1993,1995,1998,2003,2009,2015,
            Gaussian, Inc.  All Rights Reserved.
  
 This is part of the Gaussian(R) 09 program.  It is based on
 the Gaussian(R) 03 system (copyright 2003, Gaussian, Inc.),
 the Gaussian(R) 98 system (copyright 1998, Gaussian, Inc.),
 the Gaussian(R) 94 system (copyright 1995, Gaussian, Inc.),
 the Gaussian 92(TM) system (copyright 1992, Gaussian, Inc.),
 the Gaussian 90(TM) system (copyright 1990, Gaussian, Inc.),
 the Gaussian 88(TM) system (copyright 1988, Gaussian, Inc.),
 the Gaussian 86(TM) system (copyright 1986, Carnegie Mellon
 University), and the Gaussian 82(TM) system (copyright 1983,
 Carnegie Mellon University). Gaussian is a federally registered
 trademark of Gaussian, Inc.
  
 This software contains proprietary and confidential information,
 including trade secrets, belonging to Gaussian, Inc.
  
 This software is provided under written license and may be
 used, copied, transmitted, or stored only in accord with that
 written license.
  
 The following legend is applicable only to US Government
 contracts under FAR:
  
                    RESTRICTED RIGHTS LEGEND
  
 Use, reproduction and disclosure by the US Government is
 subject to restrictions as set forth in subparagraphs (a)
 and (c) of the Commercial Computer Software - Restricted
 Rights clause in FAR 52.227-19.
  
 Gaussian, Inc.
 340 Quinnipiac St., Bldg. 40, Wallingford CT 06492
  
  
 ---------------------------------------------------------------
 Warning -- This program may not be used in any manner that
 competes with the business of Gaussian, Inc. or will provide
 assistance to any competitor of Gaussian, Inc.  The licensee
 of this program is prohibited from giving any competitor of
 Gaussian, Inc. access to this program.  By using this program,
 the user acknowledges that Gaussian, Inc. is engaged in the
 business of creating and licensing software in the field of
 computational chemistry and represents and warrants to the
 licensee that it is not a competitor of Gaussian, Inc. and that
 it will not use this program in any manner prohibited above.
 ---------------------------------------------------------------
  

 Cite this work as:
 Gaussian 09, Revision E.01,
 M. J. Frisch, G. W. Trucks, H. B. Schlegel, G. E. Scuseria, 
 M. A. Robb, J. R. Cheeseman, G. Scalmani, V. Barone, B. Mennucci, 
 G. A. Petersson, H. Nakatsuji, M. Caricato, X. Li, H. P. Hratchian, 
 A. F. Izmaylov, J. Bloino, G. Zheng, J. L. Sonnenberg, M. Hada, 
 M. Ehara, K. Toyota, R. Fukuda, J. Hasegawa, M. Ishida, T. Nakajima, 
 Y. Honda, O. Kitao, H. Nakai, T. Vreven, J. A. Montgomery, Jr., 
 J. E. Peralta, F. Ogliaro, M. Bearpark, J. J. Heyd, E. Brothers, 
 K. N. Kudin, V. N. Staroverov, T. Keith, R. Kobayashi, J. Normand, 
 K. Raghavachari, A. Rendell, J. C. Burant, S. S. Iyengar, J. Tomasi, 
 M. Cossi, N. Rega, J. M. Millam, M. Klene, J. E. Knox, J. B. Cross, 
 V. Bakken, C. Adamo, J. Jaramillo, R. Gomperts, R. E. Stratmann, 
 O. Yazyev, A. J. Austin, R. Cammi, C. Pomelli, J. W. Ochterski, 
 R. L. Martin, K. Morokuma, V. G. Zakrzewski, G. A. Voth, 
 P. Salvador, J. J. Dannenberg, S. Dapprich, A. D. Daniels, 
 O. Farkas, J. B. Foresman, J. V. Ortiz, J. Cioslowski, 
 and D. J. Fox, Gaussian, Inc., Wallingford CT, 2013.
 
 ******************************************
 Gaussian 09:  ES64L-G09RevE.01 30-Nov-2015
                22-Feb-2019 
 ******************************************
 %chk=4Ketone.M062X_6-31pGd_opt_Pentadecane.chk
 %mem=196608000
 %nproc=4
 Will use up to    4 processors via shared memory.
 ----------------------------------------------------------------------
 # M062X/Gen 6D SCF=Tight INT(grid=ultrafine) OPT IOP(2/17=4) SCRF=(SMD
 ,Solvent=n-Pentadecane) maxdisk=2147483648
 ----------------------------------------------------------------------
 1/14=-1,18=20,19=15,26=4,38=1/1,3;
 2/9=110,12=2,17=4,18=5,40=1/2;
 3/5=7,8=2,11=2,16=1,25=1,30=1,70=32201,71=1,72=151,74=-55,75=-5/1,2,3;
 4//1;
 5/5=2,32=2,38=5,53=151/2;
 6/7=2,8=2,9=2,10=2,28=1/1;
 7//1,2,3,16;
 1/14=-1,18=20,19=15,26=4/3(2);
 2/9=110,17=4/2;
 99//99;
 2/9=110,17=4/2;
 3/5=7,6=1,8=2,11=2,16=1,25=1,30=1,70=32205,71=1,72=151,74=-55,75=-5,82=7/1,2,3;
 4/5=5,16=3,69=1/1;
 5/5=2,32=2,38=5,53=151/2;
 7//1,2,3,16;
 1/14=-1,18=20,19=15,26=4/3(-5);
 2/9=110,17=4/2;
 6/7=2,8=2,9=2,10=2,19=2,28=1/1;
 99/9=1/99;
 -------------------------------------
 4Ketone.M062X_6-31pGd_opt_Pentadecane
 -------------------------------------
 Symbolic Z-matrix:
 Charge =  0 Multiplicity = 1
 C                     5.7198   -2.92217  -0.40754 
 C                     4.73419  -1.77298  -0.21769 
 C                     3.28448  -2.25837  -0.33359 
 N                     2.35239  -1.15849  -0.15512 
 C                     1.00262  -1.3406   -0.21382 
 O                     0.55214  -2.47494  -0.1947 
 N                     0.17989  -0.2493   -0.29502 
 C                    -1.25776  -0.22659  -0.3654 
 C                    -2.08123  -1.37661  -0.34409 
 C                    -1.88684   1.02813  -0.46129 
 C                    -3.27647   1.14112  -0.53449 
 C                    -4.09084  -0.00207  -0.51343 
 C                    -3.47373  -1.2611   -0.41695 
 H                     6.67385  -2.68282   0.10776 
 H                     5.92827  -3.07743  -1.48758 
 H                     5.30803  -3.8595    0.02356 
 H                     4.92918  -0.99962  -0.99236 
 H                     4.89462  -1.32226   0.78599 
 H                     3.09404  -3.03049   0.44434 
 H                     3.1292   -2.71031  -1.33822 
 H                     2.72353  -0.21142   0.02057 
 H                     0.64587   0.6715   -0.30992 
 H                    -1.6974   -2.37742  -0.27161 
 H                    -1.29424   1.9345   -0.48059 
 H                    -3.71212   2.12987  -0.60777 
 C                    -5.57416   0.1335   -0.59214 
 H                    -4.06227  -2.16868  -0.39689 
 O                    -6.07823   1.24419  -0.67667 
 C                    -6.48323  -1.06297  -0.57077 
 H                    -7.54718  -0.74975  -0.63903 
 H                    -6.34332  -1.62517   0.37617 
 H                    -6.2563   -1.72399  -1.43323 
 

 GradGradGradGradGradGradGradGradGradGradGradGradGradGradGradGradGradGrad
 Berny optimization.
 Initialization pass.
                           ----------------------------
                           !    Initial Parameters    !
                           ! (Angstroms and Degrees)  !
 --------------------------                            --------------------------
 ! Name  Definition              Value          Derivative Info.                !
 --------------------------------------------------------------------------------
 ! R1    R(1,2)                  1.5258         estimate D2E/DX2                !
 ! R2    R(1,14)                 1.1104         estimate D2E/DX2                !
 ! R3    R(1,15)                 1.1109         estimate D2E/DX2                !
 ! R4    R(1,16)                 1.1109         estimate D2E/DX2                !
 ! R5    R(2,3)                  1.5332         estimate D2E/DX2                !
 ! R6    R(2,17)                 1.1119         estimate D2E/DX2                !
 ! R7    R(2,18)                 1.1119         estimate D2E/DX2                !
 ! R8    R(3,4)                  1.4527         estimate D2E/DX2                !
 ! R9    R(3,19)                 1.1125         estimate D2E/DX2                !
 ! R10   R(3,20)                 1.1125         estimate D2E/DX2                !
 ! R11   R(4,5)                  1.3633         estimate D2E/DX2                !
 ! R12   R(4,21)                 1.0323         estimate D2E/DX2                !
 ! R13   R(5,6)                  1.2207         estimate D2E/DX2                !
 ! R14   R(5,7)                  1.3691         estimate D2E/DX2                !
 ! R15   R(7,8)                  1.4396         estimate D2E/DX2                !
 ! R16   R(7,22)                 1.0321         estimate D2E/DX2                !
 ! R17   R(8,9)                  1.4146         estimate D2E/DX2                !
 ! R18   R(8,10)                 1.4069         estimate D2E/DX2                !
 ! R19   R(9,13)                 1.3992         estimate D2E/DX2                !
 ! R20   R(9,23)                 1.0743         estimate D2E/DX2                !
 ! R21   R(10,11)                1.3961         estimate D2E/DX2                !
 ! R22   R(10,24)                1.0831         estimate D2E/DX2                !
 ! R23   R(11,12)                1.4038         estimate D2E/DX2                !
 ! R24   R(11,25)                1.083          estimate D2E/DX2                !
 ! R25   R(12,13)                1.4054         estimate D2E/DX2                !
 ! R26   R(12,26)                1.4916         estimate D2E/DX2                !
 ! R27   R(13,27)                1.0819         estimate D2E/DX2                !
 ! R28   R(26,28)                1.2226         estimate D2E/DX2                !
 ! R29   R(26,29)                1.5028         estimate D2E/DX2                !
 ! R30   R(29,30)                1.1112         estimate D2E/DX2                !
 ! R31   R(29,31)                1.1101         estimate D2E/DX2                !
 ! R32   R(29,32)                1.1101         estimate D2E/DX2                !
 ! A1    A(2,1,14)             109.5669         estimate D2E/DX2                !
 ! A2    A(2,1,15)             110.3319         estimate D2E/DX2                !
 ! A3    A(2,1,16)             110.352          estimate D2E/DX2                !
 ! A4    A(14,1,15)            108.6669         estimate D2E/DX2                !
 ! A5    A(14,1,16)            108.6791         estimate D2E/DX2                !
 ! A6    A(15,1,16)            109.2044         estimate D2E/DX2                !
 ! A7    A(1,2,3)              111.2805         estimate D2E/DX2                !
 ! A8    A(1,2,17)             108.8986         estimate D2E/DX2                !
 ! A9    A(1,2,18)             108.9307         estimate D2E/DX2                !
 ! A10   A(3,2,17)             109.4728         estimate D2E/DX2                !
 ! A11   A(3,2,18)             109.4512         estimate D2E/DX2                !
 ! A12   A(17,2,18)            108.7644         estimate D2E/DX2                !
 ! A13   A(2,3,4)              110.959          estimate D2E/DX2                !
 ! A14   A(2,3,19)             109.1917         estimate D2E/DX2                !
 ! A15   A(2,3,20)             109.1991         estimate D2E/DX2                !
 ! A16   A(4,3,19)             109.2529         estimate D2E/DX2                !
 ! A17   A(4,3,20)             109.2056         estimate D2E/DX2                !
 ! A18   A(19,3,20)            109.0037         estimate D2E/DX2                !
 ! A19   A(3,4,5)              121.9271         estimate D2E/DX2                !
 ! A20   A(3,4,21)             119.0033         estimate D2E/DX2                !
 ! A21   A(5,4,21)             119.0696         estimate D2E/DX2                !
 ! A22   A(4,5,6)              119.2653         estimate D2E/DX2                !
 ! A23   A(4,5,7)              119.4101         estimate D2E/DX2                !
 ! A24   A(6,5,7)              121.3246         estimate D2E/DX2                !
 ! A25   A(5,7,8)              127.9964         estimate D2E/DX2                !
 ! A26   A(5,7,22)             116.1475         estimate D2E/DX2                !
 ! A27   A(8,7,22)             115.856          estimate D2E/DX2                !
 ! A28   A(7,8,9)              124.5963         estimate D2E/DX2                !
 ! A29   A(7,8,10)             117.6431         estimate D2E/DX2                !
 ! A30   A(9,8,10)             117.7606         estimate D2E/DX2                !
 ! A31   A(8,9,13)             120.7599         estimate D2E/DX2                !
 ! A32   A(8,9,23)             123.3921         estimate D2E/DX2                !
 ! A33   A(13,9,23)            115.8479         estimate D2E/DX2                !
 ! A34   A(8,10,11)            121.3872         estimate D2E/DX2                !
 ! A35   A(8,10,24)            120.1925         estimate D2E/DX2                !
 ! A36   A(11,10,24)           118.4202         estimate D2E/DX2                !
 ! A37   A(10,11,12)           120.7131         estimate D2E/DX2                !
 ! A38   A(10,11,25)           118.5446         estimate D2E/DX2                !
 ! A39   A(12,11,25)           120.7423         estimate D2E/DX2                !
 ! A40   A(11,12,13)           118.414          estimate D2E/DX2                !
 ! A41   A(11,12,26)           120.1399         estimate D2E/DX2                !
 ! A42   A(13,12,26)           121.4461         estimate D2E/DX2                !
 ! A43   A(9,13,12)            120.9651         estimate D2E/DX2                !
 ! A44   A(9,13,27)            118.1106         estimate D2E/DX2                !
 ! A45   A(12,13,27)           120.9242         estimate D2E/DX2                !
 ! A46   A(12,26,28)           119.7496         estimate D2E/DX2                !
 ! A47   A(12,26,29)           121.9011         estimate D2E/DX2                !
 ! A48   A(28,26,29)           118.3493         estimate D2E/DX2                !
 ! A49   A(26,29,30)           110.7264         estimate D2E/DX2                !
 ! A50   A(26,29,31)           109.8218         estimate D2E/DX2                !
 ! A51   A(26,29,32)           109.8391         estimate D2E/DX2                !
 ! A52   A(30,29,31)           108.4108         estimate D2E/DX2                !
 ! A53   A(30,29,32)           108.4126         estimate D2E/DX2                !
 ! A54   A(31,29,32)           109.5971         estimate D2E/DX2                !
 ! D1    D(14,1,2,3)          -154.7576         estimate D2E/DX2                !
 ! D2    D(14,1,2,17)           84.48           estimate D2E/DX2                !
 ! D3    D(14,1,2,18)          -34.0009         estimate D2E/DX2                !
 ! D4    D(15,1,2,3)            85.6415         estimate D2E/DX2                !
 ! D5    D(15,1,2,17)          -35.121          estimate D2E/DX2                !
 ! D6    D(15,1,2,18)         -153.6019         estimate D2E/DX2                !
 ! D7    D(16,1,2,3)           -35.1292         estimate D2E/DX2                !
 ! D8    D(16,1,2,17)         -155.8916         estimate D2E/DX2                !
 ! D9    D(16,1,2,18)           85.6275         estimate D2E/DX2                !
 ! D10   D(1,2,3,4)           -179.8567         estimate D2E/DX2                !
 ! D11   D(1,2,3,19)            59.6653         estimate D2E/DX2                !
 ! D12   D(1,2,3,20)           -59.4327         estimate D2E/DX2                !
 ! D13   D(17,2,3,4)           -59.4322         estimate D2E/DX2                !
 ! D14   D(17,2,3,19)         -179.9101         estimate D2E/DX2                !
 ! D15   D(17,2,3,20)           60.9918         estimate D2E/DX2                !
 ! D16   D(18,2,3,4)            59.6929         estimate D2E/DX2                !
 ! D17   D(18,2,3,19)          -60.7851         estimate D2E/DX2                !
 ! D18   D(18,2,3,20)         -179.8831         estimate D2E/DX2                !
 ! D19   D(2,3,4,5)           -179.9578         estimate D2E/DX2                !
 ! D20   D(2,3,4,21)             0.0879         estimate D2E/DX2                !
 ! D21   D(19,3,4,5)           -59.5161         estimate D2E/DX2                !
 ! D22   D(19,3,4,21)          120.5297         estimate D2E/DX2                !
 ! D23   D(20,3,4,5)            59.622          estimate D2E/DX2                !
 ! D24   D(20,3,4,21)         -120.3323         estimate D2E/DX2                !
 ! D25   D(3,4,5,6)             12.3032         estimate D2E/DX2                !
 ! D26   D(3,4,5,7)           -167.5977         estimate D2E/DX2                !
 ! D27   D(21,4,5,6)          -167.7426         estimate D2E/DX2                !
 ! D28   D(21,4,5,7)            12.3565         estimate D2E/DX2                !
 ! D29   D(4,5,7,8)           -179.9835         estimate D2E/DX2                !
 ! D30   D(4,5,7,22)             0.17           estimate D2E/DX2                !
 ! D31   D(6,5,7,8)              0.1177         estimate D2E/DX2                !
 ! D32   D(6,5,7,22)          -179.7288         estimate D2E/DX2                !
 ! D33   D(5,7,8,9)              0.8587         estimate D2E/DX2                !
 ! D34   D(5,7,8,10)          -179.1808         estimate D2E/DX2                !
 ! D35   D(22,7,8,9)          -179.2944         estimate D2E/DX2                !
 ! D36   D(22,7,8,10)            0.6661         estimate D2E/DX2                !
 ! D37   D(7,8,9,13)           179.9874         estimate D2E/DX2                !
 ! D38   D(7,8,9,23)             0.0626         estimate D2E/DX2                !
 ! D39   D(10,8,9,13)            0.027          estimate D2E/DX2                !
 ! D40   D(10,8,9,23)         -179.8978         estimate D2E/DX2                !
 ! D41   D(7,8,10,11)          179.9803         estimate D2E/DX2                !
 ! D42   D(7,8,10,24)            0.0259         estimate D2E/DX2                !
 ! D43   D(9,8,10,11)           -0.0564         estimate D2E/DX2                !
 ! D44   D(9,8,10,24)          179.9892         estimate D2E/DX2                !
 ! D45   D(8,9,13,12)            0.0165         estimate D2E/DX2                !
 ! D46   D(8,9,13,27)         -179.9819         estimate D2E/DX2                !
 ! D47   D(23,9,13,12)         179.9468         estimate D2E/DX2                !
 ! D48   D(23,9,13,27)          -0.0517         estimate D2E/DX2                !
 ! D49   D(8,10,11,12)           0.0427         estimate D2E/DX2                !
 ! D50   D(8,10,11,25)        -179.9624         estimate D2E/DX2                !
 ! D51   D(24,10,11,12)        179.9979         estimate D2E/DX2                !
 ! D52   D(24,10,11,25)         -0.0072         estimate D2E/DX2                !
 ! D53   D(10,11,12,13)          0.0021         estimate D2E/DX2                !
 ! D54   D(10,11,12,26)        179.9904         estimate D2E/DX2                !
 ! D55   D(25,11,12,13)       -179.9928         estimate D2E/DX2                !
 ! D56   D(25,11,12,26)         -0.0045         estimate D2E/DX2                !
 ! D57   D(11,12,13,9)          -0.0312         estimate D2E/DX2                !
 ! D58   D(11,12,13,27)        179.9672         estimate D2E/DX2                !
 ! D59   D(26,12,13,9)         179.9806         estimate D2E/DX2                !
 ! D60   D(26,12,13,27)         -0.021          estimate D2E/DX2                !
 ! D61   D(11,12,26,28)          0.0854         estimate D2E/DX2                !
 ! D62   D(11,12,26,29)       -179.9075         estimate D2E/DX2                !
 ! D63   D(13,12,26,28)       -179.9267         estimate D2E/DX2                !
 ! D64   D(13,12,26,29)          0.0805         estimate D2E/DX2                !
 ! D65   D(12,26,29,30)       -179.997          estimate D2E/DX2                !
 ! D66   D(12,26,29,31)         60.3107         estimate D2E/DX2                !
 ! D67   D(12,26,29,32)        -60.2914         estimate D2E/DX2                !
 ! D68   D(28,26,29,30)          0.01           estimate D2E/DX2                !
 ! D69   D(28,26,29,31)       -119.6822         estimate D2E/DX2                !
 ! D70   D(28,26,29,32)        119.7157         estimate D2E/DX2                !
 --------------------------------------------------------------------------------
 Trust Radius=3.00D-01 FncErr=1.00D-07 GrdErr=1.00D-06
 Number of steps in this run=    166 maximum allowed number of steps=    192.
 GradGradGradGradGradGradGradGradGradGradGradGradGradGradGradGradGradGrad

                          Input orientation:                          
 ---------------------------------------------------------------------
 Center     Atomic      Atomic             Coordinates (Angstroms)
 Number     Number       Type             X           Y           Z
 ---------------------------------------------------------------------
      1          6           0        5.719800   -2.922170   -0.407540
      2          6           0        4.734190   -1.772980   -0.217690
      3          6           0        3.284480   -2.258370   -0.333590
      4          7           0        2.352390   -1.158490   -0.155120
      5          6           0        1.002620   -1.340600   -0.213820
      6          8           0        0.552140   -2.474940   -0.194700
      7          7           0        0.179890   -0.249300   -0.295020
      8          6           0       -1.257760   -0.226590   -0.365400
      9          6           0       -2.081230   -1.376610   -0.344090
     10          6           0       -1.886840    1.028130   -0.461290
     11          6           0       -3.276470    1.141120   -0.534490
     12          6           0       -4.090840   -0.002070   -0.513430
     13          6           0       -3.473730   -1.261100   -0.416950
     14          1           0        6.673850   -2.682820    0.107760
     15          1           0        5.928270   -3.077430   -1.487580
     16          1           0        5.308030   -3.859500    0.023560
     17          1           0        4.929180   -0.999620   -0.992360
     18          1           0        4.894620   -1.322260    0.785990
     19          1           0        3.094040   -3.030490    0.444340
     20          1           0        3.129200   -2.710310   -1.338220
     21          1           0        2.723530   -0.211420    0.020570
     22          1           0        0.645870    0.671500   -0.309920
     23          1           0       -1.697400   -2.377420   -0.271610
     24          1           0       -1.294240    1.934500   -0.480590
     25          1           0       -3.712120    2.129870   -0.607770
     26          6           0       -5.574160    0.133500   -0.592140
     27          1           0       -4.062270   -2.168680   -0.396890
     28          8           0       -6.078230    1.244190   -0.676670
     29          6           0       -6.483230   -1.062970   -0.570770
     30          1           0       -7.547180   -0.749750   -0.639030
     31          1           0       -6.343320   -1.625170    0.376170
     32          1           0       -6.256300   -1.723990   -1.433230
 ---------------------------------------------------------------------
                    Distance matrix (angstroms):
                    1          2          3          4          5
     1  C    0.000000
     2  C    1.525814   0.000000
     3  C    2.525249   1.533198   0.000000
     4  N    3.809689   2.460586   1.452714   0.000000
     5  C    4.979024   3.756539   2.462424   1.363264   0.000000
     6  O    5.191341   4.240615   2.744426   2.230585   1.220666
     7  N    6.152032   4.803044   3.698152   2.359228   1.369092
     8  C    7.480259   6.190041   4.976051   3.734413   2.524542
     9  C    7.952915   6.828106   5.437688   4.443003   3.086810
    10  C    8.571390   7.193302   6.128616   4.779761   3.744476
    11  C    9.872148   8.530124   7.392088   6.092306   4.957053
    12  C   10.236545   9.005817   7.714828   6.555982   5.274918
    13  C    9.342389   8.226280   6.831903   5.832903   4.481662
    14  H    1.110421   2.167027   3.444238   4.589957   5.836764
    15  H    1.110879   2.177163   2.998696   4.271381   5.375972
    16  H    1.110851   2.177397   2.604981   4.007891   4.993772
    17  H    2.159466   1.111854   2.173354   2.714048   4.017495
    18  H    2.159895   1.111872   2.173088   2.715777   4.018410
    19  H    2.762616   2.170186   1.112480   2.100900   2.768202
    20  H    2.760844   2.170292   1.112494   2.100311   2.768162
    21  H    4.063136   2.556950   2.151766   1.032256   2.071598
    22  H    6.218421   4.764278   3.942964   2.506998   2.045740
    23  H    7.438420   6.460155   4.983688   4.230858   2.892826
    24  H    8.531667   7.082125   6.210189   4.792747   4.009116
    25  H   10.701603   9.312602   8.263428   6.913500   5.867549
    26  C   11.701484  10.489850   9.179509   8.043035   6.750565
    27  H    9.811053   8.807179   7.347570   6.498215   5.135401
    28  O   12.514971  11.234874  10.002298   8.781813   7.552073
    29  C   12.344926  11.245412   9.843444   8.845907   7.499496
    30  H   13.445659  12.331122  10.940479   9.919815   8.580733
    31  H   12.157931  11.094402   9.674670   8.724416   7.375087
    32  H   12.079514  11.057613   9.618797   8.721405   7.370608
                    6          7          8          9         10
     6  O    0.000000
     7  N    2.258785   0.000000
     8  C    2.891359   1.439551   0.000000
     9  C    2.857146   2.527034   1.414603   0.000000
    10  C    4.276820   2.435333   1.406861   2.415429   0.000000
    11  C    5.277272   3.733234   2.444261   2.793531   1.396136
    12  C    5.270098   4.283452   2.845815   2.440608   2.433443
    13  C    4.210752   3.793092   2.446097   1.399181   2.785814
    14  H    6.132702   6.946637   8.316693   8.863508   9.347747
    15  H    5.562131   6.516471   7.811889   8.267554   8.887341
    16  H    4.958138   6.279559   7.513915   7.803914   8.711496
    17  H    4.687356   4.858500   6.266489   7.050406   7.131054
    18  H    4.598647   4.954645   6.354366   7.067002   7.284795
    19  H    2.679228   4.095600   5.239818   5.490024   6.488584
    20  H    2.829183   3.980360   5.134264   5.469518   6.317088
    21  H    3.144010   2.563423   3.999984   4.957455   4.798352
    22  H    3.149944   1.032101   2.105576   3.410718   2.562171
    23  H    2.252966   2.837897   2.197305   1.074337   3.416085
    24  H    4.788947   2.641302   2.164465   3.406088   1.083076
    25  H    6.289580   4.572308   3.411089   3.876175   2.137039
    26  C    6.670343   5.774418   4.337325   3.813466   3.796553
    27  H    4.628980   4.657287   3.411449   2.134170   3.867329
    28  O    7.617482   6.445171   5.049457   4.791160   4.202478
    29  C    7.185508   6.718278   5.295965   4.418977   5.050890
    30  H    8.292930   7.750897   6.317070   5.509678   5.935646
    31  H    6.971038   6.700432   5.326244   4.329661   5.253718
    32  H    6.960800   6.700356   5.326150   4.328754   5.254618
                   11         12         13         14         15
    11  C    0.000000
    12  C    1.403754   0.000000
    13  C    2.413170   1.405450   0.000000
    14  H   10.679132  11.110844  10.260116   0.000000
    15  H   10.170142  10.525653   9.635502   1.804637   0.000000
    16  H    9.950440  10.173833   9.168699   1.804752   1.811043
    17  H    8.492650   9.087642   8.426646   2.662198   2.358117
    18  H    8.635891   9.174415   8.454590   2.340252   3.052569
    19  H    7.677489   7.855645   6.856250   3.612368   3.430361
    20  H    7.517453   7.755245   6.822583   3.828336   2.826991
    21  H    6.175553   6.838466   6.300737   4.660520   4.556192
    22  H    3.956732   4.788688   4.551648   6.911039   6.583700
    23  H    3.865578   3.380728   2.103008   8.385405   7.753673
    24  H    2.135789   3.401816   3.868603   9.228015   8.848623
    25  H    1.082953   2.167371   3.404691  11.469191  10.992141
    26  C    2.509582   1.491581   2.527332  12.587107  11.975716
    27  H    3.404584   2.169930   1.081889  10.760264  10.090903
    28  O    2.807258   2.351495   3.623169  13.366087  12.786321
    29  C    3.891354   2.617695   3.019935  13.273774  12.607296
    30  H    4.671754   3.538515   4.111422  14.371226  13.701310
    31  H    4.229330   2.915392   2.999355  13.062824  12.496981
    32  H    4.230364   2.915520   2.998298  13.056906  12.259629
                   16         17         18         19         20
    16  H    0.000000
    17  H    3.058518   0.000000
    18  H    2.681379   1.807711   0.000000
    19  H    2.401263   3.091323   2.505367   0.000000
    20  H    2.814673   2.507191   3.091223   1.811428   0.000000
    21  H    4.470809   2.551897   2.556064   2.874720   2.873209
    22  H    6.509755   4.648130   4.819541   4.501908   4.319834
    23  H    7.166571   6.806569   6.759187   4.888454   4.954245
    24  H    8.798555   6.899415   7.107229   6.690562   6.471214
    25  H   10.845932   9.198570   9.377406   8.605816   8.412167
    26  C   11.607980  10.571863  10.658979   9.285624   9.186532
    27  H    9.530906   9.086664   9.074222   7.256939   7.273012
    28  O   12.497395  11.238212  11.363515  10.181360  10.042534
    29  C   12.132915  11.420370  11.461392   9.829836   9.782715
    30  H   13.242583  12.483863  12.536221  10.936683  10.877396
    31  H   11.868889  11.372486  11.249489   9.541663   9.687378
    32  H   11.849741  11.217577  11.376702   9.626062   9.437662
                   21         22         23         24         25
    21  H    0.000000
    22  H    2.281544   0.000000
    23  H    4.931688   3.845555   0.000000
    24  H    4.582424   2.321276   4.335766   0.000000
    25  H    6.877066   4.605175   4.948511   2.429092   0.000000
    26  C    8.327427   6.249629   4.629981   4.644756   2.730006
    27  H    7.074759   5.499161   2.377368   4.950261   4.317940
    28  O    8.948515   6.758402   5.698404   4.837513   2.527381
    29  C    9.264947   7.341696   4.972066   5.993211   4.227842
    30  H   10.305938   8.321919   6.083110   6.806582   4.795923
    31  H    9.183295   7.388788   4.750797   6.236866   4.689528
    32  H    9.221646   7.391897   4.749726   6.238118   4.691106
                   26         27         28         29         30
    26  C    0.000000
    27  H    2.761153   0.000000
    28  O    1.222646   3.973670   0.000000
    29  C    1.502799   2.667185   2.344830   0.000000
    30  H    2.162207   3.770490   2.476899   1.111196   0.000000
    31  H    2.149919   2.469051   3.067894   1.110108   1.801741
    32  H    2.150120   2.466884   3.068254   1.110082   1.801740
                   31         32
    31  H    0.000000
    32  H    1.814185   0.000000
 Stoichiometry    C12H16N2O2
 Framework group  C1[X(C12H16N2O2)]
 Deg. of freedom    90
 Full point group                 C1      NOp   1
 Largest Abelian subgroup         C1      NOp   1
 Largest concise Abelian subgroup C1      NOp   1
                         Standard orientation:                         
 ---------------------------------------------------------------------
 Center     Atomic      Atomic             Coordinates (Angstroms)
 Number     Number       Type             X           Y           Z
 ---------------------------------------------------------------------
      1          6           0       -6.867664   -0.472054    0.225471
      2          6           0       -5.647117    0.412526   -0.010939
      3          6           0       -4.347963   -0.397009    0.075943
      4          7           0       -3.190606    0.452279   -0.146799
      5          6           0       -1.919494   -0.039702   -0.120011
      6          8           0       -1.746988   -1.248074   -0.130188
      7          7           0       -0.862738    0.829836   -0.080205
      8          6           0        0.541940    0.516571   -0.047769
      9          6           0        1.073240   -0.794287   -0.069577
     10          6           0        1.449060    1.590439    0.008789
     11          6           0        2.828221    1.376206    0.043651
     12          6           0        3.352279    0.074119    0.022205
     13          6           0        2.455769   -1.006745   -0.035177
     14          1           0       -7.754329   -0.022267   -0.269050
     15          1           0       -7.074531   -0.561689    1.313232
     16          1           0       -6.699001   -1.484632   -0.199060
     17          1           0       -5.633181    1.218999    0.754324
     18          1           0       -5.727570    0.876557   -1.018145
     19          1           0       -4.366128   -1.201250   -0.692483
     20          1           0       -4.272772   -0.861011    1.084254
     21          1           0       -3.335479    1.457767   -0.329988
     22          1           0       -1.100275    1.834178   -0.069948
     23          1           0        0.464443   -1.678375   -0.113763
     24          1           0        1.085220    2.610410    0.027010
     25          1           0        3.484593    2.236462    0.087505
     26          6           0        4.827933   -0.140005    0.059718
     27          1           0        2.815358   -2.026952   -0.054029
     28          8           0        5.579599    0.822935    0.110809
     29          6           0        5.431587   -1.516038    0.036465
     30          1           0        6.540799   -1.459510    0.071231
     31          1           0        5.136337   -2.040914   -0.896097
     32          1           0        5.082286   -2.095591    0.916458
 ---------------------------------------------------------------------
 Rotational constants (GHZ):      2.4109772      0.1533946      0.1449494
 General basis read from cards:  (6D, 7F)
 There are   336 symmetry adapted cartesian basis functions of A   symmetry.
 There are   336 symmetry adapted basis functions of A   symmetry.
   336 basis functions,   576 primitive gaussians,   336 cartesian basis functions
    59 alpha electrons       59 beta electrons
       nuclear repulsion energy      1005.5857365429 Hartrees.
 NAtoms=   32 NActive=   32 NUniq=   32 SFac= 1.00D+00 NAtFMM=   60 NAOKFM=F Big=F
 Integral buffers will be    131072 words long.
 Raffenetti 2 integral format.
 Two-electron integral symmetry is turned on.
 ------------------------------------------------------------------------------
 Polarizable Continuum Model (PCM)
 =================================
 Model                : PCM (using non-symmetric T matrix).
 Atomic radii         : SMD-Coulomb.
 Polarization charges : Total charges.
 Charge compensation  : None.
 Solution method      : On-the-fly selection.
 Cavity type          : VdW (van der Waals Surface) (Alpha=1.000).
 Cavity algorithm     : GePol (No added spheres)
                        Default sphere list used, NSphG=   32.
                        Lebedev-Laikov grids with approx.  5.0 points / Ang**2.
                        Smoothing algorithm: York/Karplus (Gamma=1.0000).
                        Polarization charges: spherical gaussians, with
                                              point-specific exponents (IZeta= 3).
                        Self-potential: point-specific (ISelfS= 7).
                        Self-field    : sphere-specific E.n sum rule (ISelfD= 2).
 1st derivatives      : Analytical E(r).r(x)/FMM algorithm (CHGder, D1EAlg=3).
                        Cavity 1st derivative terms included.
 Solvent              : n-Pentadecane, Eps=   2.033300 Eps(inf)=   2.049192
 ------------------------------------------------------------------------------
 ------------------------------------------------------------------------------
 Atomic radii for non-electrostatic terms: SMD-CDS.
 ------------------------------------------------------------------------------
 Nuclear repulsion after PCM non-electrostatic terms =     1005.5758378307 Hartrees.
 One-electron integrals computed using PRISM.
 NBasis=   336 RedAO= T EigKep=  1.39D-06  NBF=   336
 NBsUse=   335 1.00D-06 EigRej=  7.65D-07 NBFU=   335
 ExpMin= 4.38D-02 ExpMax= 5.48D+03 ExpMxC= 8.25D+02 IAcc=3 IRadAn=         5 AccDes= 0.00D+00
 Harris functional with IExCor= 1009 and IRadAn=       5 diagonalized for initial guess.
 HarFok:  IExCor= 1009 AccDes= 0.00D+00 IRadAn=         5 IDoV= 1 UseB2=F ITyADJ=14
 ICtDFT=  3500011 ScaDFX=  1.000000  1.000000  1.000000  1.000000
 FoFCou: FMM=F IPFlag=           0 FMFlag=      100000 FMFlg1=           0
         NFxFlg=           0 DoJE=T BraDBF=F KetDBF=T FulRan=T
         wScrn=  0.000000 ICntrl=     500 IOpCl=  0 I1Cent=   200000004 NGrid=           0
         NMat0=    1 NMatS0=      1 NMatT0=    0 NMatD0=    1 NMtDS0=    0 NMtDT0=    0
 Petite list used in FoFCou.
 Requested convergence on RMS density matrix=1.00D-08 within 128 cycles.
 Requested convergence on MAX density matrix=1.00D-06.
 Requested convergence on             energy=1.00D-06.
 No special actions if energy rises.
 Inv3:  Mode=1 IEnd=    19172352.
 Iteration    1 A*A^-1 deviation from unit magnitude is 4.22D-15 for   2523.
 Iteration    1 A*A^-1 deviation from orthogonality  is 2.27D-15 for   2499      9.
 Iteration    1 A^-1*A deviation from unit magnitude is 4.22D-15 for   2523.
 Iteration    1 A^-1*A deviation from orthogonality  is 7.47D-15 for   1696   1683.
 Error on total polarization charges =  0.02613
 SCF Done:  E(RM062X) =  -726.612036924     A.U. after   15 cycles
            NFock= 15  Conv=0.67D-08     -V/T= 2.0093
 SMD-CDS (non-electrostatic) energy       (kcal/mol) =      -6.21
 (included in total energy above)

 **********************************************************************

            Population analysis using the SCF density.

 **********************************************************************

 Orbital symmetries:
       Occupied  (A) (A) (A) (A) (A) (A) (A) (A) (A) (A) (A) (A)
                 (A) (A) (A) (A) (A) (A) (A) (A) (A) (A) (A) (A)
                 (A) (A) (A) (A) (A) (A) (A) (A) (A) (A) (A) (A)
                 (A) (A) (A) (A) (A) (A) (A) (A) (A) (A) (A) (A)
                 (A) (A) (A) (A) (A) (A) (A) (A) (A) (A) (A)
       Virtual   (A) (A) (A) (A) (A) (A) (A) (A) (A) (A) (A) (A)
                 (A) (A) (A) (A) (A) (A) (A) (A) (A) (A) (A) (A)
                 (A) (A) (A) (A) (A) (A) (A) (A) (A) (A) (A) (A)
                 (A) (A) (A) (A) (A) (A) (A) (A) (A) (A) (A) (A)
                 (A) (A) (A) (A) (A) (A) (A) (A) (A) (A) (A) (A)
                 (A) (A) (A) (A) (A) (A) (A) (A) (A) (A) (A) (A)
                 (A) (A) (A) (A) (A) (A) (A) (A) (A) (A) (A) (A)
                 (A) (A) (A) (A) (A) (A) (A) (A) (A) (A) (A) (A)
                 (A) (A) (A) (A) (A) (A) (A) (A) (A) (A) (A) (A)
                 (A) (A) (A) (A) (A) (A) (A) (A) (A) (A) (A) (A)
                 (A) (A) (A) (A) (A) (A) (A) (A) (A) (A) (A) (A)
                 (A) (A) (A) (A) (A) (A) (A) (A) (A) (A) (A) (A)
                 (A) (A) (A) (A) (A) (A) (A) (A) (A) (A) (A) (A)
                 (A) (A) (A) (A) (A) (A) (A) (A) (A) (A) (A) (A)
                 (A) (A) (A) (A) (A) (A) (A) (A) (A) (A) (A) (A)
                 (A) (A) (A) (A) (A) (A) (A) (A) (A) (A) (A) (A)
                 (A) (A) (A) (A) (A) (A) (A) (A) (A) (A) (A) (A)
                 (A) (A) (A) (A) (A) (A) (A) (A) (A) (A) (A) (A)
                 (A) (A) (A) (A) (A) (A) (A) (A) (A) (A) (A) (A)
                 (A) (A) (A) (A) (A) (A) (A) (A) (A) (A) (A) (A)
                 (A) (A) (A) (A) (A) (A) (A) (A) (A) (A) (A) (A)
                 (A) (A) (A) (A) (A) (A) (A) (A) (A) (A) (A) (A)
                 (A) (A) (A) (A) (A) (A) (A) (A) (A) (A) (A) (A)
 The electronic state is 1-A.
 Alpha  occ. eigenvalues --  -19.63149 -19.60430 -14.81212 -14.78915 -10.68395
 Alpha  occ. eigenvalues --  -10.63942 -10.62340 -10.58674 -10.56675 -10.56615
 Alpha  occ. eigenvalues --  -10.56531 -10.56211 -10.55682 -10.55665 -10.54822
 Alpha  occ. eigenvalues --  -10.54442  -1.17990  -1.16023  -1.05250  -1.02781
 Alpha  occ. eigenvalues --   -0.96147  -0.88765  -0.86734  -0.85061  -0.82501
 Alpha  occ. eigenvalues --   -0.78005  -0.72660  -0.70865  -0.68392  -0.66801
 Alpha  occ. eigenvalues --   -0.63558  -0.63292  -0.61036  -0.56136  -0.55928
 Alpha  occ. eigenvalues --   -0.54117  -0.53271  -0.52251  -0.51987  -0.51307
 Alpha  occ. eigenvalues --   -0.50218  -0.49206  -0.48207  -0.47232  -0.46638
 Alpha  occ. eigenvalues --   -0.46298  -0.44703  -0.43629  -0.42621  -0.42233
 Alpha  occ. eigenvalues --   -0.41133  -0.40414  -0.39971  -0.37208  -0.34159
 Alpha  occ. eigenvalues --   -0.32090  -0.31940  -0.31406  -0.27850
 Alpha virt. eigenvalues --   -0.02314   0.00353   0.01352   0.02446   0.03058
 Alpha virt. eigenvalues --    0.03670   0.03992   0.04198   0.04894   0.05078
 Alpha virt. eigenvalues --    0.06060   0.06138   0.06569   0.06715   0.07279
 Alpha virt. eigenvalues --    0.07453   0.07853   0.08296   0.08709   0.09433
 Alpha virt. eigenvalues --    0.09505   0.09976   0.10446   0.11069   0.11377
 Alpha virt. eigenvalues --    0.11460   0.12325   0.12610   0.13386   0.14546
 Alpha virt. eigenvalues --    0.14886   0.15372   0.15505   0.15905   0.16604
 Alpha virt. eigenvalues --    0.16823   0.17653   0.17761   0.18338   0.18763
 Alpha virt. eigenvalues --    0.19396   0.20104   0.20742   0.20796   0.21832
 Alpha virt. eigenvalues --    0.21949   0.22276   0.22625   0.22841   0.23286
 Alpha virt. eigenvalues --    0.24082   0.24388   0.24488   0.24949   0.25410
 Alpha virt. eigenvalues --    0.25806   0.26128   0.26460   0.27169   0.27369
 Alpha virt. eigenvalues --    0.28474   0.28638   0.29314   0.29449   0.29549
 Alpha virt. eigenvalues --    0.29966   0.30462   0.31174   0.31660   0.32012
 Alpha virt. eigenvalues --    0.32838   0.33119   0.33304   0.33465   0.34039
 Alpha virt. eigenvalues --    0.34913   0.35092   0.35336   0.35768   0.36199
 Alpha virt. eigenvalues --    0.36936   0.37638   0.38085   0.39056   0.40341
 Alpha virt. eigenvalues --    0.40933   0.41335   0.42557   0.44075   0.45412
 Alpha virt. eigenvalues --    0.46045   0.47255   0.48968   0.50946   0.52893
 Alpha virt. eigenvalues --    0.54036   0.57390   0.59892   0.63149   0.66928
 Alpha virt. eigenvalues --    0.68711   0.70061   0.70323   0.72630   0.73093
 Alpha virt. eigenvalues --    0.73853   0.74123   0.74814   0.76201   0.76443
 Alpha virt. eigenvalues --    0.77333   0.78059   0.78270   0.78957   0.79230
 Alpha virt. eigenvalues --    0.80782   0.81672   0.83088   0.84080   0.84784
 Alpha virt. eigenvalues --    0.85067   0.85334   0.86245   0.87789   0.88848
 Alpha virt. eigenvalues --    0.91198   0.92466   0.94211   0.96888   0.98140
 Alpha virt. eigenvalues --    1.00018   1.00176   1.00712   1.01361   1.02315
 Alpha virt. eigenvalues --    1.03732   1.04437   1.05157   1.05902   1.06088
 Alpha virt. eigenvalues --    1.08232   1.10364   1.11010   1.11856   1.12332
 Alpha virt. eigenvalues --    1.13709   1.13889   1.14721   1.15328   1.17591
 Alpha virt. eigenvalues --    1.18071   1.18704   1.19962   1.21589   1.22925
 Alpha virt. eigenvalues --    1.25281   1.28364   1.28988   1.30991   1.31527
 Alpha virt. eigenvalues --    1.32741   1.33934   1.34543   1.36252   1.37620
 Alpha virt. eigenvalues --    1.38428   1.39498   1.40354   1.41498   1.42885
 Alpha virt. eigenvalues --    1.44639   1.45298   1.46108   1.46661   1.48895
 Alpha virt. eigenvalues --    1.49497   1.50146   1.50546   1.53030   1.53627
 Alpha virt. eigenvalues --    1.55591   1.56589   1.57723   1.58107   1.61392
 Alpha virt. eigenvalues --    1.65923   1.70083   1.76099   1.78379   1.79595
 Alpha virt. eigenvalues --    1.80775   1.83970   1.85409   1.86692   1.87651
 Alpha virt. eigenvalues --    1.88421   1.88937   1.90212   1.92425   1.92802
 Alpha virt. eigenvalues --    1.94633   1.95824   1.97699   1.99230   2.01870
 Alpha virt. eigenvalues --    2.04365   2.04741   2.04907   2.07859   2.08057
 Alpha virt. eigenvalues --    2.10446   2.11211   2.11545   2.13810   2.15034
 Alpha virt. eigenvalues --    2.17268   2.18258   2.18819   2.20986   2.21149
 Alpha virt. eigenvalues --    2.24127   2.27486   2.28179   2.30169   2.30566
 Alpha virt. eigenvalues --    2.32102   2.33157   2.35515   2.36850   2.39490
 Alpha virt. eigenvalues --    2.41202   2.41773   2.44545   2.47809   2.47958
 Alpha virt. eigenvalues --    2.51149   2.56720   2.57888   2.62497   2.64293
 Alpha virt. eigenvalues --    2.65435   2.67112   2.69227   2.71408   2.73703
 Alpha virt. eigenvalues --    2.75470   2.78028   2.78975   2.82474   2.84769
 Alpha virt. eigenvalues --    2.88274   2.95344   2.98441   3.04260   3.11225
 Alpha virt. eigenvalues --    3.15176   3.23974   3.27375   3.34128   3.43651
 Alpha virt. eigenvalues --    4.14638   4.22711   4.24156   4.28108   4.29230
 Alpha virt. eigenvalues --    4.32948   4.36406   4.40462   4.42236   4.43087
 Alpha virt. eigenvalues --    4.49437   4.50791   4.58785   4.62521   4.68257
 Alpha virt. eigenvalues --    4.79322
          Condensed to atoms (all electrons):
               1          2          3          4          5          6
     1  C    5.669763  -0.054356   0.004107  -0.002730  -0.056329  -0.001475
     2  C   -0.054356   6.181088  -0.431868  -0.080633   0.152185   0.017070
     3  C    0.004107  -0.431868   6.836940   0.356580  -0.548470  -0.081977
     4  N   -0.002730  -0.080633   0.356580   7.754535   0.325691  -0.207356
     5  C   -0.056329   0.152185  -0.548470   0.325691   6.133585   0.647112
     6  O   -0.001475   0.017070  -0.081977  -0.207356   0.647112   8.339532
     7  N   -0.001226   0.021675  -0.122668  -0.420288   0.058081  -0.088438
     8  C   -0.007702   0.032874  -0.372907  -0.199317  -0.914976  -0.449442
     9  C   -0.000259  -0.011459   0.032460   0.096583   0.674632   0.453833
    10  C   -0.001193   0.008917  -0.107570  -0.136412  -1.300684  -0.143611
    11  C    0.000096   0.001028   0.017794   0.014132   0.211838   0.011399
    12  C   -0.000174   0.000758  -0.021635  -0.001105  -0.196703   0.018359
    13  C    0.000001  -0.000963  -0.007533   0.017509   0.035843   0.093042
    14  H    0.404559  -0.084122   0.030901   0.000383   0.000375   0.000007
    15  H    0.409621  -0.049185  -0.013645   0.000631   0.002538  -0.000030
    16  H    0.440389  -0.087508  -0.000150   0.001139  -0.011794  -0.000067
    17  H   -0.038654   0.415948  -0.060951   0.007202  -0.008499  -0.000174
    18  H   -0.031867   0.428667  -0.088181   0.007512   0.000361  -0.000253
    19  H   -0.006697  -0.041896   0.449150  -0.052315  -0.033301   0.001799
    20  H    0.014071  -0.063967   0.408576  -0.063467   0.009911   0.001567
    21  H   -0.001831  -0.000701  -0.058527   0.244790   0.019273   0.008796
    22  H   -0.000134  -0.000095   0.000495   0.024458  -0.028459   0.007883
    23  H    0.000002   0.000020   0.001268   0.000008   0.002260  -0.003199
    24  H   -0.000001   0.000022  -0.000298   0.000967  -0.004733   0.000011
    25  H    0.000000  -0.000000   0.000018   0.000007   0.002670   0.000001
    26  C   -0.000012   0.000061  -0.003299  -0.000058  -0.097836   0.001637
    27  H   -0.000000   0.000002  -0.000018   0.000002  -0.001316   0.000209
    28  O   -0.000000   0.000000  -0.000001   0.000001   0.000019   0.000001
    29  C    0.000000   0.000005   0.000163   0.000051   0.007563  -0.000016
    30  H    0.000000   0.000000   0.000000  -0.000000   0.000003   0.000000
    31  H    0.000000   0.000000   0.000001   0.000000   0.000102  -0.000000
    32  H   -0.000000  -0.000000  -0.000001  -0.000000  -0.000188   0.000000
               7          8          9         10         11         12
     1  C   -0.001226  -0.007702  -0.000259  -0.001193   0.000096  -0.000174
     2  C    0.021675   0.032874  -0.011459   0.008917   0.001028   0.000758
     3  C   -0.122668  -0.372907   0.032460  -0.107570   0.017794  -0.021635
     4  N   -0.420288  -0.199317   0.096583  -0.136412   0.014132  -0.001105
     5  C    0.058081  -0.914976   0.674632  -1.300684   0.211838  -0.196703
     6  O   -0.088438  -0.449442   0.453833  -0.143611   0.011399   0.018359
     7  N    7.839057   0.115815  -0.501499   0.455084   0.034455   0.005839
     8  C    0.115815  11.854323  -1.505151   0.648539   0.250114  -1.420788
     9  C   -0.501499  -1.505151  10.610173  -5.376550   0.296011  -0.638392
    10  C    0.455084   0.648539  -5.376550  15.892979  -3.670097   0.429074
    11  C    0.034455   0.250114   0.296011  -3.670097  11.494115  -0.552406
    12  C    0.005839  -1.420788  -0.638392   0.429074  -0.552406   9.957254
    13  C    0.013979  -1.917715   1.549089   0.234581  -2.843512   0.399026
    14  H    0.000015   0.000005   0.000001  -0.000001  -0.000000   0.000000
    15  H    0.000039   0.000044  -0.000019   0.000005   0.000000  -0.000000
    16  H   -0.000056  -0.000344  -0.000022  -0.000012   0.000001  -0.000001
    17  H   -0.000743  -0.000703  -0.000206   0.000030   0.000014  -0.000005
    18  H    0.000870  -0.000671  -0.000087   0.000091   0.000004  -0.000004
    19  H   -0.003373  -0.005717   0.002427  -0.001253   0.000024  -0.000014
    20  H    0.003680  -0.001743   0.002084  -0.000310  -0.000023   0.000006
    21  H    0.023472   0.013450   0.000377  -0.001861  -0.000325  -0.000043
    22  H    0.227091   0.018995   0.046398  -0.102323   0.044214  -0.001028
    23  H   -0.014833   0.070628   0.273716   0.048237  -0.019658   0.010215
    24  H   -0.011348   0.092222   0.049757   0.149567   0.029110  -0.009632
    25  H    0.000262   0.033781   0.006517  -0.089529   0.358548   0.040307
    26  C   -0.008004  -0.408502  -0.280280   0.475924  -0.758497  -2.017526
    27  H   -0.000810   0.019005  -0.064904  -0.046097   0.096142   0.077016
    28  O   -0.000025   0.022350  -0.019670   0.059434   0.207403  -0.384787
    29  C    0.000036   0.039786  -0.089578  -0.070084   0.526505  -0.115326
    30  H   -0.000000   0.000200   0.002485  -0.001464  -0.012844   0.046023
    31  H    0.000002   0.002719   0.011642  -0.002156  -0.004555   0.009168
    32  H   -0.000006   0.000878   0.010295  -0.000294  -0.007021  -0.007660
              13         14         15         16         17         18
     1  C    0.000001   0.404559   0.409621   0.440389  -0.038654  -0.031867
     2  C   -0.000963  -0.084122  -0.049185  -0.087508   0.415948   0.428667
     3  C   -0.007533   0.030901  -0.013645  -0.000150  -0.060951  -0.088181
     4  N    0.017509   0.000383   0.000631   0.001139   0.007202   0.007512
     5  C    0.035843   0.000375   0.002538  -0.011794  -0.008499   0.000361
     6  O    0.093042   0.000007  -0.000030  -0.000067  -0.000174  -0.000253
     7  N    0.013979   0.000015   0.000039  -0.000056  -0.000743   0.000870
     8  C   -1.917715   0.000005   0.000044  -0.000344  -0.000703  -0.000671
     9  C    1.549089   0.000001  -0.000019  -0.000022  -0.000206  -0.000087
    10  C    0.234581  -0.000001   0.000005  -0.000012   0.000030   0.000091
    11  C   -2.843512  -0.000000   0.000000   0.000001   0.000014   0.000004
    12  C    0.399026   0.000000  -0.000000  -0.000001  -0.000005  -0.000004
    13  C    8.576022   0.000000  -0.000000  -0.000001  -0.000007  -0.000004
    14  H    0.000000   0.487367  -0.023785  -0.025038  -0.000112  -0.006123
    15  H   -0.000000  -0.023785   0.481510  -0.025948  -0.007592   0.003476
    16  H   -0.000001  -0.025038  -0.025948   0.491699   0.003826  -0.001060
    17  H   -0.000007  -0.000112  -0.007592   0.003826   0.504661  -0.032501
    18  H   -0.000004  -0.006123   0.003476  -0.001060  -0.032501   0.499458
    19  H    0.000247  -0.000046   0.000043   0.003230   0.003730  -0.005274
    20  H    0.000148  -0.000007   0.000926  -0.000976  -0.005364   0.003784
    21  H   -0.000159  -0.000005  -0.000002   0.000008   0.000665   0.001075
    22  H   -0.002385  -0.000000  -0.000000   0.000000   0.000004  -0.000000
    23  H   -0.070965   0.000000  -0.000000  -0.000000  -0.000000  -0.000000
    24  H   -0.007239  -0.000000  -0.000000   0.000000   0.000000   0.000000
    25  H   -0.006356  -0.000000  -0.000000   0.000000  -0.000000   0.000000
    26  C    1.149324   0.000000  -0.000000  -0.000000  -0.000000  -0.000000
    27  H    0.245080  -0.000000   0.000000   0.000000  -0.000000   0.000000
    28  O   -0.102047  -0.000000  -0.000000  -0.000000  -0.000000  -0.000000
    29  C   -0.682084  -0.000000   0.000000   0.000000   0.000000   0.000000
    30  H    0.001642   0.000000   0.000000   0.000000  -0.000000  -0.000000
    31  H    0.016625   0.000000  -0.000000  -0.000000  -0.000000   0.000000
    32  H    0.020416   0.000000  -0.000000  -0.000000   0.000000  -0.000000
              19         20         21         22         23         24
     1  C   -0.006697   0.014071  -0.001831  -0.000134   0.000002  -0.000001
     2  C   -0.041896  -0.063967  -0.000701  -0.000095   0.000020   0.000022
     3  C    0.449150   0.408576  -0.058527   0.000495   0.001268  -0.000298
     4  N   -0.052315  -0.063467   0.244790   0.024458   0.000008   0.000967
     5  C   -0.033301   0.009911   0.019273  -0.028459   0.002260  -0.004733
     6  O    0.001799   0.001567   0.008796   0.007883  -0.003199   0.000011
     7  N   -0.003373   0.003680   0.023472   0.227091  -0.014833  -0.011348
     8  C   -0.005717  -0.001743   0.013450   0.018995   0.070628   0.092222
     9  C    0.002427   0.002084   0.000377   0.046398   0.273716   0.049757
    10  C   -0.001253  -0.000310  -0.001861  -0.102323   0.048237   0.149567
    11  C    0.000024  -0.000023  -0.000325   0.044214  -0.019658   0.029110
    12  C   -0.000014   0.000006  -0.000043  -0.001028   0.010215  -0.009632
    13  C    0.000247   0.000148  -0.000159  -0.002385  -0.070965  -0.007239
    14  H   -0.000046  -0.000007  -0.000005  -0.000000   0.000000  -0.000000
    15  H    0.000043   0.000926  -0.000002  -0.000000  -0.000000  -0.000000
    16  H    0.003230  -0.000976   0.000008   0.000000  -0.000000   0.000000
    17  H    0.003730  -0.005364   0.000665   0.000004  -0.000000   0.000000
    18  H   -0.005274   0.003784   0.001075  -0.000000  -0.000000   0.000000
    19  H    0.491114  -0.036000   0.002529   0.000009  -0.000000   0.000000
    20  H   -0.036000   0.496691   0.002545  -0.000002  -0.000001  -0.000000
    21  H    0.002529   0.002545   0.317732   0.002071   0.000001   0.000004
    22  H    0.000009  -0.000002   0.002071   0.316041  -0.000128   0.006196
    23  H   -0.000000  -0.000001   0.000001  -0.000128   0.430108  -0.000099
    24  H    0.000000  -0.000000   0.000004   0.006196  -0.000099   0.487113
    25  H   -0.000000   0.000000  -0.000000  -0.000012   0.000010  -0.003726
    26  C   -0.000001  -0.000001  -0.000002   0.001402   0.006063   0.006191
    27  H   -0.000000  -0.000000   0.000000   0.000002  -0.004128   0.000014
    28  O   -0.000000  -0.000000   0.000000   0.000002   0.000032   0.000183
    29  C    0.000000  -0.000000  -0.000000   0.000022   0.000244   0.000193
    30  H    0.000000   0.000000  -0.000000   0.000000  -0.000000  -0.000000
    31  H   -0.000000  -0.000000   0.000000  -0.000000  -0.000001  -0.000000
    32  H    0.000000   0.000000  -0.000000  -0.000000  -0.000001  -0.000000
              25         26         27         28         29         30
     1  C    0.000000  -0.000012  -0.000000  -0.000000   0.000000   0.000000
     2  C   -0.000000   0.000061   0.000002   0.000000   0.000005   0.000000
     3  C    0.000018  -0.003299  -0.000018  -0.000001   0.000163   0.000000
     4  N    0.000007  -0.000058   0.000002   0.000001   0.000051  -0.000000
     5  C    0.002670  -0.097836  -0.001316   0.000019   0.007563   0.000003
     6  O    0.000001   0.001637   0.000209   0.000001  -0.000016   0.000000
     7  N    0.000262  -0.008004  -0.000810  -0.000025   0.000036  -0.000000
     8  C    0.033781  -0.408502   0.019005   0.022350   0.039786   0.000200
     9  C    0.006517  -0.280280  -0.064904  -0.019670  -0.089578   0.002485
    10  C   -0.089529   0.475924  -0.046097   0.059434  -0.070084  -0.001464
    11  C    0.358548  -0.758497   0.096142   0.207403   0.526505  -0.012844
    12  C    0.040307  -2.017526   0.077016  -0.384787  -0.115326   0.046023
    13  C   -0.006356   1.149324   0.245080  -0.102047  -0.682084   0.001642
    14  H   -0.000000   0.000000  -0.000000  -0.000000  -0.000000   0.000000
    15  H   -0.000000  -0.000000   0.000000  -0.000000   0.000000   0.000000
    16  H    0.000000  -0.000000   0.000000  -0.000000   0.000000   0.000000
    17  H   -0.000000  -0.000000  -0.000000  -0.000000   0.000000  -0.000000
    18  H    0.000000  -0.000000   0.000000  -0.000000   0.000000  -0.000000
    19  H   -0.000000  -0.000001  -0.000000  -0.000000   0.000000   0.000000
    20  H    0.000000  -0.000001  -0.000000  -0.000000  -0.000000   0.000000
    21  H   -0.000000  -0.000002   0.000000   0.000000  -0.000000  -0.000000
    22  H   -0.000012   0.001402   0.000002   0.000002   0.000022   0.000000
    23  H    0.000010   0.006063  -0.004128   0.000032   0.000244  -0.000000
    24  H   -0.003726   0.006191   0.000014   0.000183   0.000193  -0.000000
    25  H    0.444486  -0.053194  -0.000110   0.005887   0.006922  -0.000003
    26  C   -0.053194   8.046852  -0.034771   0.470510  -0.865868  -0.126569
    27  H   -0.000110  -0.034771   0.477183  -0.000172   0.011964   0.000116
    28  O    0.005887   0.470510  -0.000172   8.264289  -0.068219  -0.000774
    29  C    0.006922  -0.865868   0.011964  -0.068219   7.014839   0.440453
    30  H   -0.000003  -0.126569   0.000116  -0.000774   0.440453   0.436887
    31  H   -0.000001  -0.077055  -0.001040   0.002761   0.377801  -0.020142
    32  H   -0.000001  -0.060059  -0.001037   0.002751   0.377966  -0.020143
              31         32
     1  C    0.000000  -0.000000
     2  C    0.000000  -0.000000
     3  C    0.000001  -0.000001
     4  N    0.000000  -0.000000
     5  C    0.000102  -0.000188
     6  O   -0.000000   0.000000
     7  N    0.000002  -0.000006
     8  C    0.002719   0.000878
     9  C    0.011642   0.010295
    10  C   -0.002156  -0.000294
    11  C   -0.004555  -0.007021
    12  C    0.009168  -0.007660
    13  C    0.016625   0.020416
    14  H    0.000000   0.000000
    15  H   -0.000000  -0.000000
    16  H   -0.000000  -0.000000
    17  H   -0.000000   0.000000
    18  H    0.000000  -0.000000
    19  H   -0.000000   0.000000
    20  H   -0.000000   0.000000
    21  H    0.000000  -0.000000
    22  H   -0.000000  -0.000000
    23  H   -0.000001  -0.000001
    24  H   -0.000000  -0.000000
    25  H   -0.000001  -0.000001
    26  C   -0.077055  -0.060059
    27  H   -0.001040  -0.001037
    28  O    0.002761   0.002751
    29  C    0.377801   0.377966
    30  H   -0.020142  -0.020143
    31  H    0.464063  -0.024042
    32  H   -0.024042   0.464094
 Mulliken charges:
               1
     1  C   -0.737971
     2  C   -0.353569
     3  C   -0.218755
     4  N   -0.688499
     5  C    0.919248
     6  O   -0.626222
     7  N   -0.626134
     8  C   -0.010052
     9  C    0.369595
    10  C   -1.350964
    11  C    0.275990
    12  C    0.374183
    13  C   -0.711603
    14  H    0.215627
    15  H    0.221372
    16  H    0.212685
    17  H    0.219431
    18  H    0.220727
    19  H    0.231584
    20  H    0.227872
    21  H    0.426668
    22  H    0.439285
    23  H    0.270201
    24  H    0.215525
    25  H    0.253514
    26  C    0.633568
    27  H    0.227670
    28  O   -0.459929
    29  C   -0.913337
    30  H    0.254130
    31  H    0.244110
    32  H    0.244052
 Sum of Mulliken charges =  -0.00000
 Mulliken charges with hydrogens summed into heavy atoms:
               1
     1  C   -0.088287
     2  C    0.086589
     3  C    0.240701
     4  N   -0.261832
     5  C    0.919248
     6  O   -0.626222
     7  N   -0.186849
     8  C   -0.010052
     9  C    0.639796
    10  C   -1.135438
    11  C    0.529503
    12  C    0.374183
    13  C   -0.483933
    26  C    0.633568
    28  O   -0.459929
    29  C   -0.171045
 Electronic spatial extent (au):  <R**2>=           7229.6234
 Charge=             -0.0000 electrons
 Dipole moment (field-independent basis, Debye):
    X=             -5.4437    Y=              2.0526    Z=             -0.1388  Tot=              5.8195
 Quadrupole moment (field-independent basis, Debye-Ang):
   XX=           -100.0408   YY=            -89.2891   ZZ=            -99.5536
   XY=            -23.1882   XZ=             -0.5584   YZ=             -0.9378
 Traceless Quadrupole moment (field-independent basis, Debye-Ang):
   XX=             -3.7463   YY=              7.0054   ZZ=             -3.2591
   XY=            -23.1882   XZ=             -0.5584   YZ=             -0.9378
 Octapole moment (field-independent basis, Debye-Ang**2):
  XXX=           -235.1661  YYY=             20.5031  ZZZ=              1.0874  XYY=              5.0167
  XXY=            -63.9398  XXZ=             -6.7908  XZZ=             -5.6798  YZZ=             -2.7926
  YYZ=             -1.5334  XYZ=              1.4182
 Hexadecapole moment (field-independent basis, Debye-Ang**3):
 XXXX=          -9515.5735 YYYY=           -621.3828 ZZZZ=           -143.3120 XXXY=           -528.1608
 XXXZ=             -7.3821 YYYX=            -26.7392 YYYZ=              0.4475 ZZZX=             -2.9498
 ZZZY=             -0.6598 XXYY=          -1595.8225 XXZZ=          -1520.7013 YYZZ=           -141.2365
 XXYZ=            -12.3938 YYXZ=              7.7631 ZZXY=             -4.7221
 N-N= 1.005575837831D+03 E-N=-3.700119123854D+03  KE= 7.199466344946D+02
 D1PCM: PCM CHGder 1st derivatives, ID1Alg=3 FixD1E=F DoIter=F DoCFld=F I1PDM=0.
 Calling FoFJK, ICntrl=      2127 FMM=F ISym2X=0 I1Cent= 0 IOpClX= 0 NMat=1 NMatS=1 NMatT=0.
 ***** Axes restored to original set *****
 -------------------------------------------------------------------
 Center     Atomic                   Forces (Hartrees/Bohr)
 Number     Number              X              Y              Z
 -------------------------------------------------------------------
      1        6           0.006028040   -0.004058216   -0.001529656
      2        6          -0.003453493    0.008241031    0.002227132
      3        6           0.002092483   -0.007524228    0.001401692
      4        7           0.004006998    0.037392977    0.001886327
      5        6           0.000815456   -0.024401134    0.003658560
      6        8          -0.007550285   -0.014824544   -0.004335072
      7        7          -0.012565255    0.031276705   -0.000439400
      8        6           0.013065681   -0.008416739    0.002244842
      9        6          -0.004844525    0.002075805   -0.000296304
     10        6          -0.006319156   -0.002518105   -0.000171282
     11        6           0.009309236   -0.005944082    0.000721651
     12        6           0.001342870   -0.009180270    0.000570780
     13        6           0.009423276    0.016187485   -0.000473005
     14        1          -0.007576622   -0.005178481   -0.007070978
     15        1          -0.001490067   -0.002215744    0.011201102
     16        1           0.006528616    0.007156121   -0.004080474
     17        1          -0.002209107   -0.003506341    0.009262210
     18        1          -0.003627576   -0.001378653   -0.009106888
     19        1           0.000867163    0.005731214   -0.009459867
     20        1          -0.000107504    0.001280811    0.010185087
     21        1          -0.003000386   -0.015580518   -0.005277442
     22        1          -0.010951469   -0.011680243   -0.001143071
     23        1           0.010072532   -0.001120651    0.000421368
     24        1           0.003181264    0.001756540    0.000051798
     25        1          -0.003589540    0.000146319   -0.000167235
     26        6          -0.008448446    0.017624575   -0.001378921
     27        1          -0.001824458   -0.001986510    0.000055772
     28        8           0.003492379    0.001735051    0.000080974
     29        6          -0.004683449   -0.014353377    0.000563590
     30        1           0.014181586   -0.000160619    0.000688522
     31        1          -0.000618805    0.001172803   -0.009705923
     32        1          -0.001547438    0.002251018    0.009414112
 -------------------------------------------------------------------
 Cartesian Forces:  Max     0.037392977 RMS     0.008566049

 GradGradGradGradGradGradGradGradGradGradGradGradGradGradGradGradGradGrad
 Berny optimization.
 FormGI is forming the generalized inverse of G from B-inverse, IUseBI=4.
 GSVD:  received Info=                   1 from GESDD.
 Internal  Forces:  Max     0.032285743 RMS     0.006115537
 Search for a local minimum.
 Step number   1 out of a maximum of  166
 All quantities printed in internal units (Hartrees-Bohrs-Radians)
 Mixed Optimization -- RFO/linear search
 Second derivative matrix not updated -- first step.
 ITU=  0
     Eigenvalues ---    0.00327   0.00424   0.00729   0.00789   0.00877
     Eigenvalues ---    0.00994   0.01169   0.01468   0.01636   0.01648
     Eigenvalues ---    0.01724   0.01958   0.01992   0.02038   0.02056
     Eigenvalues ---    0.02064   0.02079   0.02096   0.02101   0.02138
     Eigenvalues ---    0.02178   0.03750   0.04440   0.04932   0.05552
     Eigenvalues ---    0.05673   0.05786   0.07364   0.07410   0.08041
     Eigenvalues ---    0.09172   0.11981   0.12663   0.16000   0.16000
     Eigenvalues ---    0.16000   0.16000   0.16000   0.16000   0.16000
     Eigenvalues ---    0.16000   0.16000   0.16000   0.16000   0.16000
     Eigenvalues ---    0.21964   0.22000   0.22000   0.22000   0.22003
     Eigenvalues ---    0.22957   0.24000   0.25000   0.25000   0.25000
     Eigenvalues ---    0.25000   0.25000   0.25000   0.29130   0.29813
     Eigenvalues ---    0.32085   0.32337   0.32339   0.32403   0.32404
     Eigenvalues ---    0.32474   0.32507   0.32510   0.32556   0.32589
     Eigenvalues ---    0.32591   0.33277   0.35625   0.35640   0.35767
     Eigenvalues ---    0.36687   0.37892   0.39647   0.40700   0.41151
     Eigenvalues ---    0.42439   0.42462   0.44118   0.44615   0.45216
     Eigenvalues ---    0.46053   0.51151   0.52293   0.94220   0.95089
 RFO step:  Lambda=-1.91481548D-02 EMin= 3.26804824D-03
 Linear search not attempted -- first point.
 Iteration  1 RMS(Cart)=  0.09893218 RMS(Int)=  0.00189693
 Iteration  2 RMS(Cart)=  0.00513357 RMS(Int)=  0.00006360
 Iteration  3 RMS(Cart)=  0.00000731 RMS(Int)=  0.00006339
 Iteration  4 RMS(Cart)=  0.00000000 RMS(Int)=  0.00006339
 Variable       Old X    -DE/DX   Delta X   Delta X   Delta X     New X
                                 (Linear)    (Quad)   (Total)
    R1        2.88337   0.00567   0.00000   0.01787   0.01787   2.90124
    R2        2.09839  -0.01091   0.00000  -0.03164  -0.03164   2.06675
    R3        2.09926  -0.01086   0.00000  -0.03155  -0.03155   2.06771
    R4        2.09920  -0.01004   0.00000  -0.02918  -0.02918   2.07003
    R5        2.89732  -0.00571   0.00000  -0.01838  -0.01838   2.87895
    R6        2.10110  -0.00928   0.00000  -0.02703  -0.02703   2.07407
    R7        2.10113  -0.00930   0.00000  -0.02711  -0.02711   2.07403
    R8        2.74523  -0.00118   0.00000  -0.00295  -0.00295   2.74228
    R9        2.10228  -0.01074   0.00000  -0.03136  -0.03136   2.07092
   R10        2.10231  -0.00970   0.00000  -0.02833  -0.02833   2.07398
   R11        2.57620   0.00079   0.00000   0.00146   0.00146   2.57765
   R12        1.95068  -0.01627   0.00000  -0.03668  -0.03668   1.91400
   R13        2.30672   0.01649   0.00000   0.01700   0.01700   2.32373
   R14        2.58721   0.00975   0.00000   0.01837   0.01837   2.60558
   R15        2.72036  -0.03229   0.00000  -0.07768  -0.07768   2.64268
   R16        1.95039  -0.01535   0.00000  -0.03459  -0.03459   1.91580
   R17        2.67321  -0.01464   0.00000  -0.03247  -0.03244   2.64078
   R18        2.65858  -0.00461   0.00000  -0.01001  -0.00997   2.64861
   R19        2.64407  -0.00620   0.00000  -0.01299  -0.01300   2.63107
   R20        2.03020   0.00467   0.00000   0.01210   0.01210   2.04230
   R21        2.63832  -0.01016   0.00000  -0.02109  -0.02109   2.61723
   R22        2.04672   0.00321   0.00000   0.00855   0.00855   2.05526
   R23        2.65271  -0.00655   0.00000  -0.01389  -0.01393   2.63878
   R24        2.04648   0.00159   0.00000   0.00423   0.00423   2.05071
   R25        2.65592  -0.00496   0.00000  -0.01055  -0.01059   2.64533
   R26        2.81868  -0.00159   0.00000  -0.00453  -0.00453   2.81415
   R27        2.04447   0.00266   0.00000   0.00706   0.00706   2.05154
   R28        2.31047   0.00013   0.00000   0.00013   0.00013   2.31060
   R29        2.83988   0.00442   0.00000   0.01299   0.01299   2.85287
   R30        2.09986  -0.01367   0.00000  -0.03974  -0.03974   2.06011
   R31        2.09780  -0.00895   0.00000  -0.02594  -0.02594   2.07186
   R32        2.09775  -0.00897   0.00000  -0.02600  -0.02600   2.07175
    A1        1.91230   0.00437   0.00000   0.02614   0.02587   1.93817
    A2        1.92565   0.00327   0.00000   0.01779   0.01760   1.94325
    A3        1.92601   0.00269   0.00000   0.01370   0.01357   1.93958
    A4        1.89660  -0.00344   0.00000  -0.01664  -0.01694   1.87965
    A5        1.89681  -0.00344   0.00000  -0.01835  -0.01855   1.87826
    A6        1.90598  -0.00367   0.00000  -0.02379  -0.02384   1.88214
    A7        1.94221  -0.00085   0.00000   0.00088   0.00088   1.94309
    A8        1.90064   0.00153   0.00000   0.01346   0.01346   1.91410
    A9        1.90120   0.00225   0.00000   0.02202   0.02201   1.92321
   A10        1.91066  -0.00058   0.00000  -0.00897  -0.00903   1.90163
   A11        1.91028  -0.00066   0.00000  -0.00621  -0.00634   1.90394
   A12        1.89830  -0.00169   0.00000  -0.02155  -0.02178   1.87651
   A13        1.93660  -0.00408   0.00000  -0.01381  -0.01376   1.92284
   A14        1.90576   0.00192   0.00000   0.01156   0.01158   1.91733
   A15        1.90588   0.00227   0.00000   0.01316   0.01317   1.91905
   A16        1.90682   0.00143   0.00000   0.00740   0.00744   1.91427
   A17        1.90600   0.00094   0.00000   0.00304   0.00309   1.90908
   A18        1.90247  -0.00249   0.00000  -0.02166  -0.02169   1.88078
   A19        2.12803  -0.00415   0.00000  -0.01736  -0.01738   2.11065
   A20        2.07700  -0.00085   0.00000  -0.00767  -0.00769   2.06931
   A21        2.07816   0.00501   0.00000   0.02504   0.02502   2.10317
   A22        2.08157   0.01589   0.00000   0.05904   0.05898   2.14055
   A23        2.08410  -0.02761   0.00000  -0.10258  -0.10264   1.98146
   A24        2.11751   0.01171   0.00000   0.04351   0.04345   2.16096
   A25        2.23396  -0.00236   0.00000  -0.00986  -0.00986   2.22409
   A26        2.02716   0.00564   0.00000   0.02982   0.02982   2.05697
   A27        2.02207  -0.00328   0.00000  -0.01995  -0.01995   2.00212
   A28        2.17462  -0.00305   0.00000  -0.01145  -0.01149   2.16313
   A29        2.05326  -0.00474   0.00000  -0.01774  -0.01778   2.03548
   A30        2.05531   0.00778   0.00000   0.02919   0.02927   2.08458
   A31        2.10766  -0.00683   0.00000  -0.02809  -0.02806   2.07960
   A32        2.15360  -0.00572   0.00000  -0.03697  -0.03699   2.11661
   A33        2.02193   0.01256   0.00000   0.06506   0.06505   2.08697
   A34        2.11861  -0.00255   0.00000  -0.01021  -0.01016   2.10844
   A35        2.09776  -0.00047   0.00000  -0.00463  -0.00465   2.09310
   A36        2.06682   0.00302   0.00000   0.01484   0.01482   2.08164
   A37        2.10684  -0.00140   0.00000  -0.00511  -0.00515   2.10169
   A38        2.06899   0.00401   0.00000   0.02100   0.02101   2.09001
   A39        2.10735  -0.00260   0.00000  -0.01588  -0.01586   2.09149
   A40        2.06671  -0.00008   0.00000   0.00053   0.00046   2.06717
   A41        2.09684  -0.00320   0.00000  -0.01230  -0.01227   2.08457
   A42        2.11963   0.00328   0.00000   0.01177   0.01181   2.13144
   A43        2.11124   0.00308   0.00000   0.01368   0.01364   2.12488
   A44        2.06142  -0.00108   0.00000  -0.00429  -0.00427   2.05715
   A45        2.11053  -0.00200   0.00000  -0.00939  -0.00937   2.10115
   A46        2.09002   0.00278   0.00000   0.01032   0.01032   2.10034
   A47        2.12757  -0.01456   0.00000  -0.05408  -0.05408   2.07350
   A48        2.06559   0.01178   0.00000   0.04376   0.04376   2.10935
   A49        1.93254  -0.00635   0.00000  -0.03376  -0.03358   1.89896
   A50        1.91675   0.00374   0.00000   0.02004   0.02007   1.93682
   A51        1.91705   0.00371   0.00000   0.01983   0.01986   1.93692
   A52        1.89212   0.00171   0.00000   0.01124   0.01141   1.90353
   A53        1.89216   0.00171   0.00000   0.01115   0.01132   1.90348
   A54        1.91283  -0.00462   0.00000  -0.02909  -0.02919   1.88364
    D1       -2.70103  -0.00083   0.00000  -0.03677  -0.03676  -2.73779
    D2        1.47445  -0.00058   0.00000  -0.03499  -0.03495   1.43951
    D3       -0.59343  -0.00071   0.00000  -0.02947  -0.02944  -0.62287
    D4        1.49473  -0.00136   0.00000  -0.04368  -0.04377   1.45096
    D5       -0.61298  -0.00110   0.00000  -0.04190  -0.04195  -0.65493
    D6       -2.68086  -0.00124   0.00000  -0.03638  -0.03644  -2.71730
    D7       -0.61312  -0.00066   0.00000  -0.03447  -0.03445  -0.64757
    D8       -2.72082  -0.00041   0.00000  -0.03269  -0.03263  -2.75346
    D9        1.49448  -0.00054   0.00000  -0.02718  -0.02713   1.46735
   D10       -3.13909   0.00059   0.00000   0.01367   0.01367  -3.12542
   D11        1.04136   0.00013   0.00000   0.00566   0.00567   1.04703
   D12       -1.03730   0.00067   0.00000   0.01730   0.01727  -1.02003
   D13       -1.03729   0.00157   0.00000   0.02512   0.02507  -1.01222
   D14       -3.14002   0.00111   0.00000   0.01711   0.01707  -3.12295
   D15        1.06451   0.00165   0.00000   0.02875   0.02867   1.09318
   D16        1.04184  -0.00124   0.00000  -0.01029  -0.01022   1.03162
   D17       -1.06090  -0.00169   0.00000  -0.01830  -0.01821  -1.07911
   D18       -3.13955  -0.00116   0.00000  -0.00666  -0.00662   3.13702
   D19       -3.14086   0.00012   0.00000   0.00153   0.00149  -3.13936
   D20        0.00153  -0.00029   0.00000  -0.01059  -0.01054  -0.00900
   D21       -1.03875   0.00087   0.00000   0.01200   0.01196  -1.02680
   D22        2.10364   0.00046   0.00000  -0.00012  -0.00007   2.10357
   D23        1.04060  -0.00074   0.00000  -0.00810  -0.00815   1.03245
   D24       -2.10019  -0.00116   0.00000  -0.02022  -0.02018  -2.12037
   D25        0.21473  -0.00335   0.00000  -0.08299  -0.08309   0.13164
   D26       -2.92513  -0.00256   0.00000  -0.06362  -0.06365  -2.98878
   D27       -2.92766  -0.00294   0.00000  -0.07087  -0.07084  -2.99850
   D28        0.21566  -0.00215   0.00000  -0.05151  -0.05140   0.16426
   D29       -3.14130   0.00060   0.00000   0.01512   0.01517  -3.12614
   D30        0.00297   0.00052   0.00000   0.01285   0.01287   0.01584
   D31        0.00206   0.00140   0.00000   0.03488   0.03486   0.03691
   D32       -3.13686   0.00132   0.00000   0.03261   0.03256  -3.10430
   D33        0.01499  -0.00015   0.00000  -0.00442  -0.00440   0.01059
   D34       -3.12729  -0.00010   0.00000  -0.00318  -0.00318  -3.13048
   D35       -3.12928  -0.00006   0.00000  -0.00209  -0.00210  -3.13137
   D36        0.01163  -0.00001   0.00000  -0.00085  -0.00088   0.01075
   D37        3.14137   0.00002   0.00000   0.00064   0.00064  -3.14118
   D38        0.00109  -0.00004   0.00000  -0.00075  -0.00072   0.00037
   D39        0.00047  -0.00002   0.00000  -0.00059  -0.00060  -0.00013
   D40       -3.13981  -0.00008   0.00000  -0.00198  -0.00195   3.14142
   D41        3.14125  -0.00002   0.00000  -0.00048  -0.00047   3.14078
   D42        0.00045  -0.00002   0.00000  -0.00056  -0.00055  -0.00010
   D43       -0.00098   0.00002   0.00000   0.00066   0.00067  -0.00031
   D44        3.14140   0.00002   0.00000   0.00058   0.00059  -3.14119
   D45        0.00029   0.00000   0.00000   0.00004   0.00003   0.00032
   D46       -3.14128   0.00002   0.00000   0.00035   0.00034  -3.14094
   D47        3.14066   0.00004   0.00000   0.00126   0.00129  -3.14123
   D48       -0.00090   0.00006   0.00000   0.00157   0.00160   0.00070
   D49        0.00074  -0.00001   0.00000  -0.00019  -0.00019   0.00056
   D50       -3.14094  -0.00002   0.00000  -0.00041  -0.00042  -3.14135
   D51        3.14156  -0.00001   0.00000  -0.00012  -0.00011   3.14144
   D52       -0.00012  -0.00002   0.00000  -0.00034  -0.00034  -0.00047
   D53        0.00004  -0.00002   0.00000  -0.00040  -0.00040  -0.00036
   D54        3.14143  -0.00001   0.00000  -0.00029  -0.00028   3.14114
   D55       -3.14147  -0.00001   0.00000  -0.00017  -0.00017   3.14155
   D56       -0.00008  -0.00000   0.00000  -0.00006  -0.00006  -0.00013
   D57       -0.00055   0.00002   0.00000   0.00046   0.00047  -0.00008
   D58        3.14102   0.00000   0.00000   0.00014   0.00015   3.14117
   D59        3.14125   0.00001   0.00000   0.00035   0.00035  -3.14158
   D60       -0.00037  -0.00000   0.00000   0.00003   0.00004  -0.00033
   D61        0.00149  -0.00001   0.00000  -0.00053  -0.00053   0.00096
   D62       -3.13998  -0.00001   0.00000  -0.00035  -0.00035  -3.14033
   D63       -3.14031  -0.00001   0.00000  -0.00042  -0.00041  -3.14073
   D64        0.00141  -0.00001   0.00000  -0.00023  -0.00023   0.00117
   D65       -3.14154  -0.00000   0.00000  -0.00026  -0.00026   3.14138
   D66        1.05262  -0.00052   0.00000  -0.00577  -0.00566   1.04696
   D67       -1.05228   0.00049   0.00000   0.00500   0.00489  -1.04739
   D68        0.00018   0.00000   0.00000  -0.00008  -0.00008   0.00010
   D69       -2.08885  -0.00051   0.00000  -0.00559  -0.00548  -2.09433
   D70        2.08943   0.00049   0.00000   0.00518   0.00507   2.09451
         Item               Value     Threshold  Converged?
 Maximum Force            0.032286     0.000450     NO 
 RMS     Force            0.006116     0.000300     NO 
 Maximum Displacement     0.340441     0.001800     NO 
 RMS     Displacement     0.100585     0.001200     NO 
 Predicted change in Energy=-1.051152D-02
 GradGradGradGradGradGradGradGradGradGradGradGradGradGradGradGradGradGrad

                          Input orientation:                          
 ---------------------------------------------------------------------
 Center     Atomic      Atomic             Coordinates (Angstroms)
 Number     Number       Type             X           Y           Z
 ---------------------------------------------------------------------
      1          6           0        5.719013   -2.803949   -0.365767
      2          6           0        4.654773   -1.707461   -0.216908
      3          6           0        3.248048   -2.282027   -0.326288
      4          7           0        2.263923   -1.222596   -0.204035
      5          6           0        0.928894   -1.494970   -0.268088
      6          8           0        0.486439   -2.641976   -0.294261
      7          7           0        0.139034   -0.366340   -0.326737
      8          6           0       -1.257091   -0.307878   -0.382055
      9          6           0       -2.086016   -1.432887   -0.373656
     10          6           0       -1.830058    0.969436   -0.449993
     11          6           0       -3.204664    1.127959   -0.509072
     12          6           0       -4.045868    0.013417   -0.501228
     13          6           0       -3.466134   -1.258912   -0.432979
     14          1           0        6.661317   -2.502666    0.100522
     15          1           0        5.923213   -3.020326   -1.418724
     16          1           0        5.395796   -3.735361    0.111652
     17          1           0        4.792468   -0.950304   -0.999447
     18          1           0        4.762499   -1.204079    0.752406
     19          1           0        3.088018   -3.027065    0.461286
     20          1           0        3.123197   -2.785283   -1.293582
     21          1           0        2.588775   -0.274175   -0.059738
     22          1           0        0.601555    0.535789   -0.331759
     23          1           0       -1.675993   -2.431502   -0.322161
[...]
 53,0.00000127,0.00000947,-0.00000251,0.00002321,-0.00003050,-0.0000087
 3,-0.00013555,-0.00000259,0.00001104,0.00018963,-0.00017309,0.00000924
 ,-0.00007774,0.00005162,0.00000641,-0.00018934,0.00045673,0.00000956,0
 .00212464,0.00117184,-0.00027336,0.00407591,0.00705159,0.00027601,0.00
 072599,0.00024397,0.00009667,0.00392736,-0.00403228,-0.00040823,-0.017
 83611,-0.01734223,-0.00196056,-0.13393136,-0.25389563,-0.01816181,-0.0
 0000401,0.00000081,0.00000009,0.00000095,0.00000126,0.00000018,0.00000
 060,0.00000105,-0.00000040,0.00000062,-0.00000115,0.00000010,-0.000000
 61,-0.00000144,0.00000018,-0.00000728,0.00000867,-0.00000248,-0.000000
 34,0.00000301,-0.00000131,0.00000324,0.00000960,-0.00000655,0.00012056
 ,0.00002788,0.00002523,-0.00016583,0.00071577,0.00029154,-0.00014595,-
 0.00000573,0.00004311,-0.00109552,-0.00093560,-0.00012360,-0.00225593,
 -0.00033091,0.00010691,0.14413342,0.26497431,0.00000009,-0.00000024,0.
 00000133,-0.00000105,0.00000196,0.00000129,0.00000187,-0.00001029,0.00
 002111,-0.00001549,0.00000895,-0.00003444,0.00004440,-0.00005159,0.000
 09626,0.00003144,0.00001012,0.00001854,-0.00001332,0.00000243,-0.00002
 732,-0.00049150,-0.00030618,0.00784624,-0.00059851,-0.00113989,0.00474
 018,0.00007446,0.00006028,-0.00083930,-0.00013651,-0.00043676,0.006378
 96,-0.00052929,-0.00069567,0.00304716,-0.01261756,-0.01813204,-0.04118
 542,-0.00000016,0.00000027,0.00000012,0.00000017,-0.00000145,-0.000000
 29,-0.00000064,0.00000126,-0.00000194,0.00000184,0.00000229,-0.0000020
 5,-0.00000088,-0.00000185,-0.00000103,-0.00000246,0.00000265,-0.000005
 05,0.00000056,-0.00000012,0.00000035,0.00000359,0.00000442,-0.00000136
 ,0.00000169,0.00001966,-0.00025876,0.00018795,0.00039155,-0.00458736,0
 .00003401,0.00004368,-0.00086786,-0.00005146,-0.00004302,0.00037355,0.
 00004572,0.00025230,-0.00411421,0.01404681,0.02006958,0.02812107,-0.00
 005632,-0.00007620,0.00000526,0.00002576,0.00017827,-0.00002648,0.0003
 9699,-0.00053242,-0.00008845,-0.00217445,0.00019043,0.00019459,0.00348
 901,-0.00361488,-0.00010525,-0.00063817,0.00138248,0.00011506,-0.00628
 568,0.00212700,-0.00027351,0.00509278,0.00174004,0.00042663,-0.0051595
 7,0.00089365,-0.00015152,-0.00071424,0.00320014,0.00020890,0.00167277,
 0.00305116,0.00028333,-0.03540865,0.05651542,0.00087713,-0.00453328,-0
 .00802255,-0.00083219,-0.00006488,0.00001742,0.00000180,0.00001453,0.0
 0001514,0.00000504,0.00000806,0.00001501,-0.00000931,0.00001156,-0.000
 01227,-0.00000023,-0.00000569,-0.00002053,-0.00000192,-0.00012701,0.00
 013962,-0.00005068,-0.00001489,0.00003846,-0.00000573,0.00014078,0.000
 18891,-0.00005827,-0.00001297,0.00030427,0.00000714,-0.00075145,-0.000
 12293,-0.00003977,-0.00028321,-0.00022250,-0.00003538,-0.00152836,0.00
 143464,0.00000272,-0.19281834,0.22662698,0.00792943,0.00033173,0.00055
 569,0.00003430,0.21704040,0.00004951,0.00005941,-0.00000451,-0.0000305
 3,-0.00014812,0.00001863,-0.00031006,0.00038163,0.00008374,0.00178595,
 -0.00008121,-0.00018241,-0.00303264,0.00297109,0.00007267,0.00046509,-
 0.00104377,-0.00008602,0.00595307,-0.00153002,0.00031535,-0.00569790,0
 .00043136,-0.00036646,0.00375014,0.00120539,0.00037065,0.00405523,-0.0
 0103238,0.00011686,-0.00958797,-0.00840909,-0.00089563,0.04777272,-0.0
 1789223,0.00003193,-0.00136018,0.00662807,0.00011304,0.00005400,-0.000
 01343,-0.00000185,-0.00001329,-0.00000887,0.00000187,-0.00000870,-0.00
 001134,0.00000223,-0.00000743,0.00001029,-0.00000756,0.00000793,0.0000
 2115,0.00001025,0.00010630,-0.00011006,0.00002872,0.00001364,-0.000029
 79,0.00001060,-0.00011491,-0.00018386,0.00006498,0.00004660,-0.0003563
 2,-0.00001388,0.00036793,0.00003140,0.00005592,0.00057412,0.00009573,0
 .00003134,0.00049591,0.00277924,0.00018919,0.21454641,-0.65383859,-0.0
 2549437,-0.00053202,0.00037503,-0.00008001,-0.26515201,0.73740235,0.00
 000007,0.00000025,-0.00000097,0.00000023,-0.00000285,-0.00000549,0.000
 00034,-0.00000113,-0.00001482,-0.00000334,0.00000311,-0.00001874,-0.00
 000786,-0.00003701,0.00000162,0.00002728,0.00000831,0.00006027,0.00002
 909,0.00000527,0.00026957,-0.00009905,0.00011770,-0.00020270,0.0000720
 1,0.00018526,-0.00154545,0.00022748,0.00011628,-0.00050818,-0.00048220
 ,-0.00033759,-0.00024569,0.00036324,0.00034466,0.01921235,-0.00044068,
 -0.00014443,0.00340675,-0.00000041,-0.00000010,-0.00000064,-0.00000026
 ,0.00000201,0.00000085,0.00000041,-0.00000196,0.00000165,-0.00000084,-
 0.00000203,0.00000249,0.00000079,0.00000281,0.00000206,-0.00000163,-0.
 00000238,0.00000497,0.00000412,0.00000337,0.00000215,-0.00000139,0.000
 00240,-0.00001887,0.00000367,-0.00000484,-0.00002417,0.00000008,0.0000
 3495,-0.00043766,0.00001666,-0.00001094,0.00010665,-0.00004124,0.00023
 359,-0.00006465,0.00720787,-0.02487483,-0.06940416,-0.00004602,0.00000
 891,0.00063384,-0.00718156,0.03073655,0.02643308,-0.00001014,-0.000016
 09,0.00000116,0.00000268,0.00003626,-0.00000755,0.00008940,-0.00012424
 ,-0.00002420,-0.00045291,0.00006353,0.00003651,0.00071623,-0.00078391,
 0.00000987,-0.00014536,0.00034255,0.00003760,-0.00111465,0.00048158,-0
 .00003708,0.00072184,-0.00032299,-0.00004782,-0.00017359,-0.00056323,0
 .00000568,-0.00094045,-0.00128158,-0.00004507,-0.00418073,0.00301346,-
 0.00013851,-0.01587628,-0.02435261,-0.00286557,-0.00249946,-0.00011651
 ,-0.00018722,-0.00001328,0.00000419,0.00000026,0.00000244,0.00000407,0
 .00000258,0.00000118,0.00000315,-0.00000322,0.00000281,-0.00000266,-0.
 00000181,-0.00000032,-0.00000297,0.00000195,-0.00002663,0.00003002,-0.
 00001406,-0.00000251,0.00000897,0.00000002,0.00003351,0.00003192,-0.00
 000833,0.00002391,0.00003478,-0.00000474,-0.00001918,-0.00000263,-0.00
 000575,-0.00052600,0.00003252,-0.00000763,0.00009611,-0.00012638,-0.00
 000811,-0.15146254,-0.06330043,-0.00669633,-0.00204780,-0.00043712,-0.
 00003879,0.01939318,0.00989392,0.00030106,0.57928696,-0.00000651,-0.00
 001030,-0.00000060,0.00000150,0.00002191,-0.00000268,0.00005265,-0.000
 07332,-0.00000893,-0.00026133,0.00005091,0.00002411,0.00043924,-0.0006
 3787,-0.00002850,-0.00001057,0.00026933,0.00002816,-0.00097214,0.00042
 774,-0.00004934,0.00070100,-0.00068380,-0.00001066,-0.00012488,-0.0001
 5034,0.00006405,-0.00064370,0.00166513,0.00011717,0.00418857,0.0003351
 3,0.00009513,-0.00195673,0.00760566,-0.00060655,-0.00033816,-0.0006623
 8,0.00003006,-0.00000736,0.00000249,0.00000007,0.00000141,0.00000256,0
 .00000236,0.00000045,0.00000176,-0.00000239,0.00000209,-0.00000135,-0.
 00000191,0.00000055,-0.00000123,0.00000192,-0.00001801,0.00001779,-0.0
 0000864,-0.00000356,0.00000504,0.00000125,0.00002130,0.00002193,-0.000
 00433,0.00001321,0.00003945,-0.00000226,0.00000867,0.00000810,-0.00000
 026,0.00024391,0.00000166,0.00002957,0.00035432,0.00025490,0.00002377,
 -0.05604584,-0.13997670,-0.00561958,0.00054443,0.00071187,-0.00010392,
 -0.01494103,-0.06045992,-0.00585385,-0.06056208,0.52991521,-0.00000098
 ,-0.00000148,0.00000052,0.00000054,0.00000338,0.00000197,0.00000512,-0
 .00000793,-0.00000138,-0.00002429,0.00001309,-0.00001843,0.00003751,-0
 .00006550,-0.00000856,0.00000527,0.00002367,-0.00001553,-0.00010196,0.
 00003610,0.00009689,0.00005420,-0.00008629,0.00032918,0.00007020,0.000
 06759,-0.00140558,-0.00004796,0.00008159,-0.00071805,-0.00003686,0.000
 06564,0.00187240,-0.00162065,-0.00164351,0.01581111,-0.00022456,0.0000
 0859,-0.00102469,-0.00000038,0.00000018,0.00000004,0.00000022,-0.00000
 025,0.00000022,-0.00000036,0.00000074,-0.00000092,0.00000110,0.0000005
 4,-0.00000101,-0.00000069,-0.00000070,-0.00000047,-0.00000335,0.000003
 58,-0.00000159,0.00000128,0.00000066,0.00000092,-0.00000187,-0.0000027
 2,0.00000136,0.00000228,-0.00000163,0.00004881,-0.00000125,0.00000317,
 0.00000134,0.00000608,0.00002036,-0.00033533,0.00002293,0.00000674,0.0
 0009354,-0.00627701,-0.00603317,-0.08974706,0.00001578,-0.00011890,0.0
 0163806,-0.00118423,-0.00468851,0.02543292,-0.00217095,-0.00335582,0.5
 4363166,-0.00000384,-0.00000581,0.00000041,0.00000166,0.00001277,-0.00
 000207,0.00002989,-0.00004041,-0.00000666,-0.00015716,0.00001456,0.000
 01177,0.00024902,-0.00024177,-0.00000358,-0.00005445,0.00009827,0.0000
 0918,-0.00038629,0.00016487,-0.00001120,0.00032653,-0.00009745,0.00001
 111,-0.00003535,0.00005170,-0.00001199,-0.00025041,-0.00025774,-0.0000
 1544,-0.00077172,0.00068146,-0.00001514,-0.00077346,-0.00366641,-0.000
 31585,0.00063659,-0.00058143,-0.00000748,-0.00000511,0.00000118,0.0000
 0015,0.00000112,0.00000139,0.00000058,0.00000062,0.00000126,-0.0000009
 2,0.00000091,-0.00000095,-0.00000009,-0.00000043,-0.00000150,0.,-0.000
 00883,0.00001023,-0.00000402,-0.00000059,0.00000300,-0.00000029,0.0000
 1046,0.00001206,-0.00000352,0.00000878,0.00001557,0.00000042,-0.000026
 28,-0.00000847,-0.00000326,-0.00013620,0.00000511,-0.00000415,0.000028
 14,-0.00006176,-0.00000616,-0.02182206,0.00847345,-0.00043588,0.000180
 95,-0.00001266,0.00002522,0.00447488,0.00192864,0.00038367,-0.30624919
 ,0.08210724,-0.00695840,0.32923848,-0.00000016,-0.00000041,0.00000008,
 -0.00000066,0.00000134,-0.00000056,0.00000123,-0.00000369,-0.00000172,
 -0.00001252,0.00001159,0.00000253,0.00001848,-0.00010755,-0.00000862,0
 .00002352,0.00005070,0.00000783,-0.00011205,0.00010696,0.00000137,0.00
 016799,-0.00011463,0.00000011,0.00003898,0.00035875,0.00001154,-0.0001
 9780,-0.00029983,-0.00001291,-0.00128082,0.00060683,-0.00004687,-0.001
 62088,-0.00467328,-0.00043769,0.00036661,-0.00115239,-0.00005275,0.000
 00017,0.00000039,-0.00000005,-0.00000027,0.00000009,0.00000017,-0.0000
 0026,-0.00000004,-0.00000006,0.00000027,-0.00000009,-0.00000019,0.0000
 0026,0.00000014,0.00000031,-0.00000164,0.00000116,-0.00000079,-0.00000
 095,0.00000054,0.00000029,0.00000174,0.00000079,0.00000016,0.00001749,
 0.,0.00000095,-0.00004253,0.00000367,-0.00000228,-0.00013622,0.0000095
 9,-0.00000306,0.00002338,0.00001644,-0.00000315,-0.02998918,0.00771055
 ,-0.00083708,0.00036468,0.00052572,0.00005447,0.00156779,0.00268555,0.
 00029415,0.08764617,-0.07491352,0.00254319,-0.08925933,0.07952455,0.00
 000004,-0.00000016,-0.00000050,-0.00000010,0.00000044,0.00000022,0.000
 00144,-0.00000264,0.00000195,-0.00000703,0.00000097,-0.00000089,0.0000
 1201,-0.00001707,0.00001870,-0.00000052,0.00000808,0.00000102,-0.00002
 119,0.00001269,-0.00002078,0.00002233,-0.00000751,-0.00001139,-0.00000
 612,0.00001398,0.00015905,-0.00001431,-0.00002435,-0.00014787,-0.00013
 226,0.00004680,0.00034840,-0.00019377,-0.00053014,0.00143580,0.0000371
 6,-0.00009559,0.00007380,-0.00000014,0.00000010,0.00000013,-0.00000004
 ,-0.00000011,0.,0.00000010,0.00000019,-0.00000020,0.00000003,0.0000000
 9,-0.00000023,0.,-0.00000023,-0.00000006,-0.00000024,0.00000053,-0.000
 00028,-0.00000023,0.00000017,0.,0.00000061,0.00000099,0.00000024,0.000
 00155,0.00000102,-0.00001119,-0.00000425,-0.00000056,0.00000386,-0.000
 01227,0.00000355,-0.00004928,-0.00000066,-0.00000598,0.00007086,-0.002
 72661,0.00094107,-0.00155086,0.00005151,0.00004631,-0.00032681,0.00036
 578,0.00030971,-0.00084159,-0.00662863,0.00226818,-0.04942356,0.007669
 81,-0.00220220,0.04707178,-0.00000057,-0.00000070,-0.00000073,-0.00000
 072,0.00000138,-0.00000029,-0.00000028,-0.00000256,0.00000609,-0.00000
 967,0.00001555,0.00000123,0.00002375,-0.00015465,-0.00001554,0.0000430
 7,0.00006883,0.00000322,-0.00020424,0.00011546,-0.00005990,0.00014350,
 -0.00029883,-0.00003279,-0.00002473,0.00004086,0.00034316,-0.00030701,
 0.00036475,0.00021373,0.00060823,0.00030036,-0.00037339,-0.00123695,0.
 00031532,-0.00190777,-0.00085470,-0.00019544,-0.00004778,0.00000028,0.
 00000031,-0.00000009,-0.00000028,0.00000004,0.00000028,-0.00000034,-0.
 00000005,-0.00000008,0.00000064,-0.00000003,-0.00000037,0.00000016,0.0
 0000019,0.00000024,-0.00000252,0.00000116,-0.00000079,-0.00000146,0.00
 000048,-0.00000009,0.00000123,0.00000094,0.00000168,0.00000837,0.00000
 678,-0.00001359,-0.00001517,0.00001515,0.00000261,0.00000525,-0.000000
 69,0.00005141,0.00008714,0.00004897,-0.00001112,0.00600420,-0.00750826
 ,0.01913371,-0.00119609,0.00019761,0.00033175,-0.00066328,-0.00283184,
 -0.00252875,-0.05388182,0.01998844,-0.02781455,-0.00106960,0.01785516,
 -0.02495180,0.05255885,0.00000011,0.00000023,0.00000048,0.00000028,-0.
 00000057,0.00000029,-0.00000233,0.00000333,0.00000188,0.00000251,-0.00
 000359,-0.00000128,-0.00000938,0.00002698,0.00000309,-0.00000106,-0.00
 002074,-0.00000963,-0.00000188,-0.00002157,0.00000295,0.00005450,0.000
 30566,-0.00004941,-0.00036322,-0.00000100,0.00004157,0.00022539,-0.000
 07764,0.00017086,-0.00031005,-0.00017776,-0.00044676,-0.00000123,0.000
 38347,-0.00173958,0.00042450,0.00019050,-0.00033209,0.00000008,-0.0000
 0017,0.00000010,0.,-0.00000038,-0.00000050,-0.00000004,0.00000041,-0.0
 0000006,0.00000012,0.00000029,-0.00000013,-0.00000052,-0.00000086,-0.0
 0000069,-0.00000019,0.00000067,0.00000007,0.00000028,-0.00000028,-0.00
 000084,-0.00000182,-0.00000082,0.00000335,-0.00000184,-0.00000196,0.00
 001276,-0.00000313,0.00000419,0.00000339,-0.00001421,-0.00001211,0.000
 05456,0.00010939,0.00003946,-0.00001032,0.00819195,-0.01492769,0.02191
 749,0.00012019,0.00024944,-0.00000196,-0.00359247,-0.00469976,-0.00381
 835,0.02146257,-0.14732758,0.13640445,0.00001772,-0.00544702,0.0063365
 7,-0.02419859,0.15939836,-0.00000171,-0.00000153,0.00000013,0.00000144
 ,0.00000444,-0.00000109,0.00001002,-0.00001174,-0.00000231,-0.00005923
 ,-0.00000824,0.00000385,0.00009447,-0.00000451,0.00001957,-0.00004821,
 -0.00000734,0.00000173,-0.00008018,-0.00002054,-0.00003845,-0.00002637
 ,-0.00005127,-0.00001046,-0.00006546,-0.00034418,0.00013489,-0.0001282
 0,0.00004268,0.00001746,0.00028948,-0.00003331,-0.00000389,0.00000128,
 0.00044417,-0.00036807,-0.00043541,0.00086559,0.00040621,-0.00000213,0
 .00000019,0.00000006,0.00000072,0.00000024,-0.00000066,0.00000064,0.00
 000041,0.00000045,-0.00000007,-0.00000053,0.00000066,-0.00000054,-0.00
 000107,-0.00000053,-0.00000207,0.00000317,0.00000011,0.00000061,0.0000
 0123,-0.00000130,0.00000297,0.00000587,-0.00000265,-0.00001254,0.00000
 618,-0.00001336,0.00002943,0.00000149,0.00000175,0.00000813,-0.0000094
 0,0.00000567,-0.00003600,-0.00003267,0.00001588,0.00088393,-0.00334273
 ,0.00426370,0.00002564,-0.00039834,-0.00030677,0.00005795,-0.00128961,
 -0.00148031,-0.02872925,0.13257893,-0.21111018,-0.00006338,-0.00179220
 ,0.00067987,0.03220688,-0.14440327,0.22840095,-0.00000103,-0.00000092,
 0.00000041,-0.00000035,0.00000272,0.00000037,0.00000026,-0.00000271,-0
 .00000106,-0.00001407,0.00001628,0.00000755,0.00002806,-0.00015860,-0.
 00005016,0.00004089,0.00006815,0.00001836,-0.00021887,0.00010985,0.000
 03949,0.00014286,-0.00031372,0.00007720,0.00000290,0.00004719,-0.00034
 073,-0.00030739,0.00038899,-0.00021170,0.00059409,0.00025416,0.0004761
 6,-0.00142346,0.00012151,0.00175300,-0.00091064,-0.00010557,-0.0001170
 8,0.00000021,0.00000034,0.,-0.00000020,0.00000011,0.00000015,-0.000000
 22,0.,-0.00000008,-0.00000001,-0.00000025,-0.00000014,0.00000059,0.000
 00007,0.00000043,-0.00000226,0.00000144,-0.00000020,-0.00000175,0.0000
 0067,0.00000043,0.00000309,0.00000158,-0.00000039,0.00000574,0.0000056
 4,0.00001541,-0.00001074,0.00001505,-0.00000436,0.00001090,0.00000417,
 -0.00005151,0.00008176,0.00004390,0.00002094,0.00780081,-0.00540790,-0
 .01945541,-0.00116721,0.00021762,-0.00036823,-0.00085200,-0.00318764,0
 .00219717,-0.06074742,0.02722293,0.04624778,-0.00343706,0.01456132,0.0
 2653780,-0.00001523,-0.00210765,-0.00392282,0.06039774,-0.00000068,-0.
 00000039,0.00000058,0.00000073,0.00000090,-0.00000100,-0.00000106,0.00
 000284,-0.00000198,-0.00000785,-0.00000735,0.00000418,0.00000683,0.000
 01912,-0.00001099,-0.00000556,-0.00001988,0.00000322,-0.00001482,-0.00
 002385,-0.00000723,0.00004644,0.00029417,0.00011480,-0.00036578,-0.000
 04082,-0.00008774,0.00022246,-0.00006102,-0.00016789,-0.00032362,-0.00
 022664,0.00040410,-0.00015679,0.00021918,0.00175159,0.00035154,0.00025
 463,0.00032893,-0.00000049,-0.00000016,-0.00000011,0.00000026,0.000000
 38,-0.00000040,0.00000027,-0.00000014,0.00000068,-0.00000054,-0.000000
 64,0.00000108,-0.00000007,-0.00000019,-0.00000015,0.00000029,-0.000000
 21,0.00000161,0.00000011,0.00000096,-0.00000051,0.00000048,0.00000212,
 -0.00000401,-0.00000279,-0.00000028,-0.00001000,0.00000069,0.00000500,
 -0.00000189,-0.00000894,-0.00000733,-0.00005693,0.00010241,0.00003295,
 0.00002035,0.01028309,-0.01247511,-0.02294318,0.00014997,0.00016577,0.
 00007911,-0.00387270,-0.00522892,0.00299272,0.02890579,-0.11646025,-0.
 12327683,0.00063519,-0.00490291,-0.00710488,-0.00414609,0.01211851,0.0
 1779789,-0.03179877,0.12633960,0.00000149,0.00000147,-0.00000019,-0.00
 000152,-0.00000408,0.00000035,-0.00001020,0.00001173,0.00000341,0.0000
 5663,0.00000669,0.00000054,-0.00008855,-0.00000818,-0.00001686,0.00005
 066,0.00001203,0.00000444,0.00006323,0.00003013,-0.00001907,0.00004095
 ,0.00006133,0.00002865,0.00000612,0.00032113,0.00015797,0.00012967,-0.
 00001890,-0.00002110,-0.00027720,0.00002673,0.00007188,-0.00010458,-0.
 00035110,-0.00006502,0.00037119,-0.00090265,0.00037233,0.00000200,-0.0
 0000018,-0.00000009,-0.00000068,-0.00000005,0.00000069,-0.00000053,-0.
 00000054,-0.00000019,-0.00000016,0.00000024,-0.00000031,0.00000076,0.0
 0000121,0.00000074,0.00000235,-0.00000359,0.00000028,-0.00000105,-0.00
 000083,0.00000127,-0.00000178,-0.00000395,0.00000075,0.00001312,-0.000
 00425,-0.00001223,-0.00003088,0.00000040,0.00000058,-0.00000873,0.0000
 0802,-0.00000482,0.00005395,0.00003848,0.00002762,0.00063937,0.0008504
 6,0.00003197,-0.00006076,0.00046522,-0.00035811,-0.00047057,0.00054660
 ,-0.00075712,0.04727395,-0.11960453,-0.23514859,-0.00024287,0.00248502
 ,0.00251983,0.00546343,-0.01413899,-0.02061292,-0.05286880,0.13017490,
 0.25379332\\-0.00000100,0.00000126,-0.00000237,0.00000350,0.00000298,-
 0.00000183,-0.00000719,-0.00000042,-0.00000065,0.00000925,0.00000031,0
 .00000141,-0.00000426,-0.00001611,-0.00000230,0.00001085,0.00000915,0.
 00000155,-0.00000161,-0.00000217,-0.00000267,0.00000158,0.00000477,0.0
 0000348,-0.00000944,-0.00000026,-0.00000027,0.00000009,0.00000165,-0.0
 0000285,-0.00000020,-0.00000100,-0.00000229,0.00000060,0.00000120,0.00
 000784,0.00000020,-0.00000320,0.00000211,0.00000007,-0.00000030,-0.000
 00195,-0.00000055,-0.00000126,0.00000041,-0.00000028,0.00000181,0.0000
 0032,0.00000144,-0.00000213,-0.00000150,0.00000098,0.00000150,-0.00000
 282,0.00000375,0.00000015,0.00000089,-0.00000188,0.00000045,0.00000243
 ,0.00000072,0.00000130,-0.00000444,0.00000179,-0.00000091,-0.00000370,
 -0.00000382,0.00000131,0.00000353,-0.00000079,0.00000114,-0.00000361,-
 0.00000089,0.00000031,-0.00000246,-0.00000241,0.00000357,-0.00002150,-
 0.00000051,-0.00000014,0.00000352,0.00000102,-0.00000242,0.00000667,0.
 00000028,-0.00000252,0.00001347,-0.00000118,-0.00000015,0.00000326,0.0
 0000001,0.00000011,0.00000247,-0.00000010,0.,0.00000387\\\@


 The mind is not a vessel to be filled but a fire to be kindled.
                                  -- Plutarch
 Job cpu time:       0 days  2 hours 34 minutes 35.3 seconds.
 File lengths (MBytes):  RWF=    498 Int=      0 D2E=      0 Chk=     17 Scr=      1
 Normal termination of Gaussian 09 at Fri Feb 22 20:26:37 2019.
WARNING: pbs_rusage is deprecated and values produced may not be accurate


=============================================================================
                                     Resource usage:
                                       CPU time:              12:32:24
   JobId:    6014032.r-man2            Elapsed time:          03:09:50
   Project:             q95            Requested time:        32:00:00
   Service Units:     12.66 
                                       Max physical memory:      615MB
                                       Max virtual memory:      1401MB
                                       Requested memory:           0MB

                                       Number of cpus:               4

                                       Max jobfs disk use:       0.5GB
                                       Requested jobfs:         16.0GB
=============================================================================

