 Entering Gaussian System, Link 0=/apps/gaussian/g09e01/g09/g09
 AtFile(1): /home/507/hio507/Basis/6-31pGd.gbs
 Initial command:
 /apps/gaussian/g09e01/g09/l1.exe "/jobfs/local/5912805.r-man2/Gau-25503.inp" -scrdir="/jobfs/local/5912805.r-man2/"
 Entering Link 1 = /apps/gaussian/g09e01/g09/l1.exe PID=     25504.
  
 Copyright (c) 1988,1990,1992,1993,1995,1998,2003,2009,2015,
            Gaussian, Inc.  All Rights Reserved.
  
 This is part of the Gaussian(R) 09 program.  It is based on
 the Gaussian(R) 03 system (copyright 2003, Gaussian, Inc.),
 the Gaussian(R) 98 system (copyright 1998, Gaussian, Inc.),
 the Gaussian(R) 94 system (copyright 1995, Gaussian, Inc.),
 the Gaussian 92(TM) system (copyright 1992, Gaussian, Inc.),
 the Gaussian 90(TM) system (copyright 1990, Gaussian, Inc.),
 the Gaussian 88(TM) system (copyright 1988, Gaussian, Inc.),
 the Gaussian 86(TM) system (copyright 1986, Carnegie Mellon
 University), and the Gaussian 82(TM) system (copyright 1983,
 Carnegie Mellon University). Gaussian is a federally registered
 trademark of Gaussian, Inc.
  
 This software contains proprietary and confidential information,
 including trade secrets, belonging to Gaussian, Inc.
  
 This software is provided under written license and may be
 used, copied, transmitted, or stored only in accord with that
 written license.
  
 The following legend is applicable only to US Government
 contracts under FAR:
  
                    RESTRICTED RIGHTS LEGEND
  
 Use, reproduction and disclosure by the US Government is
 subject to restrictions as set forth in subparagraphs (a)
 and (c) of the Commercial Computer Software - Restricted
 Rights clause in FAR 52.227-19.
  
 Gaussian, Inc.
 340 Quinnipiac St., Bldg. 40, Wallingford CT 06492
  
  
 ---------------------------------------------------------------
 Warning -- This program may not be used in any manner that
 competes with the business of Gaussian, Inc. or will provide
 assistance to any competitor of Gaussian, Inc.  The licensee
 of this program is prohibited from giving any competitor of
 Gaussian, Inc. access to this program.  By using this program,
 the user acknowledges that Gaussian, Inc. is engaged in the
 business of creating and licensing software in the field of
 computational chemistry and represents and warrants to the
 licensee that it is not a competitor of Gaussian, Inc. and that
 it will not use this program in any manner prohibited above.
 ---------------------------------------------------------------
  

 Cite this work as:
 Gaussian 09, Revision E.01,
 M. J. Frisch, G. W. Trucks, H. B. Schlegel, G. E. Scuseria, 
 M. A. Robb, J. R. Cheeseman, G. Scalmani, V. Barone, B. Mennucci, 
 G. A. Petersson, H. Nakatsuji, M. Caricato, X. Li, H. P. Hratchian, 
 A. F. Izmaylov, J. Bloino, G. Zheng, J. L. Sonnenberg, M. Hada, 
 M. Ehara, K. Toyota, R. Fukuda, J. Hasegawa, M. Ishida, T. Nakajima, 
 Y. Honda, O. Kitao, H. Nakai, T. Vreven, J. A. Montgomery, Jr., 
 J. E. Peralta, F. Ogliaro, M. Bearpark, J. J. Heyd, E. Brothers, 
 K. N. Kudin, V. N. Staroverov, T. Keith, R. Kobayashi, J. Normand, 
 K. Raghavachari, A. Rendell, J. C. Burant, S. S. Iyengar, J. Tomasi, 
 M. Cossi, N. Rega, J. M. Millam, M. Klene, J. E. Knox, J. B. Cross, 
 V. Bakken, C. Adamo, J. Jaramillo, R. Gomperts, R. E. Stratmann, 
 O. Yazyev, A. J. Austin, R. Cammi, C. Pomelli, J. W. Ochterski, 
 R. L. Martin, K. Morokuma, V. G. Zakrzewski, G. A. Voth, 
 P. Salvador, J. J. Dannenberg, S. Dapprich, A. D. Daniels, 
 O. Farkas, J. B. Foresman, J. V. Ortiz, J. Cioslowski, 
 and D. J. Fox, Gaussian, Inc., Wallingford CT, 2013.
 
 ******************************************
 Gaussian 09:  ES64L-G09RevE.01 30-Nov-2015
                20-Feb-2019 
 ******************************************
 %chk=4Ketone_EtO.M062X_6-31pGd_opt_water.chk
 %mem=196608000
 %nproc=8
 Will use up to    8 processors via shared memory.
 ----------------------------------------------------------------------
 # M062X/Gen 6D SCF=Tight INT(grid=ultrafine) OPT IOP(2/17=4) SCRF=(SMD
 ,Solvent=h2o) maxdisk=2684354560
 ----------------------------------------------------------------------
 1/14=-1,18=20,19=15,26=4,38=1/1,3;
 2/9=110,12=2,17=4,18=5,40=1/2;
 3/5=7,8=2,11=2,16=1,25=1,30=1,70=32201,71=1,72=1,74=-55,75=-5/1,2,3;
 4//1;
 5/5=2,32=2,38=5,53=1/2;
 6/7=2,8=2,9=2,10=2,28=1/1;
 7//1,2,3,16;
 1/14=-1,18=20,19=15,26=4/3(2);
 2/9=110,17=4/2;
 99//99;
 2/9=110,17=4/2;
 3/5=7,6=1,8=2,11=2,16=1,25=1,30=1,70=32205,71=1,72=1,74=-55,75=-5,82=7/1,2,3;
 4/5=5,16=3,69=1/1;
 5/5=2,32=2,38=5,53=1/2;
 7//1,2,3,16;
 1/14=-1,18=20,19=15,26=4/3(-5);
 2/9=110,17=4/2;
 6/7=2,8=2,9=2,10=2,19=2,28=1/1;
 99/9=1/99;
 -----------------------------------
 4Ketone_EtO.M062X_6-31pGd_opt_water
 -----------------------------------
 Symbolic Z-matrix:
 Charge = -1 Multiplicity = 1
 C                    -2.17079   2.40261  -0.13732 
 C                    -0.84514   1.66203   0.01385 
 C                     0.34374   2.60044  -0.15625 
 N                     1.58254   1.86623  -0.0068 
 C                     2.7687    2.48905  -0.19053 
 O                     2.86277   3.68186  -0.49685 
 N                     3.85938   1.64928  -0.00362 
 C                     5.19574   1.97004  -0.10931 
 C                     5.69715   3.24876  -0.42682 
 C                     6.11728   0.92042   0.12334 
 C                     7.47651   1.14448   0.04206 
 C                     7.98591   2.41644  -0.2734 
 C                     7.06932   3.45092  -0.50313 
 H                    -3.02096   1.72421  -0.01123 
 H                    -2.25519   2.8642   -1.12839 
 H                    -2.26584   3.19964   0.60973 
 H                    -0.77331   0.85563  -0.72579 
 H                    -0.7875    1.18064   0.99717 
 H                     0.29086   3.41371   0.58251 
 H                     0.31245   3.07575  -1.14611 
 H                     1.53529   0.87374   0.28858 
 H                     3.65844   0.65561   0.23382 
 H                     5.00582   4.05964  -0.60885 
 H                     5.72613  -0.06437   0.36703 
 H                     8.17591   0.33305   0.22219 
 C                     9.45092   2.61713  -0.35134 
 H                     7.42398   4.44839  -0.74986 
 O                     10.23708   1.70183  -0.14777 
 C                     9.97735   3.99819  -0.69336 
 H                     9.64715   4.73591   0.04581 
 H                     11.06798   3.96465  -0.70801 
 H                     9.6115    4.32382  -1.67303 
 O                     1.29863  -0.82268   0.79515 
 O                     3.52349  -1.0421    0.6197 
 C                     2.36566  -1.4889    0.8412 
 C                     2.22382  -2.97716   1.19191 
 C                     3.53903  -3.73469   1.31657 
 H                     1.5875   -3.42682   0.41889 
 H                     1.64739  -3.03659   2.12317 
 H                     4.10575  -3.691     0.38195 
 H                     3.36341  -4.78833   1.56531 
 H                     4.16928  -3.29839   2.09749 
 
 Add virtual bond connecting atoms O33        and H21        Dist= 3.38D+00.
 Add virtual bond connecting atoms O34        and H22        Dist= 3.30D+00.

 GradGradGradGradGradGradGradGradGradGradGradGradGradGradGradGradGradGrad
 Berny optimization.
 Initialization pass.
                           ----------------------------
                           !    Initial Parameters    !
                           ! (Angstroms and Degrees)  !
 --------------------------                            --------------------------
 ! Name  Definition              Value          Derivative Info.                !
 --------------------------------------------------------------------------------
 ! R1    R(1,2)                  1.526          estimate D2E/DX2                !
 ! R2    R(1,14)                 1.0949         estimate D2E/DX2                !
 ! R3    R(1,15)                 1.0966         estimate D2E/DX2                !
 ! R4    R(1,16)                 1.0965         estimate D2E/DX2                !
 ! R5    R(2,3)                  1.5241         estimate D2E/DX2                !
 ! R6    R(2,17)                 1.0966         estimate D2E/DX2                !
 ! R7    R(2,18)                 1.0963         estimate D2E/DX2                !
 ! R8    R(3,4)                  1.4478         estimate D2E/DX2                !
 ! R9    R(3,19)                 1.1            estimate D2E/DX2                !
 ! R10   R(3,20)                 1.0985         estimate D2E/DX2                !
 ! R11   R(4,5)                  1.3523         estimate D2E/DX2                !
 ! R12   R(4,21)                 1.0366         estimate D2E/DX2                !
 ! R13   R(5,6)                  1.2351         estimate D2E/DX2                !
 ! R14   R(5,7)                  1.3891         estimate D2E/DX2                !
 ! R15   R(7,8)                  1.3784         estimate D2E/DX2                !
 ! R16   R(7,22)                 1.0412         estimate D2E/DX2                !
 ! R17   R(8,9)                  1.4097         estimate D2E/DX2                !
 ! R18   R(8,10)                 1.416          estimate D2E/DX2                !
 ! R19   R(9,13)                 1.3891         estimate D2E/DX2                !
 ! R20   R(9,23)                 1.081          estimate D2E/DX2                !
 ! R21   R(10,11)                1.38           estimate D2E/DX2                !
 ! R22   R(10,24)                1.0873         estimate D2E/DX2                !
 ! R23   R(11,12)                1.406          estimate D2E/DX2                !
 ! R24   R(11,25)                1.0863         estimate D2E/DX2                !
 ! R25   R(12,13)                1.4011         estimate D2E/DX2                !
 ! R26   R(12,26)                1.4807         estimate D2E/DX2                !
 ! R27   R(13,27)                1.087          estimate D2E/DX2                !
 ! R28   R(21,33)                1.7862         estimate D2E/DX2                !
 ! R29   R(22,34)                1.7462         estimate D2E/DX2                !
 ! R30   R(26,28)                1.2236         estimate D2E/DX2                !
 ! R31   R(26,29)                1.517          estimate D2E/DX2                !
 ! R32   R(29,30)                1.0953         estimate D2E/DX2                !
 ! R33   R(29,31)                1.0912         estimate D2E/DX2                !
 ! R34   R(29,32)                1.0953         estimate D2E/DX2                !
 ! R35   R(33,35)                1.2588         estimate D2E/DX2                !
 ! R36   R(34,35)                1.2607         estimate D2E/DX2                !
 ! R37   R(35,36)                1.5356         estimate D2E/DX2                !
 ! R38   R(36,37)                1.5229         estimate D2E/DX2                !
 ! R39   R(36,38)                1.0976         estimate D2E/DX2                !
 ! R40   R(36,39)                1.0968         estimate D2E/DX2                !
 ! R41   R(37,40)                1.0939         estimate D2E/DX2                !
 ! R42   R(37,41)                1.0968         estimate D2E/DX2                !
 ! R43   R(37,42)                1.0943         estimate D2E/DX2                !
 ! A1    A(2,1,14)             111.2487         estimate D2E/DX2                !
 ! A2    A(2,1,15)             111.1423         estimate D2E/DX2                !
 ! A3    A(2,1,16)             111.1352         estimate D2E/DX2                !
 ! A4    A(14,1,15)            107.7661         estimate D2E/DX2                !
 ! A5    A(14,1,16)            107.7334         estimate D2E/DX2                !
 ! A6    A(15,1,16)            107.6443         estimate D2E/DX2                !
 ! A7    A(1,2,3)              111.5778         estimate D2E/DX2                !
 ! A8    A(1,2,17)             110.3018         estimate D2E/DX2                !
 ! A9    A(1,2,18)             110.3412         estimate D2E/DX2                !
 ! A10   A(3,2,17)             109.0499         estimate D2E/DX2                !
 ! A11   A(3,2,18)             109.2349         estimate D2E/DX2                !
 ! A12   A(17,2,18)            106.1784         estimate D2E/DX2                !
 ! A13   A(2,3,4)              110.1014         estimate D2E/DX2                !
 ! A14   A(2,3,19)             110.0451         estimate D2E/DX2                !
 ! A15   A(2,3,20)             110.1668         estimate D2E/DX2                !
 ! A16   A(4,3,19)             110.2886         estimate D2E/DX2                !
 ! A17   A(4,3,20)             109.6838         estimate D2E/DX2                !
 ! A18   A(19,3,20)            106.4936         estimate D2E/DX2                !
 ! A19   A(3,4,5)              120.196          estimate D2E/DX2                !
 ! A20   A(3,4,21)             118.4228         estimate D2E/DX2                !
 ! A21   A(5,4,21)             121.3103         estimate D2E/DX2                !
 ! A22   A(4,5,6)              123.0456         estimate D2E/DX2                !
 ! A23   A(4,5,7)              113.0788         estimate D2E/DX2                !
 ! A24   A(6,5,7)              123.8753         estimate D2E/DX2                !
 ! A25   A(5,7,8)              127.6054         estimate D2E/DX2                !
 ! A26   A(5,7,22)             117.1338         estimate D2E/DX2                !
 ! A27   A(8,7,22)             115.2568         estimate D2E/DX2                !
 ! A28   A(7,8,9)              124.9727         estimate D2E/DX2                !
 ! A29   A(7,8,10)             116.4789         estimate D2E/DX2                !
 ! A30   A(9,8,10)             118.5484         estimate D2E/DX2                !
 ! A31   A(8,9,13)             119.7178         estimate D2E/DX2                !
 ! A32   A(8,9,23)             119.3971         estimate D2E/DX2                !
 ! A33   A(13,9,23)            120.8851         estimate D2E/DX2                !
 ! A34   A(8,10,11)            120.7297         estimate D2E/DX2                !
 ! A35   A(8,10,24)            118.2994         estimate D2E/DX2                !
 ! A36   A(11,10,24)           120.9709         estimate D2E/DX2                !
 ! A37   A(10,11,12)           121.1284         estimate D2E/DX2                !
 ! A38   A(10,11,25)           120.2063         estimate D2E/DX2                !
 ! A39   A(12,11,25)           118.6654         estimate D2E/DX2                !
 ! A40   A(11,12,13)           117.886          estimate D2E/DX2                !
 ! A41   A(11,12,26)           119.5298         estimate D2E/DX2                !
 ! A42   A(13,12,26)           122.5842         estimate D2E/DX2                !
 ! A43   A(9,13,12)            121.9898         estimate D2E/DX2                !
 ! A44   A(9,13,27)            117.925          estimate D2E/DX2                !
 ! A45   A(12,13,27)           120.0853         estimate D2E/DX2                !
 ! A46   A(12,26,28)           121.7026         estimate D2E/DX2                !
 ! A47   A(12,26,29)           118.5923         estimate D2E/DX2                !
 ! A48   A(28,26,29)           119.7051         estimate D2E/DX2                !
 ! A49   A(26,29,30)           110.8794         estimate D2E/DX2                !
 ! A50   A(26,29,31)           108.7751         estimate D2E/DX2                !
 ! A51   A(26,29,32)           110.8792         estimate D2E/DX2                !
 ! A52   A(30,29,31)           109.3336         estimate D2E/DX2                !
 ! A53   A(30,29,32)           107.6195         estimate D2E/DX2                !
 ! A54   A(31,29,32)           109.3277         estimate D2E/DX2                !
 ! A55   A(21,33,35)           113.6234         estimate D2E/DX2                !
 ! A56   A(22,34,35)           117.0246         estimate D2E/DX2                !
 ! A57   A(33,35,34)           125.769          estimate D2E/DX2                !
 ! A58   A(33,35,36)           116.2955         estimate D2E/DX2                !
 ! A59   A(34,35,36)           117.9346         estimate D2E/DX2                !
 ! A60   A(35,36,37)           114.8989         estimate D2E/DX2                !
 ! A61   A(35,36,38)           106.8433         estimate D2E/DX2                !
 ! A62   A(35,36,39)           107.156          estimate D2E/DX2                !
 ! A63   A(37,36,38)           110.7661         estimate D2E/DX2                !
 ! A64   A(37,36,39)           110.9419         estimate D2E/DX2                !
 ! A65   A(38,36,39)           105.7299         estimate D2E/DX2                !
 ! A66   A(36,37,40)           110.9543         estimate D2E/DX2                !
 ! A67   A(36,37,41)           110.9864         estimate D2E/DX2                !
 ! A68   A(36,37,42)           110.9466         estimate D2E/DX2                !
 ! A69   A(40,37,41)           108.3674         estimate D2E/DX2                !
 ! A70   A(40,37,42)           107.1831         estimate D2E/DX2                !
 ! A71   A(41,37,42)           108.2653         estimate D2E/DX2                !
 ! A72   L(4,21,33,1,-1)       174.9984         estimate D2E/DX2                !
 ! A73   L(7,22,34,1,-1)       186.6987         estimate D2E/DX2                !
 ! A74   L(4,21,33,1,-2)       180.0154         estimate D2E/DX2                !
 ! A75   L(7,22,34,1,-2)       179.404          estimate D2E/DX2                !
 ! D1    D(14,1,2,3)          -179.832          estimate D2E/DX2                !
 ! D2    D(14,1,2,17)           58.7992         estimate D2E/DX2                !
 ! D3    D(14,1,2,18)          -58.201          estimate D2E/DX2                !
 ! D4    D(15,1,2,3)            60.0759         estimate D2E/DX2                !
 ! D5    D(15,1,2,17)          -61.2929         estimate D2E/DX2                !
 ! D6    D(15,1,2,18)         -178.2931         estimate D2E/DX2                !
 ! D7    D(16,1,2,3)           -59.7861         estimate D2E/DX2                !
 ! D8    D(16,1,2,17)          178.8451         estimate D2E/DX2                !
 ! D9    D(16,1,2,18)           61.8449         estimate D2E/DX2                !
 ! D10   D(1,2,3,4)            179.9937         estimate D2E/DX2                !
 ! D11   D(1,2,3,19)            58.219          estimate D2E/DX2                !
 ! D12   D(1,2,3,20)           -58.9075         estimate D2E/DX2                !
 ! D13   D(17,2,3,4)           -57.9136         estimate D2E/DX2                !
 ! D14   D(17,2,3,19)         -179.6883         estimate D2E/DX2                !
 ! D15   D(17,2,3,20)           63.1852         estimate D2E/DX2                !
 ! D16   D(18,2,3,4)            57.7244         estimate D2E/DX2                !
 ! D17   D(18,2,3,19)          -64.0503         estimate D2E/DX2                !
 ! D18   D(18,2,3,20)          178.8232         estimate D2E/DX2                !
 ! D19   D(2,3,4,5)            176.4428         estimate D2E/DX2                !
 ! D20   D(2,3,4,21)            -6.5791         estimate D2E/DX2                !
 ! D21   D(19,3,4,5)           -61.9273         estimate D2E/DX2                !
 ! D22   D(19,3,4,21)          115.0508         estimate D2E/DX2                !
 ! D23   D(20,3,4,5)            55.0554         estimate D2E/DX2                !
 ! D24   D(20,3,4,21)         -127.9665         estimate D2E/DX2                !
 ! D25   D(3,4,5,6)             -0.5308         estimate D2E/DX2                !
 ! D26   D(3,4,5,7)            179.6667         estimate D2E/DX2                !
 ! D27   D(21,4,5,6)          -177.42           estimate D2E/DX2                !
 ! D28   D(21,4,5,7)             2.7775         estimate D2E/DX2                !
 ! D29   D(3,4,33,35)          175.5224         estimate D2E/DX2                !
 ! D30   D(5,4,33,35)           -7.4933         estimate D2E/DX2                !
 ! D31   D(4,5,7,8)           -179.7288         estimate D2E/DX2                !
 ! D32   D(4,5,7,22)             1.0461         estimate D2E/DX2                !
 ! D33   D(6,5,7,8)              0.4706         estimate D2E/DX2                !
 ! D34   D(6,5,7,22)          -178.7545         estimate D2E/DX2                !
 ! D35   D(5,7,8,9)              0.453          estimate D2E/DX2                !
 ! D36   D(5,7,8,10)          -179.5785         estimate D2E/DX2                !
 ! D37   D(22,7,8,9)           179.6905         estimate D2E/DX2                !
 ! D38   D(22,7,8,10)           -0.341          estimate D2E/DX2                !
 ! D39   D(5,7,34,35)           -5.6607         estimate D2E/DX2                !
 ! D40   D(8,7,34,35)          175.3457         estimate D2E/DX2                !
 ! D41   D(7,8,9,13)           179.9212         estimate D2E/DX2                !
 ! D42   D(7,8,9,23)            -0.1425         estimate D2E/DX2                !
 ! D43   D(10,8,9,13)           -0.0466         estimate D2E/DX2                !
 ! D44   D(10,8,9,23)          179.8896         estimate D2E/DX2                !
 ! D45   D(7,8,10,11)         -179.9223         estimate D2E/DX2                !
 ! D46   D(7,8,10,24)            0.0837         estimate D2E/DX2                !
 ! D47   D(9,8,10,11)            0.0483         estimate D2E/DX2                !
 ! D48   D(9,8,10,24)         -179.9457         estimate D2E/DX2                !
 ! D49   D(8,9,13,12)            0.0197         estimate D2E/DX2                !
 ! D50   D(8,9,13,27)         -179.9878         estimate D2E/DX2                !
 ! D51   D(23,9,13,12)        -179.9155         estimate D2E/DX2                !
 ! D52   D(23,9,13,27)           0.0769         estimate D2E/DX2                !
 ! D53   D(8,10,11,12)          -0.0222         estimate D2E/DX2                !
 ! D54   D(8,10,11,25)         179.9994         estimate D2E/DX2                !
 ! D55   D(24,10,11,12)        179.9716         estimate D2E/DX2                !
 ! D56   D(24,10,11,25)         -0.0067         estimate D2E/DX2                !
 ! D57   D(10,11,12,13)         -0.0057         estimate D2E/DX2                !
 ! D58   D(10,11,12,26)       -179.9944         estimate D2E/DX2                !
 ! D59   D(25,11,12,13)        179.9729         estimate D2E/DX2                !
 ! D60   D(25,11,12,26)         -0.0158         estimate D2E/DX2                !
 ! D61   D(11,12,13,9)           0.0069         estimate D2E/DX2                !
 ! D62   D(11,12,13,27)       -179.9854         estimate D2E/DX2                !
 ! D63   D(26,12,13,9)         179.9953         estimate D2E/DX2                !
 ! D64   D(26,12,13,27)          0.003          estimate D2E/DX2                !
 ! D65   D(11,12,26,28)         -0.0016         estimate D2E/DX2                !
 ! D66   D(11,12,26,29)        179.9981         estimate D2E/DX2                !
 ! D67   D(13,12,26,28)       -179.9897         estimate D2E/DX2                !
 ! D68   D(13,12,26,29)          0.0099         estimate D2E/DX2                !
 ! D69   D(12,26,29,30)         59.7676         estimate D2E/DX2                !
 ! D70   D(12,26,29,31)       -179.9726         estimate D2E/DX2                !
 ! D71   D(12,26,29,32)        -59.7203         estimate D2E/DX2                !
 ! D72   D(28,26,29,30)       -120.2328         estimate D2E/DX2                !
 ! D73   D(28,26,29,31)          0.027          estimate D2E/DX2                !
 ! D74   D(28,26,29,32)        120.2794         estimate D2E/DX2                !
 ! D75   D(21,33,35,34)          3.0142         estimate D2E/DX2                !
 ! D76   D(21,33,35,36)       -176.6177         estimate D2E/DX2                !
 ! D77   D(22,34,35,33)          0.7805         estimate D2E/DX2                !
 ! D78   D(22,34,35,36)       -179.593          estimate D2E/DX2                !
 ! D79   D(33,35,36,37)       -176.6841         estimate D2E/DX2                !
 ! D80   D(33,35,36,38)         60.0225         estimate D2E/DX2                !
 ! D81   D(33,35,36,39)        -52.926          estimate D2E/DX2                !
 ! D82   D(34,35,36,37)          3.654          estimate D2E/DX2                !
 ! D83   D(34,35,36,38)       -119.6395         estimate D2E/DX2                !
 ! D84   D(34,35,36,39)        127.4121         estimate D2E/DX2                !
 ! D85   D(35,36,37,40)        -59.3152         estimate D2E/DX2                !
 ! D86   D(35,36,37,41)       -179.8655         estimate D2E/DX2                !
 ! D87   D(35,36,37,42)         59.7185         estimate D2E/DX2                !
 ! D88   D(38,36,37,40)         61.8591         estimate D2E/DX2                !
 ! D89   D(38,36,37,41)        -58.6911         estimate D2E/DX2                !
 ! D90   D(38,36,37,42)       -179.1072         estimate D2E/DX2                !
 ! D91   D(39,36,37,40)        178.9602         estimate D2E/DX2                !
 ! D92   D(39,36,37,41)         58.41           estimate D2E/DX2                !
 ! D93   D(39,36,37,42)        -62.0061         estimate D2E/DX2                !
 --------------------------------------------------------------------------------
 Trust Radius=3.00D-01 FncErr=1.00D-07 GrdErr=1.00D-06
 Number of steps in this run=    221 maximum allowed number of steps=    252.
 GradGradGradGradGradGradGradGradGradGradGradGradGradGradGradGradGradGrad

                          Input orientation:                          
 ---------------------------------------------------------------------
 Center     Atomic      Atomic             Coordinates (Angstroms)
 Number     Number       Type             X           Y           Z
 ---------------------------------------------------------------------
      1          6           0       -2.170791    2.402610   -0.137316
      2          6           0       -0.845135    1.662028    0.013854
      3          6           0        0.343744    2.600439   -0.156253
      4          7           0        1.582538    1.866231   -0.006796
      5          6           0        2.768699    2.489046   -0.190526
      6          8           0        2.862773    3.681859   -0.496849
      7          7           0        3.859382    1.649281   -0.003618
      8          6           0        5.195743    1.970042   -0.109313
      9          6           0        5.697150    3.248764   -0.426819
     10          6           0        6.117279    0.920420    0.123339
     11          6           0        7.476510    1.144480    0.042058
     12          6           0        7.985912    2.416437   -0.273398
     13          6           0        7.069321    3.450924   -0.503131
     14          1           0       -3.020959    1.724211   -0.011225
     15          1           0       -2.255185    2.864205   -1.128394
     16          1           0       -2.265842    3.199636    0.609727
     17          1           0       -0.773307    0.855634   -0.725792
     18          1           0       -0.787501    1.180643    0.997166
     19          1           0        0.290864    3.413713    0.582511
     20          1           0        0.312450    3.075748   -1.146112
     21          1           0        1.535290    0.873741    0.288585
     22          1           0        3.658438    0.655614    0.233817
     23          1           0        5.005820    4.059638   -0.608850
     24          1           0        5.726129   -0.064368    0.367034
     25          1           0        8.175906    0.333051    0.222188
     26          6           0        9.450923    2.617132   -0.351345
     27          1           0        7.423983    4.448394   -0.749856
     28          8           0       10.237078    1.701830   -0.147767
     29          6           0        9.977350    3.998194   -0.693363
     30          1           0        9.647153    4.735905    0.045806
     31          1           0       11.067981    3.964650   -0.708009
     32          1           0        9.611502    4.323824   -1.673031
     33          8           0        1.298628   -0.822679    0.795150
     34          8           0        3.523492   -1.042100    0.619701
     35          6           0        2.365665   -1.488903    0.841203
     36          6           0        2.223819   -2.977160    1.191914
     37          6           0        3.539032   -3.734691    1.316568
     38          1           0        1.587500   -3.426817    0.418890
     39          1           0        1.647392   -3.036594    2.123167
     40          1           0        4.105752   -3.690998    0.381946
     41          1           0        3.363407   -4.788330    1.565310
     42          1           0        4.169285   -3.298388    2.097490
 ---------------------------------------------------------------------
                    Distance matrix (angstroms):
                    1          2          3          4          5
     1  C    0.000000
     2  C    1.526000   0.000000
     3  C    2.522376   1.524135   0.000000
     4  N    3.793708   2.436334   1.447760   0.000000
     5  C    4.940533   3.712887   2.427754   1.352269   0.000000
     6  O    5.206006   4.253130   2.762423   2.275007   1.235106
     7  N    6.078517   4.704567   3.645231   2.287159   1.389146
     8  C    7.379277   6.049980   4.893005   3.616149   2.483244
     9  C    7.918604   6.746364   5.399304   4.360946   3.034605
    10  C    8.423594   7.002656   6.019497   4.634153   3.711076
    11  C    9.730646   8.337771   7.282547   5.938199   4.901574
    12  C   10.157624   8.867866   7.645280   6.432495   5.218376
    13  C    9.306581   8.130562   6.788007   5.732572   4.417950
    14  H    1.094948   2.176857   3.479948   4.605690   5.842711
    15  H    1.096553   2.176741   2.787304   4.120929   5.124428
    16  H    1.096521   2.176628   2.784906   4.119235   5.147033
    17  H    2.166195   1.096589   2.148610   2.662381   3.937049
    18  H    2.166505   1.096337   2.150793   2.663655   3.971031
    19  H    2.756851   2.163855   1.099993   2.100096   2.755406
    20  H    2.763561   2.164285   1.098508   2.091434   2.700098
    21  H    4.031609   2.522558   2.144563   1.036590   2.088075
    22  H    6.096691   4.619894   3.862861   2.415129   2.081628
    23  H    7.380503   6.353737   4.906022   4.110032   2.765224
    24  H    8.288648   6.803432   6.028689   4.586535   3.946794
    25  H   10.557767   9.120787   8.162538   6.773150   5.835797
    26  C   11.625664  10.346710   9.109284   7.911640   6.685386
    27  H    9.829554   8.759304   7.341464   6.429789   5.081689
    28  O   12.427647  11.083463   9.934064   8.657249   7.509875
    29  C   12.265089  11.094324   9.749286   8.688470   7.382074
    30  H   12.047473  10.933337   9.547484   8.560129   7.239983
    31  H   13.342816  12.155061  10.824729   9.740056   8.445311
    32  H   12.036275  10.921173   9.547880   8.560395   7.237968
    33  O    4.827924   3.373413   3.678955   2.820276   3.755021
    34  O    6.698056   5.173418   4.897039   3.552209   3.700698
    35  C    6.056468   4.574069   4.669668   3.548142   4.129283
    36  C    7.072579   5.685804   6.038365   5.030566   5.664578
    37  C    8.507780   7.074077   7.246581   6.078609   6.449778
    38  H    6.958185   5.654919   6.181062   5.310141   6.063337
    39  H    7.019491   5.721796   6.218633   5.345900   6.094522
    40  H    8.763372   7.300799   7.350139   6.115597   6.348887
    41  H    9.232330   7.856587   8.165541   7.065848   7.509783
    42  H    8.814323   7.354704   7.383108   6.147566   6.378954
                    6          7          8          9         10
     6  O    0.000000
     7  N    2.316869   0.000000
     8  C    2.919461   1.378376   0.000000
     9  C    2.868130   2.472820   1.409734   0.000000
    10  C    4.313003   2.376017   1.416002   2.429068   0.000000
    11  C    5.292947   3.652468   2.430301   2.795350   1.379970
    12  C    5.281835   4.205896   2.830412   2.440233   2.426366
    13  C    4.212887   3.714719   2.420413   1.389081   2.775302
    14  H    6.219849   6.880753   8.220964   8.860159   9.174508
    15  H    5.221197   6.334753   7.573268   7.992480   8.685810
    16  H    5.268751   6.348083   7.596326   8.030322   8.701041
    17  H    4.610970   4.755336   6.103402   6.905308   6.943011
    18  H    4.670402   4.776475   6.135687   6.953816   6.964717
    19  H    2.802076   4.023815   5.159520   5.502171   6.354090
    20  H    2.700567   3.990091   5.113130   5.435284   6.320838
    21  H    3.203848   2.467438   3.841760   4.844958   4.585206
    22  H    3.213272   1.041215   2.051528   3.364107   2.475526
    23  H    2.178971   2.736868   2.156854   1.081013   3.409712
    24  H    4.793675   2.561000   2.155699   3.407035   1.087287
    25  H    6.321465   4.518388   3.416285   3.881601   2.143062
    26  C    6.675219   5.685330   4.310900   3.807291   3.770588
    27  H    4.632087   4.593287   3.393756   2.127303   3.862194
    28  O    7.643478   6.379541   5.048611   4.804354   4.202004
    29  C    7.124317   6.589588   5.226689   4.353482   5.003982
    30  H    6.887184   6.559572   5.243005   4.247056   5.198456
    31  H    8.212795   7.604012   6.230576   5.425623   5.870939
    32  H    6.880471   6.559497   5.242559   4.246287   5.198047
    33  O    4.940311   3.647749   4.879021   6.116931   5.168087
    34  O    4.898880   2.782963   3.521489   4.922551   3.290227
    35  C    5.364166   3.576746   4.569149   5.928926   4.516058
    36  C    6.899473   5.050577   5.916109   7.310709   5.611776
    37  C    7.664922   5.552717   6.109158   7.514354   5.453550
    38  H    7.279985   5.577341   6.513410   7.884658   6.285279
    39  H    7.312951   5.601209   6.530021   7.899918   6.295806
    40  H    7.528366   5.359845   5.785913   7.165678   5.037687
    41  H    8.731967   6.644574   7.199821   8.602896   6.500225
    42  H    7.560517   5.384248   5.803444   7.181345   5.048792
                   11         12         13         14         15
    11  C    0.000000
    12  C    1.406015   0.000000
    13  C    2.404729   1.401100   0.000000
    14  H   10.513600  11.031733  10.248769   0.000000
    15  H    9.951548  10.286476   9.363846   1.770328   0.000000
    16  H    9.972929  10.319485   9.404619   1.769933   1.770224
    17  H    8.290507   8.908686   8.263893   2.513359   2.528321
    18  H    8.319099   8.950659   8.314729   2.510111   3.083258
    19  H    7.554800   7.806465   6.864946   3.764986   3.116332
    20  H    7.514340   7.751022   6.797757   3.771768   2.576396
    21  H    5.952492   6.656295   6.155825   4.644631   4.509709
    22  H    3.854015   4.699446   4.471127   6.768773   6.457897
    23  H    3.876357   3.419589   2.154007   8.380964   7.377071
    24  H    2.151919   3.416309   3.862464   8.936086   8.632162
    25  H    1.086287   2.149930   3.386998  11.285371  10.818432
    26  C    2.494349   1.480747   2.527900  12.508431  11.734472
    27  H    3.397902   2.161395   1.087017  10.819592   9.815256
    28  O    2.822660   2.365205   3.635973  13.258759  12.584490
    29  C    3.865066   2.577626   2.965186  13.213340  12.292685
    30  H    4.196432   2.870809   2.932188  13.021314  12.105687
    31  H    4.627594   3.476349   4.036728  14.282973  13.375144
    32  H    4.196183   2.870478   2.931434  13.003794  11.968517
    33  O    6.527103   7.506892   7.297267   5.078949   5.470167
    34  O    4.554246   5.715969   5.832746   7.133048   7.190839
    35  C    5.804659   6.934060   6.952230   6.329807   6.646888
    36  C    6.775016   8.027437   8.226320   7.145497   7.717957
    37  C    6.398000   7.754940   8.210195   8.636905   9.115713
    38  H    7.464529   8.692673   8.843292   6.925026   7.532415
    39  H    7.469338   8.698040   8.853398   7.001029   7.786025
    40  H    5.904182   7.265388   7.782875   8.959301   9.258150
    41  H    7.378085   8.755402   9.268094   9.255204   9.868430
    42  H    5.907759   7.269593   7.792731   9.020687   9.468775
                   16         17         18         19         20
    16  H    0.000000
    17  H    3.083118   0.000000
    18  H    2.532179   1.753401   0.000000
    19  H    2.565797   3.063966   2.514242   0.000000
    20  H    3.121843   2.506879   3.065119   1.761484   0.000000
    21  H    4.467832   2.521688   2.447781   2.843668   2.898712
    22  H    6.458362   4.538857   4.541446   4.366835   4.353951
    23  H    7.423045   6.608905   6.665618   4.905850   4.825393
    24  H    8.636215   6.654573   6.661418   6.456437   6.438778
    25  H   10.835016   9.014442   9.036684   8.473145   8.439702
    26  C   11.770537  10.381617  10.426280   9.241932   9.184426
    27  H    9.864105   8.950088   9.008815   7.329881   7.253626
    28  O   12.615079  11.057972  11.096119  10.118845  10.068892
    29  C   12.338212  11.200597  11.255154   9.787619   9.719372
    30  H   12.024873  11.146204  11.064672   9.464480   9.555809
    31  H   13.420600  12.242647  12.296779  10.868083  10.801090
    32  H   12.146855  10.989535  11.186993   9.632760   9.397219
    33  O    5.377624   3.069677   2.899318   4.359796   4.465286
    34  O    7.176963   4.886126   4.864948   5.505046   5.512310
    35  C    6.594454   4.219653   4.134399   5.329856   5.385272
    36  C    7.658251   5.229787   5.137441   6.704547   6.764421
    37  C    9.070891   6.621071   6.556021   7.886008   7.928285
    38  H    7.667759   5.022259   5.215718   6.964258   6.808695
    39  H    7.516280   5.396832   4.998167   6.769066   7.059107
    40  H    9.387754   6.760485   6.932193   8.066630   7.906513
    41  H    9.818818   7.363144   7.292563   8.813622   8.860241
    42  H    9.265452   7.046704   6.770684   7.898710   8.125623
                   21         22         23         24         25
    21  H    0.000000
    22  H    2.135026   0.000000
    23  H    4.795822   3.756715   0.000000
    24  H    4.295268   2.193505   4.298677   0.000000
    25  H    6.662922   4.528984   4.962613   2.486027   0.000000
    26  C    8.130570   6.143521   4.680393   4.645493   2.677991
    27  H    6.966578   5.434347   2.453269   4.949260   4.294917
    28  O    8.751985   6.672232   5.756555   4.871667   2.501771
    29  C    9.055098   7.208409   4.972628   5.975093   4.185297
    30  H    8.987634   7.249057   4.735809   6.206467   4.645515
    31  H   10.070706   8.169338   6.063716   6.776731   4.734753
    32  H    8.998678   7.247814   4.734404   6.205982   4.645327
    33  O    1.786185   2.840624   6.288999   4.512325   6.997209
    34  O    2.780832   1.746239   5.452923   2.423099   4.867649
    35  C    2.564565   2.576651   6.313429   3.680605   6.120587
    36  C    4.014912   4.021583   7.778099   4.629359   6.879332
    37  C    5.129266   4.523426   8.161511   4.376789   6.264566
    38  H    4.302848   4.581406   8.293864   5.332636   7.588306
    39  H    4.320762   4.609376   8.312609   5.343615   7.588789
    40  H    5.239545   4.372078   7.865377   3.972189   5.725787
    41  H    6.085318   5.612170   9.258026   5.416100   7.154905
    42  H    5.255162   4.400952   7.884455   3.984612   5.723383
                   26         27         28         29         30
    26  C    0.000000
    27  H    2.760583   0.000000
    28  O    1.223626   3.977390   0.000000
    29  C    1.517048   2.593367   2.374536   0.000000
    30  H    2.164587   2.378702   3.096949   1.095271   0.000000
    31  H    2.134922   3.676205   2.474798   1.091245   1.783767
    32  H    2.164587   2.377606   3.097197   1.095276   1.767904
    33  O    8.922256   8.227468   9.335851  10.038760  10.057695
    34  O    7.033303   6.872776   7.293175   8.293431   8.438834
    35  C    8.275420   7.960499   8.550905   9.507938   9.612541
    36  C    9.268700   9.270979   9.375501  10.598448  10.766189
    37  C    8.836178   9.291170   8.750077  10.261056  10.520217
    38  H    9.947663   9.871649  10.071710  11.258663  11.477249
    39  H    9.949016   9.881716  10.069385  11.260963  11.345631
    40  H    8.300666   8.862355   8.182686   9.734250  10.091224
    41  H    9.776108  10.352070   9.607506  11.227148  11.511099
    42  H    8.299751   8.872039   8.176887   9.734608   9.938124
                   31         32         33         34         35
    31  H    0.000000
    32  H    1.783705   0.000000
    33  O   10.982634  10.083763   0.000000
    34  O    9.151485   8.432890   2.242531   0.000000
    35  C   10.386125   9.623478   1.258786   1.260658   0.000000
    36  C   11.402528  10.774514   2.378064   2.400216   1.535588
    37  C   10.957364  10.523890   3.710943   2.781351   2.578047
    38  H   12.074072  11.350471   2.646990   3.078192   2.130587
    39  H   12.073959  11.489731   2.605127   3.123807   2.134174
    40  H   10.405267   9.938490   4.034592   2.722538   2.843949
    41  H   11.880366  11.513336   4.536833   3.867046   3.522221
    42  H   10.402623  10.096171   4.008228   2.773400   2.847023
                   36         37         38         39         40
    36  C    0.000000
    37  C    1.522885   0.000000
    38  H    1.097570   2.170044   0.000000
    39  H    1.096829   2.171691   1.749407   0.000000
    40  H    2.169628   1.093892   2.532342   3.082796   0.000000
    41  H    2.172193   1.096756   2.514328   2.514854   1.776391
    42  H    2.169814   1.094266   3.082176   2.535574   1.761043
                   41         42
    41  H    0.000000
    42  H    1.775551   0.000000
 Stoichiometry    C15H21N2O4(1-)
 Framework group  C1[X(C15H21N2O4)]
 Deg. of freedom   120
 Full point group                 C1      NOp   1
 Largest Abelian subgroup         C1      NOp   1
 Largest concise Abelian subgroup C1      NOp   1
                         Standard orientation:                         
 ---------------------------------------------------------------------
 Center     Atomic      Atomic             Coordinates (Angstroms)
 Number     Number       Type             X           Y           Z
 ---------------------------------------------------------------------
      1          6           0       -5.798798   -2.788512    0.046278
      2          6           0       -4.719213   -1.710065    0.057436
      3          6           0       -3.322463   -2.314283   -0.026208
      4          7           0       -2.324900   -1.265133   -0.013465
      5          6           0       -1.009248   -1.577626   -0.007032
      6          8           0       -0.593235   -2.740551   -0.001913
      7          7           0       -0.184136   -0.460087   -0.002399
      8          6           0        1.193954   -0.432044   -0.000667
      9          6           0        2.025344   -1.570463   -0.012531
     10          6           0        1.799371    0.847930    0.013559
     11          6           0        3.173176    0.978206    0.014764
     12          6           0        4.010407   -0.151295    0.002423
     13          6           0        3.405709   -1.415115   -0.011034
     14          1           0       -6.799821   -2.348535    0.103566
     15          1           0       -5.684354   -3.471519    0.896473
     16          1           0       -5.749402   -3.387922   -0.870579
     17          1           0       -4.793958   -1.106307    0.969794
     18          1           0       -4.863830   -1.017378   -0.779956
     19          1           0       -3.227639   -2.919685   -0.939707
     20          1           0       -3.153451   -2.995834    0.818566
     21          1           0       -2.644374   -0.279986   -0.057529
     22          1           0       -0.647480    0.472230    0.012628
     23          1           0        1.577679   -2.554386   -0.021642
     24          1           0        1.154333    1.723155    0.023584
     25          1           0        3.628632    1.964339    0.025717
     26          6           0        5.480066    0.029560    0.004286
     27          1           0        4.018998   -2.312550   -0.020587
     28          8           0        5.991121    1.141288    0.016310
     29          6           0        6.363352   -1.203753   -0.009143
     30          1           0        6.171655   -1.811507   -0.899933
     31          1           0        7.407839   -0.887768   -0.005293
     32          1           0        6.171176   -1.831096    0.867863
     33          8           0       -3.340919    1.363109   -0.131831
     34          8           0       -1.236585    2.115579    0.053948
     35          6           0       -2.483564    2.279409   -0.032441
     36          6           0       -3.023695    3.716659   -0.007879
     37          6           0       -1.956327    4.802112    0.033297
     38          1           0       -3.688738    3.791649    0.862037
     39          1           0       -3.669224    3.834754   -0.886730
     40          1           0       -1.323857    4.695419    0.919410
     41          1           0       -2.411282    5.799888    0.051527
     42          1           0       -1.301135    4.739847   -0.840925
 ---------------------------------------------------------------------
 Rotational constants (GHZ):      0.3940878      0.1363467      0.1017004
 General basis read from cards:  (6D, 7F)
 There are   441 symmetry adapted cartesian basis functions of A   symmetry.
 There are   441 symmetry adapted basis functions of A   symmetry.
   441 basis functions,   756 primitive gaussians,   441 cartesian basis functions
    79 alpha electrons       79 beta electrons
       nuclear repulsion energy      1610.6256455317 Hartrees.
 NAtoms=   42 NActive=   42 NUniq=   42 SFac= 1.00D+00 NAtFMM=   60 NAOKFM=F Big=F
 Integral buffers will be    131072 words long.
 Raffenetti 2 integral format.
 Two-electron integral symmetry is turned on.
 ------------------------------------------------------------------------------
 Polarizable Continuum Model (PCM)
 =================================
 Model                : PCM (using non-symmetric T matrix).
 Atomic radii         : SMD-Coulomb.
 Polarization charges : Total charges.
 Charge compensation  : None.
 Solution method      : On-the-fly selection.
 Cavity type          : VdW (van der Waals Surface) (Alpha=1.000).
 Cavity algorithm     : GePol (No added spheres)
                        Default sphere list used, NSphG=   42.
                        Lebedev-Laikov grids with approx.  5.0 points / Ang**2.
                        Smoothing algorithm: York/Karplus (Gamma=1.0000).
                        Polarization charges: spherical gaussians, with
                                              point-specific exponents (IZeta= 3).
                        Self-potential: point-specific (ISelfS= 7).
                        Self-field    : sphere-specific E.n sum rule (ISelfD= 2).
 1st derivatives      : Analytical E(r).r(x)/FMM algorithm (CHGder, D1EAlg=3).
                        Cavity 1st derivative terms included.
 Solvent              : Water, Eps=  78.355300 Eps(inf)=   1.777849
 ------------------------------------------------------------------------------
 ------------------------------------------------------------------------------
 Atomic radii for non-electrostatic terms: SMD-CDS.
 ------------------------------------------------------------------------------
 Nuclear repulsion after PCM non-electrostatic terms =     1610.6397075364 Hartrees.
 One-electron integrals computed using PRISM.
 NBasis=   441 RedAO= T EigKep=  1.48D-06  NBF=   441
 NBsUse=   439 1.00D-06 EigRej=  6.35D-07 NBFU=   439
 ExpMin= 4.38D-02 ExpMax= 5.48D+03 ExpMxC= 8.25D+02 IAcc=3 IRadAn=         5 AccDes= 0.00D+00
 Harris functional with IExCor= 1009 and IRadAn=       5 diagonalized for initial guess.
 HarFok:  IExCor= 1009 AccDes= 0.00D+00 IRadAn=         5 IDoV= 1 UseB2=F ITyADJ=14
 ICtDFT=  3500011 ScaDFX=  1.000000  1.000000  1.000000  1.000000
 FoFCou: FMM=F IPFlag=           0 FMFlag=      100000 FMFlg1=           0
         NFxFlg=           0 DoJE=T BraDBF=F KetDBF=T FulRan=T
         wScrn=  0.000000 ICntrl=     500 IOpCl=  0 I1Cent=   200000004 NGrid=           0
         NMat0=    1 NMatS0=      1 NMatT0=    0 NMatD0=    1 NMtDS0=    0 NMtDT0=    0
 Petite list used in FoFCou.
 Requested convergence on RMS density matrix=1.00D-08 within 128 cycles.
 Requested convergence on MAX density matrix=1.00D-06.
 Requested convergence on             energy=1.00D-06.
 No special actions if energy rises.
 Inv3:  Mode=1 IEnd=    28885827.
 Iteration    1 A*A^-1 deviation from unit magnitude is 6.22D-15 for   3067.
 Iteration    1 A*A^-1 deviation from orthogonality  is 3.98D-15 for   2657    752.
 Iteration    1 A^-1*A deviation from unit magnitude is 5.77D-15 for   3090.
 Iteration    1 A^-1*A deviation from orthogonality  is 3.00D-06 for   2109   2103.
 Iteration    2 A*A^-1 deviation from unit magnitude is 3.66D-15 for    501.
 Iteration    2 A*A^-1 deviation from orthogonality  is 6.16D-15 for   3095   2041.
 Iteration    2 A^-1*A deviation from unit magnitude is 1.33D-15 for    374.
 Iteration    2 A^-1*A deviation from orthogonality  is 7.17D-16 for   3062   1463.
 Error on total polarization charges =  0.08234
 SCF Done:  E(RM062X) =  -994.487995770     A.U. after   15 cycles
            NFock= 15  Conv=0.73D-08     -V/T= 2.0086
 SMD-CDS (non-electrostatic) energy       (kcal/mol) =       8.82
 (included in total energy above)

 **********************************************************************

            Population analysis using the SCF density.

 **********************************************************************

 Orbital symmetries:
       Occupied  (A) (A) (A) (A) (A) (A) (A) (A) (A) (A) (A) (A)
                 (A) (A) (A) (A) (A) (A) (A) (A) (A) (A) (A) (A)
                 (A) (A) (A) (A) (A) (A) (A) (A) (A) (A) (A) (A)
                 (A) (A) (A) (A) (A) (A) (A) (A) (A) (A) (A) (A)
                 (A) (A) (A) (A) (A) (A) (A) (A) (A) (A) (A) (A)
                 (A) (A) (A) (A) (A) (A) (A) (A) (A) (A) (A) (A)
                 (A) (A) (A) (A) (A) (A) (A)
       Virtual   (A) (A) (A) (A) (A) (A) (A) (A) (A) (A) (A) (A)
                 (A) (A) (A) (A) (A) (A) (A) (A) (A) (A) (A) (A)
                 (A) (A) (A) (A) (A) (A) (A) (A) (A) (A) (A) (A)
                 (A) (A) (A) (A) (A) (A) (A) (A) (A) (A) (A) (A)
                 (A) (A) (A) (A) (A) (A) (A) (A) (A) (A) (A) (A)
                 (A) (A) (A) (A) (A) (A) (A) (A) (A) (A) (A) (A)
                 (A) (A) (A) (A) (A) (A) (A) (A) (A) (A) (A) (A)
                 (A) (A) (A) (A) (A) (A) (A) (A) (A) (A) (A) (A)
                 (A) (A) (A) (A) (A) (A) (A) (A) (A) (A) (A) (A)
                 (A) (A) (A) (A) (A) (A) (A) (A) (A) (A) (A) (A)
                 (A) (A) (A) (A) (A) (A) (A) (A) (A) (A) (A) (A)
                 (A) (A) (A) (A) (A) (A) (A) (A) (A) (A) (A) (A)
                 (A) (A) (A) (A) (A) (A) (A) (A) (A) (A) (A) (A)
                 (A) (A) (A) (A) (A) (A) (A) (A) (A) (A) (A) (A)
                 (A) (A) (A) (A) (A) (A) (A) (A) (A) (A) (A) (A)
                 (A) (A) (A) (A) (A) (A) (A) (A) (A) (A) (A) (A)
                 (A) (A) (A) (A) (A) (A) (A) (A) (A) (A) (A) (A)
                 (A) (A) (A) (A) (A) (A) (A) (A) (A) (A) (A) (A)
                 (A) (A) (A) (A) (A) (A) (A) (A) (A) (A) (A) (A)
                 (A) (A) (A) (A) (A) (A) (A) (A) (A) (A) (A) (A)
                 (A) (A) (A) (A) (A) (A) (A) (A) (A) (A) (A) (A)
                 (A) (A) (A) (A) (A) (A) (A) (A) (A) (A) (A) (A)
                 (A) (A) (A) (A) (A) (A) (A) (A) (A) (A) (A) (A)
                 (A) (A) (A) (A) (A) (A) (A) (A) (A) (A) (A) (A)
                 (A) (A) (A) (A) (A) (A) (A) (A) (A) (A) (A) (A)
                 (A) (A) (A) (A) (A) (A) (A) (A) (A) (A) (A) (A)
                 (A) (A) (A) (A) (A) (A) (A) (A) (A) (A) (A) (A)
                 (A) (A) (A) (A) (A) (A) (A) (A) (A) (A) (A) (A)
                 (A) (A) (A) (A) (A) (A) (A) (A) (A) (A) (A) (A)
                 (A) (A) (A) (A) (A) (A) (A) (A) (A) (A) (A) (A)
 The electronic state is 1-A.
 Alpha  occ. eigenvalues --  -19.64477 -19.61859 -19.60816 -19.60545 -14.78529
 Alpha  occ. eigenvalues --  -14.76794 -10.68365 -10.65136 -10.64903 -10.61066
 Alpha  occ. eigenvalues --  -10.57019 -10.56374 -10.56108 -10.55583 -10.55272
 Alpha  occ. eigenvalues --  -10.54970 -10.53862 -10.53788 -10.53521 -10.52788
 Alpha  occ. eigenvalues --  -10.52548  -1.17809  -1.17329  -1.17005  -1.07461
 Alpha  occ. eigenvalues --   -1.05407  -1.01962  -0.95735  -0.88006  -0.86073
 Alpha  occ. eigenvalues --   -0.85525  -0.84884  -0.82021  -0.77329  -0.72209
 Alpha  occ. eigenvalues --   -0.71984  -0.70767  -0.67832  -0.66172  -0.63589
 Alpha  occ. eigenvalues --   -0.62122  -0.60978  -0.58790  -0.56503  -0.55137
 Alpha  occ. eigenvalues --   -0.53776  -0.53582  -0.53316  -0.52755  -0.51723
 Alpha  occ. eigenvalues --   -0.51298  -0.51249  -0.50779  -0.50738  -0.48892
 Alpha  occ. eigenvalues --   -0.48413  -0.46469  -0.46333  -0.46259  -0.45860
 Alpha  occ. eigenvalues --   -0.44344  -0.44298  -0.43860  -0.42948  -0.41734
 Alpha  occ. eigenvalues --   -0.41376  -0.40424  -0.39463  -0.39432  -0.38871
 Alpha  occ. eigenvalues --   -0.37664  -0.35419  -0.34210  -0.33380  -0.33014
 Alpha  occ. eigenvalues --   -0.32116  -0.31813  -0.31415  -0.26394
 Alpha virt. eigenvalues --   -0.02575   0.01811   0.02036   0.02926   0.03465
 Alpha virt. eigenvalues --    0.03862   0.04025   0.04379   0.04566   0.05448
 Alpha virt. eigenvalues --    0.05695   0.06280   0.06298   0.06666   0.06764
 Alpha virt. eigenvalues --    0.06928   0.07636   0.07852   0.08038   0.08339
 Alpha virt. eigenvalues --    0.08439   0.09131   0.09411   0.09784   0.09870
 Alpha virt. eigenvalues --    0.10191   0.10469   0.10979   0.11017   0.11317
 Alpha virt. eigenvalues --    0.12796   0.12874   0.13122   0.13235   0.13520
 Alpha virt. eigenvalues --    0.14181   0.14532   0.15016   0.15329   0.15677
 Alpha virt. eigenvalues --    0.16593   0.16863   0.17120   0.17853   0.18454
 Alpha virt. eigenvalues --    0.18817   0.19333   0.19554   0.19831   0.20491
 Alpha virt. eigenvalues --    0.20578   0.21217   0.21446   0.22149   0.22555
 Alpha virt. eigenvalues --    0.22852   0.23291   0.23514   0.23757   0.24435
 Alpha virt. eigenvalues --    0.24594   0.24912   0.25071   0.25253   0.25468
 Alpha virt. eigenvalues --    0.25922   0.26257   0.26698   0.26846   0.27173
 Alpha virt. eigenvalues --    0.27388   0.27683   0.28203   0.28483   0.28631
 Alpha virt. eigenvalues --    0.29101   0.29702   0.29752   0.30158   0.30372
 Alpha virt. eigenvalues --    0.30636   0.31028   0.31466   0.31727   0.32083
 Alpha virt. eigenvalues --    0.32436   0.32917   0.33093   0.33161   0.33547
 Alpha virt. eigenvalues --    0.33886   0.34294   0.34798   0.34871   0.35061
 Alpha virt. eigenvalues --    0.35766   0.35990   0.36243   0.36412   0.37105
 Alpha virt. eigenvalues --    0.37629   0.38098   0.38887   0.39651   0.40071
 Alpha virt. eigenvalues --    0.40257   0.40487   0.41918   0.43225   0.43480
 Alpha virt. eigenvalues --    0.44120   0.44833   0.46269   0.46665   0.47534
 Alpha virt. eigenvalues --    0.47911   0.48513   0.49422   0.51574   0.52663
 Alpha virt. eigenvalues --    0.53147   0.53914   0.55086   0.56497   0.58700
 Alpha virt. eigenvalues --    0.59177   0.61728   0.64921   0.68825   0.70014
 Alpha virt. eigenvalues --    0.70249   0.71174   0.71779   0.72914   0.74051
 Alpha virt. eigenvalues --    0.74530   0.75073   0.75942   0.76166   0.76239
 Alpha virt. eigenvalues --    0.76755   0.77286   0.77845   0.78671   0.78963
 Alpha virt. eigenvalues --    0.79169   0.80473   0.80895   0.81823   0.82201
 Alpha virt. eigenvalues --    0.82316   0.82739   0.84600   0.84913   0.85800
 Alpha virt. eigenvalues --    0.86320   0.87291   0.88569   0.88891   0.89587
 Alpha virt. eigenvalues --    0.91543   0.92755   0.93663   0.96146   0.97522
 Alpha virt. eigenvalues --    0.98700   0.99336   1.00198   1.00830   1.01706
 Alpha virt. eigenvalues --    1.02416   1.03359   1.05637   1.05778   1.06088
 Alpha virt. eigenvalues --    1.07262   1.07797   1.08132   1.08834   1.09481
 Alpha virt. eigenvalues --    1.09601   1.12062   1.12590   1.13164   1.14615
 Alpha virt. eigenvalues --    1.17100   1.17439   1.18290   1.18488   1.19101
 Alpha virt. eigenvalues --    1.19721   1.20856   1.22534   1.23126   1.24054
 Alpha virt. eigenvalues --    1.24517   1.25837   1.26537   1.28138   1.28621
 Alpha virt. eigenvalues --    1.30871   1.32047   1.32190   1.32908   1.33998
 Alpha virt. eigenvalues --    1.34944   1.35821   1.36723   1.37144   1.37526
 Alpha virt. eigenvalues --    1.39022   1.39418   1.39961   1.40580   1.41317
 Alpha virt. eigenvalues --    1.42255   1.42662   1.43723   1.44756   1.45320
 Alpha virt. eigenvalues --    1.46078   1.47014   1.48034   1.48285   1.49837
 Alpha virt. eigenvalues --    1.50497   1.50932   1.52070   1.52425   1.52984
 Alpha virt. eigenvalues --    1.55636   1.56058   1.57316   1.57762   1.59028
 Alpha virt. eigenvalues --    1.59916   1.61676   1.64049   1.67817   1.68769
 Alpha virt. eigenvalues --    1.73928   1.75916   1.76782   1.79560   1.79826
 Alpha virt. eigenvalues --    1.80744   1.81919   1.82589   1.85735   1.86020
 Alpha virt. eigenvalues --    1.87530   1.88256   1.89668   1.89948   1.90350
 Alpha virt. eigenvalues --    1.91825   1.93260   1.94513   1.94942   1.95626
 Alpha virt. eigenvalues --    1.96488   1.96804   1.97768   1.99393   2.01109
 Alpha virt. eigenvalues --    2.01921   2.04049   2.05207   2.05869   2.06579
 Alpha virt. eigenvalues --    2.07441   2.08343   2.08999   2.09684   2.10895
 Alpha virt. eigenvalues --    2.11100   2.11290   2.12717   2.13719   2.14637
 Alpha virt. eigenvalues --    2.16131   2.17996   2.18691   2.21458   2.22141
 Alpha virt. eigenvalues --    2.24023   2.25462   2.28018   2.29585   2.30017
 Alpha virt. eigenvalues --    2.31188   2.32482   2.34455   2.34697   2.35962
 Alpha virt. eigenvalues --    2.37078   2.39293   2.40191   2.40207   2.41294
 Alpha virt. eigenvalues --    2.43408   2.45126   2.45459   2.47795   2.48185
 Alpha virt. eigenvalues --    2.49914   2.52888   2.55462   2.56039   2.58475
 Alpha virt. eigenvalues --    2.60754   2.62957   2.64593   2.65617   2.67669
 Alpha virt. eigenvalues --    2.69564   2.69696   2.75567   2.75895   2.76259
 Alpha virt. eigenvalues --    2.76443   2.80231   2.80919   2.84331   2.88007
 Alpha virt. eigenvalues --    2.91118   2.94095   2.96757   3.00208   3.05547
 Alpha virt. eigenvalues --    3.10098   3.12575   3.14860   3.15197   3.21631
 Alpha virt. eigenvalues --    3.23487   3.29417   3.38116   3.46206   4.22834
 Alpha virt. eigenvalues --    4.24927   4.27022   4.29660   4.32073   4.32569
 Alpha virt. eigenvalues --    4.37901   4.42757   4.43438   4.44625   4.46273
 Alpha virt. eigenvalues --    4.48464   4.49973   4.52325   4.57673   4.61588
 Alpha virt. eigenvalues --    4.66531   4.69885   4.75731   4.79153   4.88249
          Condensed to atoms (all electrons):
               1          2          3          4          5          6
     1  C    5.849761  -0.207907   0.053494  -0.024445  -0.049164  -0.001572
     2  C   -0.207907   6.333476  -0.543561  -0.056672   0.255073   0.020424
     3  C    0.053494  -0.543561   7.168457   0.293028  -0.887491  -0.092130
     4  N   -0.024445  -0.056672   0.293028   7.762792   0.453338  -0.188352
     5  C   -0.049164   0.255073  -0.887491   0.453338   6.075128   0.559805
     6  O   -0.001572   0.020424  -0.092130  -0.188352   0.559805   8.517474
     7  N   -0.001503   0.018802  -0.107644  -0.316159   0.274017  -0.071911
     8  C   -0.004607   0.011400  -0.217811  -0.069528  -0.467446  -0.398641
     9  C   -0.001269   0.004354  -0.129131  -0.064930  -0.156291   0.414944
    10  C   -0.003826  -0.002865  -0.041340  -0.018807  -0.225021  -0.140592
    11  C   -0.000512  -0.000703  -0.018905  -0.013339  -0.290475  -0.025036
    12  C   -0.000355  -0.000057  -0.024022  -0.005193  -0.201409   0.011674
    13  C    0.000341  -0.000392   0.001484   0.010447   0.118420   0.120495
    14  H    0.446602  -0.114839   0.024403   0.000630  -0.002283   0.000003
    15  H    0.421480  -0.058651  -0.016169   0.000875  -0.000144  -0.000024
    16  H    0.411479  -0.061495  -0.008313   0.000466   0.004740  -0.000013
    17  H   -0.025395   0.431500  -0.094712   0.006514   0.000512  -0.000144
    18  H   -0.029666   0.431526  -0.091073   0.006604  -0.000111  -0.000037
    19  H   -0.009312  -0.039929   0.439819  -0.045192  -0.037040   0.000992
    20  H   -0.004801  -0.042798   0.468357  -0.046759  -0.058793   0.002498
    21  H    0.000467  -0.000588  -0.022478   0.170400  -0.008364   0.004369
    22  H   -0.000023  -0.000445  -0.007234   0.008057  -0.048416   0.004186
    23  H    0.000013   0.000051   0.003588   0.000607   0.015571  -0.005861
    24  H   -0.000007   0.000038  -0.001367   0.000478  -0.018802   0.000103
    25  H    0.000000   0.000000   0.000033   0.000022   0.003533  -0.000000
    26  C   -0.000026  -0.000044  -0.004019  -0.001989  -0.112286   0.001245
    27  H   -0.000000   0.000002  -0.000168  -0.000025  -0.009175   0.000259
    28  O   -0.000000   0.000000  -0.000005  -0.000001  -0.000674   0.000001
    29  C    0.000000   0.000006  -0.000022   0.000025  -0.001598  -0.000121
    30  H   -0.000000  -0.000000  -0.000001  -0.000000  -0.000142   0.000000
    31  H    0.000000   0.000000   0.000000  -0.000000   0.000012   0.000000
    32  H   -0.000000   0.000000  -0.000000  -0.000000  -0.000070   0.000000
    33  O    0.005362   0.003894   0.010309  -0.031130  -0.013871  -0.000472
    34  O   -0.000606  -0.003569   0.005864   0.005948  -0.014655  -0.000087
    35  C   -0.002954  -0.011221   0.023790  -0.007394  -0.005414  -0.001231
    36  C    0.003039  -0.007113   0.028486  -0.025232  -0.021983  -0.000785
    37  C   -0.000526  -0.000904  -0.001538   0.003112  -0.001229   0.000063
    38  H    0.000032   0.000094   0.000049  -0.000137  -0.000100  -0.000000
    39  H    0.000041   0.000142   0.000046   0.000011  -0.000219  -0.000000
    40  H    0.000001   0.000020  -0.000016  -0.000008  -0.000016   0.000000
    41  H   -0.000000   0.000001  -0.000008  -0.000005   0.000020   0.000000
    42  H    0.000000   0.000003  -0.000003   0.000007   0.000038   0.000000
               7          8          9         10         11         12
     1  C   -0.001503  -0.004607  -0.001269  -0.003826  -0.000512  -0.000355
     2  C    0.018802   0.011400   0.004354  -0.002865  -0.000703  -0.000057
     3  C   -0.107644  -0.217811  -0.129131  -0.041340  -0.018905  -0.024022
     4  N   -0.316159  -0.069528  -0.064930  -0.018807  -0.013339  -0.005193
     5  C    0.274017  -0.467446  -0.156291  -0.225021  -0.290475  -0.201409
     6  O   -0.071911  -0.398641   0.414944  -0.140592  -0.025036   0.011674
     7  N    7.858101   0.106429  -0.092261  -0.096959  -0.034020  -0.010498
     8  C    0.106429  13.277430  -0.456262   0.901184  -2.135161  -1.573215
     9  C   -0.092261  -0.456262  10.438150  -3.149744  -2.294571  -0.511170
    10  C   -0.096959   0.901184  -3.149744   9.812416   1.442151  -0.800766
    11  C   -0.034020  -2.135161  -2.294571   1.442151   9.587960   0.608245
    12  C   -0.010498  -1.573215  -0.511170  -0.800766   0.608245   9.330885
    13  C    0.073548  -2.253753   2.461511  -1.943988  -1.431614   0.606091
    14  H    0.000014  -0.000038  -0.000005  -0.000003  -0.000000  -0.000000
    15  H    0.000035  -0.000050  -0.000017   0.000003   0.000000  -0.000000
    16  H    0.000034   0.000083  -0.000002   0.000004   0.000000   0.000000
    17  H   -0.000098  -0.000259  -0.000109   0.000058   0.000002  -0.000002
    18  H    0.000639  -0.001671   0.000303  -0.000234  -0.000018  -0.000006
    19  H   -0.001909   0.000999  -0.001646   0.000278   0.000014   0.000018
    20  H    0.000304  -0.006719  -0.000066  -0.000248  -0.000042  -0.000057
    21  H    0.002415   0.007081   0.003880  -0.008300  -0.001442  -0.000219
    22  H    0.123504   0.045568   0.062182  -0.072234  -0.011906   0.007401
    23  H   -0.015640  -0.018773   0.326451  -0.003783  -0.002341   0.025953
    24  H   -0.012616  -0.004790   0.004546   0.325197  -0.044458   0.027248
    25  H    0.000641   0.044941   0.002161  -0.025040   0.320258   0.023624
    26  C   -0.007668  -0.366221  -0.153672  -0.186989   0.169837  -1.873455
    27  H   -0.001323   0.032854  -0.063259   0.006740   0.025850   0.002688
    28  O   -0.000153   0.020975  -0.026355   0.146205   0.094987  -0.337928
    29  C   -0.000493  -0.020284  -0.091705   0.114907   0.087453  -0.025151
    30  H   -0.000003   0.000276   0.008441  -0.001771  -0.006271  -0.010938
    31  H   -0.000001   0.000860   0.002684  -0.000368  -0.009651   0.062339
    32  H   -0.000003   0.001987   0.012433  -0.002178  -0.007295  -0.011836
    33  O   -0.000176   0.012000  -0.000094  -0.020884  -0.005884  -0.001147
    34  O    0.017940  -0.330214  -0.037542   0.283594   0.079084   0.005550
    35  C   -0.024146   0.121604  -0.001617  -0.099490  -0.039707  -0.007137
    36  C   -0.017329  -0.053125  -0.024756   0.048301   0.009828   0.000166
    37  C    0.004562  -0.024932  -0.002250   0.012629   0.013880   0.000715
    38  H    0.000122   0.000115   0.000003  -0.000127  -0.000150  -0.000010
    39  H    0.000144  -0.000818  -0.000115   0.000869   0.000001  -0.000003
    40  H    0.000123  -0.000862  -0.000081   0.000576   0.000140  -0.000068
    41  H    0.000004   0.000034   0.000003  -0.000129   0.000052   0.000003
    42  H   -0.000050   0.002269   0.000236  -0.001438  -0.001555  -0.000168
              13         14         15         16         17         18
     1  C    0.000341   0.446602   0.421480   0.411479  -0.025395  -0.029666
     2  C   -0.000392  -0.114839  -0.058651  -0.061495   0.431500   0.431526
     3  C    0.001484   0.024403  -0.016169  -0.008313  -0.094712  -0.091073
     4  N    0.010447   0.000630   0.000875   0.000466   0.006514   0.006604
     5  C    0.118420  -0.002283  -0.000144   0.004740   0.000512  -0.000111
     6  O    0.120495   0.000003  -0.000024  -0.000013  -0.000144  -0.000037
     7  N    0.073548   0.000014   0.000035   0.000034  -0.000098   0.000639
     8  C   -2.253753  -0.000038  -0.000050   0.000083  -0.000259  -0.001671
     9  C    2.461511  -0.000005  -0.000017  -0.000002  -0.000109   0.000303
    10  C   -1.943988  -0.000003   0.000003   0.000004   0.000058  -0.000234
    11  C   -1.431614  -0.000000   0.000000   0.000000   0.000002  -0.000018
    12  C    0.606091  -0.000000  -0.000000   0.000000  -0.000002  -0.000006
    13  C    8.517199  -0.000000  -0.000001  -0.000000  -0.000004   0.000008
    14  H   -0.000000   0.479490  -0.025141  -0.025083  -0.002904  -0.002915
    15  H   -0.000001  -0.025141   0.486589  -0.030874  -0.004604   0.003718
    16  H   -0.000000  -0.025083  -0.030874   0.486138   0.003722  -0.004563
    17  H   -0.000004  -0.002904  -0.004604   0.003722   0.489782  -0.036841
    18  H    0.000008  -0.002915   0.003718  -0.004563  -0.036841   0.490408
    19  H   -0.000038  -0.000058  -0.000330   0.002670   0.004090  -0.005609
    20  H    0.000040  -0.000052   0.002535  -0.000289  -0.005573   0.004045
    21  H    0.000439  -0.000001   0.000001  -0.000004   0.000118   0.001210
    22  H    0.008959  -0.000000  -0.000000  -0.000000  -0.000001   0.000000
    23  H   -0.032279   0.000000  -0.000000   0.000000  -0.000000  -0.000000
    24  H    0.001014  -0.000000   0.000000   0.000000  -0.000000  -0.000000
    25  H    0.000390  -0.000000   0.000000   0.000000  -0.000000   0.000000
    26  C    0.618545  -0.000000  -0.000000   0.000000  -0.000000  -0.000000
    27  H    0.299483  -0.000000   0.000000  -0.000000  -0.000000   0.000000
    28  O   -0.076616  -0.000000  -0.000000   0.000000   0.000000  -0.000000
    29  C   -0.298970   0.000000   0.000000   0.000000   0.000000  -0.000000
    30  H    0.008950   0.000000  -0.000000  -0.000000  -0.000000   0.000000
    31  H    0.004303   0.000000   0.000000   0.000000  -0.000000  -0.000000
    32  H    0.010474   0.000000  -0.000000  -0.000000   0.000000  -0.000000
    33  O    0.000580  -0.000072   0.000008   0.000014   0.000222   0.000311
    34  O    0.001886  -0.000000   0.000000   0.000000   0.000012   0.000067
    35  C   -0.002537  -0.000126  -0.000035  -0.000037  -0.001699  -0.000766
    36  C   -0.002346   0.000081  -0.000018  -0.000018   0.000136  -0.001220
    37  C   -0.000543  -0.000001   0.000000  -0.000000  -0.000050  -0.000042
    38  H    0.000000  -0.000000   0.000000   0.000000  -0.000000   0.000000
    39  H   -0.000005  -0.000000   0.000000   0.000000   0.000000  -0.000000
    40  H   -0.000005   0.000000   0.000000  -0.000000  -0.000000  -0.000000
    41  H    0.000000   0.000000  -0.000000  -0.000000  -0.000000  -0.000000
    42  H    0.000012   0.000000  -0.000000   0.000000   0.000000   0.000000
              19         20         21         22         23         24
     1  C   -0.009312  -0.004801   0.000467  -0.000023   0.000013  -0.000007
     2  C   -0.039929  -0.042798  -0.000588  -0.000445   0.000051   0.000038
     3  C    0.439819   0.468357  -0.022478  -0.007234   0.003588  -0.001367
     4  N   -0.045192  -0.046759   0.170400   0.008057   0.000607   0.000478
     5  C   -0.037040  -0.058793  -0.008364  -0.048416   0.015571  -0.018802
     6  O    0.000992   0.002498   0.004369   0.004186  -0.005861   0.000103
     7  N   -0.001909   0.000304   0.002415   0.123504  -0.015640  -0.012616
     8  C    0.000999  -0.006719   0.007081   0.045568  -0.018773  -0.004790
     9  C   -0.001646  -0.000066   0.003880   0.062182   0.326451   0.004546
    10  C    0.000278  -0.000248  -0.008300  -0.072234  -0.003783   0.325197
    11  C    0.000014  -0.000042  -0.001442  -0.011906  -0.002341  -0.044458
    12  C    0.000018  -0.000057  -0.000219   0.007401   0.025953   0.027248
    13  C   -0.000038   0.000040   0.000439   0.008959  -0.032279   0.001014
    14  H   -0.000058  -0.000052  -0.000001  -0.000000   0.000000  -0.000000
    15  H   -0.000330   0.002535   0.000001  -0.000000  -0.000000   0.000000
    16  H    0.002670  -0.000289  -0.000004  -0.000000   0.000000   0.000000
    17  H    0.004090  -0.005573   0.000118  -0.000001  -0.000000  -0.000000
    18  H   -0.005609   0.004045   0.001210   0.000000  -0.000000  -0.000000
    19  H    0.499401  -0.045641   0.001343   0.000007  -0.000000   0.000000
    20  H   -0.045641   0.496001   0.001801   0.000006   0.000000   0.000000
    21  H    0.001343   0.001801   0.241974   0.007792   0.000001   0.000002
    22  H    0.000007   0.000006   0.007792   0.256702  -0.000178   0.006780
    23  H   -0.000000   0.000000   0.000001  -0.000178   0.433558  -0.000103
    24  H    0.000000   0.000000   0.000002   0.006780  -0.000103   0.440898
    25  H   -0.000000   0.000000   0.000000  -0.000010   0.000012  -0.003035
    26  C    0.000001  -0.000002  -0.000014   0.000879   0.002394   0.008813
    27  H    0.000000   0.000000  -0.000000   0.000002  -0.003250   0.000013
    28  O   -0.000000  -0.000000   0.000000   0.000001   0.000038   0.000120
    29  C   -0.000000  -0.000000   0.000000   0.000009   0.000591   0.000059
    30  H   -0.000000   0.000000  -0.000000  -0.000000  -0.000002   0.000000
    31  H   -0.000000   0.000000   0.000000   0.000000  -0.000000  -0.000000
    32  H    0.000000  -0.000000   0.000000  -0.000000  -0.000002   0.000000
    33  O    0.000112  -0.000067   0.065327   0.000175   0.000001  -0.000017
    34  O   -0.000006  -0.000007   0.002821   0.081567  -0.000010   0.000201
    35  C    0.000702   0.000545  -0.004898  -0.005727   0.000013   0.001694
    36  C    0.000111   0.000024   0.010028   0.010475   0.000007   0.000229
    37  C    0.000000   0.000003  -0.001583  -0.001381  -0.000001  -0.000540
    38  H    0.000000  -0.000000  -0.000008  -0.000022  -0.000000  -0.000000
    39  H    0.000000   0.000000   0.000004  -0.000021   0.000000   0.000000
    40  H   -0.000000   0.000000   0.000001  -0.000003   0.000000   0.000012
    41  H   -0.000000  -0.000000   0.000000  -0.000000  -0.000000   0.000000
    42  H    0.000000  -0.000000  -0.000000  -0.000007   0.000000   0.000002
              25         26         27         28         29         30
     1  C    0.000000  -0.000026  -0.000000  -0.000000   0.000000  -0.000000
     2  C    0.000000  -0.000044   0.000002   0.000000   0.000006  -0.000000
     3  C    0.000033  -0.004019  -0.000168  -0.000005  -0.000022  -0.000001
     4  N    0.000022  -0.001989  -0.000025  -0.000001   0.000025  -0.000000
     5  C    0.003533  -0.112286  -0.009175  -0.000674  -0.001598  -0.000142
     6  O   -0.000000   0.001245   0.000259   0.000001  -0.000121   0.000000
     7  N    0.000641  -0.007668  -0.001323  -0.000153  -0.000493  -0.000003
     8  C    0.044941  -0.366221   0.032854   0.020975  -0.020284   0.000276
     9  C    0.002161  -0.153672  -0.063259  -0.026355  -0.091705   0.008441
    10  C   -0.025040  -0.186989   0.006740   0.146205   0.114907  -0.001771
    11  C    0.320258   0.169837   0.025850   0.094987   0.087453  -0.006271
    12  C    0.023624  -1.873455   0.002688  -0.337928  -0.025151  -0.010938
    13  C    0.000390   0.618545   0.299483  -0.076616  -0.298970   0.008950
    14  H   -0.000000  -0.000000  -0.000000  -0.000000   0.000000   0.000000
    15  H    0.000000  -0.000000   0.000000  -0.000000   0.000000  -0.000000
    16  H    0.000000   0.000000  -0.000000   0.000000   0.000000  -0.000000
    17  H   -0.000000  -0.000000  -0.000000   0.000000   0.000000  -0.000000
    18  H    0.000000  -0.000000   0.000000  -0.000000  -0.000000   0.000000
    19  H   -0.000000   0.000001   0.000000  -0.000000  -0.000000  -0.000000
    20  H    0.000000  -0.000002   0.000000  -0.000000  -0.000000   0.000000
    21  H    0.000000  -0.000014  -0.000000   0.000000   0.000000  -0.000000
    22  H   -0.000010   0.000879   0.000002   0.000001   0.000009  -0.000000
    23  H    0.000012   0.002394  -0.003250   0.000038   0.000591  -0.000002
    24  H   -0.003035   0.008813   0.000013   0.000120   0.000059   0.000000
    25  H    0.441695  -0.077995  -0.000108   0.008300   0.002879  -0.000003
    26  C   -0.077995   7.647390   0.003691   0.406669  -0.563561  -0.046493
    27  H   -0.000108   0.003691   0.452663  -0.000434   0.005063  -0.001340
    28  O    0.008300   0.406669  -0.000434   8.428655  -0.084724   0.002976
    29  C    0.002879  -0.563561   0.005063  -0.084724   6.599645   0.385606
    30  H   -0.000003  -0.046493  -0.001340   0.002976   0.385606   0.435906
    31  H   -0.000002  -0.149192   0.000175   0.000997   0.435263  -0.019681
    32  H   -0.000003  -0.051233  -0.001333   0.002942   0.385418  -0.023950
    33  O   -0.000000  -0.000076  -0.000000  -0.000000   0.000000   0.000000
    34  O    0.000022  -0.000622  -0.000000   0.000010   0.000084  -0.000000
    35  C    0.000042  -0.000695   0.000003   0.000006   0.000019  -0.000000
    36  C    0.000027  -0.000316  -0.000000  -0.000006  -0.000022  -0.000000
    37  C   -0.000027   0.000210   0.000000  -0.000001  -0.000004   0.000000
    38  H    0.000000  -0.000000   0.000000  -0.000000  -0.000000   0.000000
    39  H   -0.000000  -0.000000   0.000000  -0.000000  -0.000000  -0.000000
    40  H    0.000000  -0.000002  -0.000000  -0.000000  -0.000000  -0.000000
    41  H    0.000000   0.000000   0.000000   0.000000   0.000000  -0.000000
    42  H    0.000000  -0.000004  -0.000000  -0.000000   0.000000  -0.000000
              31         32         33         34         35         36
     1  C    0.000000  -0.000000   0.005362  -0.000606  -0.002954   0.003039
     2  C    0.000000   0.000000   0.003894  -0.003569  -0.011221  -0.007113
     3  C    0.000000  -0.000000   0.010309   0.005864   0.023790   0.028486
     4  N   -0.000000  -0.000000  -0.031130   0.005948  -0.007394  -0.025232
     5  C    0.000012  -0.000070  -0.013871  -0.014655  -0.005414  -0.021983
     6  O    0.000000   0.000000  -0.000472  -0.000087  -0.001231  -0.000785
     7  N   -0.000001  -0.000003  -0.000176   0.017940  -0.024146  -0.017329
     8  C    0.000860   0.001987   0.012000  -0.330214   0.121604  -0.053125
     9  C    0.002684   0.012433  -0.000094  -0.037542  -0.001617  -0.024756
    10  C   -0.000368  -0.002178  -0.020884   0.283594  -0.099490   0.048301
    11  C   -0.009651  -0.007295  -0.005884   0.079084  -0.039707   0.009828
    12  C    0.062339  -0.011836  -0.001147   0.005550  -0.007137   0.000166
    13  C    0.004303   0.010474   0.000580   0.001886  -0.002537  -0.002346
    14  H    0.000000   0.000000  -0.000072  -0.000000  -0.000126   0.000081
    15  H    0.000000  -0.000000   0.000008   0.000000  -0.000035  -0.000018
    16  H    0.000000  -0.000000   0.000014   0.000000  -0.000037  -0.000018
    17  H   -0.000000   0.000000   0.000222   0.000012  -0.001699   0.000136
    18  H   -0.000000  -0.000000   0.000311   0.000067  -0.000766  -0.001220
    19  H   -0.000000   0.000000   0.000112  -0.000006   0.000702   0.000111
    20  H    0.000000  -0.000000  -0.000067  -0.000007   0.000545   0.000024
    21  H    0.000000   0.000000   0.065327   0.002821  -0.004898   0.010028
    22  H    0.000000  -0.000000   0.000175   0.081567  -0.005727   0.010475
    23  H   -0.000000  -0.000002   0.000001  -0.000010   0.000013   0.000007
    24  H   -0.000000   0.000000  -0.000017   0.000201   0.001694   0.000229
    25  H   -0.000002  -0.000003  -0.000000   0.000022   0.000042   0.000027
    26  C   -0.149192  -0.051233  -0.000076  -0.000622  -0.000695  -0.000316
    27  H    0.000175  -0.001333  -0.000000  -0.000000   0.000003  -0.000000
    28  O    0.000997   0.002942  -0.000000   0.000010   0.000006  -0.000006
    29  C    0.435263   0.385418   0.000000   0.000084   0.000019  -0.000022
    30  H   -0.019681  -0.023950   0.000000  -0.000000  -0.000000  -0.000000
    31  H    0.441226  -0.019692  -0.000000   0.000000   0.000000   0.000000
    32  H   -0.019692   0.435923  -0.000000  -0.000000   0.000000   0.000000
    33  O   -0.000000  -0.000000   8.683557  -0.175924   0.441952  -0.246390
    34  O    0.000000  -0.000000  -0.175924   8.673324   0.199403  -0.056322
    35  C    0.000000   0.000000   0.441952   0.199403   5.420862  -0.574534
    36  C    0.000000   0.000000  -0.246390  -0.056322  -0.574534   6.919018
    37  C   -0.000000   0.000000   0.029337   0.045638  -0.073076  -0.153691
    38  H   -0.000000  -0.000000  -0.001173   0.000894  -0.064589   0.423691
    39  H   -0.000000   0.000000  -0.000458   0.003728  -0.085331   0.446304
    40  H    0.000000  -0.000000   0.000140   0.000616  -0.018889  -0.045332
    41  H    0.000000  -0.000000  -0.000316   0.000924   0.026708  -0.067794
    42  H    0.000000  -0.000000   0.000087  -0.001420   0.002086  -0.068734
              37         38         39         40         41         42
     1  C   -0.000526   0.000032   0.000041   0.000001  -0.000000   0.000000
     2  C   -0.000904   0.000094   0.000142   0.000020   0.000001   0.000003
     3  C   -0.001538   0.000049   0.000046  -0.000016  -0.000008  -0.000003
     4  N    0.003112  -0.000137   0.000011  -0.000008  -0.000005   0.000007
     5  C   -0.001229  -0.000100  -0.000219  -0.000016   0.000020   0.000038
     6  O    0.000063  -0.000000  -0.000000   0.000000   0.000000   0.000000
     7  N    0.004562   0.000122   0.000144   0.000123   0.000004  -0.000050
     8  C   -0.024932   0.000115  -0.000818  -0.000862   0.000034   0.002269
     9  C   -0.002250   0.000003  -0.000115  -0.000081   0.000003   0.000236
    10  C    0.012629  -0.000127   0.000869   0.000576  -0.000129  -0.001438
    11  C    0.013880  -0.000150   0.000001   0.000140   0.000052  -0.001555
    12  C    0.000715  -0.000010  -0.000003  -0.000068   0.000003  -0.000168
    13  C   -0.000543   0.000000  -0.000005  -0.000005   0.000000   0.000012
    14  H   -0.000001  -0.000000  -0.000000   0.000000   0.000000   0.000000
    15  H    0.000000   0.000000   0.000000   0.000000  -0.000000  -0.000000
[...]
 0003,-0.00000002,-0.00000012,0.,0.,-0.00000005,-0.00000011,-0.00000001
 ,0.00000002,0.00000007,0.00000002,0.00000009,0.00034010,-0.00084588,-0
 .00012183,0.00049573,0.00102700,-0.00227041,0.00680063,0.00525748,0.00
 624522,-0.11440250,-0.06149076,-0.14063983,0.00290271,0.00173780,0.001
 90570,0.12508802,0.06613725,0.15128272,0.00000066,0.00000073,-0.000000
 02,-0.00000178,-0.00000383,-0.00000002,0.00001665,-0.00000001,0.000001
 86,0.00004746,0.00008122,-0.00000856,-0.00012125,0.00000333,0.00000087
 ,0.00003162,0.00000077,-0.00000357,-0.00000636,-0.00014684,0.00004069,
 0.00003529,-0.00001232,0.00000444,-0.00001195,-0.00000344,0.00000109,-
 0.00000421,0.00000944,-0.00000540,0.00000193,0.00000061,0.,-0.00000681
 ,-0.00000132,-0.00000015,0.00000284,-0.00000383,-0.00000019,-0.0000006
 2,0.00000054,-0.00000018,-0.00000025,0.00000005,-0.00000015,-0.0000002
 8,0.00000019,0.,-0.00000048,0.00000194,0.00000057,0.00000045,0.0000003
 7,-0.00000047,-0.00000269,0.00000318,-0.00000033,-0.00000188,0.0000021
 0,-0.00000165,-0.00003489,-0.00016864,0.00001953,0.00002309,0.00021285
 ,-0.00005837,0.00000021,-0.00000017,0.00000055,0.00000246,0.00000003,0
 .00000209,-0.00000033,0.00000022,0.00000066,0.00000682,-0.00000050,0.0
 0000061,-0.00000104,-0.00000034,0.00000048,-0.00000344,0.00000170,-0.0
 0000076,-0.00000042,-0.00000045,0.,-0.00000012,-0.00000019,0.00000003,
 -0.00000017,-0.00000015,0.00000007,-0.00000013,0.,-0.00000005,-0.00021
 824,0.00210991,-0.00139705,-0.00011857,-0.00240706,-0.00030485,-0.0042
 4192,-0.00150803,0.00620092,-0.08067171,-0.00144575,0.09290827,-0.0104
 1151,-0.00048211,0.02583393,0.00863500,0.00174958,-0.02161104,0.089121
 65,0.00000153,0.00000252,-0.00000051,0.00000088,-0.00000359,0.00000071
 ,-0.00001224,0.00000787,-0.00000444,0.00004610,0.00003816,0.00002035,-
 0.00017889,0.00007875,-0.00003065,0.00005012,-0.00009769,0.00002630,-0
 .00005766,-0.00042839,0.00015780,0.00015362,-0.00002281,0.00000109,-0.
 00004715,-0.00001869,0.00000362,-0.00003278,0.00003789,-0.00000872,0.0
 0001355,0.00000141,0.00000275,-0.00003642,-0.00000790,0.00000173,0.000
 01495,-0.00001270,-0.00000088,0.00000125,-0.00000038,0.00000030,-0.000
 00005,-0.00000001,0.00000007,0.00000035,-0.00000028,0.00000007,-0.0000
 0141,-0.00000036,-0.00000106,-0.00000139,0.00000010,0.00000004,0.00000
 214,-0.00000272,-0.00000012,0.00000494,-0.00000225,0.00000186,-0.00005
 076,0.00004311,-0.00005725,0.00008864,0.00073883,-0.00026343,0.0000011
 4,0.00000084,0.00000019,0.00001610,-0.00001053,0.00000386,-0.00000262,
 0.00000050,0.00000080,0.00003707,-0.00000495,-0.00000114,-0.00000386,-
 0.00000131,0.00000106,-0.00001903,0.00001175,-0.00000121,-0.00000185,-
 0.00000180,0.00000053,-0.00000063,-0.00000027,0.00000040,-0.00000080,-
 0.00000086,0.00000017,-0.00000062,-0.00000032,-0.00000025,-0.00038461,
 -0.00047053,-0.00300755,-0.00365866,-0.00677017,-0.00157723,-0.0093241
 2,0.00150266,0.03319272,-0.00123342,-0.04654386,0.01147370,0.00712583,
 -0.00020837,-0.01828952,0.00510558,0.00057920,-0.01241404,0.00002986,0
 .05208765,0.00000081,-0.00000074,-0.00000045,-0.00000192,0.00000444,-0
 .00000150,0.00000864,-0.00000477,0.00000084,-0.00002217,0.00000302,-0.
 00001956,0.00008481,-0.00003478,0.00000976,-0.00002193,0.00004303,-0.0
 0001286,0.00003139,0.00017342,-0.00004367,-0.00006885,0.00001467,0.000
 00172,0.00002290,0.00000949,-0.00000181,0.00001342,-0.00001934,-0.0000
 0569,-0.00000693,-0.00000023,0.00000434,0.00001830,0.00000444,-0.00000
 159,-0.00000771,0.00000601,0.00000003,-0.00000202,-0.00000040,-0.00000
 011,0.00000007,-0.00000033,0.00000021,-0.00000033,0.00000060,0.0000003
 2,0.00000119,-0.00000157,0.00000038,-0.00000057,0.00000010,0.00000212,
 -0.00000161,0.00000125,0.00000045,-0.00000342,0.00000104,-0.00000024,0
 .00002023,0.00000523,0.00003416,-0.00005241,-0.00030560,0.00006104,-0.
 00000038,-0.00000024,-0.00000060,-0.00000614,0.00000559,-0.00000240,0.
 00000083,-0.00000059,-0.00000039,-0.00001845,0.00000131,0.00000036,0.0
 0000191,0.00000073,-0.00000043,0.00000942,-0.00000531,0.00000067,0.000
 00082,0.00000099,-0.00000035,0.00000031,0.00000024,-0.00000007,0.00000
 059,0.00000045,-0.00000011,0.00000036,0.00000016,0.00000006,-0.0005034
 8,0.00020041,0.00200765,0.00030514,0.00230574,-0.00009126,0.00291736,-
 0.00291478,-0.00742336,0.09173443,0.00995571,-0.28003233,-0.00046443,-
 0.00040005,0.00063579,0.00690130,0.00121507,-0.01830162,-0.10134390,-0
 .00981095,0.30090508,0.00000041,-0.00000074,-0.00000001,-0.00000009,0.
 00000150,0.00000148,0.00000904,-0.00000145,0.00000083,0.00000861,0.000
 04257,-0.00001959,-0.00001472,-0.00000767,0.00000674,0.00000432,0.0000
 1665,-0.00000688,0.00000828,0.00002444,-0.00000975,-0.00001033,-0.0000
 0030,0.00000382,0.00000344,0.00000155,-0.00000127,0.00000211,-0.000004
 05,-0.00000283,-0.00000112,0.00000034,-0.00000130,0.00000332,0.0000007
 3,0.,-0.00000098,0.00000101,-0.00000014,-0.00000040,0.00000013,0.00000
 017,-0.00000042,0.00000061,-0.00000066,-0.00000009,0.00000011,0.000000
 02,-0.00000087,-0.00000007,0.00000037,0.00000010,-0.00000106,-0.000001
 56,-0.00000176,0.00000157,-0.00000024,-0.00000183,0.00000219,-0.000001
 41,-0.00000487,-0.00006906,0.00002538,-0.00000322,-0.00004232,0.000007
 01,-0.00000016,-0.00000002,0.00000026,-0.00000065,0.00000443,0.0000007
 8,-0.00000005,-0.00000062,0.00000009,-0.00000354,0.00000021,0.00000067
 ,0.00000030,0.00000031,0.00000005,0.00000192,-0.00000075,-0.00000008,0
 .00000013,0.00000016,-0.00000010,0.00000007,0.00000007,0.00000004,0.00
 000028,0.00000013,-0.00000002,0.00000006,0.00000013,-0.00000009,0.0000
 6101,0.00045025,-0.00035889,0.00083897,0.00010098,-0.00053963,-0.00010
 766,-0.00177809,0.00053824,-0.01053992,-0.00027089,0.02726624,-0.08219
 775,-0.00098969,0.08982670,0.00108485,-0.00090011,-0.00015092,-0.00421
 705,0.00378188,-0.00004172,0.08884752,-0.00000026,-0.00000018,0.000000
 34,0.00000023,0.00000029,-0.00000034,-0.00000063,-0.00000099,0.0000000
 1,-0.00000564,-0.00001399,0.00000393,0.00002075,-0.00000556,-0.0000011
 5,-0.00000547,0.00000459,-0.00000019,0.00000304,0.00002772,-0.00000687
 ,-0.00000675,0.00000395,0.00000560,0.00000248,0.00000067,-0.00000157,0
 .00000041,-0.00000483,-0.00000089,-0.00000184,-0.00000081,-0.00000133,
 0.00000297,0.00000111,-0.00000077,-0.00000051,0.00000160,0.00000075,-0
 .00000013,0.00000002,-0.00000004,0.00000022,-0.00000020,0.00000022,-0.
 00000003,-0.00000004,-0.00000004,0.00000058,-0.00000037,-0.00000036,-0
 .00000002,0.00000037,0.00000066,0.00000021,-0.00000010,0.00000015,-0.0
 0000016,-0.00000023,0.00000029,0.00000132,0.00001448,-0.00000084,-0.00
 001279,-0.00004553,0.00000858,0.00000016,0.00000010,-0.00000037,-0.000
 00271,0.00000139,-0.00000344,-0.00000059,-0.00000011,-0.00000018,-0.00
 000404,0.00000041,0.00000071,0.00000030,0.00000015,-0.00000013,0.00000
 204,-0.00000074,0.00000045,0.00000028,0.00000043,-0.00000038,0.0000001
 0,0.,-0.00000006,0.00000009,0.00000011,-0.00000002,0.00000009,-0.00000
 004,0.00000007,-0.00001095,-0.00002640,0.00027208,0.00013293,-0.000162
 27,-0.00010629,-0.00039011,0.00045489,-0.00072193,0.00636108,-0.000250
 90,-0.01803551,-0.00148656,-0.04783526,0.00233989,-0.00072086,0.000604
 74,0.00040212,0.00322795,-0.00170377,-0.00001155,-0.00159457,0.0481340
 3,-0.00000077,0.00000041,0.00000003,-0.00000006,-0.00000076,-0.0000021
 1,-0.00000391,0.00000013,-0.00000091,-0.00001248,-0.00002771,0.0000167
 9,0.00002262,-0.00000284,-0.00000242,-0.00000614,-0.00000433,0.0000020
 5,-0.00000278,0.00000613,0.00000385,0.00000623,0.00000169,-0.00000885,
 -0.00000142,0.00000081,0.00000310,-0.00000256,0.00000123,0.00000527,0.
 00000177,-0.00000174,0.00000196,-0.00000079,0.00000106,0.00000032,0.00
 000102,0.00000063,-0.00000080,0.00000024,0.00000015,-0.00000013,0.0000
 0035,-0.00000042,0.00000074,0.00000011,-0.00000009,-0.00000010,0.00000
 037,0.00000070,0.00000018,0.00000013,0.00000038,0.00000120,0.00000025,
 -0.00000050,-0.00000003,0.00000096,-0.00000128,0.00000117,0.00001034,0
 .00004094,-0.00002349,-0.00001184,-0.00000927,-0.00000211,0.00000033,0
 .00000034,-0.00000046,-0.00000087,-0.00000780,-0.00000173,-0.00000175,
 0.00000043,-0.00000068,-0.00000047,-0.00000209,-0.00000071,0.,0.000000
 10,-0.00000025,0.00000008,0.00000190,0.00000062,0.00000015,0.00000104,
 -0.00000029,0.00000011,-0.00000003,-0.00000004,-0.00000016,0.00000009,
 -0.00000004,0.00000019,-0.00000019,0.00000019,-0.00023710,-0.00055462,
 0.00011322,-0.00117579,0.00072979,0.00053918,0.00137581,0.00117792,-0.
 00038222,-0.00013202,-0.00041094,-0.00006914,0.09097753,0.00031083,-0.
 28803703,0.00035287,-0.00024521,0.00068627,0.00033887,0.00008321,0.001
 48215,-0.10021179,-0.00217375,0.30943013,0.00000149,-0.00000099,-0.000
 00006,-0.00000435,0.00000191,0.00000210,0.00003911,-0.00000772,0.00000
 026,0.00006664,0.00019364,-0.00008764,-0.00009785,-0.00002940,0.000009
 74,0.00002748,0.00006332,-0.00002052,0.00004263,0.00004981,-0.00001144
 ,-0.00004451,-0.00000643,0.00000353,0.00001308,0.00000664,-0.00000226,
 0.00001257,-0.00000494,0.00000071,-0.00000437,-0.00000054,0.00000036,0
 .00001104,0.00000199,-0.00000083,-0.00000556,0.00000155,0.00000025,-0.
 00000189,0.00000051,-0.00000015,-0.00000095,0.00000109,-0.00000101,-0.
 00000078,0.00000120,0.00000011,-0.00000081,-0.00000025,0.00000345,-0.0
 0000104,-0.00000229,-0.00000404,-0.00000645,0.00000712,-0.00000069,-0.
 00000775,0.00000690,-0.00000423,-0.00004874,-0.00029600,0.00014290,-0.
 00001673,-0.00010089,0.00002439,-0.00000063,-0.00000118,-0.00000006,-0
 .00000466,0.00000485,-0.00000134,0.00000133,-0.00000015,-0.00000019,-0
 .00000984,0.00000132,0.00000029,0.00000076,0.00000025,-0.00000002,0.00
 000477,-0.00000361,0.00000031,0.00000037,0.00000041,-0.00000010,0.0000
 0017,0.00000007,-0.00000012,0.00000014,0.00000016,-0.00000002,0.000000
 17,0.00000010,0.00000008,-0.00097364,0.00360474,-0.00046014,0.00137222
 ,-0.00014590,-0.00022386,-0.00541639,-0.00139239,0.00167834,0.00597887
 ,0.02937887,-0.00837944,-0.05798721,-0.05210488,0.01387857,0.00118910,
 -0.00086397,-0.00024033,0.00112189,-0.00084841,0.00015541,-0.00299672,
 -0.01046440,0.00164505,0.06189242,-0.00000208,0.00000151,-0.00000052,0
 .00000396,-0.00000324,-0.00000066,-0.00004069,0.00001077,-0.00000162,-
 0.00005053,-0.00016844,0.00007790,0.00005605,0.00005258,-0.00001861,-0
 .00001613,-0.00008195,0.00002864,-0.00006150,-0.00011835,0.00002372,0.
 00006815,-0.00000248,-0.00000160,-0.00002101,-0.00001145,0.00000240,-0
 .00001784,0.00001204,-0.00000199,0.00000822,0.00000204,0.00000018,-0.0
 0002081,-0.00000562,0.00000142,0.00000830,-0.00000462,0.00000066,0.000
 00280,-0.00000001,0.00000003,0.00000108,-0.00000116,0.00000142,0.00000
 103,-0.00000165,-0.00000036,0.00000032,0.00000011,-0.00000311,0.000000
 37,0.00000265,0.00000339,0.00000717,-0.00000791,0.00000036,0.00000813,
 -0.00000716,0.00000465,0.00003216,0.00030028,-0.00013825,0.00006409,0.
 00024567,-0.00004977,0.00000067,0.00000083,-0.00000034,0.00000830,0.,-
 0.00000175,-0.00000088,0.00000080,-0.00000010,0.00002254,-0.00000235,-
 0.00000097,-0.00000164,-0.00000084,0.00000014,-0.00001211,0.00000679,-
 0.00000051,-0.00000079,-0.00000102,0.00000031,-0.00000034,-0.00000024,
 0.00000010,-0.00000085,-0.00000054,0.00000013,-0.00000034,-0.00000025,
 0.00000003,0.00124148,-0.00296925,0.00029522,-0.00001972,-0.00110568,0
 .00028285,0.00261284,0.00293966,-0.00095395,-0.00504893,-0.01604382,0.
 00459099,-0.05040045,-0.29201055,0.06680828,-0.00006573,0.00076505,0.0
 0025408,-0.00033386,0.00052462,-0.00042053,0.00008244,0.00143941,0.000
 10526,0.05374098,0.31608676,0.00000017,-0.00000029,0.,0.00000027,0.000
 00081,0.00000019,0.00000091,-0.00000030,0.00000009,-0.00000361,-0.0000
 0335,0.00000455,0.00000776,-0.00000652,0.00000191,-0.00000215,0.000005
 03,-0.00000202,0.00000749,0.00001929,0.00000389,-0.00000721,0.00000168
 ,-0.00000169,0.00000228,0.00000095,-0.00000077,0.00000151,-0.00000045,
 0.00000019,-0.00000086,-0.00000025,0.00000137,0.00000236,0.00000059,-0
 .00000083,-0.00000063,0.00000089,0.00000069,-0.00000026,-0.00000008,0.
 00000009,0.,0.00000004,-0.00000012,-0.00000006,0.00000005,0.00000006,0
 .00000032,0.00000010,-0.00000040,0.00000010,0.00000007,0.00000028,-0.0
 0000045,0.00000029,0.00000011,-0.00000007,-0.00000011,-0.00000019,0.00
 000477,-0.00000273,-0.00000079,-0.00001423,-0.00003727,0.00000259,-0.0
 0000003,0.00000002,0.00000004,-0.00000097,-0.00000031,-0.00000233,0.00
 000001,-0.00000024,-0.00000016,-0.00000293,0.00000032,-0.00000006,0.00
 000023,0.00000013,-0.00000013,0.00000168,-0.00000075,0.00000022,0.0000
 0009,0.00000010,-0.00000008,0.00000005,0.00000007,0.00000002,0.0000001
 6,0.00000008,-0.00000001,0.00000003,0.00000002,0.,-0.00007342,-0.00011
 622,0.00011125,-0.00033695,0.00041279,0.00019483,0.00092084,-0.0001254
 5,0.00061180,-0.00034326,-0.00327746,-0.00026747,0.01344534,0.06715911
 ,-0.06730272,0.00006193,0.00023006,-0.00005416,-0.00045122,-0.00009513
 ,0.00024111,0.00536046,0.02935247,-0.00638995,-0.01571532,-0.07363015,
 0.06683889,0.00000075,-0.00000019,0.00000055,-0.00000068,-0.00000057,-
 0.00000130,0.00000863,-0.00000080,-0.00000083,0.00001109,0.00005040,-0
 .00001698,-0.00002425,-0.00000808,0.00000196,0.00000600,0.00001751,-0.
 00000522,0.00001251,0.00002646,-0.00000425,-0.00001617,-0.00000110,0.0
 0000598,0.00000519,0.00000173,-0.00000282,0.00000301,-0.00000320,-0.00
 000539,-0.00000202,0.00000189,0.00000308,0.00000404,-0.00000014,-0.000
 00079,-0.00000195,0.00000076,0.00000137,-0.00000026,-0.00000006,-0.000
 00017,-0.00000020,0.00000013,-0.00000038,-0.00000048,0.00000097,0.0000
 0028,0.00000029,0.00000015,0.00000219,-0.00000042,-0.00000138,-0.00000
 087,-0.00000144,0.00000260,0.00000024,-0.00000181,0.00000174,-0.000001
 16,-0.00000194,-0.00006842,0.00003056,-0.00000527,-0.00004879,0.000001
 57,-0.00000033,-0.00000029,-0.00000049,-0.00000022,0.00001174,-0.00000
 559,0.00000112,-0.00000091,-0.00000034,-0.00000309,0.00000140,-0.00000
 069,0.00000028,0.00000010,-0.00000019,0.00000176,-0.00000173,0.0000008
 3,-0.00000004,-0.00000049,-0.00000009,-0.00000007,0.00000029,0.0000001
 5,0.00000029,0.00000004,-0.00000004,0.00000001,0.00000007,-0.00000008,
 0.00017396,0.00070027,0.00002205,0.00130334,0.00016528,0.00000621,-0.0
 0046897,-0.00223584,0.00063227,-0.01984602,-0.00991087,-0.01740720,-0.
 18214498,-0.06878573,-0.11746196,-0.00398292,0.00387517,0.00079307,0.0
 0103003,-0.00057813,0.00033872,0.00922948,0.00495180,0.00706729,-0.004
 14536,-0.00185487,-0.00286512,0.19885710,0.00000011,-0.00000029,-0.000
 00019,0.,0.00000036,0.00000046,0.00000160,-0.00000106,0.00000133,0.000
 00234,0.00000482,-0.00000045,0.00000664,-0.00000239,0.00000310,-0.0000
 0140,0.00000540,-0.00000315,0.00000542,0.00002294,-0.00000091,-0.00000
 681,0.00000139,-0.00000246,0.00000270,0.00000063,-0.00000048,0.0000005
 4,-0.00000407,-0.00000010,-0.00000314,0.00000154,0.00000256,0.00000315
 ,0.00000026,-0.00000222,-0.00000062,0.00000104,0.00000075,-0.00000013,
 -0.00000001,-0.00000002,-0.00000005,0.00000006,0.00000004,0.,0.,0.,-0.
 00000027,0.00000006,-0.00000013,-0.00000032,0.00000039,0.00000014,-0.0
 0000015,0.00000033,0.00000003,-0.00000049,-0.00000002,-0.00000032,-0.0
 0000541,-0.00000704,0.00000014,-0.00001179,-0.00003916,-0.00000406,-0.
 00000010,-0.00000008,0.00000015,0.00000051,0.00000863,0.00000082,0.000
 00024,-0.00000023,-0.00000007,-0.00000378,0.00000167,-0.00000017,0.000
 00022,0.00000005,-0.00000010,0.00000195,-0.00000201,0.00000020,0.00000
 027,-0.00000024,0.00000009,0.,0.00000003,0.,0.00000015,0.00000009,-0.0
 0000004,0.00000004,0.00000003,0.00000003,0.00000186,0.00002487,-0.0003
 3279,0.00059960,-0.00022633,0.00023149,-0.00053161,0.00058738,0.000815
 88,0.01390648,0.00696076,0.01266332,-0.07046852,-0.08276197,-0.0611979
 7,0.00337335,-0.00175513,0.00000436,-0.00091773,0.00065865,-0.00002139
 ,0.00114707,-0.00063813,0.00097838,-0.02079306,-0.00984300,-0.01988788
 ,0.07369113,0.08699977,0.00000069,0.00000017,-0.00000010,-0.00000038,-
 0.00000102,0.00000020,0.00000023,0.00000059,-0.00000085,0.00001007,0.0
 0001445,-0.00000481,-0.00002359,0.00000600,-0.00000396,0.00000561,-0.0
 0000347,0.00000265,0.00000226,-0.00002108,0.00000215,-0.00000171,-0.00
 000317,0.00000799,-0.00000031,-0.00000170,-0.00000163,0.00000222,0.000
 00412,-0.00000634,-0.00000058,0.00000243,0.00000234,-0.00000126,-0.000
 00169,-0.00000003,-0.00000084,-0.00000149,0.00000075,0.00000002,-0.000
 00020,0.,-0.00000007,0.,-0.00000009,-0.00000017,0.00000042,0.00000019,
 0.00000016,0.00000036,0.00000062,-0.00000022,-0.00000020,-0.00000002,0
 .00000007,0.00000036,0.00000014,0.00000027,-0.00000016,0.,-0.00000571,
 -0.00001369,0.00000664,0.00001241,0.00003847,-0.00001344,-0.00000028,-
 0.00000048,-0.00000044,0.00000171,0.00000500,-0.00000636,0.00000216,-0
 .00000022,-0.00000069,0.00000308,0.00000182,-0.00000105,-0.00000021,-0
 .00000034,0.00000003,-0.00000135,-0.00000108,0.00000082,-0.00000034,-0
 .00000128,0.00000015,-0.00000023,0.00000020,0.00000019,0.00000002,-0.0
 0000019,0.00000003,-0.00000017,0.00000002,-0.00000003,0.00012732,0.000
 26211,-0.00015134,0.00056047,-0.00035996,0.00012042,-0.00086819,-0.000
 39548,0.00026169,0.00300885,0.00178932,0.00197891,-0.11810788,-0.05974
 344,-0.15190021,0.00065245,-0.00034022,0.00130001,-0.00016765,0.000590
 74,0.00055215,-0.02169047,-0.01132032,-0.01736495,0.00760795,0.0027426
 6,0.00600970,0.12887359,0.06675162,0.15920857\\-0.00000141,-0.00000040
 ,-0.00000292,-0.00000050,0.00000038,-0.00000245,-0.00000193,0.00000089
 ,-0.00000015,0.00000191,0.00000062,-0.00001346,0.00000237,-0.00000765,
 0.00000580,-0.00000592,0.00000248,-0.00000693,0.00000229,0.00000376,0.
 00000020,-0.00000131,-0.00000155,-0.00000346,0.00000280,0.00000429,-0.
 00000319,0.00000093,-0.00000134,0.00000131,-0.00000034,-0.00000055,0.0
 0000379,0.00000188,0.00000048,-0.00000402,0.00000212,-0.00000386,0.000
 00008,-0.00000076,0.00000060,-0.00000237,0.00000065,-0.00000182,-0.000
 00366,0.00000024,0.00000094,-0.00000474,-0.00000009,-0.00000040,0.0000
 0014,-0.00000012,0.00000207,-0.00000179,0.00000049,0.00000112,-0.00000
 442,0.00000025,-0.00000192,-0.00000305,-0.00000054,-0.00000067,0.00000
 465,0.00000108,-0.00000370,0.00000052,0.00000262,-0.00000216,-0.000003
 84,-0.00000052,0.00000028,0.00000183,-0.00000017,-0.00000058,0.0000015
 4,-0.00000102,-0.00000464,-0.00000013,0.00000069,-0.00000101,-0.000005
 27,-0.00000059,0.00000034,-0.00000003,0.00000051,-0.00000220,-0.000003
 61,0.00000018,0.00000057,-0.00000465,0.00000030,-0.00000203,-0.0000030
 4,0.00000064,-0.00000206,-0.00000394,0.00000403,0.00000033,0.00000188,
 -0.00000478,0.00000345,0.00000494,0.00000043,0.00000432,0.00000152,-0.
 00000152,0.00000347,0.00000687,-0.00000008,-0.00000060,0.00000754,-0.0
 0000090,0.00000008,0.00000733,-0.00000124,0.00000273,0.00000625,-0.000
 00036,0.00000061,0.00000840,-0.00000114,0.00000217,0.00000947,-0.00000
 116,0.00000318,0.00000709\\\@


 COLLEGE PROFESSOR: SOMEONE WHO TALKS IN OTHER PEOPLE'S SLEEP.
 Job cpu time:       0 days  6 hours  1 minutes 36.4 seconds.
 File lengths (MBytes):  RWF=   1018 Int=      0 D2E=      0 Chk=     30 Scr=      1
 Normal termination of Gaussian 09 at Wed Feb 20 11:53:17 2019.
WARNING: pbs_rusage is deprecated and values produced may not be accurate


=============================================================================
                                     Resource usage:
                                       CPU time:              23:06:13
   JobId:    5912805.r-man2            Elapsed time:          02:55:36
   Project:             q95            Requested time:        42:00:00
   Service Units:     23.41 
                                       Max physical memory:     1549MB
                                       Max virtual memory:      2902MB
                                       Requested memory:           0MB

                                       Number of cpus:               8

                                       Max jobfs disk use:       1.0GB
                                       Requested jobfs:         20.0GB
=============================================================================

