 Entering Gaussian System, Link 0=/apps/gaussian/g09e01/g09/g09
 AtFile(1): /home/507/hio507/Basis/6-31pGd.gbs
 Initial command:
 /apps/gaussian/g09e01/g09/l1.exe "/jobfs/local/5976325.r-man2/Gau-17587.inp" -scrdir="/jobfs/local/5976325.r-man2/"
 Entering Link 1 = /apps/gaussian/g09e01/g09/l1.exe PID=     17588.
  
 Copyright (c) 1988,1990,1992,1993,1995,1998,2003,2009,2015,
            Gaussian, Inc.  All Rights Reserved.
  
 This is part of the Gaussian(R) 09 program.  It is based on
 the Gaussian(R) 03 system (copyright 2003, Gaussian, Inc.),
 the Gaussian(R) 98 system (copyright 1998, Gaussian, Inc.),
 the Gaussian(R) 94 system (copyright 1995, Gaussian, Inc.),
 the Gaussian 92(TM) system (copyright 1992, Gaussian, Inc.),
 the Gaussian 90(TM) system (copyright 1990, Gaussian, Inc.),
 the Gaussian 88(TM) system (copyright 1988, Gaussian, Inc.),
 the Gaussian 86(TM) system (copyright 1986, Carnegie Mellon
 University), and the Gaussian 82(TM) system (copyright 1983,
 Carnegie Mellon University). Gaussian is a federally registered
 trademark of Gaussian, Inc.
  
 This software contains proprietary and confidential information,
 including trade secrets, belonging to Gaussian, Inc.
  
 This software is provided under written license and may be
 used, copied, transmitted, or stored only in accord with that
 written license.
  
 The following legend is applicable only to US Government
 contracts under FAR:
  
                    RESTRICTED RIGHTS LEGEND
  
 Use, reproduction and disclosure by the US Government is
 subject to restrictions as set forth in subparagraphs (a)
 and (c) of the Commercial Computer Software - Restricted
 Rights clause in FAR 52.227-19.
  
 Gaussian, Inc.
 340 Quinnipiac St., Bldg. 40, Wallingford CT 06492
  
  
 ---------------------------------------------------------------
 Warning -- This program may not be used in any manner that
 competes with the business of Gaussian, Inc. or will provide
 assistance to any competitor of Gaussian, Inc.  The licensee
 of this program is prohibited from giving any competitor of
 Gaussian, Inc. access to this program.  By using this program,
 the user acknowledges that Gaussian, Inc. is engaged in the
 business of creating and licensing software in the field of
 computational chemistry and represents and warrants to the
 licensee that it is not a competitor of Gaussian, Inc. and that
 it will not use this program in any manner prohibited above.
 ---------------------------------------------------------------
  

 Cite this work as:
 Gaussian 09, Revision E.01,
 M. J. Frisch, G. W. Trucks, H. B. Schlegel, G. E. Scuseria, 
 M. A. Robb, J. R. Cheeseman, G. Scalmani, V. Barone, B. Mennucci, 
 G. A. Petersson, H. Nakatsuji, M. Caricato, X. Li, H. P. Hratchian, 
 A. F. Izmaylov, J. Bloino, G. Zheng, J. L. Sonnenberg, M. Hada, 
 M. Ehara, K. Toyota, R. Fukuda, J. Hasegawa, M. Ishida, T. Nakajima, 
 Y. Honda, O. Kitao, H. Nakai, T. Vreven, J. A. Montgomery, Jr., 
 J. E. Peralta, F. Ogliaro, M. Bearpark, J. J. Heyd, E. Brothers, 
 K. N. Kudin, V. N. Staroverov, T. Keith, R. Kobayashi, J. Normand, 
 K. Raghavachari, A. Rendell, J. C. Burant, S. S. Iyengar, J. Tomasi, 
 M. Cossi, N. Rega, J. M. Millam, M. Klene, J. E. Knox, J. B. Cross, 
 V. Bakken, C. Adamo, J. Jaramillo, R. Gomperts, R. E. Stratmann, 
 O. Yazyev, A. J. Austin, R. Cammi, C. Pomelli, J. W. Ochterski, 
 R. L. Martin, K. Morokuma, V. G. Zakrzewski, G. A. Voth, 
 P. Salvador, J. J. Dannenberg, S. Dapprich, A. D. Daniels, 
 O. Farkas, J. B. Foresman, J. V. Ortiz, J. Cioslowski, 
 and D. J. Fox, Gaussian, Inc., Wallingford CT, 2013.
 
 ******************************************
 Gaussian 09:  ES64L-G09RevE.01 30-Nov-2015
                21-Feb-2019 
 ******************************************
 %chk=4Ketone_EtO.M062X_6-31pGd_bsse.chk
 %mem=196608000
 %nproc=4
 Will use up to    4 processors via shared memory.
 ----------------------------------------------------------------------
 # M062X/Gen 6D SCF=Tight INT(grid=ultrafine) Counterpoise=2 maxdisk=67
 1088640
 ----------------------------------------------------------------------
 1/38=1,62=2/1;
 2/12=2,17=6,18=5,40=1/2;
 1/38=1,53=2,62=2,63=1/22;
 3/5=7,8=2,11=2,16=1,25=1,30=1,74=-55,75=-5/1,2,3;
 4//1;
 5/5=2,32=2,38=5/2;
 6/7=2,8=2,9=2,10=2,28=1/1;
 1/53=2,62=2,63=1/22;
 3/5=7,6=11,8=2,11=2,16=1,25=1,30=1,74=-55,75=-5,82=7/1,2,3;
 4//1;
 5/5=2,32=2,38=5/2;
 6/7=2,8=2,9=2,10=2,28=1/1;
 1/53=2,62=2,63=1/22(-4);
 99/5=1,9=1/99;
 ------------------------------
 4Ketone_EtO.M062X_6-31pGd_bsse
 ------------------------------
 Symbolic Z-matrix:
 Charge = -1 Multiplicity = 1 in supermolecule
 Charge =  0 Multiplicity = 1 in fragment      1.
 Charge = -1 Multiplicity = 1 in fragment      2.
 C(Fragment=1)        -2.16272   2.38107  -0.1449 
 C(Fragment=1)        -0.83142   1.63611  -0.0816 
 C(Fragment=1)         0.35228   2.59685  -0.11416 
 N(Fragment=1)         1.58956   1.85613  -0.02529 
 C(Fragment=1)         2.77402   2.48948  -0.19202 
 O(Fragment=1)         2.86686   3.68816  -0.46911 
 N(Fragment=1)         3.8645    1.64205  -0.02315 
 C(Fragment=1)         5.19782   1.96262  -0.12241 
 C(Fragment=1)         5.69777   3.24575  -0.42966 
 C(Fragment=1)         6.1204    0.91056   0.10317 
 C(Fragment=1)         7.47882   1.13691   0.02372 
 C(Fragment=1)         7.98777   2.41228  -0.28224 
 C(Fragment=1)         7.06894   3.44792  -0.50375 
 H(Fragment=1)        -3.00975   1.68729  -0.12823 
 H(Fragment=1)        -2.23718   2.98001  -1.06062 
 H(Fragment=1)        -2.27255   3.0637    0.70623 
 H(Fragment=1)        -0.74378   0.93661  -0.92156 
 H(Fragment=1)        -0.77512   1.0234    0.8256 
 H(Fragment=1)         0.27319   3.32026   0.71297 
 H(Fragment=1)         0.34493   3.1856   -1.04108 
 H(Fragment=1)         1.54457   0.86416   0.27568 
 H(Fragment=1)         3.66002   0.6476    0.21152 
 H(Fragment=1)         5.00217   4.05486  -0.6039 
 H(Fragment=1)         5.72654  -0.07526   0.34014 
 H(Fragment=1)         8.18231   0.32759   0.19751 
 C(Fragment=1)         9.44886   2.61367  -0.35769 
 H(Fragment=1)         7.42308   4.44792  -0.74262 
 O(Fragment=1)         10.24474   1.70523  -0.16267 
 C(Fragment=1)         9.9739    4.00332  -0.69019 
 H(Fragment=1)         9.64139   4.73409   0.05456 
 H(Fragment=1)         11.06421   3.96688  -0.70441 
 H(Fragment=1)         9.60556   4.33615  -1.6663 
 O(Fragment=2)         1.27674  -0.81329   0.79666 
 O(Fragment=2)         3.50475  -1.03694   0.62298 
 C(Fragment=2)         2.34601  -1.47267   0.85847 
 C(Fragment=2)         2.20913  -2.95064   1.26079 
 C(Fragment=2)         3.52738  -3.71215   1.32291 
 H(Fragment=2)         1.51819  -3.41481   0.54604 
 H(Fragment=2)         1.69401  -2.97311   2.22923 
 H(Fragment=2)         4.03157  -3.69032   0.35248 
 H(Fragment=2)         3.36883  -4.75848   1.61223 
 H(Fragment=2)         4.20687  -3.24929   2.04435 
 
                          Input orientation:                          
 ---------------------------------------------------------------------
 Center     Atomic      Atomic             Coordinates (Angstroms)
 Number     Number       Type             X           Y           Z
 ---------------------------------------------------------------------
      1          6           0       -2.162719    2.381073   -0.144898
      2          6           0       -0.831419    1.636111   -0.081598
      3          6           0        0.352282    2.596852   -0.114164
      4          7           0        1.589562    1.856130   -0.025294
      5          6           0        2.774018    2.489478   -0.192017
      6          8           0        2.866859    3.688164   -0.469106
      7          7           0        3.864496    1.642055   -0.023155
      8          6           0        5.197816    1.962618   -0.122406
      9          6           0        5.697771    3.245747   -0.429662
     10          6           0        6.120396    0.910564    0.103170
     11          6           0        7.478824    1.136911    0.023719
     12          6           0        7.987770    2.412278   -0.282241
     13          6           0        7.068943    3.447920   -0.503752
     14          1           0       -3.009747    1.687288   -0.128230
     15          1           0       -2.237180    2.980009   -1.060616
     16          1           0       -2.272554    3.063696    0.706229
     17          1           0       -0.743775    0.936609   -0.921563
     18          1           0       -0.775125    1.023397    0.825597
     19          1           0        0.273191    3.320263    0.712968
     20          1           0        0.344933    3.185602   -1.041077
     21          1           0        1.544568    0.864157    0.275676
     22          1           0        3.660020    0.647602    0.211520
     23          1           0        5.002174    4.054864   -0.603898
     24          1           0        5.726544   -0.075262    0.340138
     25          1           0        8.182311    0.327593    0.197507
     26          6           0        9.448864    2.613673   -0.357694
     27          1           0        7.423079    4.447921   -0.742619
     28          8           0       10.244736    1.705229   -0.162670
     29          6           0        9.973904    4.003324   -0.690193
     30          1           0        9.641387    4.734093    0.054562
     31          1           0       11.064210    3.966880   -0.704406
     32          1           0        9.605557    4.336155   -1.666300
     33          8           0        1.276745   -0.813286    0.796663
     34          8           0        3.504747   -1.036938    0.622976
     35          6           0        2.346006   -1.472667    0.858473
     36          6           0        2.209131   -2.950637    1.260786
     37          6           0        3.527380   -3.712149    1.322905
     38          1           0        1.518189   -3.414814    0.546039
     39          1           0        1.694014   -2.973114    2.229229
     40          1           0        4.031570   -3.690322    0.352475
     41          1           0        3.368826   -4.758476    1.612234
     42          1           0        4.206868   -3.249287    2.044353
 ---------------------------------------------------------------------
                    Distance matrix (angstroms):
                    1          2          3          4          5
     1  C    0.000000
     2  C    1.526871   0.000000
     3  C    2.524428   1.524871   0.000000
     4  N    3.790710   2.431610   1.444793   0.000000
     5  C    4.938152   3.706697   2.425365   1.353463   0.000000
     6  O    5.206751   4.247157   2.764062   2.277016   1.233793
     7  N    6.073574   4.696283   3.640820   2.284986   1.391324
     8  C    7.372455   6.038207   4.886872   3.611131   2.481376
     9  C    7.913030   6.733676   5.393964   4.355678   3.029315
    10  C    8.416290   6.992016   6.013480   4.630233   3.711920
    11  C    9.722948   8.325889   7.275853   5.933219   4.900120
    12  C   10.151466   8.855551   7.639567   6.427471   5.215103
    13  C    9.300028   8.116439   6.781565   5.725935   4.411594
    14  H    1.095022   2.179429   3.482923   4.603558   5.839480
    15  H    1.096726   2.177315   2.783505   4.120552   5.109520
    16  H    1.096566   2.176130   2.789400   4.112090   5.157952
    17  H    2.168660   1.096597   2.147008   2.663321   3.913887
    18  H    2.170383   1.096171   2.151734   2.647490   3.972574
    19  H    2.748030   2.165148   1.101692   2.102748   2.786277
    20  H    2.781856   2.169176   1.098112   2.085285   2.665698
    21  H    4.027641   2.523662   2.139101   1.037602   2.090922
    22  H    6.085741   4.608263   3.853151   2.409029   2.083351
    23  H    7.372106   6.336716   4.897666   4.100626   2.754044
    24  H    8.277035   6.790695   6.019076   4.580222   3.946960
    25  H   10.552425   9.112488   8.158187   6.771293   5.837389
    26  C   11.615862  10.330347   9.099856   7.902720   6.678056
    27  H    9.824289   8.745282   7.336047   6.423539   5.074685
    28  O   12.425861  11.076667   9.932672   8.657579   7.511826
    29  C   12.256699  11.078316   9.740923   8.680422   7.374162
    30  H   12.037999  10.922257   9.533296   8.551078   7.229098
    31  H   13.333397  12.137807  10.815302   9.730643   8.436382
    32  H   12.026193  10.896421   9.542400   8.549830   7.228669
    33  O    4.787523   3.348916   3.648736   2.810560   3.758665
    34  O    6.662777   5.142368   4.866809   3.529593   3.692396
    35  C    6.015536   4.543596   4.634862   3.526208   4.121325
    36  C    7.036771   5.664379   6.009410   5.014267   5.659027
    37  C    8.465166   7.040997   7.207629   6.048018   6.428276
    38  H    6.900636   5.605928   6.159167   5.302298   6.081324
    39  H    7.012716   5.741314   6.190012   5.330608   6.071964
    40  H    8.687833   7.225508   7.299553   6.072005   6.329916
    41  H    9.201015   7.835935   8.135161   7.042748   7.492794
    42  H    8.778691   7.332880   7.327644   6.099100   6.323594
                    6          7          8          9         10
     6  O    0.000000
     7  N    2.319636   0.000000
     8  C    2.920799   1.374901   0.000000
     9  C    2.865545   2.469407   1.410950   0.000000
    10  C    4.316024   2.374894   1.417341   2.432202   0.000000
    11  C    5.293580   3.649758   2.430255   2.797301   1.379446
    12  C    5.280769   4.202589   2.830474   2.441413   2.427091
    13  C    4.209088   3.709528   2.419227   1.387975   2.776017
    14  H    6.217251   6.875196   8.212183   8.851019   9.166044
    15  H    5.186770   6.332212   7.562704   7.964431   8.688273
    16  H    5.308949   6.341645   7.596410   8.052917   8.685694
    17  H    4.562066   4.747732   6.082258   6.860583   6.940288
    18  H    4.694815   4.757016   6.120202   6.957937   6.934179
    19  H    2.873981   4.031840   5.176194   5.544116   6.353606
    20  H    2.634356   3.975680   5.088234   5.387979   6.311979
    21  H    3.205958   2.465055   3.835533   4.839274   4.579314
    22  H    3.215178   1.042027   2.050754   3.363615   2.476760
    23  H    2.170762   2.730058   2.155829   1.081148   3.411303
    24  H    4.795419   2.558980   2.155564   3.409182   1.087716
    25  H    6.323910   4.518852   3.418020   3.883543   2.144819
    26  C    6.670062   5.678126   4.307045   3.804655   3.767184
    27  H    4.627222   4.588466   3.393109   2.125994   3.863319
    28  O    7.645848   6.382077   5.053639   4.808261   4.208603
    29  C    7.117464   6.583722   5.224737   4.350531   5.004410
    30  H    6.874768   6.552801   5.240011   4.242848   5.197992
    31  H    8.205462   7.596367   6.226585   5.421641   5.868096
    32  H    6.874825   6.551174   5.238842   4.241351   5.197311
    33  O    4.938996   3.660227   4.891333   6.125773   5.187827
    34  O    4.891434   2.779192   3.524119   4.925322   3.302209
    35  C    5.354244   3.575552   4.571229   5.929338   4.527283
    36  C    6.891938   5.047926   5.914857   7.309131   5.616666
    37  C    7.642789   5.531097   6.089521   7.496293   5.438838
    38  H    7.300803   5.603665   6.550058   7.923634   6.331298
    39  H    7.282115   5.575303   6.493710   7.859644   6.260665
    40  H    7.514892   5.348201   5.791492   7.176143   5.059002
    41  H    8.713763   6.624726   7.178252   8.582594   6.479693
    42  H    7.499422   5.321375   5.730688   7.108376   4.973343
                   11         12         13         14         15
    11  C    0.000000
    12  C    1.406840   0.000000
    13  C    2.405616   1.402092   0.000000
    14  H   10.504101  11.022464  10.238205   0.000000
    15  H    9.948544  10.270238   9.334504   1.771252   0.000000
    16  H    9.963318  10.328391   9.427367   1.770389   1.769180
    17  H    8.279180   8.878412   8.217044   2.515457   2.534773
    18  H    8.293586   8.941175   8.317143   2.518745   3.086055
    19  H    7.560637   7.831322   6.904994   3.761902   3.092464
    20  H    7.498222   7.719250   6.750544   3.785778   2.590358
    21  H    5.945862   6.650023   6.148338   4.645694   4.534768
    22  H    3.854602   4.699713   4.469245   6.758859   6.468031
    23  H    3.878420   3.422766   2.156372   8.367949   7.332950
    24  H    2.154059   3.418823   3.863547   8.924614   8.643940
    25  H    1.086320   2.148003   3.386413  11.279053  10.825155
    26  C    2.491457   1.476838   2.526128  12.495113  11.712896
    27  H    3.398994   2.162097   1.087415  10.809368   9.776323
    28  O    2.829840   2.368145   3.638539  13.254540  12.578934
    29  C    3.866706   2.577321   2.963450  13.200570  12.259485
    30  H    4.197302   2.870316   2.929749  13.014133  12.059055
    31  H    4.625352   3.472679   4.033825  14.269015  13.342705
    32  H    4.196941   2.869522   2.928291  12.981836  11.935510
    33  O    6.547251   7.523706   7.307428   5.048000   5.494200
    34  O    4.569247   5.728351   5.838404   7.101010   7.206946
    35  C    5.818293   6.944316   6.955139   6.296268   6.671943
    36  C    6.782924   8.033334   8.226354   7.118736   7.767313
    37  C    6.388676   7.744688   8.194262   8.601962   9.148568
    38  H    7.517992   8.746230   8.888760   6.854800   7.588010
    39  H    7.431057   8.655708   8.808446   7.028679   7.856019
    40  H    5.940861   7.300419   7.804694   8.872988   9.262147
    41  H    7.360099   8.737471   9.247335   9.233812   9.922479
    42  H    5.833300   7.194552   7.716015   9.009408   9.485290
                   16         17         18         19         20
    16  H    0.000000
    17  H    3.084051   0.000000
    18  H    2.533646   1.749595   0.000000
    19  H    2.558650   3.063938   2.527300   0.000000
    20  H    3.149473   2.501507   3.068246   1.760669   0.000000
    21  H    4.426485   2.583630   2.389298   2.800015   2.926101
    22  H    6.424771   4.556404   4.493197   4.343407   4.358928
    23  H    7.457917   6.545255   6.679104   4.963573   4.757798
    24  H    8.600736   6.669393   6.611688   6.434878   6.442261
    25  H   10.818931   9.016553   9.006347   8.472069   8.433671
    26  C   11.778204  10.345066  10.414370   9.264910   9.147441
    27  H    9.900533   8.891504   9.022040   7.383173   7.196019
    28  O   12.620735  11.041470  11.085075  10.139368  10.048343
    29  C   12.361579  11.150199  11.256963   9.825440   9.669999
    30  H   12.048108  11.100689  11.084561   9.497132   9.488009
    31  H   13.441537  12.192548  12.295318  10.902897  10.752983
    32  H   12.179391  10.918801  11.177767   9.684318   9.352745
    33  O    5.257061   3.177567   2.753980   4.254451   4.498518
    34  O    7.085149   4.932588   4.754296   5.425519   5.530220
    35  C    6.475559   4.303474   3.996608   5.223975   5.414061
    36  C    7.520986   5.347241   4.988799   6.585754   6.813753
    37  C    8.940448   6.700101   6.417496   7.772811   7.955838
    38  H    7.507761   5.119103   5.003514   6.851215   6.889191
    39  H    7.382159   5.581777   4.902951   6.627547   7.102443
    40  H    9.245750   6.770199   6.748874   7.962643   7.925378
    41  H    9.686712   7.467772   7.156898   8.698142   8.904626
    42  H    9.144794   7.129324   6.675436   7.772091   8.114322
                   21         22         23         24         25
    21  H    0.000000
    22  H    2.127475   0.000000
    23  H    4.786366   3.751762   0.000000
    24  H    4.286676   2.193079   4.298122   0.000000
    25  H    6.659853   4.533621   4.964682   2.492675   0.000000
    26  C    8.120336   6.140045   4.680886   4.644675   2.671810
    27  H    6.959683   5.432625   2.456526   4.950735   4.293875
    28  O    8.751713   6.679601   5.761937   4.882317   2.506233
    29  C    9.046601   7.206878   4.972746   5.978002   4.184353
    30  H    8.976847   7.245744   4.734683   6.207854   4.643983
    31  H   10.060370   8.165694   6.063507   6.776479   4.728974
    32  H    8.989193   7.244380   4.732754   6.207506   4.644133
    33  O    1.776786   2.855974   6.288026   4.533631   7.024773
    34  O    2.752649   1.741000   5.447380   2.437458   4.891071
    35  C    2.538248   2.576960   6.304550   3.694516   6.143311
    36  C    3.995590   4.019124   7.768859   4.635469   6.896103
    37  C    5.096156   4.501133   8.137203   4.362236   6.265335
    38  H    4.287585   4.604625   8.322055   5.376361   7.650988
    39  H    4.308521   4.587582   8.268192   5.312956   7.557814
    40  H    5.189832   4.356088   7.864135   3.992712   5.778954
    41  H    6.060388   5.592180   9.233311   5.395328   7.144172
    42  H    5.209269   4.340975   7.810017   3.910012   5.657655
                   26         27         28         29         30
    26  C    0.000000
    27  H    2.759789   0.000000
    28  O    1.223404   3.977492   0.000000
    29  C    1.522285   2.589811   2.373366   0.000000
    30  H    2.168686   2.374507   3.096003   1.095103   0.000000
    31  H    2.135585   3.672968   2.465782   1.091007   1.785797
    32  H    2.168858   2.372528   3.096970   1.095099   1.766636
    33  O    8.936449   8.235721   9.364192  10.052415  10.064362
    34  O    7.044232   6.877634   7.318755   8.305339   8.443119
    35  C    8.284192   7.962005   8.575062   9.516810   9.612114
    36  C    9.273336   9.270250   9.395438  10.604508  10.758647
    37  C    8.826348   9.275214   8.756586  10.253720  10.503751
    38  H   10.002750   9.917206  10.142472  11.316190  11.516623
    39  H    9.901619   9.834928  10.036080  11.213843  11.282329
    40  H    8.342168   8.884400   8.245045   9.777049  10.125689
    41  H    9.756847  10.331507   9.602495  11.211484  11.483912
    42  H    8.223299   8.795353   8.116281   9.661098   9.860407
                   31         32         33         34         35
    31  H    0.000000
    32  H    1.785853   0.000000
    33  O   10.995348  10.097130   0.000000
    34  O    9.162185   8.445756   2.245925   0.000000
    35  C   10.394150   9.634208   1.257746   1.260158   0.000000
    36  C   11.407298  10.787599   2.377609   2.397429   1.537851
    37  C   10.949032  10.519258   3.707519   2.765352   2.574222
    38  H   12.131758  11.418296   2.624701   3.099456   2.134205
    39  H   12.023739  11.453954   2.625113   3.099609   2.134340
    40  H   10.450252   9.978432   4.007955   2.718669   2.831104
    41  H   11.862445  11.504691   4.539437   3.853175   3.522905
    42  H   10.327240  10.022660   4.009546   2.721723   2.832931
                   36         37         38         39         40
    36  C    0.000000
    37  C    1.523660   0.000000
    38  H    1.097144   2.174576   0.000000
    39  H    1.097147   2.174586   1.749040   0.000000
    40  H    2.166437   1.093809   2.535835   3.082330   0.000000
    41  H    2.176394   1.097110   2.523303   2.524519   1.779656
    42  H    2.166593   1.093816   3.082425   2.534736   1.757183
                   41         42
    41  H    0.000000
    42  H    1.779521   0.000000
 Stoichiometry    C15H21N2O4(1-)
 Framework group  C1[X(C15H21N2O4)]
 Deg. of freedom   120
 Full point group                 C1      NOp   1
 Largest Abelian subgroup         C1      NOp   1
 Largest concise Abelian subgroup C1      NOp   1
                         Standard orientation:                         
 ---------------------------------------------------------------------
 Center     Atomic      Atomic             Coordinates (Angstroms)
 Number     Number       Type             X           Y           Z
 ---------------------------------------------------------------------
      1          6           0        5.790251   -2.777428   -0.047380
      2          6           0        4.701037   -1.712227   -0.148854
      3          6           0        3.313772   -2.303721    0.076671
      4          7           0        2.316181   -1.261472   -0.000511
      5          6           0        1.000350   -1.578083    0.014014
      6          8           0        0.584439   -2.739277    0.043844
      7          7           0        0.177800   -0.456306   -0.014476
      8          6           0       -1.196738   -0.425056   -0.009603
      9          6           0       -2.028929   -1.564111    0.018521
     10          6           0       -1.800962    0.856757   -0.036539
     11          6           0       -3.174205    0.987423   -0.035402
     12          6           0       -4.012990   -0.141681   -0.007798
     13          6           0       -3.407891   -1.406196    0.019073
     14          1           0        6.784006   -2.349832   -0.216748
     15          1           0        5.635989   -3.572017   -0.787406
     16          1           0        5.791929   -3.245334    0.944344
     17          1           0        4.725934   -1.231817   -1.134303
     18          1           0        4.875615   -0.911579    0.579209
     19          1           0        3.273528   -2.807226    1.055747
     20          1           0        3.096496   -3.073579   -0.675632
     21          1           0        2.635484   -0.275259    0.044745
     22          1           0        0.646091    0.474302   -0.036647
     23          1           0       -1.577731   -2.546401    0.038738
     24          1           0       -1.152131    1.729516   -0.057429
     25          1           0       -3.632994    1.971894   -0.055974
     26          6           0       -5.478543    0.040536   -0.007297
     27          1           0       -4.022188   -2.303208    0.040989
     28          8           0       -5.999525    1.147226   -0.030335
     29          6           0       -6.363973   -1.197381    0.023153
     30          1           0       -6.168471   -1.794424    0.920131
     31          1           0       -7.406843   -0.876926    0.018074
     32          1           0       -6.172360   -1.835390   -0.846026
     33          8           0        3.361223    1.344319    0.129824
     34          8           0        1.256273    2.104737   -0.057603
     35          6           0        2.502769    2.259517    0.043836
     36          6           0        3.042091    3.699534    0.065460
     37          6           0        1.969559    4.776466   -0.041466
     38          1           0        3.767940    3.782376   -0.753078
     39          1           0        3.622736    3.810785    0.989693
     40          1           0        1.399449    4.662453   -0.967962
     41          1           0        2.411165    5.780600   -0.022788
     42          1           0        1.255626    4.693381    0.783052
 ---------------------------------------------------------------------
 Rotational constants (GHZ):      0.3971626      0.1362190      0.1018547
 Counterpoise: doing full dimer calculation.
 General basis read from cards:  (6D, 7F)
 There are   441 symmetry adapted cartesian basis functions of A   symmetry.
 There are   441 symmetry adapted basis functions of A   symmetry.
   441 basis functions,   756 primitive gaussians,   441 cartesian basis functions
    79 alpha electrons       79 beta electrons
       nuclear repulsion energy      1611.7742281468 Hartrees.
 NAtoms=   42 NActive=   42 NUniq=   42 SFac= 1.00D+00 NAtFMM=   60 NAOKFM=F Big=F
 Integral buffers will be    131072 words long.
 Raffenetti 2 integral format.
 Two-electron integral symmetry is turned on.
 One-electron integrals computed using PRISM.
 NBasis=   441 RedAO= T EigKep=  1.49D-06  NBF=   441
 NBsUse=   439 1.00D-06 EigRej=  6.44D-07 NBFU=   439
 ExpMin= 4.38D-02 ExpMax= 5.48D+03 ExpMxC= 8.25D+02 IAcc=3 IRadAn=         5 AccDes= 0.00D+00
 Harris functional with IExCor= 1009 and IRadAn=       5 diagonalized for initial guess.
 HarFok:  IExCor= 1009 AccDes= 0.00D+00 IRadAn=         5 IDoV= 1 UseB2=F ITyADJ=14
 ICtDFT=  3500011 ScaDFX=  1.000000  1.000000  1.000000  1.000000
 FoFCou: FMM=F IPFlag=           0 FMFlag=      100000 FMFlg1=           0
         NFxFlg=           0 DoJE=T BraDBF=F KetDBF=T FulRan=T
         wScrn=  0.000000 ICntrl=     500 IOpCl=  0 I1Cent=   200000004 NGrid=           0
         NMat0=    1 NMatS0=      1 NMatT0=    0 NMatD0=    1 NMtDS0=    0 NMtDT0=    0
 Petite list used in FoFCou.
 Requested convergence on RMS density matrix=1.00D-08 within 128 cycles.
 Requested convergence on MAX density matrix=1.00D-06.
 Requested convergence on             energy=1.00D-06.
 No special actions if energy rises.
 SCF Done:  E(RM062X) =  -994.406702012     A.U. after   16 cycles
            NFock= 16  Conv=0.25D-08     -V/T= 2.0086

 **********************************************************************

            Population analysis using the SCF density.

 **********************************************************************

 Orbital symmetries:
       Occupied  (A) (A) (A) (A) (A) (A) (A) (A) (A) (A) (A) (A)
                 (A) (A) (A) (A) (A) (A) (A) (A) (A) (A) (A) (A)
                 (A) (A) (A) (A) (A) (A) (A) (A) (A) (A) (A) (A)
                 (A) (A) (A) (A) (A) (A) (A) (A) (A) (A) (A) (A)
                 (A) (A) (A) (A) (A) (A) (A) (A) (A) (A) (A) (A)
                 (A) (A) (A) (A) (A) (A) (A) (A) (A) (A) (A) (A)
                 (A) (A) (A) (A) (A) (A) (A)
       Virtual   (A) (A) (A) (A) (A) (A) (A) (A) (A) (A) (A) (A)
                 (A) (A) (A) (A) (A) (A) (A) (A) (A) (A) (A) (A)
                 (A) (A) (A) (A) (A) (A) (A) (A) (A) (A) (A) (A)
                 (A) (A) (A) (A) (A) (A) (A) (A) (A) (A) (A) (A)
                 (A) (A) (A) (A) (A) (A) (A) (A) (A) (A) (A) (A)
                 (A) (A) (A) (A) (A) (A) (A) (A) (A) (A) (A) (A)
                 (A) (A) (A) (A) (A) (A) (A) (A) (A) (A) (A) (A)
                 (A) (A) (A) (A) (A) (A) (A) (A) (A) (A) (A) (A)
                 (A) (A) (A) (A) (A) (A) (A) (A) (A) (A) (A) (A)
                 (A) (A) (A) (A) (A) (A) (A) (A) (A) (A) (A) (A)
                 (A) (A) (A) (A) (A) (A) (A) (A) (A) (A) (A) (A)
                 (A) (A) (A) (A) (A) (A) (A) (A) (A) (A) (A) (A)
                 (A) (A) (A) (A) (A) (A) (A) (A) (A) (A) (A) (A)
                 (A) (A) (A) (A) (A) (A) (A) (A) (A) (A) (A) (A)
                 (A) (A) (A) (A) (A) (A) (A) (A) (A) (A) (A) (A)
                 (A) (A) (A) (A) (A) (A) (A) (A) (A) (A) (A) (A)
                 (A) (A) (A) (A) (A) (A) (A) (A) (A) (A) (A) (A)
                 (A) (A) (A) (A) (A) (A) (A) (A) (A) (A) (A) (A)
                 (A) (A) (A) (A) (A) (A) (A) (A) (A) (A) (A) (A)
                 (A) (A) (A) (A) (A) (A) (A) (A) (A) (A) (A) (A)
                 (A) (A) (A) (A) (A) (A) (A) (A) (A) (A) (A) (A)
                 (A) (A) (A) (A) (A) (A) (A) (A) (A) (A) (A) (A)
                 (A) (A) (A) (A) (A) (A) (A) (A) (A) (A) (A) (A)
                 (A) (A) (A) (A) (A) (A) (A) (A) (A) (A) (A) (A)
                 (A) (A) (A) (A) (A) (A) (A) (A) (A) (A) (A) (A)
                 (A) (A) (A) (A) (A) (A) (A) (A) (A) (A) (A) (A)
                 (A) (A) (A) (A) (A) (A) (A) (A) (A) (A) (A) (A)
                 (A) (A) (A) (A) (A) (A) (A) (A) (A) (A) (A) (A)
                 (A) (A) (A) (A) (A) (A) (A) (A) (A) (A) (A) (A)
                 (A) (A) (A) (A) (A) (A) (A) (A) (A) (A) (A) (A)
 The electronic state is 1-A.
 Alpha  occ. eigenvalues --  -19.53844 -19.48825 -19.46886 -19.46395 -14.66480
 Alpha  occ. eigenvalues --  -14.64641 -10.55755 -10.54655 -10.51548 -10.49977
 Alpha  occ. eigenvalues --  -10.46945 -10.46599 -10.46358 -10.45531 -10.45278
 Alpha  occ. eigenvalues --  -10.45145 -10.44410 -10.44297 -10.44168 -10.42752
 Alpha  occ. eigenvalues --  -10.42711  -1.06604  -1.04928  -1.02986  -0.93553
 Alpha  occ. eigenvalues --   -0.93096  -0.90245  -0.84997  -0.78410  -0.76679
 Alpha  occ. eigenvalues --   -0.74800  -0.74266  -0.72701  -0.67652  -0.61849
 Alpha  occ. eigenvalues --   -0.61170  -0.59965  -0.57862  -0.54897  -0.53148
 Alpha  occ. eigenvalues --   -0.50429  -0.49929  -0.46705  -0.45672  -0.44860
 Alpha  occ. eigenvalues --   -0.42869  -0.42794  -0.42668  -0.41320  -0.41170
 Alpha  occ. eigenvalues --   -0.40467  -0.40302  -0.39589  -0.38727  -0.38515
 Alpha  occ. eigenvalues --   -0.37644  -0.36754  -0.36448  -0.35902  -0.34797
 Alpha  occ. eigenvalues --   -0.34093  -0.33854  -0.33381  -0.32545  -0.32414
 Alpha  occ. eigenvalues --   -0.30818  -0.30265  -0.29747  -0.29459  -0.28608
 Alpha  occ. eigenvalues --   -0.26011  -0.23019  -0.22220  -0.20831  -0.19826
 Alpha  occ. eigenvalues --   -0.19242  -0.19123  -0.18617  -0.14940
 Alpha virt. eigenvalues --    0.07832   0.09152   0.10271   0.11342   0.12036
 Alpha virt. eigenvalues --    0.12165   0.12434   0.12589   0.13289   0.13325
 Alpha virt. eigenvalues --    0.13659   0.13921   0.14644   0.14954   0.15158
 Alpha virt. eigenvalues --    0.15707   0.16067   0.16356   0.16532   0.16663
 Alpha virt. eigenvalues --    0.17553   0.17996   0.18224   0.18409   0.18884
 Alpha virt. eigenvalues --    0.18940   0.19156   0.19445   0.20750   0.20813
 Alpha virt. eigenvalues --    0.21300   0.21505   0.22041   0.22638   0.22688
 Alpha virt. eigenvalues --    0.22959   0.23479   0.23895   0.24385   0.24941
 Alpha virt. eigenvalues --    0.25722   0.25789   0.26310   0.26730   0.26893
 Alpha virt. eigenvalues --    0.28053   0.28548   0.28757   0.28909   0.29480
 Alpha virt. eigenvalues --    0.30228   0.30927   0.31334   0.31533   0.32020
 Alpha virt. eigenvalues --    0.32369   0.32417   0.33051   0.33444   0.33813
 Alpha virt. eigenvalues --    0.34011   0.34344   0.34747   0.34923   0.35376
 Alpha virt. eigenvalues --    0.35561   0.35795   0.36118   0.36250   0.36600
 Alpha virt. eigenvalues --    0.37287   0.37756   0.38157   0.38442   0.38819
 Alpha virt. eigenvalues --    0.38968   0.39342   0.39703   0.39735   0.40421
 Alpha virt. eigenvalues --    0.40678   0.41379   0.41729   0.41804   0.42130
 Alpha virt. eigenvalues --    0.42525   0.42743   0.43179   0.43478   0.44002
 Alpha virt. eigenvalues --    0.44293   0.44417   0.44753   0.45059   0.45237
 Alpha virt. eigenvalues --    0.45737   0.46272   0.46844   0.47408   0.47896
 Alpha virt. eigenvalues --    0.48177   0.49136   0.49390   0.49919   0.50484
 Alpha virt. eigenvalues --    0.50650   0.51006   0.52757   0.53156   0.54164
 Alpha virt. eigenvalues --    0.54315   0.56320   0.57102   0.57770   0.58027
 Alpha virt. eigenvalues --    0.58426   0.59123   0.60440   0.62449   0.64010
 Alpha virt. eigenvalues --    0.64964   0.65313   0.66578   0.67560   0.70559
 Alpha virt. eigenvalues --    0.71453   0.73200   0.75139   0.78207   0.78979
 Alpha virt. eigenvalues --    0.79288   0.80912   0.81341   0.82627   0.83328
 Alpha virt. eigenvalues --    0.84547   0.84912   0.85697   0.86025   0.86394
 Alpha virt. eigenvalues --    0.86993   0.87482   0.88022   0.88337   0.88601
 Alpha virt. eigenvalues --    0.88683   0.90479   0.91234   0.92363   0.92668
 Alpha virt. eigenvalues --    0.93359   0.93690   0.94852   0.95936   0.96176
 Alpha virt. eigenvalues --    0.97804   0.98367   0.98975   0.99369   0.99883
 Alpha virt. eigenvalues --    1.01977   1.03484   1.04813   1.06787   1.08226
 Alpha virt. eigenvalues --    1.08696   1.08962   1.09612   1.10509   1.11150
 Alpha virt. eigenvalues --    1.11869   1.13066   1.14537   1.16096   1.16303
 Alpha virt. eigenvalues --    1.17347   1.18280   1.18750   1.19170   1.19578
 Alpha virt. eigenvalues --    1.19859   1.22105   1.22368   1.23186   1.24869
 Alpha virt. eigenvalues --    1.26959   1.27370   1.27580   1.28534   1.29172
 Alpha virt. eigenvalues --    1.29459   1.29795   1.32042   1.33254   1.33732
 Alpha virt. eigenvalues --    1.34373   1.35579   1.37505   1.39133   1.39572
 Alpha virt. eigenvalues --    1.42818   1.43023   1.44624   1.45153   1.45506
 Alpha virt. eigenvalues --    1.47788   1.48210   1.48597   1.49063   1.49408
 Alpha virt. eigenvalues --    1.50389   1.51127   1.51855   1.52374   1.53576
 Alpha virt. eigenvalues --    1.53943   1.54486   1.55676   1.56528   1.56825
 Alpha virt. eigenvalues --    1.57343   1.58198   1.58857   1.59883   1.61249
 Alpha virt. eigenvalues --    1.62009   1.62602   1.63573   1.64024   1.66219
 Alpha virt. eigenvalues --    1.66475   1.66724   1.69153   1.69553   1.70113
 Alpha virt. eigenvalues --    1.71131   1.73012   1.75319   1.79333   1.80507
 Alpha virt. eigenvalues --    1.85850   1.86829   1.87628   1.90470   1.90929
 Alpha virt. eigenvalues --    1.92064   1.93391   1.95646   1.96039   1.98146
 Alpha virt. eigenvalues --    1.99067   1.99673   2.00064   2.00250   2.03323
 Alpha virt. eigenvalues --    2.03961   2.05130   2.05802   2.06940   2.07188
 Alpha virt. eigenvalues --    2.08204   2.08233   2.09282   2.09510   2.12328
 Alpha virt. eigenvalues --    2.13618   2.14426   2.15848   2.16428   2.17325
 Alpha virt. eigenvalues --    2.19007   2.19549   2.19905   2.21113   2.21340
 Alpha virt. eigenvalues --    2.21741   2.23080   2.23958   2.25248   2.26262
 Alpha virt. eigenvalues --    2.27118   2.28299   2.29454   2.31983   2.33520
 Alpha virt. eigenvalues --    2.34931   2.37502   2.38638   2.39134   2.40178
 Alpha virt. eigenvalues --    2.42209   2.42500   2.43577   2.45439   2.46496
 Alpha virt. eigenvalues --    2.47255   2.49706   2.49862   2.50238   2.51180
 Alpha virt. eigenvalues --    2.53290   2.55496   2.57676   2.58550   2.58952
 Alpha virt. eigenvalues --    2.61360   2.65899   2.66337   2.67066   2.68282
 Alpha virt. eigenvalues --    2.73220   2.73929   2.75553   2.76310   2.77555
 Alpha virt. eigenvalues --    2.80043   2.80499   2.85421   2.86861   2.89187
 Alpha virt. eigenvalues --    2.90137   2.90959   2.92347   2.94968   2.99015
 Alpha virt. eigenvalues --    3.01919   3.06915   3.08054   3.11355   3.16606
 Alpha virt. eigenvalues --    3.23552   3.24231   3.27057   3.28864   3.34675
 Alpha virt. eigenvalues --    3.35744   3.41942   3.49958   3.57101   4.33107
 Alpha virt. eigenvalues --    4.35617   4.37134   4.39236   4.42341   4.43073
 Alpha virt. eigenvalues --    4.46789   4.53471   4.54514   4.56537   4.57324
 Alpha virt. eigenvalues --    4.59550   4.61065   4.63070   4.69452   4.72930
 Alpha virt. eigenvalues --    4.77686   4.80962   4.88703   4.90722   5.00610
          Condensed to atoms (all electrons):
               1          2          3          4          5          6
     1  C    5.936756  -0.333975   0.111919  -0.031140  -0.093157  -0.001623
     2  C   -0.333975   6.580215  -0.641124  -0.054987   0.252657   0.021152
     3  C    0.111919  -0.641124   7.368435   0.341164  -0.956659  -0.111609
     4  N   -0.031140  -0.054987   0.341164   7.856277   0.430920  -0.188851
     5  C   -0.093157   0.252657  -0.956659   0.430920   6.561722   0.610707
     6  O   -0.001623   0.021152  -0.111609  -0.188851   0.610707   8.352278
     7  N   -0.002632   0.023891  -0.144495  -0.352263   0.207614  -0.052254
     8  C   -0.007772   0.011848  -0.293927  -0.142706  -0.581668  -0.490138
     9  C   -0.001578  -0.010435  -0.141795  -0.013827  -0.203514   0.492572
    10  C   -0.005439   0.007002  -0.077802  -0.062145  -0.228553  -0.143750
    11  C   -0.000762   0.000577  -0.027926  -0.024997  -0.343282  -0.024271
    12  C   -0.000470  -0.000358  -0.034192  -0.007522  -0.239349   0.014837
    13  C    0.000499  -0.002513   0.005885   0.022389   0.144542   0.133713
    14  H    0.458552  -0.133644   0.030486   0.000376  -0.002100   0.000001
    15  H    0.444826  -0.071539  -0.023904   0.000948  -0.002926  -0.000045
    16  H    0.395988  -0.055779   0.003067  -0.000376   0.003677   0.000003
    17  H   -0.060840   0.430172  -0.057482   0.002203  -0.000273  -0.000117
    18  H   -0.019863   0.443290  -0.101487   0.008689  -0.004584  -0.000105
    19  H   -0.019513  -0.076245   0.422259  -0.067392   0.027026   0.001864
    20  H   -0.000073  -0.034088   0.501457  -0.042889  -0.094095  -0.001206
    21  H    0.004702  -0.003244  -0.010675   0.144596  -0.012368   0.003078
    22  H   -0.000119  -0.001015  -0.005736   0.008304  -0.046566   0.003860
    23  H    0.000030  -0.000079   0.005633   0.002107   0.049183  -0.007667
    24  H   -0.000008   0.000050  -0.001685   0.000016  -0.023184   0.000141
    25  H    0.000000   0.000000   0.000038   0.000022   0.003788  -0.000000
    26  C   -0.000033  -0.000054  -0.006012  -0.002440  -0.145154   0.002294
    27  H   -0.000000   0.000003  -0.000263  -0.000057  -0.014261   0.000351
    28  O   -0.000000   0.000000  -0.000007  -0.000001  -0.000812   0.000000
    29  C    0.000000   0.000007   0.000078   0.000021   0.000923  -0.000278
    30  H   -0.000000  -0.000000  -0.000001  -0.000000  -0.000094   0.000000
    31  H    0.000000   0.000000  -0.000000   0.000000   0.000001   0.000000
    32  H   -0.000000   0.000000   0.000000  -0.000000  -0.000008   0.000000
    33  O    0.008147  -0.003452   0.016491  -0.033589  -0.010544  -0.000197
    34  O   -0.001184  -0.005557   0.000519   0.008478  -0.019348   0.000090
    35  C   -0.005482  -0.005674   0.019365  -0.000359   0.001880  -0.001737
    36  C    0.005991  -0.007040   0.043317  -0.035122  -0.038694  -0.001329
    37  C   -0.001024  -0.000533  -0.004836   0.004750   0.001454   0.000067
    38  H    0.000102   0.000374   0.000000  -0.000246  -0.000200  -0.000000
    39  H    0.000006  -0.000107   0.000295  -0.000134  -0.000358  -0.000000
    40  H    0.000001   0.000016  -0.000009  -0.000016   0.000007  -0.000000
    41  H    0.000000   0.000004  -0.000008  -0.000005   0.000022   0.000000
    42  H    0.000002   0.000029  -0.000005  -0.000007   0.000101  -0.000000
               7          8          9         10         11         12
     1  C   -0.002632  -0.007772  -0.001578  -0.005439  -0.000762  -0.000470
     2  C    0.023891   0.011848  -0.010435   0.007002   0.000577  -0.000358
     3  C   -0.144495  -0.293927  -0.141795  -0.077802  -0.027926  -0.034192
     4  N   -0.352263  -0.142706  -0.013827  -0.062145  -0.024997  -0.007522
     5  C    0.207614  -0.581668  -0.203514  -0.228553  -0.343282  -0.239349
     6  O   -0.052254  -0.490138   0.492572  -0.143750  -0.024271   0.014837
     7  N    7.910609   0.203304  -0.111463  -0.110653  -0.036381  -0.014707
     8  C    0.203304  15.039862  -0.798722   1.116410  -2.466393  -1.945415
     9  C   -0.111463  -0.798722  11.553590  -3.717096  -2.737355  -0.413228
    10  C   -0.110653   1.116410  -3.717096  10.914028   1.498799  -1.267598
    11  C   -0.036381  -2.466393  -2.737355   1.498799  10.596345   0.535913
    12  C   -0.014707  -1.945415  -0.413228  -1.267598   0.535913  10.781079
    13  C    0.086384  -2.881938   2.770956  -2.374449  -1.695664   0.836522
    14  H    0.000013  -0.000034  -0.000004  -0.000004  -0.000000  -0.000000
    15  H    0.000029  -0.000116  -0.000030   0.000002   0.000000  -0.000000
    16  H    0.000029   0.000124  -0.000019   0.000012   0.000000   0.000000
    17  H   -0.000638   0.000558  -0.000185   0.000259   0.000012   0.000005
    18  H    0.000556  -0.002267  -0.000219   0.000123   0.000010  -0.000011
    19  H   -0.000579   0.007339   0.002626  -0.000351  -0.000011   0.000147
    20  H   -0.000670  -0.007985  -0.008654   0.001579   0.000095  -0.000237
    21  H    0.002464   0.004445  -0.005635  -0.003163  -0.000929  -0.000633
    22  H    0.098559   0.012404   0.058809  -0.047976  -0.000217   0.011208
    23  H   -0.017836  -0.017819   0.323447  -0.009321  -0.008619   0.016622
    24  H   -0.011498   0.006313  -0.005970   0.338378  -0.050173   0.025475
    25  H    0.000460   0.032916   0.004156  -0.079391   0.312598   0.068215
    26  C   -0.009870  -0.452356  -0.293621  -0.073664   0.315591  -2.484891
    27  H   -0.001874   0.053174  -0.079235   0.004897   0.032915  -0.024588
    28  O   -0.000183   0.016680  -0.026323   0.155566   0.103747  -0.377890
    29  C   -0.000670  -0.036646  -0.137051   0.159920   0.086411  -0.227667
    30  H   -0.000002   0.003624   0.020449  -0.004001  -0.011325  -0.020953
    31  H   -0.000001  -0.000279   0.003026  -0.001766  -0.022333   0.060596
    32  H   -0.000000   0.004626   0.022164  -0.004226  -0.012271  -0.019426
    33  O    0.003733   0.003785  -0.004752  -0.018527  -0.006976  -0.001593
    34  O    0.022834  -0.349659  -0.030976   0.305911   0.081130   0.005333
    35  C   -0.016153   0.146647  -0.010630  -0.111624  -0.053125  -0.012360
    36  C   -0.029080  -0.056338  -0.031794   0.051191   0.009735  -0.000931
    37  C    0.004221  -0.035631  -0.001963   0.015839   0.023773   0.002843
    38  H    0.000114  -0.000519  -0.000064   0.000353  -0.000047  -0.000008
    39  H    0.000125  -0.001123  -0.000147   0.001125   0.000053  -0.000003
    40  H   -0.000079   0.000063   0.000028  -0.000301  -0.000073  -0.000068
    41  H    0.000028   0.000163   0.000006  -0.000141  -0.000101  -0.000004
    42  H   -0.000094   0.000443   0.000100  -0.001109  -0.000147  -0.000098
              13         14         15         16         17         18
     1  C    0.000499   0.458552   0.444826   0.395988  -0.060840  -0.019863
     2  C   -0.002513  -0.133644  -0.071539  -0.055779   0.430172   0.443290
     3  C    0.005885   0.030486  -0.023904   0.003067  -0.057482  -0.101487
     4  N    0.022389   0.000376   0.000948  -0.000376   0.002203   0.008689
     5  C    0.144542  -0.002100  -0.002926   0.003677  -0.000273  -0.004584
     6  O    0.133713   0.000001  -0.000045   0.000003  -0.000117  -0.000105
     7  N    0.086384   0.000013   0.000029   0.000029  -0.000638   0.000556
     8  C   -2.881938  -0.000034  -0.000116   0.000124   0.000558  -0.002267
     9  C    2.770956  -0.000004  -0.000030  -0.000019  -0.000185  -0.000219
    10  C   -2.374449  -0.000004   0.000002   0.000012   0.000259   0.000123
    11  C   -1.695664  -0.000000   0.000000   0.000000   0.000012   0.000010
    12  C    0.836522  -0.000000  -0.000000   0.000000   0.000005  -0.000011
    13  C    9.406000   0.000000  -0.000001  -0.000001  -0.000004  -0.000016
    14  H    0.000000   0.510532  -0.028073  -0.027475  -0.003021  -0.002876
    15  H   -0.000001  -0.028073   0.515390  -0.033574  -0.004720   0.003737
    16  H   -0.000001  -0.027475  -0.033574   0.511939   0.003918  -0.004275
    17  H   -0.000004  -0.003021  -0.004720   0.003918   0.495768  -0.031653
    18  H   -0.000016  -0.002876   0.003737  -0.004275  -0.031653   0.467167
    19  H    0.000312  -0.000079  -0.000441   0.002895   0.004435  -0.005387
    20  H   -0.000748  -0.000078   0.002799  -0.000276  -0.005883   0.004034
    21  H   -0.000186   0.000000   0.000003  -0.000006  -0.000115   0.001914
    22  H    0.007192  -0.000000  -0.000000  -0.000000   0.000000   0.000004
    23  H   -0.035989   0.000000  -0.000000   0.000000   0.000000  -0.000000
    24  H   -0.001873   0.000000  -0.000000   0.000000   0.000000  -0.000000
    25  H    0.008827  -0.000000   0.000000   0.000000  -0.000000   0.000000
    26  C    0.597414  -0.000000  -0.000000   0.000000   0.000000  -0.000000
    27  H    0.291584  -0.000000   0.000000  -0.000000  -0.000000  -0.000000
    28  O   -0.087770  -0.000000  -0.000000   0.000000   0.000000  -0.000000
    29  C   -0.443407   0.000000   0.000000   0.000000   0.000000   0.000000
    30  H    0.033460   0.000000  -0.000000   0.000000  -0.000000   0.000000
    31  H    0.002631   0.000000   0.000000   0.000000  -0.000000   0.000000
    32  H    0.034684   0.000000   0.000000  -0.000000   0.000000  -0.000000
    33  O    0.000253  -0.000012  -0.000050   0.000037  -0.000136  -0.005578
    34  O    0.003361  -0.000000  -0.000000   0.000000   0.000070  -0.000100
    35  C   -0.004759  -0.000136  -0.000088   0.000071   0.000719  -0.001560
    36  C   -0.002605   0.000081  -0.000005  -0.000029  -0.000066  -0.000153
    37  C   -0.000486  -0.000000   0.000000  -0.000000  -0.000032  -0.000008
    38  H   -0.000003  -0.000000  -0.000000   0.000000   0.000000  -0.000000
    39  H   -0.000006  -0.000000  -0.000000   0.000000   0.000000  -0.000001
    40  H    0.000005   0.000000  -0.000000  -0.000000  -0.000000  -0.000000
    41  H   -0.000000   0.000000  -0.000000  -0.000000  -0.000000  -0.000000
    42  H    0.000010  -0.000000  -0.000000  -0.000000  -0.000000   0.000000
              19         20         21         22         23         24
     1  C   -0.019513  -0.000073   0.004702  -0.000119   0.000030  -0.000008
     2  C   -0.076245  -0.034088  -0.003244  -0.001015  -0.000079   0.000050
     3  C    0.422259   0.501457  -0.010675  -0.005736   0.005633  -0.001685
     4  N   -0.067392  -0.042889   0.144596   0.008304   0.002107   0.000016
     5  C    0.027026  -0.094095  -0.012368  -0.046566   0.049183  -0.023184
     6  O    0.001864  -0.001206   0.003078   0.003860  -0.007667   0.000141
     7  N   -0.000579  -0.000670   0.002464   0.098559  -0.017836  -0.011498
     8  C    0.007339  -0.007985   0.004445   0.012404  -0.017819   0.006313
     9  C    0.002626  -0.008654  -0.005635   0.058809   0.323447  -0.005970
    10  C   -0.000351   0.001579  -0.003163  -0.047976  -0.009321   0.338378
    11  C   -0.000011   0.000095  -0.000929  -0.000217  -0.008619  -0.050173
    12  C    0.000147  -0.000237  -0.000633   0.011208   0.016622   0.025475
    13  C    0.000312  -0.000748  -0.000186   0.007192  -0.035989  -0.001873
    14  H   -0.000079  -0.000078   0.000000  -0.000000   0.000000   0.000000
    15  H   -0.000441   0.002799   0.000003  -0.000000  -0.000000  -0.000000
    16  H    0.002895  -0.000276  -0.000006  -0.000000   0.000000   0.000000
    17  H    0.004435  -0.005883  -0.000115   0.000000   0.000000   0.000000
    18  H   -0.005387   0.004034   0.001914   0.000004  -0.000000  -0.000000
    19  H    0.545848  -0.048151   0.001205   0.000004  -0.000000   0.000000
    20  H   -0.048151   0.518326   0.001854   0.000009  -0.000001  -0.000000
    21  H    0.001205   0.001854   0.247964   0.009302   0.000001   0.000003
    22  H    0.000004   0.000009   0.009302   0.265455  -0.000205   0.007456
    23  H   -0.000000  -0.000001   0.000001  -0.000205   0.439971  -0.000106
    24  H    0.000000  -0.000000   0.000003   0.007456  -0.000106   0.436910
    25  H   -0.000000   0.000000   0.000000  -0.000011   0.000012  -0.002948
    26  C    0.000004  -0.000007  -0.000036   0.001132  -0.001902   0.013534
    27  H    0.000000   0.000000  -0.000000   0.000002  -0.003724   0.000015
    28  O    0.000000  -0.000000  -0.000000   0.000000   0.000031   0.000087
    29  C   -0.000000   0.000000   0.000000   0.000012   0.001169  -0.000040
    30  H   -0.000000   0.000000  -0.000000  -0.000000  -0.000002   0.000000
    31  H   -0.000000   0.000000  -0.000000   0.000000  -0.000000  -0.000000
    32  H    0.000000  -0.000000  -0.000000  -0.000000  -0.000002   0.000000
    33  O    0.000460  -0.000521   0.081261  -0.002471   0.000001  -0.000073
    34  O    0.000005  -0.000021   0.000003   0.094236   0.000004  -0.002606
    35  C    0.000108   0.001144  -0.004126  -0.009897   0.000077   0.000526
    36  C    0.000017   0.000073   0.020161   0.020247   0.000010   0.001573
    37  C   -0.000003   0.000009  -0.003426  -0.002774  -0.000001  -0.000444
    38  H    0.000000  -0.000000  -0.000005  -0.000027   0.000000   0.000000
    39  H   -0.000000  -0.000000  -0.000003  -0.000027   0.000000   0.000000
    40  H   -0.000000   0.000000  -0.000000  -0.000015   0.000000   0.000014
    41  H   -0.000000  -0.000000   0.000000   0.000000  -0.000000  -0.000000
    42  H    0.000000  -0.000000  -0.000000  -0.000015   0.000000   0.000021
              25         26         27         28         29         30
     1  C    0.000000  -0.000033  -0.000000  -0.000000   0.000000  -0.000000
     2  C    0.000000  -0.000054   0.000003   0.000000   0.000007  -0.000000
     3  C    0.000038  -0.006012  -0.000263  -0.000007   0.000078  -0.000001
     4  N    0.000022  -0.002440  -0.000057  -0.000001   0.000021  -0.000000
     5  C    0.003788  -0.145154  -0.014261  -0.000812   0.000923  -0.000094
     6  O   -0.000000   0.002294   0.000351   0.000000  -0.000278   0.000000
     7  N    0.000460  -0.009870  -0.001874  -0.000183  -0.000670  -0.000002
     8  C    0.032916  -0.452356   0.053174   0.016680  -0.036646   0.003624
     9  C    0.004156  -0.293621  -0.079235  -0.026323  -0.137051   0.020449
    10  C   -0.079391  -0.073664   0.004897   0.155566   0.159920  -0.004001
    11  C    0.312598   0.315591   0.032915   0.103747   0.086411  -0.011325
    12  C    0.068215  -2.484891  -0.024588  -0.377890  -0.227667  -0.020953
    13  C    0.008827   0.597414   0.291584  -0.087770  -0.443407   0.033460
    14  H   -0.000000  -0.000000  -0.000000  -0.000000   0.000000   0.000000
    15  H    0.000000  -0.000000   0.000000  -0.000000   0.000000  -0.000000
    16  H    0.000000   0.000000  -0.000000   0.000000   0.000000   0.000000
    17  H   -0.000000   0.000000  -0.000000   0.000000   0.000000  -0.000000
    18  H    0.000000  -0.000000  -0.000000  -0.000000   0.000000   0.000000
    19  H   -0.000000   0.000004   0.000000   0.000000  -0.000000  -0.000000
    20  H    0.000000  -0.000007   0.000000  -0.000000   0.000000   0.000000
    21  H    0.000000  -0.000036  -0.000000  -0.000000   0.000000  -0.000000
    22  H   -0.000011   0.001132   0.000002   0.000000   0.000012  -0.000000
    23  H    0.000012  -0.001902  -0.003724   0.000031   0.001169  -0.000002
    24  H   -0.002948   0.013534   0.000015   0.000087  -0.000040   0.000000
    25  H    0.473901  -0.064777  -0.000137   0.005153   0.008438  -0.000002
    26  C   -0.064777   8.444652   0.032662   0.483339  -0.713191  -0.061147
    27  H   -0.000137   0.032662   0.535245  -0.000591  -0.004884  -0.001401
    28  O    0.005153   0.483339  -0.000591   8.290885  -0.089574   0.002960
    29  C    0.008438  -0.713191  -0.004884  -0.089574   7.087186   0.379258
    30  H   -0.000002  -0.061147  -0.001401   0.002960   0.379258   0.482011
    31  H   -0.000004  -0.148434   0.000205   0.000529   0.456729  -0.021458
    32  H   -0.000002  -0.065094  -0.001393   0.002955   0.378822  -0.029360
    33  O   -0.000000  -0.000081  -0.000000  -0.000000  -0.000001  -0.000000
    34  O    0.000043  -0.000494  -0.000001   0.000008   0.000095  -0.000000
    35  C    0.000060  -0.001064  -0.000000   0.000007   0.000018  -0.000000
    36  C    0.000024  -0.001000  -0.000000  -0.000007  -0.000020   0.000000
    37  C   -0.000015   0.000352   0.000000  -0.000000  -0.000003  -0.000000
    38  H   -0.000000  -0.000000   0.000000  -0.000000  -0.000000  -0.000000
    39  H   -0.000000  -0.000000   0.000000  -0.000000  -0.000000  -0.000000
    40  H   -0.000000  -0.000004  -0.000000  -0.000000   0.000000  -0.000000
    41  H    0.000000   0.000000   0.000000   0.000000   0.000000  -0.000000
    42  H   -0.000000  -0.000007  -0.000000  -0.000000   0.000000  -0.000000
              31         32         33         34         35         36
     1  C    0.000000  -0.000000   0.008147  -0.001184  -0.005482   0.005991
     2  C    0.000000   0.000000  -0.003452  -0.005557  -0.005674  -0.007040
     3  C   -0.000000   0.000000   0.016491   0.000519   0.019365   0.043317
     4  N    0.000000  -0.000000  -0.033589   0.008478  -0.000359  -0.035122
     5  C    0.000001  -0.000008  -0.010544  -0.019348   0.001880  -0.038694
     6  O    0.000000   0.000000  -0.000197   0.000090  -0.001737  -0.001329
     7  N   -0.000001  -0.000000   0.003733   0.022834  -0.016153  -0.029080
     8  C   -0.000279   0.004626   0.003785  -0.349659   0.146647  -0.056338
     9  C    0.003026   0.022164  -0.004752  -0.030976  -0.010630  -0.031794
    10  C   -0.001766  -0.004226  -0.018527   0.305911  -0.111624   0.051191
    11  C   -0.022333  -0.012271  -0.006976   0.081130  -0.053125   0.009735
    12  C    0.060596  -0.019426  -0.001593   0.005333  -0.012360  -0.000931
    13  C    0.002631   0.034684   0.000253   0.003361  -0.004759  -0.002605
    14  H    0.000000   0.000000  -0.000012  -0.000000  -0.000136   0.000081
    15  H    0.000000   0.000000  -0.000050  -0.000000  -0.000088  -0.000005
    16  H    0.000000  -0.000000   0.000037   0.000000   0.000071  -0.000029
    17  H   -0.000000   0.000000  -0.000136   0.000070   0.000719  -0.000066
    18  H    0.000000  -0.000000  -0.005578  -0.000100  -0.001560  -0.000153
    19  H   -0.000000   0.000000   0.000460   0.000005   0.000108   0.000017
    20  H    0.000000  -0.000000  -0.000521  -0.000021   0.001144   0.000073
    21  H   -0.000000  -0.000000   0.081261   0.000003  -0.004126   0.020161
    22  H    0.000000  -0.000000  -0.002471   0.094236  -0.009897   0.020247
    23  H   -0.000000  -0.000002   0.000001   0.000004   0.000077   0.000010
    24  H   -0.000000   0.000000  -0.000073  -0.002606   0.000526   0.001573
    25  H   -0.000004  -0.000002  -0.000000   0.000043   0.000060   0.000024
    26  C   -0.148434  -0.065094  -0.000081  -0.000494  -0.001064  -0.001000
    27  H    0.000205  -0.001393  -0.000000  -0.000001  -0.000000  -0.000000
    28  O    0.000529   0.002955  -0.000000   0.000008   0.000007  -0.000007
    29  C    0.456729   0.378822  -0.000001   0.000095   0.000018  -0.000020
    30  H   -0.021458  -0.029360  -0.000000  -0.000000  -0.000000   0.000000
    31  H    0.459880  -0.021478   0.000000   0.000000   0.000000  -0.000000
    32  H   -0.021478   0.482143  -0.000000  -0.000000  -0.000000   0.000000
    33  O    0.000000  -0.000000   8.529396  -0.186287   0.541650  -0.308047
    34  O    0.000000  -0.000000  -0.186287   8.551603   0.249771  -0.105644
    35  C    0.000000  -0.000000   0.541650   0.249771   5.773620  -1.063865
    36  C   -0.000000   0.000000  -0.308047  -0.105644  -1.063865   7.723618
    37  C    0.000000   0.000000   0.035983   0.058539   0.027267  -0.396134
    38  H    0.000000  -0.000000  -0.001800   0.001177  -0.085472   0.452851
    39  H    0.000000  -0.000000  -0.002975   0.002261  -0.084787   0.456497
    40  H   -0.000000  -0.000000   0.000166  -0.005052  -0.008252  -0.053744
    41  H    0.000000  -0.000000  -0.000205   0.002078   0.036713  -0.084272
    42  H   -0.000000  -0.000000   0.000157  -0.005095  -0.006255  -0.058986
              37         38         39         40         41         42
     1  C   -0.001024   0.000102   0.000006   0.000001   0.000000   0.000002
     2  C   -0.000533   0.000374  -0.000107   0.000016   0.000004   0.000029
     3  C   -0.004836   0.000000   0.000295  -0.000009  -0.000008  -0.000005
     4  N    0.004750  -0.000246  -0.000134  -0.000016  -0.000005  -0.000007
     5  C    0.001454  -0.000200  -0.000358   0.000007   0.000022   0.000101
     6  O    0.000067  -0.000000  -0.000000  -0.000000   0.000000  -0.000000
     7  N    0.004221   0.000114   0.000125  -0.000079   0.000028  -0.000094
     8  C   -0.035631  -0.000519  -0.001123   0.000063   0.000163   0.000443
     9  C   -0.001963  -0.000064  -0.000147   0.000028   0.000006   0.000100
    10  C    0.015839   0.000353   0.001125  -0.000301  -0.000141  -0.001109
    11  C    0.023773  -0.000047   0.000053  -0.000073  -0.000101  -0.000147
    12  C    0.002843  -0.000008  -0.000003  -0.000068  -0.000004  -0.000098
    13  C   -0.000486  -0.000003  -0.000006   0.000005  -0.000000   0.000010
    14  H   -0.000000  -0.000000  -0.000000   0.000000   0.000000  -0.000000
    15  H    0.000000  -0.000000  -0.000000  -0.000000  -0.000000  -0.000000
    16  H   -0.000000   0.000000   0.000000  -0.000000  -0.000000  -0.000000
    17  H   -0.000032   0.000000   0.000000  -0.000000  -0.000000  -0.000000
    18  H   -0.000008  -0.000000  -0.000001  -0.000000  -0.000000   0.000000
    19  H   -0.000003   0.000000  -0.000000  -0.000000  -0.000000   0.000000
    20  H    0.000009  -0.000000  -0.000000   0.000000  -0.000000  -0.000000
    21  H   -0.003426  -0.000005  -0.000003  -0.000000   0.000000  -0.000000
    22  H   -0.002774  -0.000027  -0.000027  -0.000015   0.000000  -0.000015
    23  H   -0.000001   0.000000   0.000000   0.000000  -0.000000   0.000000
    24  H   -0.000444   0.000000   0.000000   0.000014  -0.000000   0.000021
    25  H   -0.000015  -0.000000  -0.000000  -0.000000   0.000000  -0.000000
    26  C    0.000352  -0.000000  -0.000000  -0.000004   0.000000  -0.000007
    27  H    0.000000   0.000000   0.000000  -0.000000   0.000000  -0.000000
    28  O   -0.000000  -0.000000  -0.000000  -0.000000   0.000000  -0.000000
    29  C   -0.000003  -0.000000  -0.000000   0.000000   0.000000   0.000000
    30  H   -0.000000  -0.000000  -0.000000  -0.000000  -0.000000  -0.000000
    31  H    0.000000   0.000000   0.000000  -0.000000   0.000000  -0.000000
    32  H    0.000000  -0.000000  -0.000000  -0.000000  -0.000000  -0.000000
    33  O    0.035983  -0.001800  -0.002975   0.000166  -0.000205   0.000157
    34  O    0.058539   0.001177   0.002261  -0.005052   0.002078  -0.005095
    35  C    0.027267  -0.085472  -0.084787  -0.008252   0.036713  -0.006255
    36  C   -0.396134   0.452851   0.456497  -0.053744  -0.084272  -0.058986
    37  C    5.858814  -0.048203  -0.052305   0.419333   0.385814   0.423303
    38  H   -0.048203   0.505721  -0.030322  -0.003936  -0.002056   0.003700
    39  H   -0.052305  -0.030322   0.505597   0.003703  -0.002040  -0.003919
    40  H    0.419333  -0.003936   0.003703   0.487966  -0.030050  -0.026907
    41  H    0.385814  -0.002056  -0.002040  -0.030050   0.552202  -0.030035
    42  H    0.423303   0.003700  -0.003919  -0.026907  -0.030035   0.487577
 Mulliken charges:
               1
     1  C   -0.780832
     2  C   -0.329846
     3  C   -0.228772
     4  N   -0.770190
     5  C    0.765524
     6  O   -0.611829
     7  N   -0.650890
     8  C   -0.095278
     9  C   -0.465645
    10  C   -0.228344
    11  C   -0.074328
    12  C    0.735404
    13  C   -0.854206
    14  H    0.197494
    15  H    0.197779
    16  H    0.200048
    17  H    0.227047
    18  H    0.250619
    19  H    0.201599
    20  H    0.214202
    21  H    0.521593
    22  H    0.518876
    23  H    0.264976
    24  H    0.270096
    25  H    0.228637
    26  C    0.634355
    27  H    0.181358
    28  O   -0.478789
    29  C   -0.905656
    30  H    0.227982
    31  H    0.232157
    32  H    0.227864
    33  O   -0.633655
    34  O   -0.675527
    35  C    0.687760
    36  C   -0.510479
    37  C   -0.714541
    38  H    0.208515
    39  H    0.208594
    40  H    0.217204
    41  H    0.171888
    42  H    0.217235
 Sum of Mulliken charges =  -1.00000
 Mulliken charges with hydrogens summed into heavy atoms:
               1
     1  C   -0.185511
     2  C    0.147820
     3  C    0.187029
     4  N   -0.248597
     5  C    0.765524
     6  O   -0.611829
     7  N   -0.132014
     8  C   -0.095278
     9  C   -0.200669
    10  C    0.041752
    11  C    0.154308
    12  C    0.735404
    13  C   -0.672848
    26  C    0.634355
    28  O   -0.478789
    29  C   -0.217652
    33  O   -0.633655
    34  O   -0.675527
    35  C    0.687760
    36  C   -0.093370
    37  C   -0.108214
         Mulliken charges condensed to fragments:
      1     -0.176994
      2     -0.823006
 Electronic spatial extent (au):  <R**2>=          10256.6636
 Charge=             -1.0000 electrons
 Dipole moment (field-independent basis, Debye):
    X=             -0.2403    Y=             -2.6158    Z=             -0.0505  Tot=              2.6273
 Quadrupole moment (field-independent basis, Debye-Ang):
   XX=           -188.4335   YY=           -156.6653   ZZ=           -132.4190
   XY=              9.5263   XZ=             -1.0808   YZ=              0.3483
 Traceless Quadrupole moment (field-independent basis, Debye-Ang):
   XX=            -29.2609   YY=              2.5073   ZZ=             26.7536
   XY=              9.5263   XZ=             -1.0808   YZ=              0.3483
 Octapole moment (field-independent basis, Debye-Ang**2):
  XXX=            146.6582  YYY=              4.5450  ZZZ=              0.5402  XYY=            -20.4191
  XXY=           -116.8161  XXZ=             -0.7028  XZZ=              8.8233  YZZ=              1.8784
  YYZ=             -0.4349  XYZ=             -0.8750
 Hexadecapole moment (field-independent basis, Debye-Ang**3):
 XXXX=         -12217.5304 YYYY=          -4116.4894 ZZZZ=           -190.6538 XXXY=            586.0137
 XXXZ=            -27.8923 YYYX=              9.6292 YYYZ=             10.3921 ZZZX=              1.7825
 ZZZY=             -0.5008 XXYY=          -2521.9782 XXZZ=          -1751.6587 YYZZ=           -655.3790
 XXYZ=             -3.7413 YYXZ=             -2.7821 ZZXY=             -2.4594
 N-N= 1.611774228147D+03 E-N=-5.559037184819D+03  KE= 9.859239058382D+02
 CPIOFr:  IOpCl= 0 IRwI=-1 IRwCP=  731 ICalc= -1 LCPTot=      306181 Len1MO=      786075 IndFrg=      306181
 CPIOFr:  IOpCl= 0 IRwI=-1 IRwCP=  731 ICalc=  0 LCPTot=      306181 Len1MO=      786075 IndFrg=     1092256
 Counterpoise: doing DCBS calculation for fragment   1 NewBq=T
 Basis read from rwf:  (6D, 7F)
 There are   441 symmetry adapted cartesian basis functions of A   symmetry.
 There are   441 symmetry adapted basis functions of A   symmetry.
   441 basis functions,   756 primitive gaussians,   441 cartesian basis functions
    59 alpha electrons       59 beta electrons
       nuclear repulsion energy      1012.2239858629 Hartrees.
 NAtoms=   42 NActive=   42 NUniq=   42 SFac= 1.00D+00 NAtFMM=   60 NAOKFM=F Big=F
 Integral buffers will be    131072 words long.
 Raffenetti 2 integral format.
 Two-electron integral symmetry is turned on.
 One-electron integrals computed using PRISM.
 NBasis=   441 RedAO= T EigKep=  1.49D-06  NBF=   441
 NBsUse=   439 1.00D-06 EigRej=  6.44D-07 NBFU=   439
 ExpMin= 4.38D-02 ExpMax= 5.48D+03 ExpMxC= 8.25D+02 IAcc=3 IRadAn=         5 AccDes= 0.00D+00
 Harris functional with IExCor= 1009 and IRadAn=       5 diagonalized for initial guess.
 HarFok:  IExCor= 1009 AccDes= 0.00D+00 IRadAn=         5 IDoV= 1 UseB2=F ITyADJ=14
 ICtDFT=  3500011 ScaDFX=  1.000000  1.000000  1.000000  1.000000
 FoFCou: FMM=F IPFlag=           0 FMFlag=      100000 FMFlg1=           0
         NFxFlg=           0 DoJE=T BraDBF=F KetDBF=T FulRan=T
         wScrn=  0.000000 ICntrl=     500 IOpCl=  0 I1Cent=   200000004 NGrid=           0
         NMat0=    1 NMatS0=      1 NMatT0=    0 NMatD0=    1 NMtDS0=    0 NMtDT0=    0
 Petite list used in FoFCou.
 Requested convergence on RMS density matrix=1.00D-08 within 128 cycles.
 Requested convergence on MAX density matrix=1.00D-06.
 Requested convergence on             energy=1.00D-06.
 No special actions if energy rises.
 SCF Done:  E(RM062X) =  -726.601837643     A.U. after   15 cycles
            NFock= 15  Conv=0.50D-08     -V/T= 2.0088

 **********************************************************************

            Population analysis using the SCF density.

 **********************************************************************

 Orbital symmetries:
       Occupied  (A) (A) (A) (A) (A) (A) (A) (A) (A) (A) (A) (A)
                 (A) (A) (A) (A) (A) (A) (A) (A) (A) (A) (A) (A)
                 (A) (A) (A) (A) (A) (A) (A) (A) (A) (A) (A) (A)
                 (A) (A) (A) (A) (A) (A) (A) (A) (A) (A) (A) (A)
                 (A) (A) (A) (A) (A) (A) (A) (A) (A) (A) (A)
       Virtual   (A) (A) (A) (A) (A) (A) (A) (A) (A) (A) (A) (A)
                 (A) (A) (A) (A) (A) (A) (A) (A) (A) (A) (A) (A)
                 (A) (A) (A) (A) (A) (A) (A) (A) (A) (A) (A) (A)
                 (A) (A) (A) (A) (A) (A) (A) (A) (A) (A) (A) (A)
                 (A) (A) (A) (A) (A) (A) (A) (A) (A) (A) (A) (A)
                 (A) (A) (A) (A) (A) (A) (A) (A) (A) (A) (A) (A)
                 (A) (A) (A) (A) (A) (A) (A) (A) (A) (A) (A) (A)
                 (A) (A) (A) (A) (A) (A) (A) (A) (A) (A) (A) (A)
                 (A) (A) (A) (A) (A) (A) (A) (A) (A) (A) (A) (A)
                 (A) (A) (A) (A) (A) (A) (A) (A) (A) (A) (A) (A)
                 (A) (A) (A) (A) (A) (A) (A) (A) (A) (A) (A) (A)
                 (A) (A) (A) (A) (A) (A) (A) (A) (A) (A) (A) (A)
                 (A) (A) (A) (A) (A) (A) (A) (A) (A) (A) (A) (A)
                 (A) (A) (A) (A) (A) (A) (A) (A) (A) (A) (A) (A)
                 (A) (A) (A) (A) (A) (A) (A) (A) (A) (A) (A) (A)
                 (A) (A) (A) (A) (A) (A) (A) (A) (A) (A) (A) (A)
                 (A) (A) (A) (A) (A) (A) (A) (A) (A) (A) (A) (A)
                 (A) (A) (A) (A) (A) (A) (A) (A) (A) (A) (A) (A)
                 (A) (A) (A) (A) (A) (A) (A) (A) (A) (A) (A) (A)
                 (A) (A) (A) (A) (A) (A) (A) (A) (A) (A) (A) (A)
                 (A) (A) (A) (A) (A) (A) (A) (A) (A) (A) (A) (A)
                 (A) (A) (A) (A) (A) (A) (A) (A) (A) (A) (A) (A)
                 (A) (A) (A) (A) (A) (A) (A) (A) (A) (A) (A) (A)
                 (A) (A) (A) (A) (A) (A) (A) (A) (A) (A) (A) (A)
                 (A) (A) (A) (A) (A) (A) (A) (A) (A) (A) (A) (A)
                 (A) (A) (A) (A) (A) (A) (A) (A) (A) (A) (A) (A)
                 (A) (A) (A) (A) (A) (A) (A) (A) (A) (A) (A) (A)
                 (A) (A) (A) (A) (A) (A) (A) (A) (A) (A) (A) (A)
                 (A) (A) (A) (A) (A) (A) (A) (A) (A) (A) (A) (A)
                 (A) (A) (A) (A) (A) (A) (A) (A) (A) (A) (A) (A)
                 (A) (A) (A) (A) (A) (A) (A) (A) (A) (A) (A) (A)
                 (A) (A) (A) (A) (A) (A) (A) (A)
 The electronic state is 1-A.
 Alpha  occ. eigenvalues --  -19.62977 -19.62245 -14.82121 -14.80646 -10.69922
 Alpha  occ. eigenvalues --  -10.63706 -10.61906 -10.59487 -10.56801 -10.56791
 Alpha  occ. eigenvalues --  -10.56582 -10.56449 -10.55796 -10.55452 -10.55409
 Alpha  occ. eigenvalues --  -10.54491  -1.18627  -1.15591  -1.07545  -1.04783
 Alpha  occ. eigenvalues --   -0.96319  -0.90353  -0.87000  -0.85387  -0.82733
 Alpha  occ. eigenvalues --   -0.79383  -0.73530  -0.71806  -0.70695  -0.67985
 Alpha  occ. eigenvalues --   -0.64051  -0.63692  -0.62264  -0.57401  -0.56469
 Alpha  occ. eigenvalues --   -0.54862  -0.53553  -0.53456  -0.52123  -0.51163
 Alpha  occ. eigenvalues --   -0.51152  -0.49537  -0.48763  -0.48242  -0.48070
 Alpha  occ. eigenvalues --   -0.46808  -0.45169  -0.44507  -0.44245  -0.42595
 Alpha  occ. eigenvalues --   -0.42167  -0.41451  -0.40993  -0.38096  -0.35368
 Alpha  occ. eigenvalues --   -0.33472  -0.31900  -0.31746  -0.27452
 Alpha virt. eigenvalues --   -0.02279  -0.02245   0.01325   0.01354   0.02192
 Alpha virt. eigenvalues --    0.02378   0.02618   0.02846   0.04168   0.04358
 Alpha virt. eigenvalues --    0.05114   0.05152   0.05558   0.05884   0.05958
 Alpha virt. eigenvalues --    0.06398   0.06807   0.07272   0.07414   0.07780
 Alpha virt. eigenvalues --    0.08363   0.08603   0.08827   0.09145   0.09682
 Alpha virt. eigenvalues --    0.10099   0.10357   0.10514   0.10638   0.11119
 Alpha virt. eigenvalues --    0.11574   0.11955   0.12551   0.12884   0.13152
 Alpha virt. eigenvalues --    0.14052   0.14228   0.14429   0.14793   0.15464
 Alpha virt. eigenvalues --    0.15756   0.16318   0.16706   0.16875   0.17407
 Alpha virt. eigenvalues --    0.17701   0.18288   0.18570   0.18894   0.19294
 Alpha virt. eigenvalues --    0.19662   0.19942   0.20559   0.20957   0.21149
 Alpha virt. eigenvalues --    0.21498   0.21651   0.22167   0.22478   0.23176
 Alpha virt. eigenvalues --    0.23587   0.23944   0.24133   0.24291   0.24760
 Alpha virt. eigenvalues --    0.25017   0.25711   0.25857   0.26214   0.26256
 Alpha virt. eigenvalues --    0.26825   0.27115   0.27681   0.27949   0.28188
 Alpha virt. eigenvalues --    0.28530   0.29211   0.29390   0.29436   0.30114
 Alpha virt. eigenvalues --    0.30417   0.30682   0.31282   0.31494   0.31548
 Alpha virt. eigenvalues --    0.32730   0.33325   0.33755   0.33870   0.34084
 Alpha virt. eigenvalues --    0.34359   0.34543   0.34680   0.35156   0.35591
 Alpha virt. eigenvalues --    0.36646   0.36948   0.37541   0.38012   0.38898
 Alpha virt. eigenvalues --    0.39294   0.39622   0.39818   0.40409   0.41223
 Alpha virt. eigenvalues --    0.41666   0.41839   0.43292   0.44548   0.44802
 Alpha virt. eigenvalues --    0.45347   0.46815   0.47184   0.48162   0.48836
 Alpha virt. eigenvalues --    0.49840   0.50783   0.51878   0.53069   0.54479
 Alpha virt. eigenvalues --    0.55175   0.56688   0.57983   0.58877   0.60801
 Alpha virt. eigenvalues --    0.61523   0.63523   0.64312   0.66658   0.68071
 Alpha virt. eigenvalues --    0.68772   0.69185   0.69986   0.70991   0.72757
 Alpha virt. eigenvalues --    0.73303   0.73846   0.73888   0.74513   0.74713
 Alpha virt. eigenvalues --    0.74902   0.75414   0.76270   0.76820   0.76949
 Alpha virt. eigenvalues --    0.78141   0.78548   0.78660   0.79806   0.80148
 Alpha virt. eigenvalues --    0.80420   0.81455   0.82695   0.83181   0.83708
 Alpha virt. eigenvalues --    0.85144   0.85446   0.86309   0.86851   0.87469
 Alpha virt. eigenvalues --    0.88195   0.89334   0.89825   0.90674   0.92521
 Alpha virt. eigenvalues --    0.93136   0.94482   0.96332   0.97006   0.97850
 Alpha virt. eigenvalues --    1.00632   1.00879   1.01337   1.01997   1.03086
 Alpha virt. eigenvalues --    1.03490   1.04055   1.05189   1.05300   1.07369
 Alpha virt. eigenvalues --    1.07605   1.08877   1.09935   1.12410   1.12624
 Alpha virt. eigenvalues --    1.13868   1.16353   1.17050   1.18225   1.18597
 Alpha virt. eigenvalues --    1.19438   1.19898   1.20259   1.22384   1.22944
 Alpha virt. eigenvalues --    1.24120   1.26926   1.27764   1.28000   1.28889
 Alpha virt. eigenvalues --    1.31377   1.31742   1.34209   1.34660   1.35798
 Alpha virt. eigenvalues --    1.37639   1.38243   1.38582   1.40081   1.40583
 Alpha virt. eigenvalues --    1.41342   1.42221   1.43450   1.44740   1.45695
 Alpha virt. eigenvalues --    1.46201   1.47021   1.48985   1.50104   1.50585
 Alpha virt. eigenvalues --    1.50965   1.52268   1.52750   1.55721   1.56522
 Alpha virt. eigenvalues --    1.57488   1.57843   1.59009   1.64015   1.70912
 Alpha virt. eigenvalues --    1.74096   1.77992   1.79796   1.81104   1.81442
 Alpha virt. eigenvalues --    1.85038   1.86150   1.86719   1.87922   1.89076
 Alpha virt. eigenvalues --    1.90454   1.90596   1.92752   1.94369   1.94745
 Alpha virt. eigenvalues --    1.95935   1.96319   1.97651   2.00095   2.01792
 Alpha virt. eigenvalues --    2.02054   2.04066   2.04847   2.05490   2.06528
 Alpha virt. eigenvalues --    2.07677   2.09687   2.11189   2.11356   2.11717
 Alpha virt. eigenvalues --    2.13498   2.14511   2.14819   2.16099   2.17207
 Alpha virt. eigenvalues --    2.18341   2.19574   2.20678   2.21296   2.22169
 Alpha virt. eigenvalues --    2.23459   2.24518   2.27040   2.29463   2.30938
 Alpha virt. eigenvalues --    2.33988   2.34300   2.34745   2.35500   2.37065
 Alpha virt. eigenvalues --    2.37430   2.38551   2.40177   2.40400   2.41117
 Alpha virt. eigenvalues --    2.42511   2.43458   2.48062   2.49192   2.51802
 Alpha virt. eigenvalues --    2.53379   2.54407   2.58099   2.59559   2.60419
 Alpha virt. eigenvalues --    2.62243   2.63249   2.63607   2.65696   2.67551
 Alpha virt. eigenvalues --    2.68242   2.68929   2.70093   2.72097   2.72819
 Alpha virt. eigenvalues --    2.75247   2.75701   2.77127   2.78755   2.80027
 Alpha virt. eigenvalues --    2.81329   2.82877   2.84094   2.86021   2.87026
 Alpha virt. eigenvalues --    2.87689   2.90893   2.95571   2.96381   2.98914
 Alpha virt. eigenvalues --    3.01754   3.03824   3.05673   3.06453   3.12243
 Alpha virt. eigenvalues --    3.14543   3.14890   3.17047   3.22354   3.24825
 Alpha virt. eigenvalues --    3.25190   3.28554   3.32118   3.34311   3.37776
 Alpha virt. eigenvalues --    3.45350   3.52606   3.55827   3.64105   3.70334
 Alpha virt. eigenvalues --    3.76577   3.77503   3.85400   3.86789   4.05451
 Alpha virt. eigenvalues --    4.16147   4.23615   4.24273   4.26969   4.28380
 Alpha virt. eigenvalues --    4.30903   4.32241   4.37645   4.41938   4.43052
 Alpha virt. eigenvalues --    4.45217   4.46349   4.47597   4.50379   4.54134
 Alpha virt. eigenvalues --    4.56372   4.61033   4.66652   4.67725   4.72670
 Alpha virt. eigenvalues --    4.79158   4.79706   4.86323   5.21313   5.22118
 Alpha virt. eigenvalues --    5.26613   5.58213   5.68936   6.46519   6.50198
 Alpha virt. eigenvalues --   23.87062  24.10915  24.29388  38.25321  38.82081
          Condensed to atoms (all electrons):
               1          2          3          4          5          6
     1  C    5.657921  -0.052123   0.000078  -0.012012  -0.026641   0.001129
     2  C   -0.052123   6.154706  -0.410215  -0.071575   0.175853   0.016024
     3  C    0.000078  -0.410215   6.917422   0.373104  -0.735486  -0.080126
     4  N   -0.012012  -0.071575   0.373104   7.716220   0.311977  -0.161939
     5  C   -0.026641   0.175853  -0.735486   0.311977   6.178409   0.626708
     6  O    0.001129   0.016024  -0.080126  -0.161939   0.626708   8.229432
     7  N    0.000053   0.020521  -0.136201  -0.403906   0.204092  -0.044597
     8  C   -0.004985   0.019807  -0.264835  -0.185609  -0.667384  -0.516088
     9  C    0.001209  -0.010555  -0.055270   0.087915  -0.090223   0.488549
    10  C   -0.003267   0.004337  -0.074800  -0.109366  -0.229689  -0.143136
    11  C   -0.000427   0.000437  -0.023426  -0.033292  -0.314611  -0.025761
    12  C   -0.000221  -0.000094  -0.020951   0.002411  -0.161056   0.014833
    13  C    0.000481  -0.001893   0.015207   0.043827   0.192849   0.143132
    14  H    0.434292  -0.101342   0.023750   0.000784  -0.002456   0.000005
    15  H    0.428535  -0.061369  -0.016531   0.001150  -0.003486  -0.000045
    16  H    0.408173  -0.066599  -0.002996  -0.000054   0.008422  -0.000017
    17  H   -0.013961   0.408001  -0.086180   0.003132   0.005610  -0.000204
    18  H   -0.024272   0.411998  -0.081241   0.006695  -0.003757  -0.000145
    19  H   -0.002107  -0.069532   0.425252  -0.057092   0.003627  -0.001046
    20  H    0.002304  -0.044141   0.472767  -0.033397  -0.064584  -0.003896
    21  H   -0.000910   0.002803  -0.059482   0.205875   0.016759   0.002800
    22  H   -0.000095  -0.000564  -0.004668   0.028672  -0.051035   0.004008
    23  H    0.000026  -0.000064   0.005103   0.001660   0.043081  -0.005451
    24  H   -0.000009   0.000048  -0.001833   0.000485  -0.026222   0.000133
    25  H    0.000000   0.000000   0.000032   0.000018   0.003352   0.000001
    26  C   -0.000017  -0.000035  -0.003509  -0.000831  -0.093667   0.001472
    27  H   -0.000000   0.000003  -0.000210  -0.000036  -0.011476   0.000266
    28  O   -0.000000   0.000000  -0.000004   0.000000  -0.000481  -0.000000
    29  C    0.000000   0.000008   0.000070   0.000030   0.002182  -0.000145
    30  H   -0.000000  -0.000000  -0.000001  -0.000000  -0.000190   0.000000
    31  H    0.000000   0.000000   0.000000   0.000000   0.000009   0.000000
    32  H   -0.000000   0.000000  -0.000000  -0.000000  -0.000051   0.000000
    33  O   -0.000491   0.001776  -0.005533   0.021446   0.010263   0.000187
    34  O    0.000255   0.000624   0.004381   0.008401   0.000225   0.000266
    35  C   -0.001887  -0.004112   0.008198  -0.011653  -0.009434   0.000632
    36  C   -0.000074  -0.002236   0.000405  -0.009939  -0.009318  -0.000123
    37  C   -0.000062  -0.000519   0.000360   0.000636   0.001130  -0.000002
    38  H   -0.000000   0.000006   0.000004  -0.000002  -0.000013  -0.000000
    39  H    0.000000   0.000009  -0.000004  -0.000001  -0.000016  -0.000000
    40  H    0.000000   0.000001   0.000001   0.000001  -0.000006  -0.000000
    41  H    0.000000   0.000000   0.000001   0.000001  -0.000000  -0.000000
    42  H    0.000000   0.000000   0.000002   0.000002  -0.000001   0.000000
               7          8          9         10         11         12
     1  C    0.000053  -0.004985   0.001209  -0.003267  -0.000427  -0.000221
     2  C    0.020521   0.019807  -0.010555   0.004337   0.000437  -0.000094
     3  C   -0.136201  -0.264835  -0.055270  -0.074800  -0.023426  -0.020951
     4  N   -0.403906  -0.185609   0.087915  -0.109366  -0.033292   0.002411
     5  C    0.204092  -0.667384  -0.090223  -0.229689  -0.314611  -0.161056
[...]
              25         26         27         28         29         30
     1  C    0.000000  -0.000011  -0.000000  -0.000000   0.000000  -0.000000
     2  C   -0.000000   0.000006   0.000002   0.000000   0.000009  -0.000000
     3  C    0.000034  -0.003390  -0.000099  -0.000001   0.000249  -0.000001
     4  N    0.000012   0.000378  -0.000011   0.000002   0.000156  -0.000000
     5  C    0.003680  -0.104675  -0.004731   0.000069   0.011891  -0.000200
     6  O    0.000000   0.001114   0.000194  -0.000000  -0.000050   0.000000
     7  N    0.000256  -0.005465  -0.001219  -0.000070  -0.000202  -0.000007
     8  C    0.041898  -0.336527   0.019956   0.026285   0.044414   0.001538
     9  C    0.009344  -0.110738  -0.093184  -0.021881  -0.127407   0.013199
    10  C   -0.124272   0.419354  -0.043527   0.050571  -0.123707   0.001045
    11  C    0.368250  -0.739687   0.094187   0.234279   0.597340  -0.012732
    12  C    0.053679  -1.998265   0.086821  -0.371159   0.054128  -0.026719
    13  C   -0.008711   1.170130   0.258208  -0.120064  -0.765766   0.037505
    14  H   -0.000000  -0.000000  -0.000000  -0.000000  -0.000000   0.000000
    15  H    0.000000  -0.000000   0.000000  -0.000000   0.000000  -0.000000
    16  H    0.000000   0.000000   0.000000   0.000000   0.000000   0.000000
    17  H    0.000000   0.000000  -0.000000   0.000000   0.000000  -0.000000
    18  H    0.000000  -0.000000   0.000000  -0.000000   0.000000   0.000000
    19  H   -0.000000   0.000003  -0.000000   0.000000  -0.000000   0.000000
    20  H    0.000000  -0.000006  -0.000000  -0.000000   0.000000   0.000000
    21  H   -0.000000  -0.000013  -0.000000   0.000000   0.000000  -0.000000
    22  H   -0.000018   0.001521   0.000003   0.000002   0.000051  -0.000000
    23  H    0.000011   0.002797  -0.003398   0.000030   0.000766  -0.000002
    24  H   -0.003406   0.007773   0.000017   0.000178   0.000317  -0.000000
    25  H    0.452376  -0.057934  -0.000124   0.005949   0.011460  -0.000002
    26  C   -0.057934   7.947179  -0.028543   0.458581  -0.998997  -0.043827
    27  H   -0.000124  -0.028543   0.500754  -0.000378   0.008723  -0.001264
    28  O    0.005949   0.458581  -0.000378   8.242973  -0.065283   0.002482
    29  C    0.011460  -0.998997   0.008723  -0.065283   7.059752   0.367865
    30  H   -0.000002  -0.043827  -0.001264   0.002482   0.367865   0.475837
    31  H   -0.000004  -0.129117   0.000168   0.000030   0.442981  -0.019449
    32  H   -0.000002  -0.052016  -0.001256   0.002522   0.368244  -0.029363
              31         32
     1  C    0.000000  -0.000000
     2  C    0.000000   0.000000
     3  C    0.000000  -0.000000
     4  N    0.000000  -0.000000
     5  C    0.000008  -0.000063
     6  O    0.000000   0.000000
     7  N   -0.000000  -0.000004
     8  C    0.000047   0.002549
     9  C    0.002817   0.013842
    10  C   -0.002271   0.000203
    11  C   -0.017950  -0.011370
    12  C    0.052502  -0.019357
    13  C    0.002256   0.035583
    14  H    0.000000   0.000000
    15  H    0.000000  -0.000000
    16  H    0.000000   0.000000
    17  H   -0.000000   0.000000
    18  H    0.000000  -0.000000
    19  H    0.000000   0.000000
    20  H    0.000000  -0.000000
    21  H   -0.000000   0.000000
    22  H    0.000000  -0.000000
    23  H   -0.000000  -0.000002
    24  H   -0.000000  -0.000000
    25  H   -0.000004  -0.000002
    26  C   -0.129117  -0.052016
    27  H    0.000168  -0.001256
    28  O    0.000030   0.002522
    29  C    0.442981   0.368244
    30  H   -0.019449  -0.029363
    31  H    0.437454  -0.019458
    32  H   -0.019458   0.475871
 Mulliken charges:
               1
     1  C   -0.725897
     2  C   -0.354155
     3  C   -0.140100
     4  N   -0.671093
     5  C    0.879483
     6  O   -0.585419
     7  N   -0.591583
     8  C   -0.045747
     9  C    0.272340
    10  C   -1.274210
    11  C    0.243543
    12  C    0.466751
    13  C   -0.728120
    14  H    0.215434
    15  H    0.216545
    16  H    0.216106
    17  H    0.224976
    18  H    0.210908
    19  H    0.224765
    20  H    0.240134
    21  H    0.400063
    22  H    0.400175
    23  H    0.273624
    24  H    0.188767
    25  H    0.247523
    26  C    0.600375
    27  H    0.208703
    28  O   -0.445117
    29  C   -0.886935
    30  H    0.234097
    31  H    0.249985
    32  H    0.234077
    33  O    0.000000
    34  O    0.000000
    35  C    0.000000
    36  C    0.000000
    37  C    0.000000
    38  H    0.000000
    39  H    0.000000
    40  H    0.000000
    41  H    0.000000
    42  H    0.000000
 Sum of Mulliken charges =  -0.00000
 Mulliken charges with hydrogens summed into heavy atoms:
               1
     1  C   -0.077812
     2  C    0.081728
     3  C    0.324798
     4  N   -0.271029
     5  C    0.879483
     6  O   -0.585419
     7  N   -0.191408
     8  C   -0.045747
     9  C    0.545964
    10  C   -1.085442
    11  C    0.491066
    12  C    0.466751
    13  C   -0.519416
    26  C    0.600375
    28  O   -0.445117
    29  C   -0.168775
    33  O    0.000000
    34  O    0.000000
    35  C    0.000000
    36  C    0.000000
    37  C    0.000000
         Mulliken charges condensed to fragments:
      1     -0.000000
      2      0.000000
 Electronic spatial extent (au):  <R**2>=           7752.2333
 Charge=             -0.0000 electrons
 Dipole moment (field-independent basis, Debye):
    X=              6.1592    Y=              0.4835    Z=              0.0570  Tot=              6.1785
 Quadrupole moment (field-independent basis, Debye-Ang):
   XX=           -101.0076   YY=           -102.0310   ZZ=            -99.6594
   XY=             14.4059   XZ=             -0.2568   YZ=              0.2144
 Traceless Quadrupole moment (field-independent basis, Debye-Ang):
   XX=             -0.1082   YY=             -1.1317   ZZ=              1.2399
   XY=             14.4059   XZ=             -0.2568   YZ=              0.2144
 Octapole moment (field-independent basis, Debye-Ang**2):
  XXX=            411.8825  YYY=            301.4355  ZZZ=              3.0588  XYY=             88.2417
  XXY=            -34.1697  XXZ=              3.1900  XZZ=             83.7104  YZZ=             92.4976
  YYZ=             -0.6771  XYZ=              0.6127
 Hexadecapole moment (field-independent basis, Debye-Ang**3):
 XXXX=          -9377.5111 YYYY=          -1675.6064 ZZZZ=           -137.5597 XXXY=           1191.4974
 XXXZ=             -7.9571 YYYX=            659.9736 YYYZ=              9.3019 ZZZX=             12.9372
 ZZZY=              1.6244 XXYY=          -1727.6543 XXZZ=          -1499.2422 YYZZ=           -290.3891
 XXYZ=              4.5354 YYXZ=              0.0428 ZZXY=            211.0515
 N-N= 1.012223985863D+03 E-N=-3.713307898458D+03  KE= 7.202420933409D+02
 CPIOFr:  IOpCl= 0 IRwI=-1 IRwCP=  731 ICalc=  3 LCPTot=      306181 Len1MO=      786075 IndFrg=     3450481
 Counterpoise: doing MCBS calculation for fragment   2
 Basis read from rwf:  (6D, 7F)
 There are   105 symmetry adapted cartesian basis functions of A   symmetry.
 There are   105 symmetry adapted basis functions of A   symmetry.
   105 basis functions,   180 primitive gaussians,   105 cartesian basis functions
    20 alpha electrons       20 beta electrons
       nuclear repulsion energy       168.5449315512 Hartrees.
 NAtoms=   42 NActive=   10 NUniq=   10 SFac= 1.00D+00 NAtFMM=   60 NAOKFM=F Big=F
 Integral buffers will be    131072 words long.
 Raffenetti 2 integral format.
 Two-electron integral symmetry is turned on.
 One-electron integrals computed using PRISM.
 NBasis=   105 RedAO= T EigKep=  1.23D-04  NBF=   105
 NBsUse=   105 1.00D-06 EigRej= -1.00D+00 NBFU=   105
 ExpMin= 4.38D-02 ExpMax= 5.48D+03 ExpMxC= 8.25D+02 IAcc=3 IRadAn=         5 AccDes= 0.00D+00
 Harris functional with IExCor= 1009 and IRadAn=       5 diagonalized for initial guess.
 HarFok:  IExCor= 1009 AccDes= 0.00D+00 IRadAn=         5 IDoV= 1 UseB2=F ITyADJ=14
 ICtDFT=  3500011 ScaDFX=  1.000000  1.000000  1.000000  1.000000
 FoFCou: FMM=F IPFlag=           0 FMFlag=      100000 FMFlg1=           0
         NFxFlg=           0 DoJE=T BraDBF=F KetDBF=T FulRan=T
         wScrn=  0.000000 ICntrl=     500 IOpCl=  0 I1Cent=   200000004 NGrid=           0
         NMat0=    1 NMatS0=      1 NMatT0=    0 NMatD0=    1 NMtDS0=    0 NMtDT0=    0
 Petite list used in FoFCou.
 Keep R1 ints in memory in canonical form, NReq=16474548.
 Requested convergence on RMS density matrix=1.00D-08 within 128 cycles.
 Requested convergence on MAX density matrix=1.00D-06.
 Requested convergence on             energy=1.00D-06.
 No special actions if energy rises.
 SCF Done:  E(RM062X) =  -267.728527025     A.U. after   14 cycles
            NFock= 14  Conv=0.39D-08     -V/T= 2.0084

 **********************************************************************

            Population analysis using the SCF density.

 **********************************************************************

 Orbital symmetries:
       Occupied  (A) (A) (A) (A) (A) (A) (A) (A) (A) (A) (A) (A)
                 (A) (A) (A) (A) (A) (A) (A) (A)
       Virtual   (A) (A) (A) (A) (A) (A) (A) (A) (A) (A) (A) (A)
                 (A) (A) (A) (A) (A) (A) (A) (A) (A) (A) (A) (A)
                 (A) (A) (A) (A) (A) (A) (A) (A) (A) (A) (A) (A)
                 (A) (A) (A) (A) (A) (A) (A) (A) (A) (A) (A) (A)
                 (A) (A) (A) (A) (A) (A) (A) (A) (A) (A) (A) (A)
                 (A) (A) (A) (A) (A) (A) (A) (A) (A) (A) (A) (A)
                 (A) (A) (A) (A) (A) (A) (A) (A) (A) (A) (A) (A)
                 (A)
 The electronic state is 1-A.
 Alpha  occ. eigenvalues --  -19.38336 -19.37975 -10.43622 -10.38682 -10.37520
 Alpha  occ. eigenvalues --   -0.94241  -0.84543  -0.69903  -0.55998  -0.39478
 Alpha  occ. eigenvalues --   -0.36265  -0.33523  -0.30136  -0.27610  -0.27396
 Alpha  occ. eigenvalues --   -0.25024  -0.22647  -0.10898  -0.10842  -0.10185
 Alpha virt. eigenvalues --    0.14619   0.16488   0.18638   0.19565   0.21557
 Alpha virt. eigenvalues --    0.21832   0.22420   0.22882   0.23462   0.25914
 Alpha virt. eigenvalues --    0.28393   0.29742   0.30030   0.38006   0.38907
 Alpha virt. eigenvalues --    0.42275   0.42492   0.43637   0.45462   0.46255
 Alpha virt. eigenvalues --    0.46736   0.48001   0.49563   0.49779   0.50777
 Alpha virt. eigenvalues --    0.55087   0.56091   0.57224   0.71656   0.75257
 Alpha virt. eigenvalues --    0.84457   0.86650   0.89646   0.92072   0.94817
 Alpha virt. eigenvalues --    0.99495   1.01978   1.08493   1.10004   1.14582
 Alpha virt. eigenvalues --    1.20093   1.21323   1.31104   1.32733   1.33991
 Alpha virt. eigenvalues --    1.34596   1.49183   1.54750   1.57830   1.59145
 Alpha virt. eigenvalues --    1.61034   1.63177   1.63277   1.74396   1.78274
 Alpha virt. eigenvalues --    1.80800   1.86846   2.02643   2.02666   2.08631
 Alpha virt. eigenvalues --    2.10083   2.12068   2.14410   2.16431   2.22703
 Alpha virt. eigenvalues --    2.26507   2.28120   2.29479   2.45090   2.52373
 Alpha virt. eigenvalues --    2.54107   2.54317   2.73450   2.74139   2.78564
 Alpha virt. eigenvalues --    2.97762   3.13282   3.27267   3.32656   3.42477
 Alpha virt. eigenvalues --    4.36348   4.41512   4.58209   4.67005   4.82488
          Condensed to atoms (all electrons):
               1          2          3          4          5          6
     1  O    8.618281  -0.169328   0.529671  -0.393002   0.079583  -0.002850
     2  O   -0.169328   8.596431   0.462370  -0.324084   0.096391   0.001324
     3  C    0.529671   0.462370   4.834499  -0.360588   0.050622  -0.015253
     4  C   -0.393002  -0.324084  -0.360588   7.537700  -0.643482   0.388633
     5  C    0.079583   0.096391   0.050622  -0.643482   6.027218  -0.055871
     6  H   -0.002850   0.001324  -0.015253   0.388633  -0.055871   0.530453
     7  H   -0.002833   0.001316  -0.015111   0.388442  -0.055835  -0.032653
     8  H   -0.000101  -0.006637  -0.002694  -0.048509   0.411267  -0.004330
     9  H   -0.000313   0.002874   0.012337  -0.059810   0.378185  -0.002043
    10  H   -0.000106  -0.006618  -0.002853  -0.048191   0.411073   0.003864
               7          8          9         10
     1  O   -0.002833  -0.000101  -0.000313  -0.000106
     2  O    0.001316  -0.006637   0.002874  -0.006618
     3  C   -0.015111  -0.002694   0.012337  -0.002853
     4  C    0.388442  -0.048509  -0.059810  -0.048191
     5  C   -0.055835   0.411267   0.378185   0.411073
     6  H   -0.032653  -0.004330  -0.002043   0.003864
     7  H    0.530486   0.003865  -0.002017  -0.004356
     8  H    0.003865   0.498896  -0.033870  -0.025668
     9  H   -0.002017  -0.033870   0.588992  -0.033891
    10  H   -0.004356  -0.025668  -0.033891   0.499202
 Mulliken charges:
               1
     1  C    0.000000
     2  C    0.000000
     3  C    0.000000
     4  N    0.000000
     5  C    0.000000
     6  O    0.000000
     7  N    0.000000
     8  C    0.000000
     9  C    0.000000
    10  C    0.000000
    11  C    0.000000
    12  C    0.000000
    13  C    0.000000
    14  H    0.000000
    15  H    0.000000
    16  H    0.000000
    17  H    0.000000
    18  H    0.000000
    19  H    0.000000
    20  H    0.000000
    21  H    0.000000
    22  H    0.000000
    23  H    0.000000
    24  H    0.000000
    25  H    0.000000
    26  C    0.000000
    27  H    0.000000
    28  O    0.000000
    29  C    0.000000
    30  H    0.000000
    31  H    0.000000
    32  H    0.000000
    33  O   -0.659002
    34  O   -0.654039
    35  C    0.507001
    36  C   -0.437109
    37  C   -0.699152
    38  H    0.188727
    39  H    0.188696
    40  H    0.207779
    41  H    0.149555
    42  H    0.207544
 Sum of Mulliken charges =  -1.00000
 Mulliken charges with hydrogens summed into heavy atoms:
               1
     1  C    0.000000
     2  C    0.000000
     3  C    0.000000
     4  N    0.000000
     5  C    0.000000
     6  O    0.000000
     7  N    0.000000
     8  C    0.000000
     9  C    0.000000
    10  C    0.000000
    11  C    0.000000
    12  C    0.000000
    13  C    0.000000
    26  C    0.000000
    28  O    0.000000
    29  C    0.000000
    33  O   -0.659002
    34  O   -0.654039
    35  C    0.507001
    36  C   -0.059686
    37  C   -0.134274
         Mulliken charges condensed to fragments:
      1      0.000000
      2     -1.000000
 Electronic spatial extent (au):  <R**2>=           2488.3298
 Charge=             -1.0000 electrons
 Dipole moment (field-independent basis, Debye):
    X=            -10.9000    Y=             -8.2642    Z=             -0.1580  Tot=             13.6796
 Quadrupole moment (field-independent basis, Debye-Ang):
   XX=            -66.8901   YY=            -53.8338   ZZ=            -32.4402
   XY=            -15.8988   XZ=             -1.2196   YZ=              0.0831
 Traceless Quadrupole moment (field-independent basis, Debye-Ang):
   XX=            -15.8354   YY=             -2.7791   ZZ=             18.6145
   XY=            -15.8988   XZ=             -1.2196   YZ=              0.0831
 Octapole moment (field-independent basis, Debye-Ang**2):
  XXX=           -361.5047  YYY=           -377.3359  ZZZ=             -2.4981  XYY=           -117.2059
  XXY=           -145.2713  XXZ=             -6.0977  XZZ=            -78.7912  YZZ=            -96.7212
  YYZ=              0.1203  XYZ=             -1.3894
 Hexadecapole moment (field-independent basis, Debye-Ang**3):
 XXXX=          -1793.1261 YYYY=          -2570.5002 ZZZZ=            -51.2446 XXXY=           -868.5071
 XXXZ=            -32.0407 YYYX=           -850.0150 YYYZ=              1.5188 ZZZX=            -11.5197
 ZZZY=             -2.8765 XXYY=           -682.8203 XXZZ=           -228.8378 YYZZ=           -364.1014
 XXYZ=             -8.4548 YYXZ=             -5.1744 ZZXY=           -227.9407
 N-N= 1.685449315512D+02 E-N=-9.724321138518D+02  KE= 2.654888260913D+02
 CPIOFr:  IOpCl= 0 IRwI=-1 IRwCP=  731 ICalc=  4 LCPTot=      306181 Len1MO=      786075 IndFrg=     4236556
 CPIOFr:  IOpCl= 0 IRwI=-2 IRwCP=  731 ICalc=  0 LCPTot=      306181 Len1MO=      786075 IndFrg=     1092256
 Counterpoise corrected energy =    -994.404995595313
                   BSSE energy =       0.001706416390
               sum of monomers =    -994.329611490928
           complexation energy =     -48.38 kcal/mole (raw)
           complexation energy =     -47.30 kcal/mole (corrected)
 1\1\GINC-R3724\SP\RM062X\Gen\C15H21N2O4(1-)\ROOT\21-Feb-2019\0\\# M062
 X/Gen 6D SCF=Tight INT(grid=ultrafine) Counterpoise=2 maxdisk=67108864
 0\\4Ketone_EtO.M062X_6-31pGd_bsse\\-1,1\C,0,-2.1627190378,2.3810730064
 ,-0.1448982113\C,0,-0.8314187834,1.6361108591,-0.0815983684\C,0,0.3522
 822992,2.5968519067,-0.1141636488\N,0,1.5895618853,1.8561299617,-0.025
 2943607\C,0,2.7740181152,2.4894783184,-0.1920167348\O,0,2.8668590671,3
 .6881635027,-0.4691059554\N,0,3.8644964253,1.6420549506,-0.02315481\C,
 0,5.1978163336,1.9626183337,-0.1224055877\C,0,5.6977706486,3.245747435
 1,-0.4296618784\C,0,6.1203960114,0.9105636692,0.1031701911\C,0,7.47882
 40124,1.1369113938,0.0237186602\C,0,7.9877695382,2.4122782774,-0.28224
 14052\C,0,7.0689426249,3.4479198034,-0.5037523246\H,0,-3.0097474567,1.
 6872875627,-0.1282298195\H,0,-2.237180157,2.9800085385,-1.0606162506\H
 ,0,-2.272554224,3.0636958975,0.7062294626\H,0,-0.7437753159,0.93660907
 96,-0.9215628014\H,0,-0.7751248106,1.0233966406,0.8255966957\H,0,0.273
 1908166,3.3202631319,0.7129679357\H,0,0.3449326086,3.1856016019,-1.041
 0773707\H,0,1.5445676118,0.8641565407,0.2756756349\H,0,3.6600200733,0.
 6476017026,0.2115201931\H,0,5.002174115,4.0548635619,-0.603897546\H,0,
 5.726544102,-0.0752620325,0.3401384855\H,0,8.1823108446,0.3275932087,0
 .1975065943\C,0,9.4488637856,2.6136731963,-0.3576944438\H,0,7.42307917
 03,4.4479205041,-0.7426186453\O,0,10.2447356432,1.7052292667,-0.162669
 862\C,0,9.9739042727,4.0033237572,-0.6901925433\H,0,9.6413872973,4.734
 0929719,0.0545617552\H,0,11.0642100117,3.966880077,-0.7044063299\H,0,9
 .6055570729,4.3361547553,-1.6662997069\O,0,1.2767446083,-0.8132858739,
 0.7966627199\O,0,3.5047465288,-1.036937838,0.6229763034\C,0,2.34600608
 65,-1.4726673864,0.8584726288\C,0,2.2091308456,-2.9506371039,1.2607859
 011\C,0,3.5273799121,-3.7121493768,1.3229052704\H,0,1.5181885058,-3.41
 481406,0.5460390042\H,0,1.6940143541,-2.9731139742,2.2292286989\H,0,4.
 0315701415,-3.690322169,0.3524751438\H,0,3.3688259377,-4.7584764096,1.
 6122341969\H,0,4.206868478,-3.2492871894,2.044353129\\Version=ES64L-G0
 9RevE.01\State=1-A\HF=-267.728527\RMSD=3.928e-09\Dipole=-0.186102,0.95
 38749,-0.2606058\Quadrupole=-23.6977542,4.9058856,18.7918686,0.5271923
 ,1.4644339,3.7498798\PG=C01 [X(C15H21N2O4)]\\@


 NEVER LOSE YOUR IGNORANCE, IT CAN'T BE REPLACED.
   -- ANDY CAPP
 Job cpu time:       0 days  1 hours 43 minutes 28.7 seconds.
 File lengths (MBytes):  RWF=    160 Int=      0 D2E=      0 Chk=     44 Scr=      1
 Normal termination of Gaussian 09 at Thu Feb 21 15:57:31 2019.
WARNING: pbs_rusage is deprecated and values produced may not be accurate


=============================================================================
                                     Resource usage:
                                       CPU time:              01:34:03
   JobId:    5976325.r-man2            Elapsed time:          00:24:24
   Project:             q95            Requested time:        48:00:00
   Service Units:      1.63 
                                       Max physical memory:      149MB
                                       Max virtual memory:       383MB
                                       Requested memory:           0MB

                                       Number of cpus:               4

                                       Max jobfs disk use:       0.2GB
                                       Requested jobfs:          5.0GB
=============================================================================

