 Entering Gaussian System, Link 0=/apps/gaussian/g09e01/g09/g09
 AtFile(1): /home/507/hio507/Basis/6-31pGd.gbs
 Initial command:
 /apps/gaussian/g09e01/g09/l1.exe "/jobfs/local/930615.r-man2/Gau-17647.inp" -scrdir="/jobfs/local/930615.r-man2/"
 Entering Link 1 = /apps/gaussian/g09e01/g09/l1.exe PID=     17648.
  
 Copyright (c) 1988,1990,1992,1993,1995,1998,2003,2009,2015,
            Gaussian, Inc.  All Rights Reserved.
  
 This is part of the Gaussian(R) 09 program.  It is based on
 the Gaussian(R) 03 system (copyright 2003, Gaussian, Inc.),
 the Gaussian(R) 98 system (copyright 1998, Gaussian, Inc.),
 the Gaussian(R) 94 system (copyright 1995, Gaussian, Inc.),
 the Gaussian 92(TM) system (copyright 1992, Gaussian, Inc.),
 the Gaussian 90(TM) system (copyright 1990, Gaussian, Inc.),
 the Gaussian 88(TM) system (copyright 1988, Gaussian, Inc.),
 the Gaussian 86(TM) system (copyright 1986, Carnegie Mellon
 University), and the Gaussian 82(TM) system (copyright 1983,
 Carnegie Mellon University). Gaussian is a federally registered
 trademark of Gaussian, Inc.
  
 This software contains proprietary and confidential information,
 including trade secrets, belonging to Gaussian, Inc.
  
 This software is provided under written license and may be
 used, copied, transmitted, or stored only in accord with that
 written license.
  
 The following legend is applicable only to US Government
 contracts under FAR:
  
                    RESTRICTED RIGHTS LEGEND
  
 Use, reproduction and disclosure by the US Government is
 subject to restrictions as set forth in subparagraphs (a)
 and (c) of the Commercial Computer Software - Restricted
 Rights clause in FAR 52.227-19.
  
 Gaussian, Inc.
 340 Quinnipiac St., Bldg. 40, Wallingford CT 06492
  
  
 ---------------------------------------------------------------
 Warning -- This program may not be used in any manner that
 competes with the business of Gaussian, Inc. or will provide
 assistance to any competitor of Gaussian, Inc.  The licensee
 of this program is prohibited from giving any competitor of
 Gaussian, Inc. access to this program.  By using this program,
 the user acknowledges that Gaussian, Inc. is engaged in the
 business of creating and licensing software in the field of
 computational chemistry and represents and warrants to the
 licensee that it is not a competitor of Gaussian, Inc. and that
 it will not use this program in any manner prohibited above.
 ---------------------------------------------------------------
  

 Cite this work as:
 Gaussian 09, Revision E.01,
 M. J. Frisch, G. W. Trucks, H. B. Schlegel, G. E. Scuseria, 
 M. A. Robb, J. R. Cheeseman, G. Scalmani, V. Barone, B. Mennucci, 
 G. A. Petersson, H. Nakatsuji, M. Caricato, X. Li, H. P. Hratchian, 
 A. F. Izmaylov, J. Bloino, G. Zheng, J. L. Sonnenberg, M. Hada, 
 M. Ehara, K. Toyota, R. Fukuda, J. Hasegawa, M. Ishida, T. Nakajima, 
 Y. Honda, O. Kitao, H. Nakai, T. Vreven, J. A. Montgomery, Jr., 
 J. E. Peralta, F. Ogliaro, M. Bearpark, J. J. Heyd, E. Brothers, 
 K. N. Kudin, V. N. Staroverov, T. Keith, R. Kobayashi, J. Normand, 
 K. Raghavachari, A. Rendell, J. C. Burant, S. S. Iyengar, J. Tomasi, 
 M. Cossi, N. Rega, J. M. Millam, M. Klene, J. E. Knox, J. B. Cross, 
 V. Bakken, C. Adamo, J. Jaramillo, R. Gomperts, R. E. Stratmann, 
 O. Yazyev, A. J. Austin, R. Cammi, C. Pomelli, J. W. Ochterski, 
 R. L. Martin, K. Morokuma, V. G. Zakrzewski, G. A. Voth, 
 P. Salvador, J. J. Dannenberg, S. Dapprich, A. D. Daniels, 
 O. Farkas, J. B. Foresman, J. V. Ortiz, J. Cioslowski, 
 and D. J. Fox, Gaussian, Inc., Wallingford CT, 2013.
 
 ******************************************
 Gaussian 09:  ES64L-G09RevE.01 30-Nov-2015
                 8-Oct-2018 
 ******************************************
 %chk=triclofen.M062X_6-31pGd_opt_water.chk
 ----------------------------------------------------------------------
 # M062X/Gen 6D SCF=Tight INT(grid=ultrafine) OPT IOP(2/17=4) SCRF=(SMD
 ,Solvent=h2o)
 ----------------------------------------------------------------------
 1/14=-1,18=20,19=15,26=4,38=1/1,3;
 2/9=110,12=2,17=4,18=5,40=1/2;
 3/5=7,8=2,11=2,16=1,25=1,30=1,70=32201,71=1,72=1,74=-55,75=-5/1,2,3;
 4//1;
 5/5=2,32=2,38=5,53=1/2;
 6/7=2,8=2,9=2,10=2,28=1/1;
 7//1,2,3,16;
 1/14=-1,18=20,19=15,26=4/3(2);
 2/9=110,17=4/2;
 99//99;
 2/9=110,17=4/2;
 3/5=7,6=1,8=2,11=2,16=1,25=1,30=1,70=32205,71=1,72=1,74=-55,75=-5,82=7/1,2,3;
 4/5=5,16=3,69=1/1;
 5/5=2,32=2,38=5,53=1/2;
 7//1,2,3,16;
 1/14=-1,18=20,19=15,26=4/3(-5);
 2/9=110,17=4/2;
 6/7=2,8=2,9=2,10=2,19=2,28=1/1;
 99/9=1/99;
 ---------------------------------
 triclofen.M062X_6-31pGd_opt_water
 ---------------------------------
 Symbolic Z-matrix:
 Charge =  0 Multiplicity = 1
 C                    -1.01842   2.55777  -0.07 
 C                    -0.75437   1.18233  -0.09883 
 C                     0.56638   0.72599  -0.03425 
 C                     1.65077   1.62134   0.05976 
 C                     1.36191   3.00764   0.08747 
 C                     0.041     3.46143   0.02298 
 Cl                   -2.05711   0.00642  -0.21522 
 Cl                   -2.66293   3.17592  -0.14845 
 N                     2.97601   1.06044   0.12179 
 C                     4.17159   1.72525   0.21011 
 O                     4.20115   2.94014   0.24388 
 N                     5.33337   0.9994    0.26046 
 H                     0.74881  -0.34155  -0.05787 
 H                     2.11457   3.77073   0.15799 
 H                    -0.15825   4.52569   0.04584 
 H                     3.02591   0.02995   0.09603 
 H                     5.23396  -0.02738   0.22993 
 C                     6.68381   1.49135   0.35303 
 C                     7.04023   2.86284   0.39865 
 C                     8.3825    3.24761   0.48879 
 C                     9.3922    2.28595   0.53532 
 C                     9.0614    0.93216   0.49135 
 C                     7.72364   0.5403    0.4011 
 Cl                    11.07215   2.77814   0.64854 
 H                     6.32582   3.66438   0.36719 
 H                     8.6366    4.29974   0.52241 
 H                     9.83967   0.18037   0.52699 
 H                     7.49727  -0.51829   0.36881 
 

 GradGradGradGradGradGradGradGradGradGradGradGradGradGradGradGradGradGrad
 Berny optimization.
 Initialization pass.
                           ----------------------------
                           !    Initial Parameters    !
                           ! (Angstroms and Degrees)  !
 --------------------------                            --------------------------
 ! Name  Definition              Value          Derivative Info.                !
 --------------------------------------------------------------------------------
 ! R1    R(1,2)                  1.4009         estimate D2E/DX2                !
 ! R2    R(1,6)                  1.3956         estimate D2E/DX2                !
 ! R3    R(1,8)                  1.7586         estimate D2E/DX2                !
 ! R4    R(2,3)                  1.3989         estimate D2E/DX2                !
 ! R5    R(2,7)                  1.7588         estimate D2E/DX2                !
 ! R6    R(3,4)                  1.4094         estimate D2E/DX2                !
 ! R7    R(3,13)                 1.0833         estimate D2E/DX2                !
 ! R8    R(4,5)                  1.4163         estimate D2E/DX2                !
 ! R9    R(4,9)                  1.4404         estimate D2E/DX2                !
 ! R10   R(5,6)                  1.3982         estimate D2E/DX2                !
 ! R11   R(5,14)                 1.0741         estimate D2E/DX2                !
 ! R12   R(6,15)                 1.083          estimate D2E/DX2                !
 ! R13   R(9,10)                 1.3708         estimate D2E/DX2                !
 ! R14   R(9,16)                 1.032          estimate D2E/DX2                !
 ! R15   R(10,11)                1.2157         estimate D2E/DX2                !
 ! R16   R(10,12)                1.3708         estimate D2E/DX2                !
 ! R17   R(12,17)                1.032          estimate D2E/DX2                !
 ! R18   R(12,18)                1.4402         estimate D2E/DX2                !
 ! R19   R(18,19)                1.4178         estimate D2E/DX2                !
 ! R20   R(18,23)                1.41           estimate D2E/DX2                !
 ! R21   R(19,20)                1.3992         estimate D2E/DX2                !
 ! R22   R(19,25)                1.0742         estimate D2E/DX2                !
 ! R23   R(20,21)                1.3952         estimate D2E/DX2                !
 ! R24   R(20,26)                1.0829         estimate D2E/DX2                !
 ! R25   R(21,22)                1.3943         estimate D2E/DX2                !
 ! R26   R(21,24)                1.7542         estimate D2E/DX2                !
 ! R27   R(22,23)                1.3969         estimate D2E/DX2                !
 ! R28   R(22,27)                1.0827         estimate D2E/DX2                !
 ! R29   R(23,28)                1.083          estimate D2E/DX2                !
 ! A1    A(2,1,6)              119.6074         estimate D2E/DX2                !
 ! A2    A(2,1,8)              121.3638         estimate D2E/DX2                !
 ! A3    A(6,1,8)              119.0288         estimate D2E/DX2                !
 ! A4    A(1,2,3)              119.8231         estimate D2E/DX2                !
 ! A5    A(1,2,7)              121.2115         estimate D2E/DX2                !
 ! A6    A(3,2,7)              118.9655         estimate D2E/DX2                !
 ! A7    A(2,3,4)              121.4853         estimate D2E/DX2                !
 ! A8    A(2,3,13)             118.6516         estimate D2E/DX2                !
 ! A9    A(4,3,13)             119.8631         estimate D2E/DX2                !
 ! A10   A(3,4,5)              117.7869         estimate D2E/DX2                !
 ! A11   A(3,4,9)              117.6058         estimate D2E/DX2                !
 ! A12   A(5,4,9)              124.6073         estimate D2E/DX2                !
 ! A13   A(4,5,6)              120.6271         estimate D2E/DX2                !
 ! A14   A(4,5,14)             123.623          estimate D2E/DX2                !
 ! A15   A(6,5,14)             115.7499         estimate D2E/DX2                !
 ! A16   A(1,6,5)              120.6702         estimate D2E/DX2                !
 ! A17   A(1,6,15)             119.8718         estimate D2E/DX2                !
 ! A18   A(5,6,15)             119.458          estimate D2E/DX2                !
 ! A19   A(4,9,10)             128.0506         estimate D2E/DX2                !
 ! A20   A(4,9,16)             115.61           estimate D2E/DX2                !
 ! A21   A(10,9,16)            116.3394         estimate D2E/DX2                !
 ! A22   A(9,10,11)            120.5063         estimate D2E/DX2                !
 ! A23   A(9,10,12)            118.9952         estimate D2E/DX2                !
 ! A24   A(11,10,12)           120.4985         estimate D2E/DX2                !
 ! A25   A(10,12,17)           116.3649         estimate D2E/DX2                !
 ! A26   A(10,12,18)           128.0368         estimate D2E/DX2                !
 ! A27   A(17,12,18)           115.5983         estimate D2E/DX2                !
 ! A28   A(12,18,19)           124.6256         estimate D2E/DX2                !
 ! A29   A(12,18,23)           117.5997         estimate D2E/DX2                !
 ! A30   A(19,18,23)           117.7747         estimate D2E/DX2                !
 ! A31   A(18,19,20)           120.6131         estimate D2E/DX2                !
 ! A32   A(18,19,25)           123.6208         estimate D2E/DX2                !
 ! A33   A(20,19,25)           115.7661         estimate D2E/DX2                !
 ! A34   A(19,20,21)           120.4549         estimate D2E/DX2                !
 ! A35   A(19,20,26)           119.6214         estimate D2E/DX2                !
 ! A36   A(21,20,26)           119.9237         estimate D2E/DX2                !
 ! A37   A(20,21,22)           119.7687         estimate D2E/DX2                !
 ! A38   A(20,21,24)           120.1214         estimate D2E/DX2                !
 ! A39   A(22,21,24)           120.1098         estimate D2E/DX2                !
 ! A40   A(21,22,23)           120.1069         estimate D2E/DX2                !
 ! A41   A(21,22,27)           120.1737         estimate D2E/DX2                !
 ! A42   A(23,22,27)           119.7194         estimate D2E/DX2                !
 ! A43   A(18,23,22)           121.2817         estimate D2E/DX2                !
 ! A44   A(18,23,28)           120.2744         estimate D2E/DX2                !
 ! A45   A(22,23,28)           118.4439         estimate D2E/DX2                !
 ! D1    D(6,1,2,3)              0.0043         estimate D2E/DX2                !
 ! D2    D(6,1,2,7)            179.9982         estimate D2E/DX2                !
 ! D3    D(8,1,2,3)           -179.9872         estimate D2E/DX2                !
 ! D4    D(8,1,2,7)              0.0067         estimate D2E/DX2                !
 ! D5    D(2,1,6,5)              0.0043         estimate D2E/DX2                !
 ! D6    D(2,1,6,15)          -179.9849         estimate D2E/DX2                !
 ! D7    D(8,1,6,5)            179.996          estimate D2E/DX2                !
 ! D8    D(8,1,6,15)             0.0068         estimate D2E/DX2                !
 ! D9    D(1,2,3,4)             -0.0139         estimate D2E/DX2                !
 ! D10   D(1,2,3,13)           179.9934         estimate D2E/DX2                !
 ! D11   D(7,2,3,4)            179.992          estimate D2E/DX2                !
 ! D12   D(7,2,3,13)            -0.0006         estimate D2E/DX2                !
 ! D13   D(2,3,4,5)              0.0144         estimate D2E/DX2                !
 ! D14   D(2,3,4,9)            179.9752         estimate D2E/DX2                !
 ! D15   D(13,3,4,5)          -179.993          estimate D2E/DX2                !
 ! D16   D(13,3,4,9)            -0.0323         estimate D2E/DX2                !
 ! D17   D(3,4,5,6)             -0.0056         estimate D2E/DX2                !
 ! D18   D(3,4,5,14)           179.9572         estimate D2E/DX2                !
 ! D19   D(9,4,5,6)           -179.9634         estimate D2E/DX2                !
 ! D20   D(9,4,5,14)            -0.0006         estimate D2E/DX2                !
 ! D21   D(3,4,9,10)           179.7334         estimate D2E/DX2                !
 ! D22   D(3,4,9,16)            -0.2544         estimate D2E/DX2                !
 ! D23   D(5,4,9,10)            -0.3088         estimate D2E/DX2                !
 ! D24   D(5,4,9,16)           179.7035         estimate D2E/DX2                !
 ! D25   D(4,5,6,1)             -0.0036         estimate D2E/DX2                !
 ! D26   D(4,5,6,15)           179.9856         estimate D2E/DX2                !
 ! D27   D(14,5,6,1)          -179.9692         estimate D2E/DX2                !
 ! D28   D(14,5,6,15)            0.0201         estimate D2E/DX2                !
 ! D29   D(4,9,10,11)           -0.0838         estimate D2E/DX2                !
 ! D30   D(4,9,10,12)          179.8836         estimate D2E/DX2                !
 ! D31   D(16,9,10,11)         179.9038         estimate D2E/DX2                !
 ! D32   D(16,9,10,12)          -0.1288         estimate D2E/DX2                !
 ! D33   D(9,10,12,17)          -0.1196         estimate D2E/DX2                !
 ! D34   D(9,10,12,18)         179.9751         estimate D2E/DX2                !
 ! D35   D(11,10,12,17)        179.8478         estimate D2E/DX2                !
 ! D36   D(11,10,12,18)         -0.0575         estimate D2E/DX2                !
 ! D37   D(10,12,18,19)         -0.5126         estimate D2E/DX2                !
 ! D38   D(10,12,18,23)        179.511          estimate D2E/DX2                !
 ! D39   D(17,12,18,19)        179.5815         estimate D2E/DX2                !
 ! D40   D(17,12,18,23)         -0.3949         estimate D2E/DX2                !
 ! D41   D(12,18,19,20)       -179.9956         estimate D2E/DX2                !
 ! D42   D(12,18,19,25)         -0.0388         estimate D2E/DX2                !
 ! D43   D(23,18,19,20)         -0.0193         estimate D2E/DX2                !
 ! D44   D(23,18,19,25)        179.9376         estimate D2E/DX2                !
 ! D45   D(12,18,23,22)       -179.9897         estimate D2E/DX2                !
 ! D46   D(12,18,23,28)         -0.016          estimate D2E/DX2                !
 ! D47   D(19,18,23,22)          0.0322         estimate D2E/DX2                !
 ! D48   D(19,18,23,28)       -179.9941         estimate D2E/DX2                !
 ! D49   D(18,19,20,21)         -0.0046         estimate D2E/DX2                !
 ! D50   D(18,19,20,26)        179.9894         estimate D2E/DX2                !
 ! D51   D(25,19,20,21)       -179.9647         estimate D2E/DX2                !
 ! D52   D(25,19,20,26)          0.0294         estimate D2E/DX2                !
 ! D53   D(19,20,21,22)          0.0163         estimate D2E/DX2                !
 ! D54   D(19,20,21,24)       -179.9916         estimate D2E/DX2                !
 ! D55   D(26,20,21,22)       -179.9777         estimate D2E/DX2                !
 ! D56   D(26,20,21,24)          0.0144         estimate D2E/DX2                !
 ! D57   D(20,21,22,23)         -0.0035         estimate D2E/DX2                !
 ! D58   D(20,21,22,27)        179.9973         estimate D2E/DX2                !
 ! D59   D(24,21,22,23)       -179.9956         estimate D2E/DX2                !
 ! D60   D(24,21,22,27)          0.0053         estimate D2E/DX2                !
 ! D61   D(21,22,23,18)         -0.0213         estimate D2E/DX2                !
 ! D62   D(21,22,23,28)       -179.9954         estimate D2E/DX2                !
 ! D63   D(27,22,23,18)        179.9778         estimate D2E/DX2                !
 ! D64   D(27,22,23,28)          0.0037         estimate D2E/DX2                !
 --------------------------------------------------------------------------------
 Trust Radius=3.00D-01 FncErr=1.00D-07 GrdErr=1.00D-06
 Number of steps in this run=    148 maximum allowed number of steps=    168.
 GradGradGradGradGradGradGradGradGradGradGradGradGradGradGradGradGradGrad

                          Input orientation:                          
 ---------------------------------------------------------------------
 Center     Atomic      Atomic             Coordinates (Angstroms)
 Number     Number       Type             X           Y           Z
 ---------------------------------------------------------------------
      1          6           0       -1.018420    2.557770   -0.070000
      2          6           0       -0.754370    1.182330   -0.098830
      3          6           0        0.566380    0.725990   -0.034250
      4          6           0        1.650770    1.621340    0.059760
      5          6           0        1.361910    3.007640    0.087470
      6          6           0        0.041000    3.461430    0.022980
      7         17           0       -2.057110    0.006420   -0.215220
      8         17           0       -2.662930    3.175920   -0.148450
      9          7           0        2.976010    1.060440    0.121790
     10          6           0        4.171590    1.725250    0.210110
     11          8           0        4.201150    2.940140    0.243880
     12          7           0        5.333370    0.999400    0.260460
     13          1           0        0.748810   -0.341550   -0.057870
     14          1           0        2.114570    3.770730    0.157990
     15          1           0       -0.158250    4.525690    0.045840
     16          1           0        3.025910    0.029950    0.096030
     17          1           0        5.233960   -0.027380    0.229930
     18          6           0        6.683810    1.491350    0.353030
     19          6           0        7.040230    2.862840    0.398650
     20          6           0        8.382500    3.247610    0.488790
     21          6           0        9.392200    2.285950    0.535320
     22          6           0        9.061400    0.932160    0.491350
     23          6           0        7.723640    0.540300    0.401100
     24         17           0       11.072150    2.778140    0.648540
     25          1           0        6.325820    3.664380    0.367190
     26          1           0        8.636600    4.299740    0.522410
     27          1           0        9.839670    0.180370    0.526990
     28          1           0        7.497270   -0.518290    0.368810
 ---------------------------------------------------------------------
                    Distance matrix (angstroms):
                    1          2          3          4          5
     1  C    0.000000
     2  C    1.400853   0.000000
     3  C    2.422455   1.398856   0.000000
     4  C    2.831663   2.450016   1.409394   0.000000
     5  C    2.427581   2.800912   2.419424   1.416346   0.000000
     6  C    1.395571   2.416971   2.786024   2.445126   1.398173
     7  Cl   2.758505   1.758818   2.726395   4.053635   4.559456
     8  Cl   1.758601   2.760338   4.055076   4.589998   4.035259
     9  N    4.270158   3.738886   2.437729   1.440388   2.529444
    10  C    5.263816   4.965409   3.749103   2.527437   3.090933
    11  O    5.242961   5.269205   4.265134   2.877077   2.844346
    12  N    6.548508   6.101076   4.783911   3.740138   4.453700
    13  H    3.395483   2.140897   1.083273   2.163401   3.407945
    14  H    3.367325   3.872543   3.421153   2.201054   1.074140
    15  H    2.150819   3.399168   3.869008   3.421695   2.148743
    16  H    4.772216   3.956825   2.559440   2.103532   3.411101
    17  H    6.772386   6.118135   4.735363   3.947972   4.921830
    18  C    7.787204   7.458297   6.177274   5.043253   5.540061
    19  C    8.078028   7.989205   6.831125   5.540979   5.688683
    20  C    9.442744   9.385791   8.229451   6.938661   7.036144
    21  C   10.431745  10.226094   8.980701   7.784446   8.075083
    22  C   10.225483   9.836678   8.513761   7.455111   7.984540
    23  C    8.984194   8.516970   7.172892   6.177776   6.830647
    24  Cl  12.113907  11.957079  10.726077   9.510376   9.729143
    25  H    7.439999   7.517103   6.478151   5.111225   5.014973
    26  H    9.828775   9.914358   8.843642   7.495978   7.401338
    27  H   11.131332  10.659703   9.306267   8.327832   8.947572
    28  H    9.064859   8.438030   7.053221   6.233385   7.081947
                    6          7          8          9         10
     6  C    0.000000
     7  Cl   4.049185   0.000000
     8  Cl   2.724361   3.227570   0.000000
     9  N    3.793257   5.153332   6.028759   0.000000
    10  C    4.484541   6.475491   6.995975   1.370833   0.000000
    11  O    4.198498   6.926998   6.879325   2.247031   1.215719
    12  N    5.841846   7.472046   8.297304   2.362224   1.370812
    13  H    3.869133   2.831789   4.901099   2.637854   4.007356
    14  H    2.100854   5.631361   4.824128   2.844127   2.901385
    15  H    1.082992   4.908933   2.851850   4.673041   5.159163
    16  H    4.548635   5.092595   6.505367   1.032019   2.049302
    17  H    6.259509   7.304725   8.530251   2.508662   2.049569
    18  C    6.936647   8.884346   9.510563   3.739911   2.527130
    19  C    7.034818   9.554976   9.723613   4.454569   3.091723
    20  C    8.357232  10.953830  11.064029   5.843675   4.486313
    21  C    9.438707  11.698131  12.107260   6.545256   5.260695
    22  C    9.379989  11.179334  11.954234   6.097951   4.961686
    23  C    8.227936   9.814680  10.729834   4.784198   3.749352
    24  Cl  11.069981  13.446411  13.763933   8.293096   6.994178
    25  H    6.297510   9.164791   9.016768   4.249935   2.902689
    26  H    8.650811  11.546953  11.375078   6.534205   5.163511
    27  H   10.345691  11.921179  12.874181   6.931705   5.883383
    28  H    8.458944   9.586584  10.823327   4.795331   4.014823
                   11         12         13         14         15
    11  O    0.000000
    12  N    2.246924   0.000000
    13  H    4.772755   4.787240   0.000000
    14  H    2.247459   4.248699   4.338518   0.000000
    15  H    4.643012   6.529829   4.952125   2.397551   0.000000
    16  H    3.142014   2.508235   2.312333   3.850690   5.509362
    17  H    3.142144   1.032033   4.505342   4.915426   7.059764
    18  C    2.876544   1.440233   6.225158   5.109948   7.491019
    19  C    2.844346   2.530786   7.075203   5.014410   7.396463
    20  C    4.199786   3.795231   8.453054   6.298415   8.647202
    21  C    5.240220   4.266715   9.053387   7.437126   9.821768
    22  C    5.264528   3.735778   8.427522   7.511794   9.905245
    23  C    4.265195   2.438020   7.045322   6.477380   8.839329
    24  Cl   6.884812   6.020641  10.807536   9.025747  11.381523
    25  H    2.248100   2.845781   6.879767   4.217784   6.548915
    26  H    4.647506   4.676771   9.170361   6.553589   8.810650
    27  H    6.284058   4.587874   9.124593   8.526665  10.911999
    28  H    4.779200   2.645295   6.764245   6.885753   9.173496
                   16         17         18         19         20
    16  H    0.000000
    17  H    2.212849   0.000000
    18  C    3.947401   2.103274   0.000000
    19  C    4.922561   3.412396   1.417780   0.000000
    20  C    6.261042   4.550371   2.447126   1.399236   0.000000
    21  C    6.768468   4.768199   2.828426   2.425540   1.395152
    22  C    6.115341   3.954536   2.446377   2.796649   2.412928
    23  C    4.735208   2.559310   1.409983   2.421001   2.787708
    24  Cl   8.520551   6.490812   4.582650   4.040544   2.734984
    25  H    4.916504   3.852284   2.202366   1.074168   2.102003
    26  H    7.063480   5.512483   3.424782   2.151371   1.082901
    27  H    6.829032   4.619953   3.421751   3.879302   3.395992
    28  H    4.513096   2.320098   2.168091   3.412011   3.870404
                   21         22         23         24         25
    21  C    0.000000
    22  C    1.394313   0.000000
    23  C    2.418554   1.396890   0.000000
    24  Cl   1.754224   2.734130   4.035056   0.000000
    25  H    3.366159   3.868312   3.422707   4.836551   0.000000
    26  H    2.150918   3.394409   3.870607   2.874557   2.401558
    27  H    2.152618   1.082665   2.150112   2.877879   4.950859
    28  H    3.388546   2.136662   1.083005   4.870777   4.343619
                   26         27         28
    26  H    0.000000
    27  H    4.291458   0.000000
    28  H    4.953290   2.449487   0.000000
 Stoichiometry    C13H9Cl3N2O
 Framework group  C1[X(C13H9Cl3N2O)]
 Deg. of freedom    78
 Full point group                 C1      NOp   1
 Largest Abelian subgroup         C1      NOp   1
 Largest concise Abelian subgroup C1      NOp   1
                         Standard orientation:                         
 ---------------------------------------------------------------------
 Center     Atomic      Atomic             Coordinates (Angstroms)
 Number     Number       Type             X           Y           Z
 ---------------------------------------------------------------------
      1          6           0        4.554183   -0.797035    0.003390
      2          6           0        4.343177    0.587822   -0.002508
      3          6           0        3.038637    1.092769   -0.003393
      4          6           0        1.918320    0.237632    0.001247
      5          6           0        2.153742   -1.158999    0.007191
      6          6           0        3.458530   -1.661407    0.008247
      7         17           0        5.692978    1.715404   -0.008720
      8         17           0        6.176553   -1.475704    0.005051
      9          7           0        0.613305    0.847265    0.000478
     10          6           0       -0.609093    0.226840   -0.000684
     11          8           0       -0.685350   -0.986483   -0.002725
     12          7           0       -1.744278    0.995265    0.001171
     13          1           0        2.897395    2.166785   -0.007882
     14          1           0        1.370613   -1.894162    0.011707
     15          1           0        3.616716   -2.732774    0.013063
     16          1           0        0.603028    1.879232    0.000654
     17          1           0       -1.605466    2.017912    0.005312
     18          6           0       -3.115040    0.553358   -0.000070
     19          6           0       -3.523823   -0.804141   -0.013994
     20          6           0       -4.882342   -1.139235   -0.014178
     21          6           0       -5.856912   -0.140998   -0.000545
     22          6           0       -5.474436    1.199762    0.013016
     23          6           0       -4.120148    1.542114    0.013022
     24         17           0       -7.557614   -0.571014   -0.000671
     25          1           0       -2.838818   -1.631469   -0.025570
     26          1           0       -5.176578   -2.181339   -0.025092
     27          1           0       -6.225226    1.979739    0.023595
     28          1           0       -3.853415    2.591703    0.023803
 ---------------------------------------------------------------------
 Rotational constants (GHZ):      1.1995403      0.0722442      0.0681406
 General basis read from cards:  (6D, 7F)
 There are   391 symmetry adapted cartesian basis functions of A   symmetry.
 There are   391 symmetry adapted basis functions of A   symmetry.
   391 basis functions,   716 primitive gaussians,   391 cartesian basis functions
    80 alpha electrons       80 beta electrons
       nuclear repulsion energy      1554.8751326906 Hartrees.
 NAtoms=   28 NActive=   28 NUniq=   28 SFac= 1.00D+00 NAtFMM=   60 NAOKFM=F Big=F
 Integral buffers will be    131072 words long.
 Raffenetti 2 integral format.
 Two-electron integral symmetry is turned on.
 ------------------------------------------------------------------------------
 Polarizable Continuum Model (PCM)
 =================================
 Model                : PCM (using non-symmetric T matrix).
 Atomic radii         : SMD-Coulomb.
 Polarization charges : Total charges.
 Charge compensation  : None.
 Solution method      : On-the-fly selection.
 Cavity type          : VdW (van der Waals Surface) (Alpha=1.000).
 Cavity algorithm     : GePol (No added spheres)
                        Default sphere list used, NSphG=   28.
                        Lebedev-Laikov grids with approx.  5.0 points / Ang**2.
                        Smoothing algorithm: York/Karplus (Gamma=1.0000).
                        Polarization charges: spherical gaussians, with
                                              point-specific exponents (IZeta= 3).
                        Self-potential: point-specific (ISelfS= 7).
                        Self-field    : sphere-specific E.n sum rule (ISelfD= 2).
 1st derivatives      : Analytical E(r).r(x)/FMM algorithm (CHGder, D1EAlg=3).
                        Cavity 1st derivative terms included.
 Solvent              : Water, Eps=  78.355300 Eps(inf)=   1.777849
 ------------------------------------------------------------------------------
 ------------------------------------------------------------------------------
 Atomic radii for non-electrostatic terms: SMD-CDS.
 ------------------------------------------------------------------------------
 Nuclear repulsion after PCM non-electrostatic terms =     1554.8848737266 Hartrees.
 One-electron integrals computed using PRISM.
 NBasis=   391 RedAO= T EigKep=  1.06D-06  NBF=   391
 NBsUse=   391 1.00D-06 EigRej= -1.00D+00 NBFU=   391
 ExpMin= 4.38D-02 ExpMax= 2.52D+04 ExpMxC= 3.78D+03 IAcc=3 IRadAn=         5 AccDes= 0.00D+00
 Harris functional with IExCor= 1009 and IRadAn=       5 diagonalized for initial guess.
 HarFok:  IExCor= 1009 AccDes= 0.00D+00 IRadAn=         5 IDoV= 1 UseB2=F ITyADJ=14
 ICtDFT=  3500011 ScaDFX=  1.000000  1.000000  1.000000  1.000000
 FoFCou: FMM=F IPFlag=           0 FMFlag=      100000 FMFlg1=           0
         NFxFlg=           0 DoJE=T BraDBF=F KetDBF=T FulRan=T
         wScrn=  0.000000 ICntrl=     500 IOpCl=  0 I1Cent=   200000004 NGrid=           0
         NMat0=    1 NMatS0=      1 NMatT0=    0 NMatD0=    1 NMtDS0=    0 NMtDT0=    0
 Petite list used in FoFCou.
 Requested convergence on RMS density matrix=1.00D-08 within 128 cycles.
 Requested convergence on MAX density matrix=1.00D-06.
 Requested convergence on             energy=1.00D-06.
 No special actions if energy rises.
 Inv3:  Mode=1 IEnd=    22473507.
 Iteration    1 A*A^-1 deviation from unit magnitude is 5.11D-15 for   2720.
 Iteration    1 A*A^-1 deviation from orthogonality  is 2.16D-15 for   2703   2052.
 Iteration    1 A^-1*A deviation from unit magnitude is 4.44D-15 for   2731.
 Iteration    1 A^-1*A deviation from orthogonality  is 2.86D-09 for   1776   1762.
 Iteration    2 A*A^-1 deviation from unit magnitude is 3.55D-15 for    589.
 Iteration    2 A*A^-1 deviation from orthogonality  is 4.57D-15 for   2703   2052.
 Iteration    2 A^-1*A deviation from unit magnitude is 1.33D-15 for   2433.
 Iteration    2 A^-1*A deviation from orthogonality  is 5.90D-16 for   2720   2482.
 Error on total polarization charges =  0.03660
 SCF Done:  E(RM062X) =  -2065.81102205     A.U. after   15 cycles
            NFock= 15  Conv=0.79D-08     -V/T= 2.0049
 SMD-CDS (non-electrostatic) energy       (kcal/mol) =       6.11
 (included in total energy above)

 **********************************************************************

            Population analysis using the SCF density.

 **********************************************************************

 Orbital symmetries:
       Occupied  (A) (A) (A) (A) (A) (A) (A) (A) (A) (A) (A) (A)
                 (A) (A) (A) (A) (A) (A) (A) (A) (A) (A) (A) (A)
                 (A) (A) (A) (A) (A) (A) (A) (A) (A) (A) (A) (A)
                 (A) (A) (A) (A) (A) (A) (A) (A) (A) (A) (A) (A)
                 (A) (A) (A) (A) (A) (A) (A) (A) (A) (A) (A) (A)
                 (A) (A) (A) (A) (A) (A) (A) (A) (A) (A) (A) (A)
                 (A) (A) (A) (A) (A) (A) (A) (A)
       Virtual   (A) (A) (A) (A) (A) (A) (A) (A) (A) (A) (A) (A)
                 (A) (A) (A) (A) (A) (A) (A) (A) (A) (A) (A) (A)
                 (A) (A) (A) (A) (A) (A) (A) (A) (A) (A) (A) (A)
                 (A) (A) (A) (A) (A) (A) (A) (A) (A) (A) (A) (A)
                 (A) (A) (A) (A) (A) (A) (A) (A) (A) (A) (A) (A)
                 (A) (A) (A) (A) (A) (A) (A) (A) (A) (A) (A) (A)
                 (A) (A) (A) (A) (A) (A) (A) (A) (A) (A) (A) (A)
                 (A) (A) (A) (A) (A) (A) (A) (A) (A) (A) (A) (A)
                 (A) (A) (A) (A) (A) (A) (A) (A) (A) (A) (A) (A)
                 (A) (A) (A) (A) (A) (A) (A) (A) (A) (A) (A) (A)
                 (A) (A) (A) (A) (A) (A) (A) (A) (A) (A) (A) (A)
                 (A) (A) (A) (A) (A) (A) (A) (A) (A) (A) (A) (A)
                 (A) (A) (A) (A) (A) (A) (A) (A) (A) (A) (A) (A)
                 (A) (A) (A) (A) (A) (A) (A) (A) (A) (A) (A) (A)
                 (A) (A) (A) (A) (A) (A) (A) (A) (A) (A) (A) (A)
                 (A) (A) (A) (A) (A) (A) (A) (A) (A) (A) (A) (A)
                 (A) (A) (A) (A) (A) (A) (A) (A) (A) (A) (A) (A)
                 (A) (A) (A) (A) (A) (A) (A) (A) (A) (A) (A) (A)
                 (A) (A) (A) (A) (A) (A) (A) (A) (A) (A) (A) (A)
                 (A) (A) (A) (A) (A) (A) (A) (A) (A) (A) (A) (A)
                 (A) (A) (A) (A) (A) (A) (A) (A) (A) (A) (A) (A)
                 (A) (A) (A) (A) (A) (A) (A) (A) (A) (A) (A) (A)
                 (A) (A) (A) (A) (A) (A) (A) (A) (A) (A) (A) (A)
                 (A) (A) (A) (A) (A) (A) (A) (A) (A) (A) (A) (A)
                 (A) (A) (A) (A) (A) (A) (A) (A) (A) (A) (A) (A)
                 (A) (A) (A) (A) (A) (A) (A) (A) (A) (A) (A)
 The electronic state is 1-A.
 Alpha  occ. eigenvalues -- -102.68752-102.68359-102.67669 -19.62464 -14.81538
 Alpha  occ. eigenvalues --  -14.81277 -10.70406 -10.64072 -10.63234 -10.63227
 Alpha  occ. eigenvalues --  -10.62330 -10.61818 -10.58120 -10.57808 -10.57107
 Alpha  occ. eigenvalues --  -10.57008 -10.56941 -10.56867 -10.56507  -9.83351
 Alpha  occ. eigenvalues --   -9.82970  -9.82321  -7.55763  -7.55378  -7.55092
 Alpha  occ. eigenvalues --   -7.55066  -7.54716  -7.54714  -7.54692  -7.54070
 Alpha  occ. eigenvalues --   -7.54057  -1.20127  -1.06433  -1.04678  -1.01962
 Alpha  occ. eigenvalues --   -0.99512  -0.96221  -0.94268  -0.93048  -0.85842
 Alpha  occ. eigenvalues --   -0.85704  -0.84182  -0.82087  -0.73666  -0.72102
 Alpha  occ. eigenvalues --   -0.71440  -0.68934  -0.66488  -0.64188  -0.62314
 Alpha  occ. eigenvalues --   -0.60184  -0.56660  -0.55953  -0.55264  -0.54835
 Alpha  occ. eigenvalues --   -0.53539  -0.52379  -0.51460  -0.51304  -0.50348
 Alpha  occ. eigenvalues --   -0.49762  -0.49328  -0.47580  -0.45796  -0.44597
 Alpha  occ. eigenvalues --   -0.44109  -0.43904  -0.42545  -0.42062  -0.41681
 Alpha  occ. eigenvalues --   -0.40022  -0.38306  -0.38095  -0.36919  -0.36762
 Alpha  occ. eigenvalues --   -0.35771  -0.32069  -0.31709  -0.29323  -0.27050
 Alpha virt. eigenvalues --   -0.00672  -0.00132   0.00722   0.00909   0.01207
 Alpha virt. eigenvalues --    0.01651   0.01934   0.02674   0.03217   0.03789
 Alpha virt. eigenvalues --    0.04255   0.04484   0.05225   0.05543   0.06200
 Alpha virt. eigenvalues --    0.06698   0.06976   0.07060   0.07555   0.08265
 Alpha virt. eigenvalues --    0.08408   0.08537   0.08941   0.09570   0.09863
 Alpha virt. eigenvalues --    0.09973   0.10083   0.10313   0.10637   0.11591
 Alpha virt. eigenvalues --    0.11881   0.12543   0.12724   0.13718   0.13907
 Alpha virt. eigenvalues --    0.14165   0.14262   0.14649   0.14719   0.14897
 Alpha virt. eigenvalues --    0.15454   0.15731   0.15937   0.16413   0.17101
 Alpha virt. eigenvalues --    0.17585   0.17765   0.17824   0.18515   0.18768
 Alpha virt. eigenvalues --    0.19057   0.19689   0.19944   0.21138   0.21155
 Alpha virt. eigenvalues --    0.21442   0.21637   0.21885   0.22563   0.22665
 Alpha virt. eigenvalues --    0.22815   0.23083   0.23454   0.23780   0.24219
 Alpha virt. eigenvalues --    0.24693   0.24737   0.24974   0.25247   0.25867
 Alpha virt. eigenvalues --    0.26096   0.26581   0.27617   0.28211   0.28270
 Alpha virt. eigenvalues --    0.28711   0.29002   0.29174   0.29600   0.29785
 Alpha virt. eigenvalues --    0.30359   0.30693   0.31304   0.31817   0.32577
 Alpha virt. eigenvalues --    0.32804   0.33786   0.34226   0.35081   0.35375
 Alpha virt. eigenvalues --    0.35738   0.36279   0.37598   0.38018   0.38420
 Alpha virt. eigenvalues --    0.39394   0.40201   0.40684   0.42199   0.42345
 Alpha virt. eigenvalues --    0.43222   0.44971   0.46578   0.47436   0.50579
 Alpha virt. eigenvalues --    0.53192   0.54605   0.55806   0.57783   0.58822
 Alpha virt. eigenvalues --    0.59645   0.61565   0.62485   0.62731   0.64898
 Alpha virt. eigenvalues --    0.65428   0.65966   0.66700   0.68112   0.68679
 Alpha virt. eigenvalues --    0.69391   0.69676   0.70950   0.71768   0.73008
 Alpha virt. eigenvalues --    0.73350   0.74289   0.74312   0.74512   0.74969
 Alpha virt. eigenvalues --    0.75532   0.76216   0.77178   0.77776   0.78890
 Alpha virt. eigenvalues --    0.79185   0.80148   0.80514   0.81038   0.81429
 Alpha virt. eigenvalues --    0.82214   0.83681   0.83728   0.84642   0.85514
 Alpha virt. eigenvalues --    0.85781   0.87062   0.87119   0.87966   0.91530
 Alpha virt. eigenvalues --    0.92688   0.93225   0.93467   0.93697   0.95554
 Alpha virt. eigenvalues --    0.96356   0.96996   0.97320   0.97858   0.99974
 Alpha virt. eigenvalues --    1.00063   1.00975   1.01778   1.02461   1.03228
 Alpha virt. eigenvalues --    1.03598   1.04723   1.05496   1.06293   1.07117
 Alpha virt. eigenvalues --    1.08209   1.08500   1.09673   1.11871   1.12596
 Alpha virt. eigenvalues --    1.12694   1.13124   1.15050   1.15913   1.16534
 Alpha virt. eigenvalues --    1.17057   1.18720   1.20532   1.21367   1.22245
 Alpha virt. eigenvalues --    1.23604   1.24755   1.26253   1.26869   1.27589
 Alpha virt. eigenvalues --    1.30637   1.30730   1.31588   1.31642   1.33604
 Alpha virt. eigenvalues --    1.34057   1.34845   1.36315   1.38350   1.40969
 Alpha virt. eigenvalues --    1.43023   1.43374   1.43606   1.45663   1.46621
 Alpha virt. eigenvalues --    1.48192   1.48278   1.49095   1.50144   1.50882
 Alpha virt. eigenvalues --    1.51887   1.52659   1.53692   1.54797   1.57146
 Alpha virt. eigenvalues --    1.57456   1.57607   1.58421   1.59528   1.60835
 Alpha virt. eigenvalues --    1.63392   1.64786   1.74594   1.80055   1.82136
 Alpha virt. eigenvalues --    1.85002   1.85093   1.86036   1.87470   1.88639
 Alpha virt. eigenvalues --    1.90733   1.91936   1.94272   1.94994   1.95388
 Alpha virt. eigenvalues --    1.97888   1.99144   2.02782   2.03415   2.03732
 Alpha virt. eigenvalues --    2.05470   2.06106   2.09941   2.12056   2.13616
 Alpha virt. eigenvalues --    2.15197   2.15485   2.16682   2.16932   2.19366
 Alpha virt. eigenvalues --    2.22000   2.22559   2.22641   2.24511   2.25824
 Alpha virt. eigenvalues --    2.26950   2.29585   2.30855   2.32361   2.36514
 Alpha virt. eigenvalues --    2.38656   2.39960   2.40048   2.44585   2.50788
 Alpha virt. eigenvalues --    2.53143   2.55813   2.59574   2.62665   2.64003
 Alpha virt. eigenvalues --    2.65391   2.65824   2.67560   2.70106   2.73375
 Alpha virt. eigenvalues --    2.75188   2.76574   2.78408   2.78812   2.79326
 Alpha virt. eigenvalues --    2.80175   2.82094   2.87430   2.95991   2.97571
 Alpha virt. eigenvalues --    3.01817   3.07158   3.15457   3.27745   3.33077
 Alpha virt. eigenvalues --    3.37282   3.40714   4.16611   4.23232   4.27421
 Alpha virt. eigenvalues --    4.27832   4.30457   4.36697   4.37276   4.40838
 Alpha virt. eigenvalues --    4.42239   4.43284   4.43905   4.45794   4.48062
 Alpha virt. eigenvalues --    4.50271   4.51042   4.54323   4.67739   4.72592
 Alpha virt. eigenvalues --    4.77484
          Condensed to atoms (all electrons):
               1          2          3          4          5          6
     1  C    9.374488  -2.002494   0.754495  -1.114064   0.023652  -0.676889
     2  C   -2.002494   9.634311  -1.920705   0.451503  -0.706887   0.940867
     3  C    0.754495  -1.920705  16.308078  -0.502304  -4.508522  -2.874209
     4  C   -1.114064   0.451503  -0.502304  13.325277  -1.724643  -1.620258
     5  C    0.023652  -0.706887  -4.508522  -1.724643  13.711675  -2.716837
     6  C   -0.676889   0.940867  -2.874209  -1.620258  -2.716837  13.620952
     7  Cl  -0.289343   0.094475  -0.051063   0.014268   0.011023   0.052720
     8  Cl   0.100549  -0.261899   0.136100  -0.069880   0.041554  -0.159838
     9  N    0.016991   0.102001   0.423015  -0.038917  -0.351264   0.012399
    10  C   -0.031661  -0.094361  -0.867147  -1.238634   0.679111  -0.253575
    11  O   -0.000504   0.012803  -0.096166  -0.260580   0.187527   0.148268
    12  N   -0.002530   0.017862  -0.029069  -0.193686  -0.039166  -0.049410
    13  H    0.045417   0.002869   0.127518   0.086818   0.076618  -0.030371
    14  H    0.014978  -0.027664   0.083770   0.080208   0.199912  -0.047187
    15  H   -0.010015   0.061864   0.009967   0.000625   0.030709   0.219326
    16  H    0.000905   0.030498  -0.015406  -0.018600  -0.024004   0.013878
    17  H   -0.000086  -0.000388  -0.000168  -0.002077   0.002076   0.000790
    18  C   -0.004276  -0.010880  -0.235282  -1.037589   0.404690   0.170138
    19  C   -0.001000   0.017794   0.177031   0.471860  -0.383883  -0.173371
    20  C   -0.000096   0.001427   0.048778   0.185156  -0.163414  -0.047863
    21  C   -0.000043  -0.000257  -0.001923  -0.026373   0.003862  -0.000255
    22  C   -0.000047  -0.000428  -0.002590   0.005940   0.003465   0.000772
    23  C   -0.000172  -0.015890  -0.107755  -0.343459   0.224677   0.054428
    24  Cl   0.000001  -0.000004   0.000024  -0.000357   0.000036   0.000007
    25  H    0.000030  -0.000040  -0.000083   0.000274   0.003450   0.000839
    26  H    0.000000  -0.000000  -0.000000  -0.000179   0.000091   0.000008
    27  H    0.000000  -0.000000  -0.000001   0.000004   0.000005   0.000000
    28  H    0.000000   0.000001   0.000057  -0.000473  -0.000011  -0.000006
               7          8          9         10         11         12
     1  C   -0.289343   0.100549   0.016991  -0.031661  -0.000504  -0.002530
     2  C    0.094475  -0.261899   0.102001  -0.094361   0.012803   0.017862
     3  C   -0.051063   0.136100   0.423015  -0.867147  -0.096166  -0.029069
     4  C    0.014268  -0.069880  -0.038917  -1.238634  -0.260580  -0.193686
     5  C    0.011023   0.041554  -0.351264   0.679111   0.187527  -0.039166
     6  C    0.052720  -0.159838   0.012399  -0.253575   0.148268  -0.049410
     7  Cl  16.961031   0.027594  -0.003280  -0.021830  -0.000007  -0.000236
     8  Cl   0.027594  16.985241   0.000161  -0.004938   0.000110   0.000135
     9  N   -0.003280   0.000161   7.675720   0.259237  -0.138466  -0.292549
    10  C   -0.021830  -0.004938   0.259237   7.051218   0.547992   0.299128
    11  O   -0.000007   0.000110  -0.138466   0.547992   8.479139  -0.142924
    12  N   -0.000236   0.000135  -0.292549   0.299128  -0.142924   7.688926
    13  H    0.002479   0.000515  -0.011790   0.001270   0.000021   0.000836
    14  H   -0.000048   0.000665  -0.014918   0.007585  -0.000307   0.000282
    15  H    0.000200   0.003359  -0.000826  -0.002288   0.000383   0.000032
    16  H   -0.000128   0.000032   0.232626  -0.008825   0.009203   0.012437
    17  H    0.000001  -0.000000   0.012319  -0.006616   0.009208   0.234291
    18  C   -0.000777  -0.000170  -0.191204  -0.981572  -0.269840  -0.041373
    19  C   -0.000086  -0.000004  -0.022814   0.637655   0.194312  -0.342181
    20  C   -0.000005   0.000004  -0.035764   0.034695   0.148122  -0.001441
    21  C   -0.000001  -0.000001  -0.001571  -0.231461  -0.000017   0.015957
    22  C    0.000003   0.000000  -0.000900   0.058976   0.008676   0.053898
    23  C    0.000054   0.000022  -0.028375  -1.011463  -0.084808   0.452477
    24  Cl   0.000000  -0.000000   0.000113  -0.008256   0.000187  -0.000196
    25  H    0.000000   0.000000   0.000632   0.004072  -0.000005  -0.016247
    26  H    0.000000   0.000000   0.000026  -0.002982   0.000368  -0.000708
    27  H    0.000000   0.000000   0.000013   0.001800   0.000005   0.000642
    28  H    0.000000  -0.000000   0.000681  -0.002987  -0.000016  -0.011004
              13         14         15         16         17         18
     1  C    0.045417   0.014978  -0.010015   0.000905  -0.000086  -0.004276
     2  C    0.002869  -0.027664   0.061864   0.030498  -0.000388  -0.010880
     3  C    0.127518   0.083770   0.009967  -0.015406  -0.000168  -0.235282
     4  C    0.086818   0.080208   0.000625  -0.018600  -0.002077  -1.037589
     5  C    0.076618   0.199912   0.030709  -0.024004   0.002076   0.404690
     6  C   -0.030371  -0.047187   0.219326   0.013878   0.000790   0.170138
     7  Cl   0.002479  -0.000048   0.000200  -0.000128   0.000001  -0.000777
     8  Cl   0.000515   0.000665   0.003359   0.000032  -0.000000  -0.000170
     9  N   -0.011790  -0.014918  -0.000826   0.232626   0.012319  -0.191204
    10  C    0.001270   0.007585  -0.002288  -0.008825  -0.006616  -0.981572
    11  O    0.000021  -0.000307   0.000383   0.009203   0.009208  -0.269840
    12  N    0.000836   0.000282   0.000032   0.012437   0.234291  -0.041373
    13  H    0.413815  -0.000091   0.000008   0.004444   0.000002  -0.000258
    14  H   -0.000091   0.416415  -0.004234  -0.000099   0.000001   0.001406
    15  H    0.000008  -0.004234   0.410507   0.000001  -0.000000  -0.000162
    16  H    0.004444  -0.000099   0.000001   0.253630   0.002227  -0.002148
    17  H    0.000002   0.000001  -0.000000   0.002227   0.256326  -0.031473
    18  C   -0.000258   0.001406  -0.000162  -0.002148  -0.031473  12.633919
    19  C    0.000090   0.002552   0.000110   0.001372  -0.014663  -1.856455
    20  C   -0.000001   0.000569   0.000010   0.000550   0.012117  -1.726106
    21  C    0.000000   0.000032  -0.000000  -0.000013  -0.001986  -1.187738
    22  C    0.000001  -0.000030  -0.000000  -0.000251   0.015218   0.100639
    23  C   -0.000028   0.000110  -0.000001   0.000156   0.003768   0.369398
    24  Cl   0.000000   0.000000   0.000000  -0.000000   0.000035  -0.043590
    25  H    0.000000   0.000004   0.000000   0.000002  -0.000107   0.110066
    26  H    0.000000   0.000000  -0.000000  -0.000000   0.000001   0.009493
    27  H    0.000000  -0.000000  -0.000000   0.000000  -0.000010   0.005068
    28  H   -0.000000   0.000000   0.000000   0.000002   0.004487   0.076863
              19         20         21         22         23         24
     1  C   -0.001000  -0.000096  -0.000043  -0.000047  -0.000172   0.000001
     2  C    0.017794   0.001427  -0.000257  -0.000428  -0.015890  -0.000004
     3  C    0.177031   0.048778  -0.001923  -0.002590  -0.107755   0.000024
     4  C    0.471860   0.185156  -0.026373   0.005940  -0.343459  -0.000357
     5  C   -0.383883  -0.163414   0.003862   0.003465   0.224677   0.000036
     6  C   -0.173371  -0.047863  -0.000255   0.000772   0.054428   0.000007
     7  Cl  -0.000086  -0.000005  -0.000001   0.000003   0.000054   0.000000
     8  Cl  -0.000004   0.000004  -0.000001   0.000000   0.000022  -0.000000
     9  N   -0.022814  -0.035764  -0.001571  -0.000900  -0.028375   0.000113
    10  C    0.637655   0.034695  -0.231461   0.058976  -1.011463  -0.008256
    11  O    0.194312   0.148122  -0.000017   0.008676  -0.084808   0.000187
    12  N   -0.342181  -0.001441   0.015957   0.053898   0.452477  -0.000196
    13  H    0.000090  -0.000001   0.000000   0.000001  -0.000028   0.000000
    14  H    0.002552   0.000569   0.000032  -0.000030   0.000110   0.000000
    15  H    0.000110   0.000010  -0.000000  -0.000000  -0.000001   0.000000
    16  H    0.001372   0.000550  -0.000013  -0.000251   0.000156  -0.000000
    17  H   -0.014663   0.012117  -0.001986   0.015218   0.003768   0.000035
    18  C   -1.856455  -1.726106  -1.187738   0.100639   0.369398  -0.043590
    19  C   13.189907  -2.407939  -0.113186  -0.110172  -4.488023   0.076806
    20  C   -2.407939  12.410493   0.101823   0.017252  -2.106849  -0.110555
    21  C   -0.113186   0.101823   6.187375  -0.011167   1.063105  -0.101887
    22  C   -0.110172   0.017252  -0.011167   7.388497  -1.105714  -0.137239
    23  C   -4.488023  -2.106849   1.063105  -1.105714  13.854537   0.114153
    24  Cl   0.076806  -0.110555  -0.101887  -0.137239   0.114153  17.039874
    25  H    0.198189  -0.032934  -0.010085  -0.023271   0.065781   0.000799
    26  H    0.026987   0.229744   0.013258   0.043569  -0.011339   0.003622
    27  H   -0.026654   0.052331   0.008269   0.283382  -0.014762   0.001859
    28  H    0.091447  -0.044043   0.003688  -0.060382   0.247165   0.001007
              25         26         27         28
     1  C    0.000030   0.000000   0.000000   0.000000
     2  C   -0.000040  -0.000000  -0.000000   0.000001
     3  C   -0.000083  -0.000000  -0.000001   0.000057
     4  C    0.000274  -0.000179   0.000004  -0.000473
     5  C    0.003450   0.000091   0.000005  -0.000011
     6  C    0.000839   0.000008   0.000000  -0.000006
     7  Cl   0.000000   0.000000   0.000000   0.000000
     8  Cl   0.000000   0.000000   0.000000  -0.000000
     9  N    0.000632   0.000026   0.000013   0.000681
    10  C    0.004072  -0.002982   0.001800  -0.002987
    11  O   -0.000005   0.000368   0.000005  -0.000016
    12  N   -0.016247  -0.000708   0.000642  -0.011004
    13  H    0.000000   0.000000   0.000000  -0.000000
    14  H    0.000004   0.000000  -0.000000   0.000000
    15  H    0.000000  -0.000000  -0.000000   0.000000
    16  H    0.000002  -0.000000   0.000000   0.000002
    17  H   -0.000107   0.000001  -0.000010   0.004487
    18  C    0.110066   0.009493   0.005068   0.076863
    19  C    0.198189   0.026987  -0.026654   0.091447
    20  C   -0.032934   0.229744   0.052331  -0.044043
    21  C   -0.010085   0.013258   0.008269   0.003688
    22  C   -0.023271   0.043569   0.283382  -0.060382
    23  C    0.065781  -0.011339  -0.014762   0.247165
    24  Cl   0.000799   0.003622   0.001859   0.001007
    25  H    0.423269  -0.004585   0.000010  -0.000096
    26  H   -0.004585   0.425699  -0.000121   0.000010
    27  H    0.000010  -0.000121   0.422786  -0.003709
    28  H   -0.000096   0.000010  -0.003709   0.431923
 Mulliken charges:
               1
     1  C   -0.198285
     2  C   -0.326376
     3  C   -0.856439
     4  C   -0.429859
     5  C    1.014496
     6  C   -0.585324
     7  Cl   0.202956
     8  Cl   0.200692
     9  N   -0.603296
    10  C    1.185856
    11  O   -0.752683
    12  N   -0.614184
    13  H    0.279817
    14  H    0.286089
    15  H    0.280427
    16  H    0.507512
    17  H    0.504708
    18  C   -0.260786
    19  C    0.854318
    20  C   -0.566061
    21  C    0.290595
    22  C   -0.528096
    23  C   -1.131194
    24  Cl   0.163561
    25  H    0.280039
    26  H    0.267039
    27  H    0.269082
    28  H    0.265397
 Sum of Mulliken charges =  -0.00000
 Mulliken charges with hydrogens summed into heavy atoms:
               1
     1  C   -0.198285
     2  C   -0.326376
     3  C   -0.576623
     4  C   -0.429859
     5  C    1.300584
     6  C   -0.304896
     7  Cl   0.202956
     8  Cl   0.200692
     9  N   -0.095784
    10  C    1.185856
    11  O   -0.752683
    12  N   -0.109476
    18  C   -0.260786
    19  C    1.134358
    20  C   -0.299022
    21  C    0.290595
    22  C   -0.259013
    23  C   -0.865797
    24  Cl   0.163561
 Electronic spatial extent (au):  <R**2>=          13606.8650
 Charge=             -0.0000 electrons
 Dipole moment (field-independent basis, Debye):
    X=             -1.2988    Y=              6.4155    Z=              0.0203  Tot=              6.5457
 Quadrupole moment (field-independent basis, Debye-Ang):
   XX=           -177.3026   YY=           -110.2920   ZZ=           -137.9020
   XY=            -10.1337   XZ=             -0.0271   YZ=              0.1021
 Traceless Quadrupole moment (field-independent basis, Debye-Ang):
   XX=            -35.4704   YY=             31.5402   ZZ=              3.9302
   XY=            -10.1337   XZ=             -0.0271   YZ=              0.1021
 Octapole moment (field-independent basis, Debye-Ang**2):
  XXX=             20.5230  YYY=             24.9978  ZZZ=             -0.0400  XYY=            -21.5131
  XXY=             41.8387  XXZ=              0.3510  XZZ=             12.5064  YZZ=              0.3749
  YYZ=              0.1547  XYZ=             -0.7319
 Hexadecapole moment (field-independent basis, Debye-Ang**3):
 XXXX=         -19265.8864 YYYY=          -1044.2720 ZZZZ=           -158.4507 XXXY=           -221.4826
 XXXZ=             -2.3795 YYYX=            -40.9421 YYYZ=              0.5226 ZZZX=             -0.1363
 ZZZY=             -0.1095 XXYY=          -2814.7123 XXZZ=          -2978.8509 YYZZ=           -242.3899
 XXYZ=              2.7261 YYXZ=             -0.2112 ZZXY=             13.5993
 N-N= 1.554884873727D+03 E-N=-7.981135745152D+03  KE= 2.055765259369D+03
 D1PCM: PCM CHGder 1st derivatives, ID1Alg=3 FixD1E=F DoIter=F DoCFld=F I1PDM=0.
 Calling FoFJK, ICntrl=      2127 FMM=F ISym2X=0 I1Cent= 0 IOpClX= 0 NMat=1 NMatS=1 NMatT=0.
 ***** Axes restored to original set *****
 -------------------------------------------------------------------
 Center     Atomic                   Forces (Hartrees/Bohr)
 Number     Number              X              Y              Z
 -------------------------------------------------------------------
      1        6          -0.005639378    0.000945651   -0.000313218
      2        6           0.003937322    0.001561162    0.000306873
      3        6           0.001676609    0.002670644    0.000173144
      4        6           0.010367552    0.004777915    0.000788780
      5        6          -0.005436688   -0.005339246   -0.000478967
      6        6           0.001704485   -0.013896319   -0.000360801
      7       17           0.008492868    0.006995001    0.000742763
      8       17           0.007666421   -0.003672412    0.000332414
      9        7          -0.014836721   -0.023068543   -0.001496132
     10        6           0.002270557    0.003218495    0.000312057
     11        8           0.000273860    0.034034569    0.000889402
     12        7           0.008698645   -0.022645752   -0.000141474
     13        1           0.001013602   -0.002325131   -0.000013288
     14        1           0.007454230   -0.001570974    0.000379931
     15        1          -0.000365310    0.001269685    0.000019575
     16        1          -0.004525938    0.012224296    0.000057245
     17        1           0.004675723    0.012109162    0.000587160
     18        6          -0.009582738    0.005414447   -0.000469721
     19        6           0.004907007   -0.008215283    0.000107189
     20        6           0.002473303   -0.008795497    0.000002294
     21        6          -0.007736532   -0.000562377   -0.000475382
     22        6          -0.003218448    0.002433808   -0.000197380
     23        6          -0.001861682    0.006863112    0.000059140
     24       17          -0.003166551   -0.001058740   -0.000212990
     25        1          -0.007382441   -0.001098085   -0.000455203
     26        1          -0.000671774    0.001965674   -0.000014256
     27        1           0.000990928   -0.002042537    0.000032570
     28        1          -0.002178909   -0.002192723   -0.000161726
 -------------------------------------------------------------------
 Cartesian Forces:  Max     0.034034569 RMS     0.006963355

 GradGradGradGradGradGradGradGradGradGradGradGradGradGradGradGradGradGrad
 Berny optimization.
 FormGI is forming the generalized inverse of G from B-inverse, IUseBI=4.
 GSVD:  received Info=                   1 from GESDD.
 Internal  Forces:  Max     0.034526435 RMS     0.007182462
 Search for a local minimum.
 Step number   1 out of a maximum of  148
 All quantities printed in internal units (Hartrees-Bohrs-Radians)
 Mixed Optimization -- RFO/linear search
 Second derivative matrix not updated -- first step.
 ITU=  0
     Eigenvalues ---    0.01158   0.01160   0.01620   0.01622   0.01677
     Eigenvalues ---    0.01684   0.01927   0.01938   0.01972   0.01986
     Eigenvalues ---    0.02031   0.02040   0.02069   0.02078   0.02078
     Eigenvalues ---    0.02078   0.02085   0.02090   0.02111   0.02116
     Eigenvalues ---    0.02124   0.02131   0.02145   0.02148   0.02159
     Eigenvalues ---    0.16000   0.16000   0.16000   0.16000   0.16000
     Eigenvalues ---    0.16000   0.16000   0.16000   0.16000   0.22000
     Eigenvalues ---    0.22000   0.22000   0.22372   0.22966   0.23476
     Eigenvalues ---    0.24000   0.24609   0.25000   0.25000   0.25000
     Eigenvalues ---    0.25000   0.25000   0.25000   0.25000   0.29649
     Eigenvalues ---    0.29669   0.30082   0.35602   0.35634   0.35635
     Eigenvalues ---    0.35646   0.35674   0.36708   0.36712   0.39532
     Eigenvalues ---    0.39553   0.40615   0.40753   0.41260   0.41313
     Eigenvalues ---    0.42472   0.42475   0.44113   0.44168   0.45023
     Eigenvalues ---    0.45462   0.45866   0.45942   0.46041   0.46421
     Eigenvalues ---    0.50817   0.50821   0.97306
 RFO step:  Lambda=-1.90820311D-02 EMin= 1.15752450D-02
 Linear search not attempted -- first point.
 Iteration  1 RMS(Cart)=  0.15323573 RMS(Int)=  0.00313489
 Iteration  2 RMS(Cart)=  0.00923383 RMS(Int)=  0.00002433
 Iteration  3 RMS(Cart)=  0.00000306 RMS(Int)=  0.00002432
 Iteration  4 RMS(Cart)=  0.00000000 RMS(Int)=  0.00002432
 Variable       Old X    -DE/DX   Delta X   Delta X   Delta X     New X
                                 (Linear)    (Quad)   (Total)
    R1        2.64723  -0.00786   0.00000  -0.01640  -0.01643   2.63080
    R2        2.63725  -0.00533   0.00000  -0.01061  -0.01066   2.62659
    R3        3.32327  -0.00848   0.00000  -0.02685  -0.02685   3.29643
    R4        2.64345  -0.01122   0.00000  -0.02377  -0.02376   2.61969
    R5        3.32369  -0.01101   0.00000  -0.03489  -0.03489   3.28880
    R6        2.66337  -0.01187   0.00000  -0.02624  -0.02620   2.63717
    R7        2.04709   0.00247   0.00000   0.00659   0.00659   2.05368
    R8        2.67651  -0.01513   0.00000  -0.03388  -0.03384   2.64267
    R9        2.72194  -0.03185   0.00000  -0.07687  -0.07687   2.64507
   R10        2.64216  -0.00595   0.00000  -0.01219  -0.01220   2.62997
   R11        2.02983   0.00412   0.00000   0.01068   0.01068   2.04051
   R12        2.04656   0.00131   0.00000   0.00348   0.00348   2.05004
   R13        2.59050  -0.00056   0.00000  -0.00106  -0.00106   2.58944
   R14        1.95023  -0.01242   0.00000  -0.02799  -0.02799   1.92224
   R15        2.29738   0.03404   0.00000   0.03431   0.03431   2.33169
   R16        2.59046  -0.00259   0.00000  -0.00491  -0.00491   2.58555
   R17        1.95026  -0.01252   0.00000  -0.02821  -0.02821   1.92205
   R18        2.72165  -0.02828   0.00000  -0.06821  -0.06821   2.65343
   R19        2.67922  -0.01580   0.00000  -0.03598  -0.03595   2.64327
   R20        2.66448  -0.00984   0.00000  -0.02202  -0.02197   2.64251
   R21        2.64417  -0.00526   0.00000  -0.01107  -0.01109   2.63309
   R22        2.02988   0.00411   0.00000   0.01065   0.01065   2.04053
   R23        2.63646  -0.00516   0.00000  -0.01011  -0.01016   2.62630
   R24        2.04639   0.00176   0.00000   0.00469   0.00469   2.05108
   R25        2.63487  -0.00420   0.00000  -0.00808  -0.00811   2.62676
   R26        3.31500  -0.00334   0.00000  -0.01044  -0.01044   3.30456
   R27        2.63974  -0.00786   0.00000  -0.01633  -0.01632   2.62342
   R28        2.04594   0.00212   0.00000   0.00565   0.00565   2.05159
   R29        2.04658   0.00259   0.00000   0.00691   0.00691   2.05349
    A1        2.08754  -0.00242   0.00000  -0.00726  -0.00735   2.08020
    A2        2.11820  -0.00006   0.00000  -0.00106  -0.00102   2.11718
    A3        2.07744   0.00247   0.00000   0.00832   0.00837   2.08581
    A4        2.09131   0.00244   0.00000   0.00955   0.00952   2.10083
    A5        2.11554  -0.00037   0.00000  -0.00160  -0.00158   2.11395
    A6        2.07634  -0.00208   0.00000  -0.00795  -0.00793   2.06840
    A7        2.12032  -0.00423   0.00000  -0.01844  -0.01838   2.10194
    A8        2.07086   0.00274   0.00000   0.01272   0.01269   2.08356
    A9        2.09201   0.00149   0.00000   0.00572   0.00569   2.09769
   A10        2.05577   0.00809   0.00000   0.02951   0.02960   2.08537
   A11        2.05261  -0.00953   0.00000  -0.03515  -0.03520   2.01741
   A12        2.17481   0.00144   0.00000   0.00564   0.00560   2.18041
   A13        2.10534  -0.00485   0.00000  -0.01946  -0.01944   2.08590
   A14        2.15763  -0.00408   0.00000  -0.02660  -0.02662   2.13101
   A15        2.02022   0.00893   0.00000   0.04607   0.04605   2.06627
   A16        2.10609   0.00097   0.00000   0.00611   0.00605   2.11214
   A17        2.09216  -0.00062   0.00000  -0.00382  -0.00379   2.08836
   A18        2.08494  -0.00034   0.00000  -0.00228  -0.00225   2.08268
   A19        2.23490  -0.00252   0.00000  -0.01056  -0.01056   2.22435
   A20        2.01778  -0.00257   0.00000  -0.01613  -0.01613   2.00164
   A21        2.03051   0.00510   0.00000   0.02669   0.02669   2.05720
   A22        2.10323   0.01662   0.00000   0.06177   0.06177   2.16500
   A23        2.07686  -0.03453   0.00000  -0.12831  -0.12831   1.94855
   A24        2.10309   0.01791   0.00000   0.06654   0.06654   2.16964
   A25        2.03095   0.00421   0.00000   0.02240   0.02240   2.05335
   A26        2.23466  -0.00160   0.00000  -0.00670  -0.00670   2.22796
   A27        2.01757  -0.00261   0.00000  -0.01570  -0.01570   2.00187
   A28        2.17513   0.00020   0.00000   0.00144   0.00140   2.17653
   A29        2.05250  -0.00804   0.00000  -0.02919  -0.02923   2.02327
   A30        2.05556   0.00784   0.00000   0.02775   0.02783   2.08338
   A31        2.10510  -0.00366   0.00000  -0.01572  -0.01570   2.08940
   A32        2.15759  -0.00451   0.00000  -0.02756  -0.02757   2.13002
   A33        2.02050   0.00817   0.00000   0.04328   0.04327   2.06377
   A34        2.10234  -0.00151   0.00000  -0.00435  -0.00441   2.09793
   A35        2.08779  -0.00040   0.00000  -0.00426  -0.00423   2.08356
   A36        2.09306   0.00191   0.00000   0.00860   0.00864   2.10170
   A37        2.09036   0.00292   0.00000   0.01376   0.01368   2.10404
   A38        2.09651  -0.00128   0.00000  -0.00622  -0.00618   2.09033
   A39        2.09631  -0.00164   0.00000  -0.00754  -0.00750   2.08881
   A40        2.09626  -0.00402   0.00000  -0.01464  -0.01466   2.08160
   A41        2.09743   0.00279   0.00000   0.01170   0.01171   2.10914
   A42        2.08950   0.00122   0.00000   0.00294   0.00295   2.09244
   A43        2.11676  -0.00158   0.00000  -0.00681  -0.00674   2.11002
   A44        2.09918  -0.00092   0.00000  -0.00614  -0.00617   2.09301
   A45        2.06724   0.00250   0.00000   0.01294   0.01291   2.08015
    D1        0.00008  -0.00001   0.00000  -0.00016  -0.00016  -0.00008
    D2        3.14156  -0.00000   0.00000  -0.00007  -0.00007   3.14149
    D3       -3.14137  -0.00001   0.00000  -0.00016  -0.00016  -3.14153
    D4        0.00012  -0.00000   0.00000  -0.00008  -0.00008   0.00004
    D5        0.00008   0.00000   0.00000   0.00000  -0.00000   0.00007
    D6       -3.14133   0.00000   0.00000   0.00006   0.00006  -3.14127
    D7        3.14152   0.00000   0.00000   0.00001   0.00000   3.14153
    D8        0.00012   0.00000   0.00000   0.00007   0.00007   0.00018
    D9       -0.00024   0.00001   0.00000   0.00021   0.00021  -0.00003
   D10        3.14148   0.00000   0.00000   0.00006   0.00006   3.14154
   D11        3.14145   0.00001   0.00000   0.00013   0.00013   3.14158
   D12       -0.00001  -0.00000   0.00000  -0.00002  -0.00002  -0.00003
   D13        0.00025  -0.00000   0.00000  -0.00010  -0.00010   0.00015
   D14        3.14116  -0.00001   0.00000  -0.00024  -0.00024   3.14092
   D15       -3.14147   0.00000   0.00000   0.00005   0.00005  -3.14142
   D16       -0.00056  -0.00000   0.00000  -0.00009  -0.00009  -0.00065
   D17       -0.00010  -0.00000   0.00000  -0.00006  -0.00006  -0.00016
   D18        3.14084   0.00001   0.00000   0.00015   0.00015   3.14099
   D19       -3.14095   0.00001   0.00000   0.00010   0.00011  -3.14085
   D20       -0.00001   0.00002   0.00000   0.00032   0.00032   0.00031
   D21        3.13694   0.00001   0.00000   0.00025   0.00025   3.13719
   D22       -0.00444   0.00001   0.00000   0.00023   0.00023  -0.00421
   D23       -0.00539   0.00000   0.00000   0.00011   0.00011  -0.00528
   D24        3.13642   0.00000   0.00000   0.00009   0.00009   3.13651
   D25       -0.00006   0.00000   0.00000   0.00011   0.00011   0.00005
   D26        3.14134   0.00000   0.00000   0.00005   0.00005   3.14139
   D27       -3.14105  -0.00000   0.00000  -0.00007  -0.00007  -3.14112
   D28        0.00035  -0.00000   0.00000  -0.00013  -0.00013   0.00022
   D29       -0.00146  -0.00002   0.00000  -0.00050  -0.00050  -0.00196
   D30        3.13956  -0.00001   0.00000  -0.00020  -0.00020   3.13936
   D31        3.13991  -0.00002   0.00000  -0.00049  -0.00049   3.13943
   D32       -0.00225  -0.00001   0.00000  -0.00019  -0.00019  -0.00244
   D33       -0.00209  -0.00003   0.00000  -0.00080  -0.00081  -0.00290
   D34        3.14116   0.00000   0.00000   0.00010   0.00011   3.14127
   D35        3.13894  -0.00002   0.00000  -0.00051  -0.00051   3.13842
   D36       -0.00100   0.00001   0.00000   0.00040   0.00040  -0.00060
   D37       -0.00895  -0.00004   0.00000  -0.00125  -0.00125  -0.01020
   D38        3.13306  -0.00004   0.00000  -0.00121  -0.00120   3.13185
   D39        3.13429  -0.00001   0.00000  -0.00038  -0.00039   3.13390
   D40       -0.00689  -0.00001   0.00000  -0.00034  -0.00034  -0.00724
   D41       -3.14152   0.00000   0.00000   0.00008   0.00008  -3.14144
   D42       -0.00068   0.00002   0.00000   0.00044   0.00044  -0.00024
   D43       -0.00034   0.00000   0.00000   0.00002   0.00002  -0.00031
   D44        3.14050   0.00002   0.00000   0.00039   0.00038   3.14088
   D45       -3.14141  -0.00001   0.00000  -0.00026  -0.00026   3.14151
   D46       -0.00028  -0.00000   0.00000  -0.00013  -0.00013  -0.00041
   D47        0.00056  -0.00001   0.00000  -0.00022  -0.00022   0.00035
   D48       -3.14149  -0.00000   0.00000  -0.00008  -0.00008  -3.14157
   D49       -0.00008   0.00000   0.00000   0.00007   0.00007  -0.00001
   D50        3.14141   0.00000   0.00000   0.00010   0.00011   3.14151
   D51       -3.14098  -0.00001   0.00000  -0.00024  -0.00025  -3.14122
   D52        0.00051  -0.00001   0.00000  -0.00021  -0.00021   0.00030
   D53        0.00028   0.00000   0.00000   0.00003   0.00003   0.00031
   D54       -3.14145   0.00000   0.00000   0.00004   0.00004  -3.14141
   D55       -3.14120   0.00000   0.00000  -0.00001  -0.00001  -3.14121
   D56        0.00025   0.00000   0.00000   0.00001   0.00001   0.00026
   D57       -0.00006  -0.00001   0.00000  -0.00022  -0.00022  -0.00028
   D58        3.14155   0.00000   0.00000   0.00005   0.00005  -3.14159
   D59       -3.14152  -0.00001   0.00000  -0.00023  -0.00023   3.14144
   D60        0.00009   0.00000   0.00000   0.00004   0.00004   0.00013
   D61       -0.00037   0.00001   0.00000   0.00033   0.00032  -0.00005
   D62       -3.14151   0.00001   0.00000   0.00020   0.00020  -3.14131
   D63        3.14121   0.00000   0.00000   0.00005   0.00005   3.14126
   D64        0.00007  -0.00000   0.00000  -0.00007  -0.00007  -0.00001
         Item               Value     Threshold  Converged?
 Maximum Force            0.034526     0.000450     NO 
 RMS     Force            0.007182     0.000300     NO 
 Maximum Displacement     0.504993     0.001800     NO 
 RMS     Displacement     0.154670     0.001200     NO 
 Predicted change in Energy=-1.010782D-02
 GradGradGradGradGradGradGradGradGradGradGradGradGradGradGradGradGradGrad

                          Input orientation:                          
 ---------------------------------------------------------------------
 Center     Atomic      Atomic             Coordinates (Angstroms)
 Number     Number       Type             X           Y           Z
 ---------------------------------------------------------------------
      1          6           0       -0.988859    2.428353   -0.070754
      2          6           0       -0.619252    1.086337   -0.092780
      3          6           0        0.717798    0.726436   -0.025362
      4          6           0        1.709323    1.704271    0.065330
      5          6           0        1.344699    3.054146    0.088056
      6          6           0       -0.001102    3.402038    0.019717
      7         17           0       -1.814164   -0.174016   -0.204767
      8         17           0       -2.663741    2.908689   -0.154151
      9          7           0        3.024033    1.228097    0.128472
     10          6           0        4.174529    1.967228    0.216159
     11          8           0        4.202474    3.200313    0.250375
     12          7           0        5.284904    1.169074    0.261225
     13          1           0        0.988218   -0.325982   -0.043737
     14          1           0        2.076510    3.845055    0.157811
     15          1           0       -0.280600    4.450091    0.037767
     16          1           0        3.110468    0.214844    0.104889
     17          1           0        5.144085    0.162275    0.229121
     18          6           0        6.627226    1.571181    0.351121
     19          6           0        7.058758    2.900832    0.399373
     20          6           0        8.420522    3.182187    0.488342
     21          6           0        9.347074    2.147141    0.529056
     22          6           0        8.929066    0.822318    0.481357
     23          6           0        7.572410    0.541474    0.392681
     24         17           0       11.053351    2.513235    0.641036
     25          1           0        6.366691    3.729158    0.369501
     26          1           0        8.749361    4.215895    0.525368
     27          1           0        9.648743    0.010086    0.512851
     28          1           0        7.247113   -0.494695    0.355740
 ---------------------------------------------------------------------
                    Distance matrix (angstroms):
                    1          2          3          4          5
     1  C    0.000000
     2  C    1.392157   0.000000
     3  C    2.410655   1.386281   0.000000
     4  C    2.796963   2.414354   1.395531   0.000000
     5  C    2.421225   2.786051   2.413317   1.398439   0.000000
     6  C    1.389932   2.399424   2.770865   2.410404   1.391718
     7  Cl   2.733388   1.740358   2.693294   4.001984   4.526057
     8  Cl   1.744394   2.739466   4.026614   4.541199   4.018385
     9  N    4.193281   3.652749   2.365174   1.399711   2.481179
    10  C    5.191871   4.883825   3.680609   2.483774   3.034096
    11  O    5.258230   5.275954   4.282413   2.913449   2.866110
    12  N    6.407503   5.915338   4.597447   3.620717   4.371350
    13  H    3.390564   2.140329   1.086761   2.157270   3.401428
    14  H    3.384638   3.865288   3.406675   2.174014   1.079792
    15  H    2.144955   3.383278   3.855696   3.391178   2.143080
    16  H    4.662076   3.835281   2.450217   2.045278   3.343630
    17  H    6.545078   5.845816   4.469347   3.768577   4.776835
    18  C    7.675771   7.276232   5.981360   4.927997   5.493039
    19  C    8.075171   7.904837   6.716857   5.491793   5.724587
    20  C    9.456072   9.297731   8.101022   6.885010   7.088293
    21  C   10.357141  10.041894   8.763001   7.664621   8.065677
    22  C   10.062276   9.569206   8.227446   7.285300   7.915703
    23  C    8.778975   8.224103   6.869838   5.986237   6.722403
    24  Cl  12.063527  11.782368  10.510014   9.396633   9.739420
    25  H    7.482649   7.483422   6.409544   5.087609   5.074964
    26  H    9.918850   9.896825   8.774145   7.488793   7.507990
    27  H   10.924613  10.341993   8.975778   8.130493   8.854597
    28  H    8.749705   8.036201   6.653446   5.965476   6.892345
                    6          7          8          9         10
     6  C    0.000000
     7  Cl   4.015688   0.000000
     8  Cl   2.713535   3.198033   0.000000
     9  N    3.726834   5.048279   5.937596   0.000000
    10  C    4.419634   6.373896   6.912700   1.370271   0.000000
    11  O    4.214730   6.913261   6.884301   2.300699   1.233876
    12  N    5.743372   7.240015   8.147378   2.265534   1.368216
    13  H    3.857579   2.811115   4.879764   2.566975   3.934328
    14  H    2.128804   5.605510   4.841909   2.783367   2.816260
    15  H    1.084832   4.877808   2.844664   4.616284   5.103392
    16  H    4.455034   4.949657   6.376943   1.017207   2.053158
    17  H    6.083820   6.979870   8.285641   2.375022   2.048918
    18  C    6.884518   8.637811   9.400335   3.626330   2.488130
    19  C    7.087804   9.410017   9.738246   4.376121   3.037097
    20  C    8.437517  10.793206  11.106237   5.750658   4.424779
    21  C    9.445771  11.423638  12.054311   6.402027   5.185123
    22  C    9.306769  10.811125  11.796185   5.929468   4.897629
    23  C    8.104320   9.432743  10.520528   4.607492   3.689109
    24  Cl  11.107518  13.172306  13.745812   8.147653   6.913526
    25  H    6.385777   9.082453   9.082736   4.181718   2.816645
    26  H    8.802764  11.462655  11.507799   6.470227   5.106975
    27  H   10.240509  11.486823  12.666651   6.746708   5.821121
    28  H    8.236143   9.084258  10.491332   4.566625   3.939711
                   11         12         13         14         15
    11  O    0.000000
    12  N    2.301675   0.000000
    13  H    4.780450   4.559573   0.000000
    14  H    2.223507   4.179159   4.315386   0.000000
    15  H    4.658873   6.464507   4.942410   2.436483   0.000000
    16  H    3.182243   2.379741   2.195115   3.774958   5.425972
    17  H    3.180686   1.017106   4.193338   4.793535   6.917312
    18  C    2.922951   1.404136   5.962679   5.090863   7.490285
    19  C    2.875804   2.482867   6.889131   5.076683   7.509803
    20  C    4.224795   3.733136   8.235867   6.387107   8.804552
    21  C    5.258683   4.186833   8.735840   7.475416   9.911461
    22  C    5.296119   3.667234   8.040608   7.496609   9.908353
    23  C    4.294897   2.375677   6.655413   6.416676   8.779124
    24  Cl   6.896319   5.935150  10.480314   9.087956  11.514070
    25  H    2.231077   2.781370   6.748548   4.296964   6.694496
    26  H    4.667034   4.621185   9.010431   6.693248   9.046148
    27  H    6.317301   4.522129   8.684896   8.495396  10.887204
    28  H    4.788947   2.574358   6.273899   6.753350   9.012130
                   16         17         18         19         20
    16  H    0.000000
    17  H    2.038087   0.000000
    18  C    3.777282   2.049294   0.000000
    19  C    4.784375   3.345841   1.398757   0.000000
    20  C    6.094984   4.463418   2.414556   1.393369   0.000000
    21  C    6.542855   4.657764   2.785852   2.412729   1.389776
    22  C    5.862323   3.850371   2.424092   2.797318   2.414051
    23  C    4.483128   2.463190   1.398355   2.414633   2.775213
    24  Cl   8.286100   6.373077   4.534546   4.020623   2.720772
    25  H    4.798272   3.773212   2.173725   1.079803   2.128737
    26  H    6.926927   5.433011   3.395340   2.145554   1.085384
    27  H    6.554189   4.516149   3.404811   3.882951   3.401669
    28  H    4.204545   2.206890   2.156879   3.401027   3.861856
                   21         22         23         24         25
    21  C    0.000000
    22  C    1.390022   0.000000
    23  C    2.397123   1.388255   0.000000
    24  Cl   1.748698   2.719796   4.008301   0.000000
    25  H    3.378005   3.876595   3.408170   4.849431   0.000000
    26  H    2.153374   3.398616   3.860594   2.867194   2.436867
    27  H    2.158303   1.085656   2.146619   2.873171   4.962248
    28  H    3.379227   2.139923   1.086660   4.859680   4.314657
                   26         27         28
    26  H    0.000000
    27  H    4.300915   0.000000
    28  H    4.947240   2.459129   0.000000
 Stoichiometry    C13H9Cl3N2O
 Framework group  C1[X(C13H9Cl3N2O)]
 Deg. of freedom    78
 Full point group                 C1      NOp   1
 Largest Abelian subgroup         C1      NOp   1
 Largest concise Abelian subgroup C1      NOp   1
                         Standard orientation:                         
 ---------------------------------------------------------------------
 Center     Atomic      Atomic             Coordinates (Angstroms)
 Number     Number       Type             X           Y           Z
 ---------------------------------------------------------------------
      1          6           0        4.548042   -0.728100    0.003752
      2          6           0        4.233114    0.627954   -0.002539
      3          6           0        2.909505    1.040061   -0.004125
      4          6           0        1.876895    0.101337    0.000521
      5          6           0        2.186504   -1.262383    0.006997
      6          6           0        3.519366   -1.662827    0.008516
      7         17           0        5.480899    1.841149   -0.008536
      8         17           0        6.204872   -1.273826    0.005968
      9          7           0        0.580365    0.628783   -0.000764
[...]
 00000706,-0.00000095,0.00000088,0.00000028,-0.00000708,-0.00003049,0.0
 0002044,-0.00022755,-0.00009345,0.00005286,-0.00794125,0.03314026,-0.0
 2363231,-0.03808418,-0.02360646,0.00976646,-0.05221587,0.09209817,-0.1
 1473622,0.07956576,-0.20834542,0.22807543,0.00000105,0.00003436,0.0000
 1496,0.00004151,-0.00003596,-0.00001299,-0.00006481,-0.00002500,-0.000
 01456,0.00013418,-0.00009022,0.00008945,0.00002211,0.00003969,-0.00000
 650,-0.00002423,0.00000127,-0.00001245,-0.00000205,0.00000095,-0.00000
 246,0.00000011,-0.00000233,-0.00000007,-0.00021131,0.00002279,0.000161
 85,-0.00142482,0.00113382,-0.00144605,-0.00046102,-0.00104360,-0.00016
 290,0.00569768,0.00097746,0.00169846,-0.00000296,-0.00000379,0.0000043
 9,-0.00000797,-0.00001700,0.00000771,-0.00000009,-0.00000010,-0.000000
 44,0.00000512,-0.00004462,0.00004441,-0.00018138,-0.00027285,0.0007131
 1,-0.04674826,0.05414130,-0.03653138,-0.04002921,-0.03443824,0.0095698
 3,0.06185899,0.00128961,0.01027876,-0.12359344,-0.01506709,-0.00573217
 ,0.71553463,0.00000570,0.00004069,-0.00001698,0.00001284,-0.00005633,0
 .00004039,0.00000199,-0.00001700,-0.00003274,0.00002823,0.00011397,-0.
 00011460,0.00004130,0.00000566,-0.00001839,-0.00002471,-0.00000918,0.0
 0001439,0.00000871,0.00000878,0.00000039,0.00001663,-0.00000844,0.0000
 0250,0.00045468,-0.00029390,-0.00018900,-0.00058656,0.00190694,0.00118
 843,0.00004725,-0.00073222,-0.00035640,0.00541183,-0.00464665,0.006024
 63,-0.00000075,0.00000018,-0.00000370,-0.00000309,0.00000073,0.0000039
 1,0.00000384,-0.00000171,-0.00000012,-0.00002709,-0.00007349,0.0000893
 4,0.00000860,-0.00033153,-0.00023296,0.00203891,0.05935790,-0.02707691
 ,-0.03857532,-0.03698967,0.00837005,0.05431270,-0.03732094,0.03152984,
 -0.08443485,-0.29304184,0.08812717,0.00277249,0.62404261,0.00001475,0.
 00001754,-0.00005027,-0.00002881,-0.00004127,0.00004974,0.00002777,0.0
 0005874,-0.00004190,-0.00021865,-0.00003925,-0.00008426,0.00003326,-0.
 00002331,-0.00003313,-0.00001347,-0.00000708,0.00005096,-0.00000264,0.
 00000519,-0.00000300,0.00001547,-0.00000683,0.00000255,0.00021543,0.00
 044286,-0.00020694,-0.00201902,0.00023037,0.00079311,0.00002482,-0.000
 42639,0.00000871,-0.00046745,0.00442184,0.00352446,0.00000116,-0.00000
 153,0.00000124,0.00000170,0.00001677,-0.00001001,0.00000098,-0.0000012
 0,-0.00000058,0.00002104,-0.00001516,0.00005133,0.00014988,0.00027897,
 -0.00033122,-0.01118226,-0.01530516,0.00867452,0.01087414,0.00941583,-
 0.00446754,-0.01501742,0.02114731,-0.00571149,0.02668423,0.10108751,-0
 .10266031,0.11110109,-0.22321237,0.25641629,-0.00001068,-0.00008721,-0
 .00006001,0.00004255,0.00010215,0.00007870,-0.00033259,0.00013928,-0.0
 0003509,0.00096453,-0.00094995,0.00018421,-0.00031618,0.00018139,0.000
 04046,0.00008961,-0.00000958,-0.00001358,-0.00009328,-0.00006451,-0.00
 004339,-0.00017133,0.00006609,0.00000007,-0.00437534,0.00070756,0.0002
 8592,0.00757416,-0.01178104,-0.00117575,-0.00028178,0.00508894,0.00038
 934,-0.05913360,0.02455920,-0.02169103,0.00001310,0.00001738,0.0000005
 6,0.00001375,-0.00004116,-0.00001552,-0.00003008,0.00001253,0.00000633
 ,0.00010629,0.00045251,-0.00022457,0.00073973,0.00321868,-0.00095550,-
 0.19795772,0.04298751,-0.04091970,0.06213746,0.04903434,-0.01316643,-0
 .06769365,0.01797848,-0.02158687,-0.00047438,-0.09058453,0.04069767,-0
 .34634889,-0.03017792,-0.04135179,0.70232618,-0.00002109,0.00000169,0.
 00004339,0.00005905,-0.00000467,-0.00006244,-0.00018463,-0.00002398,0.
 00001675,0.00029793,-0.00038244,0.00004412,-0.00002666,0.00008571,0.00
 001752,0.00002079,0.00001906,-0.00003015,-0.00001787,-0.00001098,-0.00
 000616,-0.00001884,0.00000637,-0.00000027,-0.00141790,0.00043462,0.000
 44351,-0.00268973,-0.00231260,-0.00113578,0.00033381,0.00048003,-0.000
 19506,-0.00577885,0.01272695,-0.00213784,-0.00000206,-0.00000275,0.000
 00638,-0.00000371,-0.00001487,0.00001195,-0.00000527,0.00000182,-0.000
 00005,-0.00001585,0.00000586,-0.00002543,-0.00192927,0.00207180,-0.000
 58483,0.11255536,-0.20612027,0.08227698,0.00380346,-0.03272598,0.02079
 533,0.01418109,-0.00655072,0.00440683,-0.03021359,0.00389779,-0.004559
 75,-0.09762066,-0.13415075,0.01541927,0.07222707,0.64239527,-0.0000083
 5,-0.00004074,0.00006499,0.00000377,0.00005694,-0.00007015,-0.00003377
 ,-0.00002804,0.00005717,0.00015300,-0.00000312,-0.00011115,-0.00003403
 ,-0.00000751,0.00005402,0.00001547,0.00002395,-0.00003676,0.00000149,-
 0.00000840,0.00000517,-0.00001195,0.00000767,-0.00000766,-0.00029120,-
 0.00023568,0.00006511,0.00317767,-0.00171873,0.00150059,0.00006837,0.0
 0108069,-0.00009339,-0.00952021,0.00234239,0.00338482,0.00000233,0.000
 00443,-0.00000459,0.00000192,-0.00000287,0.00000207,-0.00000224,0.0000
 0060,-0.00000044,-0.00005375,0.00001000,-0.00002830,0.00106883,-0.0000
 9002,-0.00024848,-0.07654192,0.06892051,-0.11253347,0.00921132,0.03010
 061,-0.00536245,-0.01890263,0.00438006,-0.00872558,0.01270693,-0.01540
 766,0.01627435,-0.01106158,0.02894461,-0.07507004,0.07472258,-0.221101
 00,0.24806191,-0.00001663,-0.00002269,-0.00001307,0.00005665,0.0000240
 8,0.00004000,-0.00020404,0.00000451,-0.00001853,0.00067271,-0.00037042
 ,-0.00004301,-0.00014787,0.00012529,0.00004202,0.00004525,-0.00001130,
 -0.00001392,-0.00004119,-0.00002942,-0.00002180,-0.00007910,0.00002981
 ,-0.00000092,-0.00184505,-0.00024620,-0.00003929,0.00356074,-0.0026944
 8,0.00060468,-0.00079380,0.00147229,0.00004236,-0.00540842,0.00011998,
 -0.00032908,0.00000559,0.00001181,-0.00000555,0.00000934,-0.00002743,-
 0.00001420,-0.00001206,0.00000554,0.00000280,0.00002194,0.00015682,-0.
 00004183,-0.00019439,0.00024541,-0.00029328,0.00237432,0.00052357,0.00
 052404,0.00098015,0.00446327,-0.00342367,-0.04006246,-0.01357484,-0.00
 232262,-0.15380551,-0.03339634,-0.01080022,-0.02919193,-0.00783769,-0.
 00281088,0.00174080,-0.00287958,0.00107284,0.22259408,-0.00000382,-0.0
 0000263,-0.00000483,0.00001786,0.00000586,0.00001048,-0.00005928,-0.00
 000104,-0.00000793,0.00018696,-0.00010622,0.00000104,-0.00003963,0.000
 03399,0.00001159,0.00000976,-0.00000172,-0.00000660,-0.00001090,-0.000
 00806,-0.00000603,-0.00002221,0.00000795,0.00000031,-0.00051548,-0.000
 04704,0.00002712,0.00099276,-0.00084511,0.00010044,-0.00018716,0.00046
 680,-0.00003941,-0.00152137,0.00017149,-0.00044239,0.00000171,0.000002
 48,-0.00000060,0.00000275,-0.00000935,-0.00000138,-0.00000338,0.000001
 46,0.00000072,0.00001130,0.00004168,-0.00000594,-0.00000331,0.00005106
 ,-0.00006663,0.00032863,0.00162616,-0.00086371,-0.00082111,-0.00166530
 ,0.00271949,0.01244144,0.00658245,0.00085870,-0.03332633,-0.04523250,0
 .00425764,-0.03382636,-0.00571528,-0.00261449,0.00237272,-0.00295515,0
 .00404259,0.05404356,0.04720900,-0.00000037,0.00000045,-0.00000399,0.0
 0000287,0.00000331,-0.00000084,-0.00001214,-0.00000063,-0.00000548,0.0
 0005223,-0.00002849,0.00002501,-0.00001248,0.00001431,0.00000041,0.000
 00292,-0.00000139,-0.00000120,-0.00000336,-0.00000279,-0.00000095,-0.0
 0000620,0.00000168,0.00000086,-0.00011441,-0.00003172,0.00003886,0.000
 33319,-0.00009813,-0.00004852,-0.00023958,0.00009048,0.00005008,-0.000
 23559,-0.00020572,-0.00068136,0.00000070,0.00000021,0.00000026,-0.0000
 0010,-0.00000577,-0.00000036,-0.00000098,0.00000033,-0.00000017,0.0000
 0547,0.00001199,0.00000243,-0.00006371,-0.00001170,-0.00002852,0.00047
 719,-0.00093296,0.00009645,-0.00068623,0.00379359,0.00287532,-0.014017
 27,-0.00438840,0.00236938,-0.01089196,0.00443364,-0.02525086,0.0090198
 1,0.00233711,0.00378356,-0.00145867,0.00306949,0.00320502,0.01703624,-
 0.00563631,0.01728149,-0.00000081,-0.00000269,-0.00000523,-0.00001347,
 -0.00000368,0.00000831,0.00001273,0.00000533,-0.00000133,-0.00006243,0
 .00002460,-0.00005966,-0.00000121,0.00000696,0.00001894,0.00000315,0.0
 0000051,0.00000066,0.00000281,0.00000245,0.00000099,0.00000705,-0.0000
 0314,-0.00000001,0.00005297,0.00011159,-0.00015173,-0.00071187,-0.0017
 0238,0.00043720,-0.00436264,0.00058660,0.00183510,-0.00012211,0.001503
 28,0.00027000,-0.00000025,0.00000004,-0.00000110,-0.00000747,-0.000002
 56,-0.00000285,0.00000101,-0.00000075,-0.00000002,-0.00000076,-0.00004
 356,0.00002299,0.00011203,0.00004470,-0.00012325,0.01131624,-0.0073976
 1,0.00540841,-0.18249589,0.12200323,-0.09228043,-0.01499867,0.01796045
 ,-0.01243051,-0.00244800,-0.00256819,-0.00073898,-0.00034956,-0.000572
 96,0.00041447,-0.00015438,-0.00259781,0.00016207,-0.00139772,0.0003441
 1,-0.00040871,0.19379384,0.00000629,0.00001362,0.00002084,-0.00000083,
 -0.00000872,-0.00003313,0.00004601,-0.00000925,0.00000775,-0.00021538,
 0.00009262,0.00004368,0.00005556,-0.00005980,-0.00002377,-0.00001490,0
 .00002079,-0.00002200,0.00001335,0.00000903,0.00000809,0.00002373,-0.0
 0001041,0.00000349,0.00047958,0.00053311,0.00029477,-0.00090395,-0.002
 13216,-0.00007660,0.00198846,0.00148804,-0.00089089,0.00110823,0.00120
 504,-0.00176651,-0.00000268,-0.00000716,0.00000462,0.00000289,0.000012
 36,0.00002963,0.00000495,-0.00000085,-0.00000168,0.00006914,0.00000340
 ,0.00005387,0.00000095,-0.00006768,-0.00017593,0.01911754,-0.01111998,
 0.01128835,0.11935716,-0.17284802,0.09184866,-0.00789336,0.01008696,-0
 .00472591,-0.00250579,0.00177794,0.00220019,-0.00088388,-0.00047214,-0
 .00035939,-0.00316944,-0.00280790,0.00354254,-0.00085362,0.00016721,-0
 .00016103,-0.12775930,0.17508908,0.00000079,0.00000463,0.00001143,0.00
 001625,0.00000679,-0.00001152,-0.00001749,-0.00001370,0.00000310,0.000
 12079,-0.00000629,0.00005617,-0.00002261,0.00003230,0.00001616,-0.0000
 1488,-0.00000722,-0.00002349,-0.00000561,-0.00000591,-0.00000352,-0.00
 001287,0.00000263,-0.00000040,-0.00000831,-0.00034711,0.00016678,0.000
 43065,0.00275807,-0.00040244,-0.00112985,-0.00115508,0.00048682,0.0013
 2402,-0.00178155,-0.00304267,-0.00000178,-0.00000149,0.00000303,-0.000
 00118,-0.00002966,-0.00000180,-0.00000145,0.00000066,0.00000133,-0.000
 01728,-0.00001801,-0.00000737,-0.00009716,0.00000381,-0.00018438,-0.00
 706108,0.00555920,0.00041403,-0.09026197,0.08979731,-0.10024623,-0.000
 21264,0.00135527,0.00302388,-0.00093714,0.00194588,0.00635116,0.000644
 88,-0.00034290,-0.00065244,0.00018664,0.00353678,0.00442563,0.00000065
 ,0.00007668,0.00010009,0.09646303,-0.09930550,0.09381260,-0.00000306,-
 0.00000344,-0.00000209,0.00000836,0.00000297,0.00000414,-0.00003498,0.
 00000375,-0.00000303,0.00011001,-0.00006627,-0.00000506,-0.00002648,0.
 00002059,0.00000495,0.00000675,-0.00000102,-0.00000034,-0.00000681,-0.
 00000454,-0.00000322,-0.00001236,0.00000475,-0.00000027,-0.00033005,0.
 00000391,-0.00000524,0.00069162,-0.00047291,-0.00004681,-0.00014372,0.
 00026648,0.00000755,-0.00052292,-0.00155773,0.00061090,0.00000105,0.00
 000142,-0.00000054,0.00000106,-0.00000518,-0.00000158,-0.00000264,0.00
 000093,0.00000079,0.00002260,0.00003393,0.00000607,-0.00044220,0.00001
 759,0.00006871,-0.00421871,-0.00082115,-0.00219561,-0.00469513,-0.0264
 2706,0.01102054,-0.08167347,-0.07916271,0.02854713,0.00785790,0.018974
 89,-0.00802764,-0.00262119,0.00218251,-0.00260460,-0.00108859,0.000204
 59,-0.00013801,0.00131271,0.00107629,0.00009006,0.00130536,0.00080103,
 0.00087235,0.08378608,-0.00000150,-0.00000091,-0.00000336,0.00000368,0
 .00000047,0.00000511,-0.00001524,0.00000111,-0.00000211,0.00004698,-0.
 00002850,-0.00000511,-0.00001093,0.00000868,0.00000323,0.00000341,-0.0
 0000082,-0.00000090,-0.00000298,-0.00000186,-0.00000171,-0.00000577,0.
 00000214,0.00000028,-0.00014294,0.00000177,-0.00000437,0.00029920,-0.0
 0024151,0.00003896,-0.00002658,0.00014330,-0.00001269,-0.00024596,-0.0
 0004325,0.00007509,0.00000034,0.00000059,-0.00000036,0.00000122,-0.000
 00123,-0.00000086,-0.00000098,0.00000072,0.00000031,0.00000693,0.00001
 176,-0.00000263,-0.00002952,0.00002327,-0.00004376,-0.00084513,0.00258
 589,0.00204877,-0.00051439,-0.00156478,0.00259283,-0.07801934,-0.28647
 993,0.10206339,-0.00761949,-0.01229610,0.00584242,0.00279283,0.0004349
 6,0.00305580,0.00032431,0.00030867,-0.00054082,-0.00010495,0.00031143,
 -0.00143379,0.00043164,-0.00026535,-0.00195206,0.08401924,0.29773370,0
 .00000046,0.00000059,-0.00000205,-0.00000218,-0.00000184,0.00000277,0.
 00000661,0.00000152,-0.00000299,-0.00002537,0.00000775,0.00000615,0.00
 000296,-0.00000449,-0.00000093,0.00000009,0.00000109,0.00000137,0.0000
 0125,0.00000069,0.00000021,0.00000261,-0.00000097,-0.00000004,0.000049
 02,0.00003377,-0.00000569,-0.00008265,0.00002644,-0.00003012,0.0000992
 4,0.00003429,-0.00002240,0.00018704,0.00004051,0.00012425,-0.00000037,
 -0.00000054,0.00000026,0.00000010,0.00000179,0.00000138,0.00000070,-0.
 00000022,-0.00000016,0.00000642,-0.00000588,-0.00000146,0.00001612,-0.
 00006292,-0.00008829,-0.00209090,0.00161639,0.00619016,-0.00094401,-0.
 00233095,0.00519520,0.02719665,0.10196834,-0.08024190,0.00471444,0.010
 54172,-0.00059925,-0.00277606,0.00320113,0.00359183,-0.00039515,-0.000
 60563,-0.00081804,0.00080537,-0.00112710,-0.00190707,0.00086451,-0.001
 91198,-0.00351649,-0.02802362,-0.11173767,0.07258201,-0.00000284,-0.00
 000324,-0.00000074,0.00001199,0.00000390,0.00000194,-0.00004748,0.0000
 0562,-0.00000153,0.00012283,-0.00010334,0.00001084,-0.00002781,0.00002
 335,0.00000763,0.00000721,0.00000018,-0.00000423,-0.00000894,-0.000006
 06,-0.00000430,-0.00001519,0.00000551,-0.00000015,-0.00044433,0.000066
 39,0.00003816,0.00045123,-0.00084730,-0.00017003,-0.00006585,0.0003335
 9,-0.00000344,-0.00148581,0.00128951,-0.00048843,0.00000119,0.00000125
 ,0.00000008,0.00000104,-0.00000540,-0.00000097,-0.00000282,0.00000132,
 0.00000048,0.00001608,0.00003759,-0.00000711,0.00003730,0.00010527,0.0
 0005669,-0.00286080,-0.00312044,-0.00049584,-0.00053303,-0.00055732,0.
 00036504,0.00026115,-0.00267320,0.00015359,0.00810649,-0.00791715,0.00
 448568,-0.18703441,0.12235123,-0.08480267,-0.01441193,0.01873919,-0.01
 236989,0.00121551,-0.00021022,0.00085329,0.00005187,0.00018440,0.00007
 123,0.00058102,-0.00032371,0.00024309,0.19481724,0.00000043,-0.0000003
 9,-0.00000120,0.00000143,0.00000031,-0.00000058,-0.00000541,0.00000230
 ,0.00000055,0.00000296,-0.00001859,0.00000952,-0.00000250,0.00000242,-
 0.00000302,-0.00000042,0.00000004,0.00000171,-0.00000153,-0.00000078,-
 0.00000073,-0.00000180,0.00000071,0.00000001,-0.00005813,0.00004200,0.
 00000682,-0.00010651,-0.00009046,-0.00012467,-0.00002276,0.00000613,0.
 00000294,-0.00024631,0.00056212,-0.00014824,-0.00000006,-0.00000002,0.
 00000054,0.00000060,-0.00000080,0.00000005,-0.00000043,0.,0.00000011,0
 .00000497,0.00000656,-0.00000056,0.00003100,-0.00000303,0.00004573,-0.
 00298145,0.00146215,0.00220308,-0.00085674,-0.00036504,-0.00044556,-0.
 00325853,-0.00294881,0.00332697,0.01874065,-0.01233415,0.01073788,0.12
 088034,-0.16988866,0.08397894,-0.00718529,0.00985684,-0.00413971,0.001
 00369,0.00004796,-0.00094602,0.00015341,-0.00005152,-0.00025952,0.0009
 4019,-0.00049012,0.00051236,-0.12778598,0.17445966,-0.00000024,-0.0000
 0273,-0.00000012,0.00000061,0.00000408,0.00000004,-0.00000413,0.000000
 59,0.00000196,0.00001924,-0.00001051,0.00000362,-0.00000736,0.00000277
 ,-0.00000073,0.00000154,-0.00000050,-0.00000001,-0.00000193,-0.0000016
 0,-0.00000105,-0.00000362,0.00000125,-0.00000026,-0.00004739,-0.000003
 49,-0.00002148,0.00014402,-0.00004730,-0.00005024,-0.00007328,0.000041
 33,0.00002064,-0.00019826,0.00009593,0.00001071,0.00000006,0.00000023,
 -0.00000012,0.00000155,-0.00000131,-0.00000111,-0.00000043,0.00000025,
 0.00000023,0.00000394,0.00000861,-0.00000224,-0.00000667,0.00000092,-0
 .00000599,-0.00057954,0.00238733,0.00640006,0.00033568,-0.00059013,-0.
 00071441,0.00027586,0.00347350,0.00414530,-0.00759301,0.00536469,-0.00
 059352,-0.08413815,0.08424193,-0.09218977,-0.00002306,0.00107973,0.003
 63301,0.00024549,-0.00117334,-0.00205435,0.00005777,-0.00027675,-0.000
 58839,-0.00032576,0.00023654,0.00002348,0.09116165,-0.09289071,0.08558
 371,0.00000087,0.00000040,0.00000111,-0.00000704,-0.00000105,-0.000003
 43,0.00002110,0.00000101,0.00000381,-0.00006790,0.00003935,-0.00001052
 ,0.00001445,-0.00001148,-0.00000370,-0.00000270,0.00000021,0.00000033,
 0.00000413,0.00000286,0.00000219,0.00000822,-0.00000317,0.00000043,0.0
 0019267,0.00001022,-0.00002959,-0.00029131,0.00038936,0.00016253,-0.00
 002328,-0.00023098,-0.00002168,0.00100176,0.00200453,-0.00009742,-0.00
 000030,-0.00000050,-0.00000025,-0.00000049,0.00000359,-0.00000161,0.00
 000140,-0.00000050,-0.00000041,-0.00000305,-0.00001955,0.00000006,-0.0
 0108031,-0.00008095,-0.00057870,0.00853869,0.01846131,-0.00781287,-0.0
 0255867,0.00210295,-0.00253550,-0.00111252,0.00020109,-0.00013843,-0.0
 0335850,-0.00077000,-0.00166093,-0.00499784,-0.02745850,0.01093947,-0.
 08287377,-0.07699898,0.02660094,-0.00138963,-0.00127930,0.00027780,0.0
 0046819,0.00094386,-0.00032797,0.00013778,-0.00002035,0.00014365,0.001
 25909,0.00075417,0.00075543,0.08611894,-0.00000020,0.00000182,-0.00000
 478,0.00000820,0.00000209,0.00000896,-0.00001344,-0.00000262,-0.000007
 75,0.00007267,-0.00002349,0.00003396,-0.00001201,0.00001471,0.00000232
 ,0.00000228,-0.00000303,-0.00000518,-0.00000284,-0.00000222,-0.0000025
 0,-0.00000863,0.00000286,0.00000107,-0.00014014,-0.00008972,0.00006199
 ,0.00078022,-0.00029380,-0.00042711,-0.00004241,0.00042068,0.00006181,
 -0.00139278,0.00068070,-0.00165398,-0.00000026,0.00000090,0.00000102,-
 0.00000002,-0.00000688,0.00000213,-0.00000098,0.00000026,0.00000053,-0
 .00000501,0.00001957,-0.00001427,0.00117893,-0.00028930,0.00058404,-0.
 00840045,-0.01210841,0.00614379,0.00286841,-0.00015698,0.00305709,0.00
 070074,0.00027458,-0.00036156,-0.00108503,0.00285100,0.00182795,-0.000
 71520,-0.00216267,0.00247649,-0.07541951,-0.28422944,0.09986672,-0.000
 18066,-0.00013760,0.00012826,-0.00052427,-0.00063826,0.00014600,-0.000
 03306,-0.00015410,-0.00019820,0.00040504,-0.00025680,-0.00194131,0.081
 96039,0.29628616,-0.00000141,0.00000089,-0.00000018,0.00000611,0.00000
 399,0.00000138,-0.00000162,-0.00000528,-0.00000405,0.00003930,-0.00000
 306,0.00006174,-0.00000808,0.00000628,0.00000557,0.00000222,-0.0000000
 6,-0.00000940,-0.00000094,-0.00000064,-0.00000117,-0.00000464,0.000001
 36,0.00000047,-0.00008265,-0.00009175,0.00007801,0.00042364,-0.0002305
 1,-0.00044220,0.00001094,0.00000391,0.00005635,0.00145641,-0.00026957,
 -0.00262645,-0.00000061,-0.00000059,0.00000088,-0.00000110,-0.00000399
 ,0.00000251,-0.00000060,0.00000031,0.00000026,-0.00000097,0.00002095,-
 0.00002613,-0.00114893,0.00001373,-0.00032996,0.00328603,0.01099860,0.
 00032084,-0.00266530,0.00282485,0.00365045,-0.00022874,-0.00047570,-0.
 00074186,-0.00155191,0.00204887,0.00613501,-0.00145095,-0.00251875,0.0
 0456460,0.02652364,0.09927638,-0.07762336,-0.00022461,-0.00011010,0.00
 015447,0.00023937,0.00038459,-0.00019108,0.00015020,-0.00022054,-0.000
 48217,0.00089994,-0.00186669,-0.00359894,-0.02566474,-0.10978749,0.071
 04442\\-0.00000253,0.00000354,-0.00000431,0.00000782,0.00001172,0.0000
 1282,-0.00000834,0.00000509,0.00000805,-0.00000371,0.00000546,-0.00001
 318,-0.00000153,0.00002949,0.00001089,0.00000807,0.00000560,-0.0000010
 4,-0.00000374,0.00001105,0.00000287,0.00000382,0.00000684,0.00000177,0
 .00003123,-0.00001158,0.00000084,-0.00002921,0.00001529,-0.00000270,0.
 00001318,0.00000181,0.00000191,0.00000803,-0.00002027,0.00000997,-0.00
 000502,0.00000387,0.00000626,0.00000026,-0.00000803,-0.00000737,0.0000
 0300,0.00000930,-0.00000367,0.00000440,-0.00000591,0.00000823,-0.00000
 772,-0.00000659,0.00000267,-0.00002885,0.00002463,-0.00002729,-0.00000
 567,-0.00002098,0.00000277,0.00001288,-0.00001894,0.00000064,0.0000085
 3,0.00001224,-0.00000981,-0.00002861,-0.00002754,0.00000104,0.00002710
 ,0.00000182,0.00000626,-0.00000725,-0.00001579,-0.00000382,0.00000428,
 -0.00000248,-0.00000025,0.00000420,-0.00000928,-0.00000569,0.00000416,
 0.00000028,-0.00000052,-0.00000876,-0.00000065,0.00000266\\\@


 TIME IS NATURE'S WAY OF MAKING SURE EVERYTHING
 DOESN'T HAPPEN AT ONCE.
                     - WOODY ALLEN
 Job cpu time:       0 days  4 hours  1 minutes 47.1 seconds.
 File lengths (MBytes):  RWF=    598 Int=      0 D2E=      0 Chk=     21 Scr=      1
 Normal termination of Gaussian 09 at Tue Oct  9 03:07:22 2018.
