 Entering Gaussian System, Link 0=/apps/gaussian/g09e01/g09/g09
 AtFile(1): /home/507/hio507/Basis/6-31pGd.gbs
 Initial command:
 /apps/gaussian/g09e01/g09/l1.exe "/jobfs/local/930610.r-man2/Gau-21090.inp" -scrdir="/jobfs/local/930610.r-man2/"
 Entering Link 1 = /apps/gaussian/g09e01/g09/l1.exe PID=     21091.
  
 Copyright (c) 1988,1990,1992,1993,1995,1998,2003,2009,2015,
            Gaussian, Inc.  All Rights Reserved.
  
 This is part of the Gaussian(R) 09 program.  It is based on
 the Gaussian(R) 03 system (copyright 2003, Gaussian, Inc.),
 the Gaussian(R) 98 system (copyright 1998, Gaussian, Inc.),
 the Gaussian(R) 94 system (copyright 1995, Gaussian, Inc.),
 the Gaussian 92(TM) system (copyright 1992, Gaussian, Inc.),
 the Gaussian 90(TM) system (copyright 1990, Gaussian, Inc.),
 the Gaussian 88(TM) system (copyright 1988, Gaussian, Inc.),
 the Gaussian 86(TM) system (copyright 1986, Carnegie Mellon
 University), and the Gaussian 82(TM) system (copyright 1983,
 Carnegie Mellon University). Gaussian is a federally registered
 trademark of Gaussian, Inc.
  
 This software contains proprietary and confidential information,
 including trade secrets, belonging to Gaussian, Inc.
  
 This software is provided under written license and may be
 used, copied, transmitted, or stored only in accord with that
 written license.
  
 The following legend is applicable only to US Government
 contracts under FAR:
  
                    RESTRICTED RIGHTS LEGEND
  
 Use, reproduction and disclosure by the US Government is
 subject to restrictions as set forth in subparagraphs (a)
 and (c) of the Commercial Computer Software - Restricted
 Rights clause in FAR 52.227-19.
  
 Gaussian, Inc.
 340 Quinnipiac St., Bldg. 40, Wallingford CT 06492
  
  
 ---------------------------------------------------------------
 Warning -- This program may not be used in any manner that
 competes with the business of Gaussian, Inc. or will provide
 assistance to any competitor of Gaussian, Inc.  The licensee
 of this program is prohibited from giving any competitor of
 Gaussian, Inc. access to this program.  By using this program,
 the user acknowledges that Gaussian, Inc. is engaged in the
 business of creating and licensing software in the field of
 computational chemistry and represents and warrants to the
 licensee that it is not a competitor of Gaussian, Inc. and that
 it will not use this program in any manner prohibited above.
 ---------------------------------------------------------------
  

 Cite this work as:
 Gaussian 09, Revision E.01,
 M. J. Frisch, G. W. Trucks, H. B. Schlegel, G. E. Scuseria, 
 M. A. Robb, J. R. Cheeseman, G. Scalmani, V. Barone, B. Mennucci, 
 G. A. Petersson, H. Nakatsuji, M. Caricato, X. Li, H. P. Hratchian, 
 A. F. Izmaylov, J. Bloino, G. Zheng, J. L. Sonnenberg, M. Hada, 
 M. Ehara, K. Toyota, R. Fukuda, J. Hasegawa, M. Ishida, T. Nakajima, 
 Y. Honda, O. Kitao, H. Nakai, T. Vreven, J. A. Montgomery, Jr., 
 J. E. Peralta, F. Ogliaro, M. Bearpark, J. J. Heyd, E. Brothers, 
 K. N. Kudin, V. N. Staroverov, T. Keith, R. Kobayashi, J. Normand, 
 K. Raghavachari, A. Rendell, J. C. Burant, S. S. Iyengar, J. Tomasi, 
 M. Cossi, N. Rega, J. M. Millam, M. Klene, J. E. Knox, J. B. Cross, 
 V. Bakken, C. Adamo, J. Jaramillo, R. Gomperts, R. E. Stratmann, 
 O. Yazyev, A. J. Austin, R. Cammi, C. Pomelli, J. W. Ochterski, 
 R. L. Martin, K. Morokuma, V. G. Zakrzewski, G. A. Voth, 
 P. Salvador, J. J. Dannenberg, S. Dapprich, A. D. Daniels, 
 O. Farkas, J. B. Foresman, J. V. Ortiz, J. Cioslowski, 
 and D. J. Fox, Gaussian, Inc., Wallingford CT, 2013.
 
 ******************************************
 Gaussian 09:  ES64L-G09RevE.01 30-Nov-2015
                 8-Oct-2018 
 ******************************************
 %chk=triclofen_a2cl.M062X_6-31pGd_opt.chk
 ------------------------------------------------------------
 # M062X/Gen 6D SCF=Tight INT(grid=ultrafine) OPT IOP(2/17=4)
 ------------------------------------------------------------
 1/14=-1,18=20,19=15,26=4,38=1/1,3;
 2/9=110,12=2,17=4,18=5,40=1/2;
 3/5=7,8=2,11=2,16=1,25=1,30=1,71=1,74=-55,75=-5/1,2,3;
 4//1;
 5/5=2,32=2,38=5/2;
 6/7=2,8=2,9=2,10=2,28=1/1;
 7//1,2,3,16;
 1/14=-1,18=20,19=15,26=4/3(2);
 2/9=110,17=4/2;
 99//99;
 2/9=110,17=4/2;
 3/5=7,6=1,8=2,11=2,16=1,25=1,30=1,71=1,74=-55,75=-5,82=7/1,2,3;
 4/5=5,16=3,69=1/1;
 5/5=2,32=2,38=5/2;
 7//1,2,3,16;
 1/14=-1,18=20,19=15,26=4/3(-5);
 2/9=110,17=4/2;
 6/7=2,8=2,9=2,10=2,19=2,28=1/1;
 99/9=1/99;
 --------------------------------
 triclofen_a2cl.M062X_6-31pGd_opt
 --------------------------------
 Symbolic Z-matrix:
 Charge = -1 Multiplicity = 1
 C                    -1.01842   2.55777  -0.07 
 C                    -0.75437   1.18233  -0.09883 
 C                     0.56638   0.72599  -0.03425 
 C                     1.65077   1.62134   0.05976 
 C                     1.36191   3.00764   0.08747 
 C                     0.041     3.46143   0.02298 
 Cl                   -2.05711   0.00642  -0.21522 
 Cl                   -2.66293   3.17592  -0.14845 
 N                     2.97601   1.06044   0.12179 
 C                     4.17159   1.72525   0.21011 
 O                     4.20115   2.94014   0.24388 
 N                     5.33337   0.9994    0.26046 
 H                     0.74881  -0.34155  -0.05787 
 H                     2.11457   3.77073   0.15799 
 H                    -0.15825   4.52569   0.04584 
 H                     5.23396  -0.02738   0.22993 
 C                     6.68381   1.49135   0.35303 
 C                     7.04023   2.86284   0.39865 
 C                     8.3825    3.24761   0.48879 
 C                     9.3922    2.28595   0.53532 
 C                     9.0614    0.93216   0.49135 
 C                     7.72364   0.5403    0.4011 
 Cl                    11.07215   2.77814   0.64854 
 H                     6.32582   3.66438   0.36719 
 H                     8.6366    4.29974   0.52241 
 H                     9.83967   0.18037   0.52699 
 H                     7.49727  -0.51829   0.36881 
 

 GradGradGradGradGradGradGradGradGradGradGradGradGradGradGradGradGradGrad
 Berny optimization.
 Initialization pass.
                           ----------------------------
                           !    Initial Parameters    !
                           ! (Angstroms and Degrees)  !
 --------------------------                            --------------------------
 ! Name  Definition              Value          Derivative Info.                !
 --------------------------------------------------------------------------------
 ! R1    R(1,2)                  1.4009         estimate D2E/DX2                !
 ! R2    R(1,6)                  1.3956         estimate D2E/DX2                !
 ! R3    R(1,8)                  1.7586         estimate D2E/DX2                !
 ! R4    R(2,3)                  1.3989         estimate D2E/DX2                !
 ! R5    R(2,7)                  1.7588         estimate D2E/DX2                !
 ! R6    R(3,4)                  1.4094         estimate D2E/DX2                !
 ! R7    R(3,13)                 1.0833         estimate D2E/DX2                !
 ! R8    R(4,5)                  1.4163         estimate D2E/DX2                !
 ! R9    R(4,9)                  1.4404         estimate D2E/DX2                !
 ! R10   R(5,6)                  1.3982         estimate D2E/DX2                !
 ! R11   R(5,14)                 1.0741         estimate D2E/DX2                !
 ! R12   R(6,15)                 1.083          estimate D2E/DX2                !
 ! R13   R(9,10)                 1.3708         estimate D2E/DX2                !
 ! R14   R(10,11)                1.2157         estimate D2E/DX2                !
 ! R15   R(10,12)                1.3708         estimate D2E/DX2                !
 ! R16   R(12,16)                1.032          estimate D2E/DX2                !
 ! R17   R(12,17)                1.4402         estimate D2E/DX2                !
 ! R18   R(17,18)                1.4178         estimate D2E/DX2                !
 ! R19   R(17,22)                1.41           estimate D2E/DX2                !
 ! R20   R(18,19)                1.3992         estimate D2E/DX2                !
 ! R21   R(18,24)                1.0742         estimate D2E/DX2                !
 ! R22   R(19,20)                1.3952         estimate D2E/DX2                !
 ! R23   R(19,25)                1.0829         estimate D2E/DX2                !
 ! R24   R(20,21)                1.3943         estimate D2E/DX2                !
 ! R25   R(20,23)                1.7542         estimate D2E/DX2                !
 ! R26   R(21,22)                1.3969         estimate D2E/DX2                !
 ! R27   R(21,26)                1.0827         estimate D2E/DX2                !
 ! R28   R(22,27)                1.083          estimate D2E/DX2                !
 ! A1    A(2,1,6)              119.6074         estimate D2E/DX2                !
 ! A2    A(2,1,8)              121.3638         estimate D2E/DX2                !
 ! A3    A(6,1,8)              119.0288         estimate D2E/DX2                !
 ! A4    A(1,2,3)              119.8231         estimate D2E/DX2                !
 ! A5    A(1,2,7)              121.2115         estimate D2E/DX2                !
 ! A6    A(3,2,7)              118.9655         estimate D2E/DX2                !
 ! A7    A(2,3,4)              121.4853         estimate D2E/DX2                !
 ! A8    A(2,3,13)             118.6516         estimate D2E/DX2                !
 ! A9    A(4,3,13)             119.8631         estimate D2E/DX2                !
 ! A10   A(3,4,5)              117.7869         estimate D2E/DX2                !
 ! A11   A(3,4,9)              117.6058         estimate D2E/DX2                !
 ! A12   A(5,4,9)              124.6073         estimate D2E/DX2                !
 ! A13   A(4,5,6)              120.6271         estimate D2E/DX2                !
 ! A14   A(4,5,14)             123.623          estimate D2E/DX2                !
 ! A15   A(6,5,14)             115.7499         estimate D2E/DX2                !
 ! A16   A(1,6,5)              120.6702         estimate D2E/DX2                !
 ! A17   A(1,6,15)             119.8718         estimate D2E/DX2                !
 ! A18   A(5,6,15)             119.458          estimate D2E/DX2                !
 ! A19   A(4,9,10)             128.0506         estimate D2E/DX2                !
 ! A20   A(9,10,11)            120.5063         estimate D2E/DX2                !
 ! A21   A(9,10,12)            118.9952         estimate D2E/DX2                !
 ! A22   A(11,10,12)           120.4985         estimate D2E/DX2                !
 ! A23   A(10,12,16)           116.3649         estimate D2E/DX2                !
 ! A24   A(10,12,17)           128.0368         estimate D2E/DX2                !
 ! A25   A(16,12,17)           115.5983         estimate D2E/DX2                !
 ! A26   A(12,17,18)           124.6256         estimate D2E/DX2                !
 ! A27   A(12,17,22)           117.5997         estimate D2E/DX2                !
 ! A28   A(18,17,22)           117.7747         estimate D2E/DX2                !
 ! A29   A(17,18,19)           120.6131         estimate D2E/DX2                !
 ! A30   A(17,18,24)           123.6208         estimate D2E/DX2                !
 ! A31   A(19,18,24)           115.7661         estimate D2E/DX2                !
 ! A32   A(18,19,20)           120.4549         estimate D2E/DX2                !
 ! A33   A(18,19,25)           119.6214         estimate D2E/DX2                !
 ! A34   A(20,19,25)           119.9237         estimate D2E/DX2                !
 ! A35   A(19,20,21)           119.7687         estimate D2E/DX2                !
 ! A36   A(19,20,23)           120.1214         estimate D2E/DX2                !
 ! A37   A(21,20,23)           120.1098         estimate D2E/DX2                !
 ! A38   A(20,21,22)           120.1069         estimate D2E/DX2                !
 ! A39   A(20,21,26)           120.1737         estimate D2E/DX2                !
 ! A40   A(22,21,26)           119.7194         estimate D2E/DX2                !
 ! A41   A(17,22,21)           121.2817         estimate D2E/DX2                !
 ! A42   A(17,22,27)           120.2744         estimate D2E/DX2                !
 ! A43   A(21,22,27)           118.4439         estimate D2E/DX2                !
 ! D1    D(6,1,2,3)              0.0043         estimate D2E/DX2                !
 ! D2    D(6,1,2,7)            179.9982         estimate D2E/DX2                !
 ! D3    D(8,1,2,3)           -179.9872         estimate D2E/DX2                !
 ! D4    D(8,1,2,7)              0.0067         estimate D2E/DX2                !
 ! D5    D(2,1,6,5)              0.0043         estimate D2E/DX2                !
 ! D6    D(2,1,6,15)          -179.9849         estimate D2E/DX2                !
 ! D7    D(8,1,6,5)            179.996          estimate D2E/DX2                !
 ! D8    D(8,1,6,15)             0.0068         estimate D2E/DX2                !
 ! D9    D(1,2,3,4)             -0.0139         estimate D2E/DX2                !
 ! D10   D(1,2,3,13)           179.9934         estimate D2E/DX2                !
 ! D11   D(7,2,3,4)            179.992          estimate D2E/DX2                !
 ! D12   D(7,2,3,13)            -0.0006         estimate D2E/DX2                !
 ! D13   D(2,3,4,5)              0.0144         estimate D2E/DX2                !
 ! D14   D(2,3,4,9)            179.9752         estimate D2E/DX2                !
 ! D15   D(13,3,4,5)          -179.993          estimate D2E/DX2                !
 ! D16   D(13,3,4,9)            -0.0323         estimate D2E/DX2                !
 ! D17   D(3,4,5,6)             -0.0056         estimate D2E/DX2                !
 ! D18   D(3,4,5,14)           179.9572         estimate D2E/DX2                !
 ! D19   D(9,4,5,6)           -179.9634         estimate D2E/DX2                !
 ! D20   D(9,4,5,14)            -0.0006         estimate D2E/DX2                !
 ! D21   D(3,4,9,10)           179.7334         estimate D2E/DX2                !
 ! D22   D(5,4,9,10)            -0.3088         estimate D2E/DX2                !
 ! D23   D(4,5,6,1)             -0.0036         estimate D2E/DX2                !
 ! D24   D(4,5,6,15)           179.9856         estimate D2E/DX2                !
 ! D25   D(14,5,6,1)          -179.9692         estimate D2E/DX2                !
 ! D26   D(14,5,6,15)            0.0201         estimate D2E/DX2                !
 ! D27   D(4,9,10,11)           -0.0838         estimate D2E/DX2                !
 ! D28   D(4,9,10,12)          179.8836         estimate D2E/DX2                !
 ! D29   D(9,10,12,16)          -0.1196         estimate D2E/DX2                !
 ! D30   D(9,10,12,17)         179.9751         estimate D2E/DX2                !
 ! D31   D(11,10,12,16)        179.8478         estimate D2E/DX2                !
 ! D32   D(11,10,12,17)         -0.0575         estimate D2E/DX2                !
 ! D33   D(10,12,17,18)         -0.5126         estimate D2E/DX2                !
 ! D34   D(10,12,17,22)        179.511          estimate D2E/DX2                !
 ! D35   D(16,12,17,18)        179.5815         estimate D2E/DX2                !
 ! D36   D(16,12,17,22)         -0.3949         estimate D2E/DX2                !
 ! D37   D(12,17,18,19)       -179.9956         estimate D2E/DX2                !
 ! D38   D(12,17,18,24)         -0.0388         estimate D2E/DX2                !
 ! D39   D(22,17,18,19)         -0.0193         estimate D2E/DX2                !
 ! D40   D(22,17,18,24)        179.9376         estimate D2E/DX2                !
 ! D41   D(12,17,22,21)       -179.9897         estimate D2E/DX2                !
 ! D42   D(12,17,22,27)         -0.016          estimate D2E/DX2                !
 ! D43   D(18,17,22,21)          0.0322         estimate D2E/DX2                !
 ! D44   D(18,17,22,27)       -179.9941         estimate D2E/DX2                !
 ! D45   D(17,18,19,20)         -0.0046         estimate D2E/DX2                !
 ! D46   D(17,18,19,25)        179.9894         estimate D2E/DX2                !
 ! D47   D(24,18,19,20)       -179.9647         estimate D2E/DX2                !
 ! D48   D(24,18,19,25)          0.0294         estimate D2E/DX2                !
 ! D49   D(18,19,20,21)          0.0163         estimate D2E/DX2                !
 ! D50   D(18,19,20,23)       -179.9916         estimate D2E/DX2                !
 ! D51   D(25,19,20,21)       -179.9777         estimate D2E/DX2                !
 ! D52   D(25,19,20,23)          0.0144         estimate D2E/DX2                !
 ! D53   D(19,20,21,22)         -0.0035         estimate D2E/DX2                !
 ! D54   D(19,20,21,26)        179.9973         estimate D2E/DX2                !
 ! D55   D(23,20,21,22)       -179.9956         estimate D2E/DX2                !
 ! D56   D(23,20,21,26)          0.0053         estimate D2E/DX2                !
 ! D57   D(20,21,22,17)         -0.0213         estimate D2E/DX2                !
 ! D58   D(20,21,22,27)       -179.9954         estimate D2E/DX2                !
 ! D59   D(26,21,22,17)        179.9778         estimate D2E/DX2                !
 ! D60   D(26,21,22,27)          0.0037         estimate D2E/DX2                !
 --------------------------------------------------------------------------------
 Trust Radius=3.00D-01 FncErr=1.00D-07 GrdErr=1.00D-06
 Number of steps in this run=    141 maximum allowed number of steps=    162.
 GradGradGradGradGradGradGradGradGradGradGradGradGradGradGradGradGradGrad

                          Input orientation:                          
 ---------------------------------------------------------------------
 Center     Atomic      Atomic             Coordinates (Angstroms)
 Number     Number       Type             X           Y           Z
 ---------------------------------------------------------------------
      1          6           0       -1.018420    2.557770   -0.070000
      2          6           0       -0.754370    1.182330   -0.098830
      3          6           0        0.566380    0.725990   -0.034250
      4          6           0        1.650770    1.621340    0.059760
      5          6           0        1.361910    3.007640    0.087470
      6          6           0        0.041000    3.461430    0.022980
      7         17           0       -2.057110    0.006420   -0.215220
      8         17           0       -2.662930    3.175920   -0.148450
      9          7           0        2.976010    1.060440    0.121790
     10          6           0        4.171590    1.725250    0.210110
     11          8           0        4.201150    2.940140    0.243880
     12          7           0        5.333370    0.999400    0.260460
     13          1           0        0.748810   -0.341550   -0.057870
     14          1           0        2.114570    3.770730    0.157990
     15          1           0       -0.158250    4.525690    0.045840
     16          1           0        5.233960   -0.027380    0.229930
     17          6           0        6.683810    1.491350    0.353030
     18          6           0        7.040230    2.862840    0.398650
     19          6           0        8.382500    3.247610    0.488790
     20          6           0        9.392200    2.285950    0.535320
     21          6           0        9.061400    0.932160    0.491350
     22          6           0        7.723640    0.540300    0.401100
     23         17           0       11.072150    2.778140    0.648540
     24          1           0        6.325820    3.664380    0.367190
     25          1           0        8.636600    4.299740    0.522410
     26          1           0        9.839670    0.180370    0.526990
     27          1           0        7.497270   -0.518290    0.368810
 ---------------------------------------------------------------------
                    Distance matrix (angstroms):
                    1          2          3          4          5
     1  C    0.000000
     2  C    1.400853   0.000000
     3  C    2.422455   1.398856   0.000000
     4  C    2.831663   2.450016   1.409394   0.000000
     5  C    2.427581   2.800912   2.419424   1.416346   0.000000
     6  C    1.395571   2.416971   2.786024   2.445126   1.398173
     7  Cl   2.758505   1.758818   2.726395   4.053635   4.559456
     8  Cl   1.758601   2.760338   4.055076   4.589998   4.035259
     9  N    4.270158   3.738886   2.437729   1.440388   2.529444
    10  C    5.263816   4.965409   3.749103   2.527437   3.090933
    11  O    5.242961   5.269205   4.265134   2.877077   2.844346
    12  N    6.548508   6.101076   4.783911   3.740138   4.453700
    13  H    3.395483   2.140897   1.083273   2.163401   3.407945
    14  H    3.367325   3.872543   3.421153   2.201054   1.074140
    15  H    2.150819   3.399168   3.869008   3.421695   2.148743
    16  H    6.772386   6.118135   4.735363   3.947972   4.921830
    17  C    7.787204   7.458297   6.177274   5.043253   5.540061
    18  C    8.078028   7.989205   6.831125   5.540979   5.688683
    19  C    9.442744   9.385791   8.229451   6.938661   7.036144
    20  C   10.431745  10.226094   8.980701   7.784446   8.075083
    21  C   10.225483   9.836678   8.513761   7.455111   7.984540
    22  C    8.984194   8.516970   7.172892   6.177776   6.830647
    23  Cl  12.113907  11.957079  10.726077   9.510376   9.729143
    24  H    7.439999   7.517103   6.478151   5.111225   5.014973
    25  H    9.828775   9.914358   8.843642   7.495978   7.401338
    26  H   11.131332  10.659703   9.306267   8.327832   8.947572
    27  H    9.064859   8.438030   7.053221   6.233385   7.081947
                    6          7          8          9         10
     6  C    0.000000
     7  Cl   4.049185   0.000000
     8  Cl   2.724361   3.227570   0.000000
     9  N    3.793257   5.153332   6.028759   0.000000
    10  C    4.484541   6.475491   6.995975   1.370833   0.000000
    11  O    4.198498   6.926998   6.879325   2.247031   1.215719
    12  N    5.841846   7.472046   8.297304   2.362224   1.370812
    13  H    3.869133   2.831789   4.901099   2.637854   4.007356
    14  H    2.100854   5.631361   4.824128   2.844127   2.901385
    15  H    1.082992   4.908933   2.851850   4.673041   5.159163
    16  H    6.259509   7.304725   8.530251   2.508662   2.049569
    17  C    6.936647   8.884346   9.510563   3.739911   2.527130
    18  C    7.034818   9.554976   9.723613   4.454569   3.091723
    19  C    8.357232  10.953830  11.064029   5.843675   4.486313
    20  C    9.438707  11.698131  12.107260   6.545256   5.260695
    21  C    9.379989  11.179334  11.954234   6.097951   4.961686
    22  C    8.227936   9.814680  10.729834   4.784198   3.749352
    23  Cl  11.069981  13.446411  13.763933   8.293096   6.994178
    24  H    6.297510   9.164791   9.016768   4.249935   2.902689
    25  H    8.650811  11.546953  11.375078   6.534205   5.163511
    26  H   10.345691  11.921179  12.874181   6.931705   5.883383
    27  H    8.458944   9.586584  10.823327   4.795331   4.014823
                   11         12         13         14         15
    11  O    0.000000
    12  N    2.246924   0.000000
    13  H    4.772755   4.787240   0.000000
    14  H    2.247459   4.248699   4.338518   0.000000
    15  H    4.643012   6.529829   4.952125   2.397551   0.000000
    16  H    3.142144   1.032033   4.505342   4.915426   7.059764
    17  C    2.876544   1.440233   6.225158   5.109948   7.491019
    18  C    2.844346   2.530786   7.075203   5.014410   7.396463
    19  C    4.199786   3.795231   8.453054   6.298415   8.647202
    20  C    5.240220   4.266715   9.053387   7.437126   9.821768
    21  C    5.264528   3.735778   8.427522   7.511794   9.905245
    22  C    4.265195   2.438020   7.045322   6.477380   8.839329
    23  Cl   6.884812   6.020641  10.807536   9.025747  11.381523
    24  H    2.248100   2.845781   6.879767   4.217784   6.548915
    25  H    4.647506   4.676771   9.170361   6.553589   8.810650
    26  H    6.284058   4.587874   9.124593   8.526665  10.911999
    27  H    4.779200   2.645295   6.764245   6.885753   9.173496
                   16         17         18         19         20
    16  H    0.000000
    17  C    2.103274   0.000000
    18  C    3.412396   1.417780   0.000000
    19  C    4.550371   2.447126   1.399236   0.000000
    20  C    4.768199   2.828426   2.425540   1.395152   0.000000
    21  C    3.954536   2.446377   2.796649   2.412928   1.394313
    22  C    2.559310   1.409983   2.421001   2.787708   2.418554
    23  Cl   6.490812   4.582650   4.040544   2.734984   1.754224
    24  H    3.852284   2.202366   1.074168   2.102003   3.366159
    25  H    5.512483   3.424782   2.151371   1.082901   2.150918
    26  H    4.619953   3.421751   3.879302   3.395992   2.152618
    27  H    2.320098   2.168091   3.412011   3.870404   3.388546
                   21         22         23         24         25
    21  C    0.000000
    22  C    1.396890   0.000000
    23  Cl   2.734130   4.035056   0.000000
    24  H    3.868312   3.422707   4.836551   0.000000
    25  H    3.394409   3.870607   2.874557   2.401558   0.000000
    26  H    1.082665   2.150112   2.877879   4.950859   4.291458
    27  H    2.136662   1.083005   4.870777   4.343619   4.953290
                   26         27
    26  H    0.000000
    27  H    2.449487   0.000000
 Stoichiometry    C13H8Cl3N2O(1-)
 Framework group  C1[X(C13H8Cl3N2O)]
 Deg. of freedom    75
 Full point group                 C1      NOp   1
 Largest Abelian subgroup         C1      NOp   1
 Largest concise Abelian subgroup C1      NOp   1
                         Standard orientation:                         
 ---------------------------------------------------------------------
 Center     Atomic      Atomic             Coordinates (Angstroms)
 Number     Number       Type             X           Y           Z
 ---------------------------------------------------------------------
      1          6           0        4.558250   -0.783626    0.003391
      2          6           0        4.346760    0.601158   -0.002501
      3          6           0        3.042044    1.105650   -0.003383
      4          6           0        1.922026    0.250121    0.001253
      5          6           0        2.157935   -1.146427    0.007190
      6          6           0        3.462898   -1.648380    0.008242
      7         17           0        5.696168    1.729211   -0.008706
      8         17           0        6.180856   -1.461728    0.005048
      9          7           0        0.616798    0.859299    0.000487
     10          6           0       -0.605383    0.238448   -0.000679
     11          8           0       -0.681217   -0.974902   -0.002726
     12          7           0       -1.740836    1.006477    0.001181
     13          1           0        2.900428    2.179617   -0.007865
     14          1           0        1.375062   -1.881863    0.011701
     15          1           0        3.621458   -2.719691    0.013053
     16          1           0       -1.602382    2.029172    0.005327
     17          6           0       -3.111444    0.564091   -0.000063
     18          6           0       -3.519754   -0.793551   -0.013995
     19          6           0       -4.878156   -1.129119   -0.014181
     20          6           0       -5.853074   -0.131222   -0.000542
     21          6           0       -5.471066    1.209671    0.013026
     22          6           0       -4.116897    1.552496    0.013034
     23         17           0       -7.553626   -0.561831   -0.000670
     24          1           0       -2.834460   -1.620639   -0.025575
     25          1           0       -5.172028   -2.171325   -0.025100
     26          1           0       -6.222128    1.989387    0.023609
     27          1           0       -3.850531    2.602178    0.023821
 ---------------------------------------------------------------------
 Rotational constants (GHZ):      1.2098630      0.0722474      0.0681766
 General basis read from cards:  (6D, 7F)
 There are   389 symmetry adapted cartesian basis functions of A   symmetry.
 There are   389 symmetry adapted basis functions of A   symmetry.
   389 basis functions,   712 primitive gaussians,   389 cartesian basis functions
    80 alpha electrons       80 beta electrons
       nuclear repulsion energy      1532.1666040960 Hartrees.
 NAtoms=   27 NActive=   27 NUniq=   27 SFac= 1.00D+00 NAtFMM=   60 NAOKFM=F Big=F
 Integral buffers will be    131072 words long.
 Raffenetti 2 integral format.
 Two-electron integral symmetry is turned on.
 One-electron integrals computed using PRISM.
 NBasis=   389 RedAO= T EigKep=  1.06D-06  NBF=   389
 NBsUse=   389 1.00D-06 EigRej= -1.00D+00 NBFU=   389
 ExpMin= 4.38D-02 ExpMax= 2.52D+04 ExpMxC= 3.78D+03 IAcc=3 IRadAn=         5 AccDes= 0.00D+00
 Harris functional with IExCor= 1009 and IRadAn=       5 diagonalized for initial guess.
 HarFok:  IExCor= 1009 AccDes= 0.00D+00 IRadAn=         5 IDoV= 1 UseB2=F ITyADJ=14
 ICtDFT=  3500011 ScaDFX=  1.000000  1.000000  1.000000  1.000000
 FoFCou: FMM=F IPFlag=           0 FMFlag=      100000 FMFlg1=           0
         NFxFlg=           0 DoJE=T BraDBF=F KetDBF=T FulRan=T
         wScrn=  0.000000 ICntrl=     500 IOpCl=  0 I1Cent=   200000004 NGrid=           0
         NMat0=    1 NMatS0=      1 NMatT0=    0 NMatD0=    1 NMtDS0=    0 NMtDT0=    0
 Petite list used in FoFCou.
 Requested convergence on RMS density matrix=1.00D-08 within 128 cycles.
 Requested convergence on MAX density matrix=1.00D-06.
 Requested convergence on             energy=1.00D-06.
 No special actions if energy rises.
 SCF Done:  E(RM062X) =  -2065.24655046     A.U. after   18 cycles
            NFock= 18  Conv=0.86D-08     -V/T= 2.0048

 **********************************************************************

            Population analysis using the SCF density.

 **********************************************************************

 Orbital symmetries:
       Occupied  (A) (A) (A) (A) (A) (A) (A) (A) (A) (A) (A) (A)
                 (A) (A) (A) (A) (A) (A) (A) (A) (A) (A) (A) (A)
                 (A) (A) (A) (A) (A) (A) (A) (A) (A) (A) (A) (A)
                 (A) (A) (A) (A) (A) (A) (A) (A) (A) (A) (A) (A)
                 (A) (A) (A) (A) (A) (A) (A) (A) (A) (A) (A) (A)
                 (A) (A) (A) (A) (A) (A) (A) (A) (A) (A) (A) (A)
                 (A) (A) (A) (A) (A) (A) (A) (A)
       Virtual   (A) (A) (A) (A) (A) (A) (A) (A) (A) (A) (A) (A)
                 (A) (A) (A) (A) (A) (A) (A) (A) (A) (A) (A) (A)
                 (A) (A) (A) (A) (A) (A) (A) (A) (A) (A) (A) (A)
                 (A) (A) (A) (A) (A) (A) (A) (A) (A) (A) (A) (A)
                 (A) (A) (A) (A) (A) (A) (A) (A) (A) (A) (A) (A)
                 (A) (A) (A) (A) (A) (A) (A) (A) (A) (A) (A) (A)
                 (A) (A) (A) (A) (A) (A) (A) (A) (A) (A) (A) (A)
                 (A) (A) (A) (A) (A) (A) (A) (A) (A) (A) (A) (A)
                 (A) (A) (A) (A) (A) (A) (A) (A) (A) (A) (A) (A)
                 (A) (A) (A) (A) (A) (A) (A) (A) (A) (A) (A) (A)
                 (A) (A) (A) (A) (A) (A) (A) (A) (A) (A) (A) (A)
                 (A) (A) (A) (A) (A) (A) (A) (A) (A) (A) (A) (A)
                 (A) (A) (A) (A) (A) (A) (A) (A) (A) (A) (A) (A)
                 (A) (A) (A) (A) (A) (A) (A) (A) (A) (A) (A) (A)
                 (A) (A) (A) (A) (A) (A) (A) (A) (A) (A) (A) (A)
                 (A) (A) (A) (A) (A) (A) (A) (A) (A) (A) (A) (A)
                 (A) (A) (A) (A) (A) (A) (A) (A) (A) (A) (A) (A)
                 (A) (A) (A) (A) (A) (A) (A) (A) (A) (A) (A) (A)
                 (A) (A) (A) (A) (A) (A) (A) (A) (A) (A) (A) (A)
                 (A) (A) (A) (A) (A) (A) (A) (A) (A) (A) (A) (A)
                 (A) (A) (A) (A) (A) (A) (A) (A) (A) (A) (A) (A)
                 (A) (A) (A) (A) (A) (A) (A) (A) (A) (A) (A) (A)
                 (A) (A) (A) (A) (A) (A) (A) (A) (A) (A) (A) (A)
                 (A) (A) (A) (A) (A) (A) (A) (A) (A) (A) (A) (A)
                 (A) (A) (A) (A) (A) (A) (A) (A) (A) (A) (A) (A)
                 (A) (A) (A) (A) (A) (A) (A) (A) (A)
 The electronic state is 1-A.
 Alpha  occ. eigenvalues -- -102.59145-102.57012-102.56689 -19.45254 -14.68243
 Alpha  occ. eigenvalues --  -14.57479 -10.52511 -10.52363 -10.52065 -10.51034
 Alpha  occ. eigenvalues --  -10.49955 -10.48467 -10.47879 -10.47726 -10.47193
 Alpha  occ. eigenvalues --  -10.46346 -10.45000 -10.43899 -10.42506  -9.73809
 Alpha  occ. eigenvalues --   -9.71640  -9.71322  -7.46198  -7.45561  -7.45559
 Alpha  occ. eigenvalues --   -7.44039  -7.43715  -7.43395  -7.43376  -7.43075
 Alpha  occ. eigenvalues --   -7.43069  -1.02897  -0.92511  -0.90172  -0.89881
 Alpha  occ. eigenvalues --   -0.84394  -0.84253  -0.83296  -0.78336  -0.76592
 Alpha  occ. eigenvalues --   -0.73241  -0.71653  -0.68221  -0.62139  -0.60380
 Alpha  occ. eigenvalues --   -0.57839  -0.56435  -0.53546  -0.50751  -0.47487
 Alpha  occ. eigenvalues --   -0.46106  -0.43786  -0.43366  -0.42783  -0.41496
 Alpha  occ. eigenvalues --   -0.41022  -0.39436  -0.38841  -0.37953  -0.37231
 Alpha  occ. eigenvalues --   -0.36836  -0.36563  -0.34518  -0.33476  -0.33094
 Alpha  occ. eigenvalues --   -0.31900  -0.31014  -0.30371  -0.29689  -0.28584
 Alpha  occ. eigenvalues --   -0.28141  -0.26473  -0.25251  -0.22764  -0.21793
 Alpha  occ. eigenvalues --   -0.20776  -0.18556  -0.16963  -0.14089  -0.10409
 Alpha virt. eigenvalues --    0.08584   0.09677   0.09807   0.10398   0.10425
 Alpha virt. eigenvalues --    0.11601   0.11701   0.11927   0.12786   0.12856
 Alpha virt. eigenvalues --    0.14053   0.14244   0.14554   0.15026   0.15083
 Alpha virt. eigenvalues --    0.15829   0.15953   0.16509   0.16899   0.17108
 Alpha virt. eigenvalues --    0.17443   0.17837   0.18354   0.18591   0.19317
 Alpha virt. eigenvalues --    0.19529   0.20000   0.20105   0.20277   0.21282
 Alpha virt. eigenvalues --    0.21287   0.22266   0.22660   0.22962   0.23066
 Alpha virt. eigenvalues --    0.23119   0.23900   0.24315   0.24836   0.24923
 Alpha virt. eigenvalues --    0.25084   0.25532   0.26430   0.26908   0.27087
 Alpha virt. eigenvalues --    0.27166   0.28003   0.28058   0.28161   0.29329
 Alpha virt. eigenvalues --    0.29737   0.29953   0.30080   0.30358   0.31092
 Alpha virt. eigenvalues --    0.31239   0.31676   0.31829   0.32323   0.32507
 Alpha virt. eigenvalues --    0.32703   0.33090   0.34234   0.34275   0.34609
 Alpha virt. eigenvalues --    0.35043   0.35152   0.35882   0.36309   0.36570
 Alpha virt. eigenvalues --    0.36865   0.36956   0.37273   0.37624   0.38551
 Alpha virt. eigenvalues --    0.38962   0.39748   0.40341   0.41254   0.41493
 Alpha virt. eigenvalues --    0.42462   0.42610   0.43169   0.44114   0.44488
 Alpha virt. eigenvalues --    0.44566   0.45135   0.46088   0.46534   0.47049
 Alpha virt. eigenvalues --    0.47647   0.47806   0.49358   0.49793   0.50206
 Alpha virt. eigenvalues --    0.51757   0.52191   0.53236   0.53582   0.54801
 Alpha virt. eigenvalues --    0.57415   0.58599   0.59760   0.63221   0.65710
 Alpha virt. eigenvalues --    0.66067   0.66995   0.69059   0.69904   0.71234
 Alpha virt. eigenvalues --    0.73088   0.73500   0.74070   0.75560   0.76501
 Alpha virt. eigenvalues --    0.77520   0.77674   0.78345   0.79034   0.80001
 Alpha virt. eigenvalues --    0.80577   0.81995   0.82594   0.83265   0.83860
 Alpha virt. eigenvalues --    0.84851   0.85859   0.86165   0.86692   0.86979
 Alpha virt. eigenvalues --    0.87178   0.87368   0.89481   0.89675   0.90367
 Alpha virt. eigenvalues --    0.91472   0.92538   0.92852   0.93244   0.94442
 Alpha virt. eigenvalues --    0.95084   0.96058   0.96151   0.96951   0.97603
 Alpha virt. eigenvalues --    0.99037   0.99497   1.00614   1.01943   1.03394
 Alpha virt. eigenvalues --    1.04244   1.04963   1.05438   1.06017   1.07691
 Alpha virt. eigenvalues --    1.08508   1.08818   1.08830   1.09874   1.10481
 Alpha virt. eigenvalues --    1.11002   1.11671   1.13338   1.14665   1.16025
 Alpha virt. eigenvalues --    1.16500   1.18142   1.18914   1.19090   1.20859
 Alpha virt. eigenvalues --    1.21246   1.22751   1.23864   1.24358   1.24815
 Alpha virt. eigenvalues --    1.25407   1.25897   1.27678   1.28524   1.29313
 Alpha virt. eigenvalues --    1.29972   1.31697   1.34284   1.35269   1.36579
 Alpha virt. eigenvalues --    1.37646   1.38544   1.40561   1.41028   1.42346
 Alpha virt. eigenvalues --    1.43701   1.44855   1.45182   1.47488   1.48610
 Alpha virt. eigenvalues --    1.50479   1.50754   1.50784   1.53670   1.54683
 Alpha virt. eigenvalues --    1.57326   1.57546   1.57921   1.58822   1.59026
 Alpha virt. eigenvalues --    1.61318   1.61642   1.63447   1.63589   1.64694
 Alpha virt. eigenvalues --    1.65605   1.65887   1.68501   1.68593   1.70405
 Alpha virt. eigenvalues --    1.70875   1.72199   1.74758   1.75837   1.78914
 Alpha virt. eigenvalues --    1.88115   1.92912   1.94654   1.97120   1.98150
 Alpha virt. eigenvalues --    1.99949   2.02008   2.02515   2.04920   2.04969
 Alpha virt. eigenvalues --    2.06573   2.08341   2.10929   2.11080   2.11896
 Alpha virt. eigenvalues --    2.12450   2.15124   2.17133   2.18591   2.19487
 Alpha virt. eigenvalues --    2.20409   2.21929   2.25528   2.26127   2.26201
 Alpha virt. eigenvalues --    2.28357   2.28924   2.31329   2.32956   2.34233
 Alpha virt. eigenvalues --    2.34417   2.36924   2.38846   2.40609   2.41683
 Alpha virt. eigenvalues --    2.42233   2.43383   2.44519   2.51717   2.52126
 Alpha virt. eigenvalues --    2.55773   2.56070   2.64294   2.67740   2.68852
 Alpha virt. eigenvalues --    2.72492   2.74504   2.76275   2.77461   2.78504
 Alpha virt. eigenvalues --    2.79246   2.82803   2.86998   2.88081   2.88770
 Alpha virt. eigenvalues --    2.90900   2.91162   2.91756   2.92489   2.96290
 Alpha virt. eigenvalues --    2.99936   3.08428   3.12670   3.14900   3.22958
 Alpha virt. eigenvalues --    3.31419   3.41814   3.46304   3.51099   3.54396
 Alpha virt. eigenvalues --    4.31844   4.35911   4.37243   4.37765   4.43545
 Alpha virt. eigenvalues --    4.47228   4.49742   4.52182   4.52612   4.55161
 Alpha virt. eigenvalues --    4.56072   4.58425   4.60585   4.63972   4.65607
 Alpha virt. eigenvalues --    4.70585   4.79569   4.84700   4.90472
          Condensed to atoms (all electrons):
               1          2          3          4          5          6
     1  C    9.296760  -2.278958   1.480677  -0.741501  -0.204829  -1.110586
     2  C   -2.278958  10.546816  -4.392917   1.192310  -0.275150   1.493236
     3  C    1.480677  -4.392917  18.613367  -2.000000  -2.542640  -3.368565
     4  C   -0.741501   1.192310  -2.000000  11.712488  -0.262423  -0.565109
     5  C   -0.204829  -0.275150  -2.542640  -0.262423  11.173311  -3.974704
     6  C   -1.110586   1.493236  -3.368565  -0.565109  -3.974704  14.647720
     7  Cl  -0.282380  -0.078821   0.142719  -0.039770   0.002098   0.038491
     8  Cl  -0.006044  -0.232755   0.096907  -0.060518   0.016651  -0.088170
     9  N   -0.003433   0.148393   0.027314   0.609156  -0.470397  -0.077584
    10  C   -0.022987   0.047359  -1.269355  -1.584255   0.978603  -0.615788
    11  O   -0.003897   0.035260  -0.189417  -0.292013   0.209478   0.208059
    12  N    0.000961   0.020694  -0.173124  -0.458289   0.168405  -0.053990
    13  H    0.038048  -0.057370   0.222511   0.106817   0.040499  -0.010620
    14  H    0.036401  -0.023885   0.037989  -0.079058   0.375541  -0.110324
    15  H    0.023561   0.067986   0.008267  -0.001031   0.039978   0.167365
    16  H   -0.000092  -0.000645   0.006793   0.005635  -0.002844   0.000866
    17  C   -0.009083   0.020486  -0.364539  -1.352235   0.397251   0.086224
    18  C    0.001975   0.012495   0.127066   0.336038  -0.222253  -0.136993
    19  C    0.000390   0.001522   0.041162   0.121602  -0.141616  -0.052923
    20  C   -0.000106  -0.000264  -0.001716  -0.028774   0.002822  -0.000102
    21  C   -0.000068  -0.000649  -0.000042   0.013950   0.000788   0.000943
    22  C    0.000010  -0.016081  -0.056505  -0.270208   0.132249   0.038168
    23  Cl   0.000001  -0.000005   0.000036  -0.000264  -0.000031  -0.000003
    24  H    0.000003  -0.000001  -0.000290   0.005133   0.001656   0.000507
    25  H    0.000000  -0.000000   0.000003  -0.000139   0.000058   0.000004
    26  H    0.000000  -0.000000  -0.000001   0.000010   0.000007   0.000000
    27  H    0.000001  -0.000002   0.000105  -0.000360  -0.000071  -0.000017
               7          8          9         10         11         12
     1  C   -0.282380  -0.006044  -0.003433  -0.022987  -0.003897   0.000961
     2  C   -0.078821  -0.232755   0.148393   0.047359   0.035260   0.020694
     3  C    0.142719   0.096907   0.027314  -1.269355  -0.189417  -0.173124
     4  C   -0.039770  -0.060518   0.609156  -1.584255  -0.292013  -0.458289
     5  C    0.002098   0.016651  -0.470397   0.978603   0.209478   0.168405
     6  C    0.038491  -0.088170  -0.077584  -0.615788   0.208059  -0.053990
     7  Cl  17.117823   0.012644  -0.006849  -0.032589  -0.000471  -0.000580
     8  Cl   0.012644  17.140553  -0.000798  -0.009137   0.000251   0.000080
     9  N   -0.006849  -0.000798   7.438598   0.627252  -0.150414  -0.302133
    10  C   -0.032589  -0.009137   0.627252   8.522383   0.457784   0.220711
    11  O   -0.000471   0.000251  -0.150414   0.457784   8.584019  -0.178238
    12  N   -0.000580   0.000080  -0.302133   0.220711  -0.178238   7.946619
    13  H    0.004716   0.000468  -0.010035  -0.029076   0.000161  -0.000860
    14  H   -0.000023   0.000215  -0.006869   0.065946  -0.006351   0.001807
    15  H   -0.000107   0.002430  -0.001172  -0.003698   0.000567   0.000021
    16  H   -0.000003   0.000000   0.032981   0.066605   0.013480   0.208030
    17  C   -0.001397  -0.000285  -0.322806  -1.613463  -0.338502   0.114334
    18  C   -0.000144  -0.000007   0.019828   0.813455   0.238446  -0.424863
    19  C   -0.000019   0.000002  -0.040851  -0.170132   0.224310  -0.062885
    20  C   -0.000001  -0.000002  -0.004820  -0.289137  -0.005754   0.015915
    21  C    0.000006   0.000001  -0.001335   0.131489   0.011330   0.075892
    22  C    0.000106   0.000015  -0.048405  -1.067443  -0.130000   0.508794
    23  Cl   0.000000  -0.000000   0.000121  -0.006957   0.000250   0.000346
    24  H    0.000000   0.000000   0.001835   0.039918  -0.004888  -0.015390
    25  H    0.000000   0.000000   0.000024  -0.002019   0.000435  -0.000444
    26  H    0.000000   0.000000   0.000015   0.002603   0.000004   0.000712
    27  H    0.000000  -0.000000   0.000674  -0.000379  -0.000033  -0.014420
              13         14         15         16         17         18
     1  C    0.038048   0.036401   0.023561  -0.000092  -0.009083   0.001975
     2  C   -0.057370  -0.023885   0.067986  -0.000645   0.020486   0.012495
     3  C    0.222511   0.037989   0.008267   0.006793  -0.364539   0.127066
     4  C    0.106817  -0.079058  -0.001031   0.005635  -1.352235   0.336038
     5  C    0.040499   0.375541   0.039978  -0.002844   0.397251  -0.222253
     6  C   -0.010620  -0.110324   0.167365   0.000866   0.086224  -0.136993
     7  Cl   0.004716  -0.000023  -0.000107  -0.000003  -0.001397  -0.000144
     8  Cl   0.000468   0.000215   0.002430   0.000000  -0.000285  -0.000007
     9  N   -0.010035  -0.006869  -0.001172   0.032981  -0.322806   0.019828
    10  C   -0.029076   0.065946  -0.003698   0.066605  -1.613463   0.813455
    11  O    0.000161  -0.006351   0.000567   0.013480  -0.338502   0.238446
    12  N   -0.000860   0.001807   0.000021   0.208030   0.114334  -0.424863
    13  H    0.480356  -0.000109   0.000010   0.000004  -0.001272   0.000015
    14  H   -0.000109   0.450141  -0.004959   0.000000   0.010174   0.000632
    15  H    0.000010  -0.004959   0.500215   0.000000  -0.000222   0.000146
    16  H    0.000004   0.000000   0.000000   0.331368  -0.100237  -0.006199
    17  C   -0.001272   0.010174  -0.000222  -0.100237  14.032521  -1.521476
    18  C    0.000015   0.000632   0.000146  -0.006199  -1.521476  13.676223
    19  C   -0.000009   0.000721   0.000014   0.013437  -1.855478  -3.442342
    20  C   -0.000000   0.000031  -0.000000  -0.004555  -1.241736  -0.207318
    21  C    0.000005  -0.000040   0.000000   0.030468   0.137698  -0.107377
    22  C   -0.000001   0.000062  -0.000004  -0.026279  -0.067933  -4.367580
    23  Cl  -0.000000   0.000000   0.000000   0.000056  -0.049530   0.076620
    24  H    0.000000  -0.000014   0.000000  -0.000122   0.055928   0.272658
    25  H   -0.000000   0.000000  -0.000000   0.000002  -0.002305   0.061163
    26  H   -0.000000  -0.000000  -0.000000  -0.000012  -0.015190  -0.024351
    27  H   -0.000000  -0.000000   0.000000   0.005562   0.198489   0.119420
              19         20         21         22         23         24
     1  C    0.000390  -0.000106  -0.000068   0.000010   0.000001   0.000003
     2  C    0.001522  -0.000264  -0.000649  -0.016081  -0.000005  -0.000001
     3  C    0.041162  -0.001716  -0.000042  -0.056505   0.000036  -0.000290
     4  C    0.121602  -0.028774   0.013950  -0.270208  -0.000264   0.005133
     5  C   -0.141616   0.002822   0.000788   0.132249  -0.000031   0.001656
     6  C   -0.052923  -0.000102   0.000943   0.038168  -0.000003   0.000507
     7  Cl  -0.000019  -0.000001   0.000006   0.000106   0.000000   0.000000
     8  Cl   0.000002  -0.000002   0.000001   0.000015  -0.000000   0.000000
     9  N   -0.040851  -0.004820  -0.001335  -0.048405   0.000121   0.001835
    10  C   -0.170132  -0.289137   0.131489  -1.067443  -0.006957   0.039918
    11  O    0.224310  -0.005754   0.011330  -0.130000   0.000250  -0.004888
    12  N   -0.062885   0.015915   0.075892   0.508794   0.000346  -0.015390
    13  H   -0.000009  -0.000000   0.000005  -0.000001  -0.000000   0.000000
    14  H    0.000721   0.000031  -0.000040   0.000062   0.000000  -0.000014
    15  H    0.000014  -0.000000   0.000000  -0.000004   0.000000   0.000000
    16  H    0.013437  -0.004555   0.030468  -0.026279   0.000056  -0.000122
    17  C   -1.855478  -1.241736   0.137698  -0.067933  -0.049530   0.055928
    18  C   -3.442342  -0.207318  -0.107377  -4.367580   0.076620   0.272658
    19  C   14.269438   0.031878   0.102193  -2.551296  -0.074251  -0.090611
    20  C    0.031878   6.464835  -0.201913   1.288989  -0.218965   0.002444
    21  C    0.102193  -0.201913   7.865771  -1.622452  -0.114739  -0.023177
    22  C   -2.551296   1.288989  -1.622452  14.928925   0.121854   0.060290
    23  Cl  -0.074251  -0.218965  -0.114739   0.121854  17.129991   0.000547
    24  H   -0.090611   0.002444  -0.023177   0.060290   0.000547   0.422492
    25  H    0.156930   0.053395   0.054614  -0.017892   0.002037  -0.005030
    26  H    0.056820   0.072788   0.214330  -0.002430  -0.000218   0.000010
    27  H   -0.045300  -0.018106  -0.022510   0.073482   0.001301  -0.000114
              25         26         27
     1  C    0.000000   0.000000   0.000001
     2  C   -0.000000  -0.000000  -0.000002
     3  C    0.000003  -0.000001   0.000105
     4  C   -0.000139   0.000010  -0.000360
     5  C    0.000058   0.000007  -0.000071
     6  C    0.000004   0.000000  -0.000017
     7  Cl   0.000000   0.000000   0.000000
     8  Cl   0.000000   0.000000  -0.000000
     9  N    0.000024   0.000015   0.000674
    10  C   -0.002019   0.002603  -0.000379
    11  O    0.000435   0.000004  -0.000033
    12  N   -0.000444   0.000712  -0.014420
    13  H   -0.000000  -0.000000  -0.000000
    14  H    0.000000  -0.000000  -0.000000
    15  H   -0.000000  -0.000000   0.000000
    16  H    0.000002  -0.000012   0.005562
    17  C   -0.002305  -0.015190   0.198489
    18  C    0.061163  -0.024351   0.119420
    19  C    0.156930   0.056820  -0.045300
    20  C    0.053395   0.072788  -0.018106
    21  C    0.054614   0.214330  -0.022510
    22  C   -0.017892  -0.002430   0.073482
    23  Cl   0.002037  -0.000218   0.001301
    24  H   -0.005030   0.000010  -0.000114
    25  H    0.489441  -0.000156   0.000013
    26  H   -0.000156   0.494128  -0.004896
    27  H    0.000013  -0.004896   0.516770
 Mulliken charges:
               1
     1  C   -0.214824
     2  C   -0.229052
     3  C   -0.445806
     4  C   -0.367191
     5  C    0.557561
     6  C   -0.516107
     7  Cl   0.124551
     8  Cl   0.127501
     9  N   -0.458287
    10  C    0.742307
    11  O   -0.683855
    12  N   -0.598103
    13  H    0.215743
    14  H    0.251971
    15  H    0.200632
    16  H    0.425701
    17  C   -0.195415
    18  C    0.704721
    19  C   -0.492705
    20  C    0.290171
    21  C   -0.545178
    22  C   -0.908438
    23  Cl   0.131804
    24  H    0.276216
    25  H    0.209864
    26  H    0.205828
    27  H    0.190392
 Sum of Mulliken charges =  -1.00000
 Mulliken charges with hydrogens summed into heavy atoms:
               1
     1  C   -0.214824
     2  C   -0.229052
     3  C   -0.230063
     4  C   -0.367191
     5  C    0.809532
     6  C   -0.315474
     7  Cl   0.124551
     8  Cl   0.127501
     9  N   -0.458287
    10  C    0.742307
    11  O   -0.683855
    12  N   -0.172402
    17  C   -0.195415
    18  C    0.980937
    19  C   -0.282841
    20  C    0.290171
    21  C   -0.339350
    22  C   -0.718045
    23  Cl   0.131804
 Electronic spatial extent (au):  <R**2>=          13649.8701
 Charge=             -1.0000 electrons
 Dipole moment (field-independent basis, Debye):
    X=             -4.2336    Y=              0.9552    Z=              0.0090  Tot=              4.3400
 Quadrupole moment (field-independent basis, Debye-Ang):
   XX=           -229.6479   YY=           -132.1925   ZZ=           -140.3263
   XY=             -7.2753   XZ=             -0.0194   YZ=              0.0873
 Traceless Quadrupole moment (field-independent basis, Debye-Ang):
   XX=            -62.2590   YY=             35.1964   ZZ=             27.0627
   XY=             -7.2753   XZ=             -0.0194   YZ=              0.0873
 Octapole moment (field-independent basis, Debye-Ang**2):
  XXX=              8.3603  YYY=             -0.7009  ZZZ=             -0.0637  XYY=            -34.9112
  XXY=             36.1295  XXZ=              0.1969  XZZ=              9.4395  YZZ=             -1.7680
  YYZ=              0.0875  XYZ=             -0.4553
 Hexadecapole moment (field-independent basis, Debye-Ang**3):
 XXXX=         -21330.0240 YYYY=          -1177.0454 ZZZZ=           -167.5344 XXXY=           -110.9313
 XXXZ=             -1.8551 YYYX=            -12.5613 YYYZ=              0.4399 ZZZX=             -0.1305
 ZZZY=             -0.1166 XXYY=          -3060.4709 XXZZ=          -3026.6365 YYZZ=           -252.6457
 XXYZ=              2.3357 YYXZ=             -0.1512 ZZXY=             16.8764
 N-N= 1.532166604096D+03 E-N=-7.955356986817D+03  KE= 2.055363245592D+03
 Calling FoFJK, ICntrl=      2127 FMM=F ISym2X=0 I1Cent= 0 IOpClX= 0 NMat=1 NMatS=1 NMatT=0.
 ***** Axes restored to original set *****
 -------------------------------------------------------------------
 Center     Atomic                   Forces (Hartrees/Bohr)
 Number     Number              X              Y              Z
 -------------------------------------------------------------------
      1        6          -0.006264356   -0.000071497   -0.000383235
      2        6           0.010931790    0.003304984    0.000779153
      3        6          -0.011549381    0.000202346   -0.000704312
      4        6           0.073914768   -0.001603230    0.004337229
      5        6          -0.021088722    0.007219639   -0.001009389
      6        6           0.006125031   -0.013077397   -0.000040019
      7       17           0.003812698    0.003540795    0.000346207
      8       17           0.001670872   -0.000976289    0.000062140
      9        7          -0.013379065   -0.033276834   -0.001710020
     10        6          -0.091373665    0.005392663   -0.005120131
     11        8           0.028206957    0.058372883    0.003138938
     12        7           0.049792894   -0.029266880    0.002129905
     13        1           0.003102226   -0.000396439    0.000171406
     14        1           0.010633494   -0.003770409    0.000474991
     15        1          -0.002431638    0.001703614   -0.000091096
     16        1          -0.000978113    0.017436489    0.000377424
     17        6          -0.031893196   -0.004466166   -0.002023628
     18        6           0.010256444   -0.002284113    0.000520812
     19        6          -0.000541427   -0.012010299   -0.000229149
     20        6          -0.006650615   -0.001662072   -0.000423031
     21        6          -0.004103502    0.002623179   -0.000259722
     22        6           0.003310494    0.008945830    0.000384022
     23       17           0.000147815   -0.000448044    0.000003149
     24        1          -0.011590565   -0.003622069   -0.000712385
     25        1           0.000161799    0.001836652    0.000039088
     26        1           0.001919832   -0.001269600    0.000099221
     27        1          -0.002142870   -0.002377738   -0.000157567
 -------------------------------------------------------------------
 Cartesian Forces:  Max     0.091373665 RMS     0.017864555

 GradGradGradGradGradGradGradGradGradGradGradGradGradGradGradGradGradGrad
 Berny optimization.
 FormGI is forming the generalized inverse of G from B-inverse, IUseBI=4.
 GSVD:  received Info=                   1 from GESDD.
 Internal  Forces:  Max     0.065049165 RMS     0.012588727
 Search for a local minimum.
 Step number   1 out of a maximum of  141
 All quantities printed in internal units (Hartrees-Bohrs-Radians)
 Mixed Optimization -- RFO/linear search
 Second derivative matrix not updated -- first step.
 ITU=  0
     Eigenvalues ---    0.01158   0.01160   0.01622   0.01677   0.01783
     Eigenvalues ---    0.01927   0.01940   0.01972   0.01986   0.02031
     Eigenvalues ---    0.02040   0.02069   0.02078   0.02078   0.02078
     Eigenvalues ---    0.02085   0.02090   0.02111   0.02116   0.02124
     Eigenvalues ---    0.02131   0.02145   0.02148   0.02159   0.16000
     Eigenvalues ---    0.16000   0.16000   0.16000   0.16000   0.16000
     Eigenvalues ---    0.16000   0.16000   0.22000   0.22000   0.22372
     Eigenvalues ---    0.22966   0.23476   0.24000   0.24609   0.25000
     Eigenvalues ---    0.25000   0.25000   0.25000   0.25000   0.25000
     Eigenvalues ---    0.25000   0.25000   0.29649   0.29669   0.30082
     Eigenvalues ---    0.35602   0.35634   0.35635   0.35646   0.35674
     Eigenvalues ---    0.36708   0.36712   0.39532   0.39553   0.40615
     Eigenvalues ---    0.40753   0.41260   0.41313   0.42472   0.44113
     Eigenvalues ---    0.44168   0.45023   0.45462   0.45866   0.45942
     Eigenvalues ---    0.46041   0.46421   0.50817   0.50821   0.97306
 RFO step:  Lambda=-5.15848241D-02 EMin= 1.15752450D-02
 Linear search not attempted -- first point.
 Maximum step size (   0.300) exceeded in Quadratic search.
    -- Step size scaled by   0.786
 Iteration  1 RMS(Cart)=  0.09112184 RMS(Int)=  0.00133671
 Iteration  2 RMS(Cart)=  0.00320087 RMS(Int)=  0.00000676
 Iteration  3 RMS(Cart)=  0.00000291 RMS(Int)=  0.00000671
 Iteration  4 RMS(Cart)=  0.00000000 RMS(Int)=  0.00000671
 Variable       Old X    -DE/DX   Delta X   Delta X   Delta X     New X
                                 (Linear)    (Quad)   (Total)
    R1        2.64723  -0.00557   0.00000  -0.00897  -0.00896   2.63827
    R2        2.63725  -0.00287   0.00000  -0.00445  -0.00444   2.63280
    R3        3.32327  -0.00191   0.00000  -0.00431  -0.00431   3.31897
    R4        2.64345  -0.01022   0.00000  -0.01600  -0.01600   2.62746
    R5        3.32369  -0.00521   0.00000  -0.01177  -0.01177   3.31191
    R6        2.66337  -0.00210   0.00000  -0.00327  -0.00328   2.66009
    R7        2.04709   0.00091   0.00000   0.00175   0.00175   2.04884
    R8        2.67651  -0.00099   0.00000  -0.00128  -0.00129   2.67522
    R9        2.72194  -0.06505   0.00000  -0.11440  -0.11440   2.60754
   R10        2.64216  -0.00469   0.00000  -0.00698  -0.00698   2.63518
   R11        2.02983   0.00480   0.00000   0.00902   0.00902   2.03885
   R12        2.04656   0.00212   0.00000   0.00408   0.00408   2.05064
   R13        2.59050  -0.03049   0.00000  -0.04281  -0.04281   2.54769
   R14        2.29738   0.05911   0.00000   0.04534   0.04534   2.34271
   R15        2.59046   0.02057   0.00000   0.02889   0.02889   2.61935
   R16        1.95026  -0.01726   0.00000  -0.02849  -0.02849   1.92177
   R17        2.72165  -0.04377   0.00000  -0.07695  -0.07695   2.64470
   R18        2.67922  -0.01418   0.00000  -0.02354  -0.02353   2.65569
   R19        2.66448  -0.00574   0.00000  -0.00940  -0.00939   2.65510
   R20        2.64417  -0.00506   0.00000  -0.00787  -0.00788   2.63630
   R21        2.02988   0.00503   0.00000   0.00944   0.00944   2.03932
   R22        2.63646  -0.00374   0.00000  -0.00548  -0.00549   2.63097
   R23        2.04639   0.00182   0.00000   0.00351   0.00351   2.04990
   R24        2.63487  -0.00547   0.00000  -0.00804  -0.00804   2.62683
   R25        3.31500   0.00002   0.00000   0.00004   0.00004   3.31504
   R26        2.63974  -0.00670   0.00000  -0.01021  -0.01020   2.62954
   R27        2.04594   0.00227   0.00000   0.00436   0.00436   2.05030
   R28        2.04658   0.00278   0.00000   0.00535   0.00535   2.05193
    A1        2.08754  -0.00414   0.00000  -0.01155  -0.01154   2.07600
    A2        2.11820   0.00153   0.00000   0.00436   0.00436   2.12256
    A3        2.07744   0.00261   0.00000   0.00719   0.00718   2.08463
    A4        2.09131   0.00486   0.00000   0.01164   0.01165   2.10296
    A5        2.11554  -0.00255   0.00000  -0.00614  -0.00615   2.10939
    A6        2.07634  -0.00231   0.00000  -0.00550  -0.00550   2.07083
    A7        2.12032  -0.00024   0.00000  -0.00107  -0.00107   2.11925
    A8        2.07086   0.00319   0.00000   0.01193   0.01193   2.08279
    A9        2.09201  -0.00295   0.00000  -0.01086  -0.01086   2.08115
   A10        2.05577  -0.00187   0.00000  -0.00423  -0.00425   2.05152
   A11        2.05261  -0.00829   0.00000  -0.02191  -0.02191   2.03070
   A12        2.17481   0.01015   0.00000   0.02615   0.02616   2.20096
   A13        2.10534  -0.00076   0.00000  -0.00119  -0.00121   2.10413
   A14        2.15763  -0.00999   0.00000  -0.03793  -0.03792   2.11970
   A15        2.02022   0.01075   0.00000   0.03912   0.03913   2.05935
   A16        2.10609   0.00214   0.00000   0.00642   0.00642   2.11251
   A17        2.09216  -0.00320   0.00000  -0.01112  -0.01112   2.08104
   A18        2.08494   0.00106   0.00000   0.00470   0.00470   2.08964
   A19        2.23490  -0.04486   0.00000  -0.11690  -0.11690   2.11800
   A20        2.10323   0.05694   0.00000   0.14839   0.14839   2.25162
   A21        2.07686  -0.05226   0.00000  -0.13621  -0.13621   1.94065
   A22        2.10309  -0.00468   0.00000  -0.01219  -0.01219   2.09091
   A23        2.03095  -0.00163   0.00000  -0.00684  -0.00684   2.02411
   A24        2.23466  -0.00192   0.00000  -0.00557  -0.00557   2.22909
   A25        2.01757   0.00355   0.00000   0.01241   0.01241   2.02998
   A26        2.17513  -0.00465   0.00000  -0.01180  -0.01181   2.16332
   A27        2.05250   0.00021   0.00000   0.00085   0.00084   2.05334
   A28        2.05556   0.00444   0.00000   0.01095   0.01097   2.06652
   A29        2.10510  -0.00300   0.00000  -0.00906  -0.00906   2.09604
   A30        2.15759  -0.00974   0.00000  -0.03723  -0.03723   2.12036
   A31        2.02050   0.01274   0.00000   0.04629   0.04629   2.06679
   A32        2.10234   0.00069   0.00000   0.00256   0.00254   2.10488
   A33        2.08779  -0.00062   0.00000  -0.00232  -0.00231   2.08547
   A34        2.09306  -0.00006   0.00000  -0.00024  -0.00023   2.09284
   A35        2.09036   0.00100   0.00000   0.00371   0.00369   2.09405
   A36        2.09651   0.00028   0.00000   0.00018   0.00019   2.09671
   A37        2.09631  -0.00128   0.00000  -0.00389  -0.00388   2.09243
   A38        2.09626  -0.00331   0.00000  -0.00865  -0.00865   2.08761
   A39        2.09743   0.00122   0.00000   0.00272   0.00272   2.10015
   A40        2.08950   0.00208   0.00000   0.00592   0.00592   2.09542
   A41        2.11676   0.00018   0.00000   0.00049   0.00051   2.11727
   A42        2.09918  -0.00173   0.00000  -0.00633  -0.00634   2.09285
   A43        2.06724   0.00155   0.00000   0.00584   0.00583   2.07306
    D1        0.00008  -0.00000   0.00000  -0.00003  -0.00003   0.00005
    D2        3.14156   0.00000   0.00000   0.00000   0.00000   3.14157
    D3       -3.14137  -0.00001   0.00000  -0.00008  -0.00008  -3.14145
    D4        0.00012  -0.00000   0.00000  -0.00005  -0.00005   0.00007
    D5        0.00008   0.00000   0.00000   0.00002   0.00002   0.00009
    D6       -3.14133  -0.00000   0.00000  -0.00006  -0.00006  -3.14139
    D7        3.14152   0.00001   0.00000   0.00006   0.00006   3.14159
    D8        0.00012  -0.00000   0.00000  -0.00001  -0.00001   0.00011
    D9       -0.00024   0.00001   0.00000   0.00007   0.00007  -0.00018
   D10        3.14148   0.00000   0.00000   0.00000   0.00000   3.14148
   D11        3.14145   0.00000   0.00000   0.00004   0.00004   3.14149
   D12       -0.00001  -0.00000   0.00000  -0.00003  -0.00003  -0.00004
   D13        0.00025  -0.00001   0.00000  -0.00009  -0.00009   0.00016
   D14        3.14116  -0.00001   0.00000  -0.00011  -0.00011   3.14105
   D15       -3.14147  -0.00000   0.00000  -0.00003  -0.00003  -3.14150
   D16       -0.00056  -0.00000   0.00000  -0.00005  -0.00005  -0.00061
   D17       -0.00010   0.00001   0.00000   0.00008   0.00008  -0.00002
   D18        3.14084   0.00002   0.00000   0.00025   0.00025   3.14109
   D19       -3.14095   0.00001   0.00000   0.00012   0.00012  -3.14083
   D20       -0.00001   0.00003   0.00000   0.00029   0.00029   0.00028
   D21        3.13694   0.00003   0.00000   0.00039   0.00039   3.13733
   D22       -0.00539   0.00003   0.00000   0.00036   0.00036  -0.00503
   D23       -0.00006  -0.00000   0.00000  -0.00004  -0.00004  -0.00010
   D24        3.14134   0.00000   0.00000   0.00003   0.00003   3.14138
   D25       -3.14105  -0.00001   0.00000  -0.00017  -0.00018  -3.14123
   D26        0.00035  -0.00001   0.00000  -0.00010  -0.00010   0.00025
   D27       -0.00146  -0.00002   0.00000  -0.00031  -0.00033  -0.00179
   D28        3.13956   0.00004   0.00000   0.00044   0.00047   3.14003
   D29       -0.00209  -0.00002   0.00000  -0.00020  -0.00018  -0.00227
   D30        3.14116  -0.00002   0.00000  -0.00020  -0.00018   3.14097
   D31        3.13894   0.00006   0.00000   0.00061   0.00059   3.13953
   D32       -0.00100   0.00006   0.00000   0.00060   0.00059  -0.00041
   D33       -0.00895   0.00003   0.00000   0.00039   0.00039  -0.00856
   D34        3.13306   0.00003   0.00000   0.00042   0.00042   3.13348
   D35        3.13429   0.00003   0.00000   0.00040   0.00040   3.13469
   D36       -0.00689   0.00003   0.00000   0.00043   0.00043  -0.00646
   D37       -3.14152   0.00000   0.00000   0.00004   0.00004  -3.14147
   D38       -0.00068   0.00004   0.00000   0.00047   0.00047  -0.00021
   D39       -0.00034   0.00000   0.00000   0.00001   0.00001  -0.00032
   D40        3.14050   0.00004   0.00000   0.00044   0.00044   3.14094
   D41       -3.14141  -0.00002   0.00000  -0.00020  -0.00020   3.14157
   D42       -0.00028  -0.00001   0.00000  -0.00011  -0.00011  -0.00039
   D43        0.00056  -0.00001   0.00000  -0.00017  -0.00017   0.00039
   D44       -3.14149  -0.00001   0.00000  -0.00008  -0.00008  -3.14157
   D45       -0.00008   0.00001   0.00000   0.00010   0.00010   0.00002
   D46        3.14141   0.00001   0.00000   0.00012   0.00012   3.14153
   D47       -3.14098  -0.00002   0.00000  -0.00027  -0.00028  -3.14126
   D48        0.00051  -0.00002   0.00000  -0.00025  -0.00026   0.00025
   D49        0.00028  -0.00000   0.00000  -0.00005  -0.00005   0.00023
   D50       -3.14145  -0.00000   0.00000  -0.00002  -0.00002  -3.14147
   D51       -3.14120  -0.00001   0.00000  -0.00007  -0.00007  -3.14128
   D52        0.00025  -0.00000   0.00000  -0.00004  -0.00004   0.00021
   D53       -0.00006  -0.00001   0.00000  -0.00010  -0.00010  -0.00016
   D54        3.14155   0.00000   0.00000   0.00005   0.00005  -3.14159
   D55       -3.14152  -0.00001   0.00000  -0.00013  -0.00013   3.14154
   D56        0.00009   0.00000   0.00000   0.00002   0.00002   0.00011
   D57       -0.00037   0.00002   0.00000   0.00022   0.00022  -0.00015
   D58       -3.14151   0.00001   0.00000   0.00014   0.00013  -3.14138
   D59        3.14121   0.00001   0.00000   0.00007   0.00007   3.14127
   D60        0.00007  -0.00000   0.00000  -0.00001  -0.00002   0.00005
         Item               Value     Threshold  Converged?
 Maximum Force            0.065049     0.000450     NO 
 RMS     Force            0.012589     0.000300     NO 
 Maximum Displacement     0.274518     0.001800     NO 
 RMS     Displacement     0.093117     0.001200     NO 
 Predicted change in Energy=-2.693220D-02
 GradGradGradGradGradGradGradGradGradGradGradGradGradGradGradGradGradGrad

                          Input orientation:                          
 ---------------------------------------------------------------------
 Center     Atomic      Atomic             Coordinates (Angstroms)
 Number     Number       Type             X           Y           Z
 ---------------------------------------------------------------------
      1          6           0       -0.923476    2.521569   -0.065649
      2          6           0       -0.631444    1.156593   -0.091758
      3          6           0        0.685541    0.715544   -0.026841
      4          6           0        1.759083    1.621270    0.066305
      5          6           0        1.449904    3.002525    0.091891
      6          6           0        0.125446    3.433901    0.026385
      7         17           0       -1.911841   -0.034613   -0.206537
      8         17           0       -2.575925    3.111203   -0.145722
      9          7           0        3.022485    1.069604    0.125170
     10          6           0        4.122745    1.843985    0.210891
     11          8           0        4.205826    3.080352    0.247977
     12          7           0        5.274564    1.074412    0.259261
     13          1           0        0.890940   -0.348803   -0.048432
     14          1           0        2.223446    3.751318    0.162539
     15          1           0       -0.096214    4.495970    0.047226
     16          1           0        5.138844    0.067072    0.226896
     17          6           0        6.598424    1.519376    0.348974
     18          6           0        6.969624    2.873989    0.395695
     19          6           0        8.316164    3.227627    0.485067
     20          6           0        9.304729    2.248255    0.528893
     21          6           0        8.953365    0.904112    0.483281
     22          6           0        7.611477    0.546873    0.394053
     23         17           0       10.994240    2.706781    0.641479
     24          1           0        6.232764    3.661774    0.363723
     25          1           0        8.591648    4.276227    0.520438
     26          1           0        9.719091    0.136202    0.517065
     27          1           0        7.352279   -0.507007    0.359501
 ---------------------------------------------------------------------
                    Distance matrix (angstroms):
                    1          2          3          4          5
     1  C    0.000000
     2  C    1.396110   0.000000
     3  C    2.419125   1.390391   0.000000
     4  C    2.832679   2.440395   1.407660   0.000000
     5  C    2.426741   2.788046   2.414255   1.415666   0.000000
     6  C    1.393219   2.402701   2.775969   2.440490   1.394477
     7  Cl   2.744227   1.752588   2.709506   4.036345   4.540330
     8  Cl   1.756322   2.757612   4.048515   4.588807   4.034299
     9  N    4.208946   3.661396   2.368496   1.379851   2.492048
    10  C    5.099014   4.813150   3.625502   2.378531   2.915554
    11  O    5.169173   5.216843   4.249735   2.854554   2.761436
    12  N    6.373032   5.917001   4.611916   3.562990   4.286450
    13  H    3.395797   2.141436   1.084201   2.155928   3.400519
    14  H    3.386366   3.866221   3.408363   2.182200   1.078912
    15  H    2.143680   3.384853   3.861120   3.421460   2.150083
    16  H    6.546898   5.880886   4.507417   3.723454   4.716290
    17  C    7.599689   7.252368   5.979093   4.848660   5.364054
    18  C    7.914422   7.807899   6.657861   5.369129   5.529568
    19  C    9.282928   9.202260   8.049783   6.763953   6.881191
    20  C   10.249115  10.015212   8.772026   7.585768   7.903048
    21  C   10.023447   9.605361   8.285692   7.241953   7.801182
    22  C    8.772467   8.279704   6.940762   5.959217   6.639767
    23  Cl  11.940113  11.751478  10.520501   9.316506   9.564719
    24  H    7.259215   7.321253   6.293210   4.926047   4.835727
    25  H    9.693292   9.755630   8.688181   7.344316   7.267081
    26  H   10.922169  10.418514   9.068434   8.109892   8.762193
    27  H    8.822764   8.167682   6.788909   5.991609   6.872151
                    6          7          8          9         10
     6  C    0.000000
     7  Cl   4.029316   0.000000
     8  Cl   2.726015   3.215722   0.000000
     9  N    3.740655   5.067238   5.965208   0.000000
    10  C    4.305842   6.334005   6.826800   1.348179   0.000000
    11  O    4.101658   6.880076   6.793239   2.336341   1.239710
    12  N    5.668760   7.286380   8.120512   2.256073   1.386099
    13  H    3.860108   2.824765   4.899006   2.566223   3.914094
    14  H    2.126240   5.618728   4.851674   2.798473   2.692135
    15  H    1.085154   4.887441   2.846713   4.633827   4.985923
    16  H    6.042343   7.064728   8.302002   2.344012   2.046982
    17  C    6.757877   8.668800   9.324554   3.611055   2.500684
    18  C    6.876966   9.364992   9.563833   4.348436   3.033114
    19  C    8.206144  10.757910  10.910960   5.727969   4.424296
    20  C    9.269170  11.470127  11.931040   6.404592   5.207448
    21  C    9.194604  10.927477  11.755485   5.943985   4.928737
    22  C    8.031859   9.559938  10.519044   4.626488   3.726566
    23  Cl  10.910441  13.221245  13.598993   8.154495   6.938823
    24  H    6.120871   8.962314   8.840569   4.133056   2.789246
    25  H    8.522334  11.376956  11.247921   6.438497   5.097324
    26  H   10.156457  11.654672  12.667176   6.772691   5.859126
    27  H    8.238255   9.293411  10.579033   4.613863   3.997392
                   11         12         13         14         15
    11  O    0.000000
    12  N    2.272911   0.000000
    13  H    4.778644   4.619132   0.000000
    14  H    2.094594   4.060111   4.316373   0.000000
    15  H    4.533412   6.371600   4.945246   2.438981   0.000000
    16  H    3.154493   1.016957   4.277084   4.698655   6.859538
    17  C    2.858561   1.399516   6.018587   4.914951   7.332758
    18  C    2.775425   2.475948   6.894493   4.832212   7.257984
    19  C    4.119803   3.733450   8.258900   6.123682   8.518715
    20  C    5.173984   4.206285   8.824390   7.248309   9.677911
    21  C    5.227860   3.689547   8.176503   7.314456   9.746100
    22  C    4.247153   2.399505   6.794383   6.273192   8.667419
    23  Cl   6.810063   5.960319  10.577771   8.845748  11.249556
    24  H    2.111854   2.761069   6.692510   4.015361   6.391559
    25  H    4.554095   4.617669   9.000856   6.399813   8.703514
    26  H    6.255919   4.549782   8.859530   8.329432  10.750281
    27  H    4.773024   2.613013   6.476137   6.669112   8.978160
                   16         17         18         19         20
    16  H    0.000000
    17  C    2.062635   0.000000
    18  C    3.355448   1.405329   0.000000
    19  C    4.489000   2.426371   1.395069   0.000000
    20  C    4.712044   2.808509   2.421157   1.392247   0.000000
    21  C    3.913685   2.437691   2.797019   2.409306   1.390057
    22  C    2.524294   1.405017   2.414011   2.773322   2.404161
    23  Cl   6.436272   4.562750   4.035579   2.732734   1.754243
    24  H    3.759956   2.173429   1.079162   2.131610   3.385600
    25  H    5.452064   3.406254   2.147741   1.084760   2.149704
    26  H    4.589949   3.417600   3.881981   3.395017   2.152349
    27  H    2.290512   2.162091   3.402774   3.859059   3.381157
                   21         22         23         24         25
    21  C    0.000000
    22  C    1.391490   0.000000
    23  Cl   2.727602   4.021133   0.000000
    24  H    3.875650   3.406520   4.864238   0.000000
    25  H    3.391664   3.858081   2.872327   2.442630   0.000000
    26  H    1.084972   2.150772   2.872170   4.960610   4.290798
    27  H    2.137768   1.085836   4.865370   4.316488   4.943810
                   26         27
    26  H    0.000000
    27  H    2.457711   0.000000
 Stoichiometry    C13H8Cl3N2O(1-)
 Framework group  C1[X(C13H8Cl3N2O)]
 Deg. of freedom    75
 Full point group                 C1      NOp   1
 Largest Abelian subgroup         C1      NOp   1
 Largest concise Abelian subgroup C1      NOp   1
                         Standard orientation:                         
 ---------------------------------------------------------------------
 Center     Atomic      Atomic             Coordinates (Angstroms)
 Number     Number       Type             X           Y           Z
 ---------------------------------------------------------------------
      1          6           0        4.479312   -0.762439    0.003143
      2          6           0        4.241998    0.613343   -0.002339
      3          6           0        2.941398    1.104899   -0.003177
      4          6           0        1.830218    0.240742    0.001216
      5          6           0        2.084041   -1.151972    0.006739
      6          6           0        3.392501   -1.634151    0.007698
      7         17           0        5.571769    1.754939   -0.008182
      8         17           0        6.109727   -1.415440    0.004565
      9          7           0        0.587675    0.840804    0.000573
     10          6           0       -0.544666    0.109101   -0.000382
     11          8           0       -0.677232   -1.123499   -0.002552
     12          7           0       -1.666913    0.922630    0.001137
     13          1           0        2.778684    2.176812   -0.007363
     14          1           0        1.279473   -1.870794    0.010764
     15          1           0        3.571568   -2.704419    0.012160
     16          1           0       -1.490918    1.924236    0.004781
     17          6           0       -3.009876    0.528812    0.000080
     18          6           0       -3.434947   -0.810627   -0.012783
     19          6           0       -4.797007   -1.112306   -0.012989
     20          6           0       -5.748088   -0.095624   -0.000541
     21          6           0       -5.343272    1.234123    0.011965
     22          6           0       -3.985722    1.539580    0.012140
     23         17           0       -7.457668   -0.488951   -0.000761
     24          1           0       -2.728287   -1.626175   -0.022969
     25          1           0       -5.114174   -2.149613   -0.023038
     26          1           0       -6.079596    2.030926    0.021703
     27          1           0       -3.684647    2.582793    0.022190
 ---------------------------------------------------------------------
 Rotational constants (GHZ):      1.2220477      0.0749134      0.0705866
 Basis read from rwf:  (6D, 7F)
 There are   389 symmetry adapted cartesian basis functions of A   symmetry.
 There are   389 symmetry adapted basis functions of A   symmetry.
   389 basis functions,   712 primitive gaussians,   389 cartesian basis functions
    80 alpha electrons       80 beta electrons
       nuclear repulsion energy      1548.7922015846 Hartrees.
 NAtoms=   27 NActive=   27 NUniq=   27 SFac= 1.00D+00 NAtFMM=   60 NAOKFM=F Big=F
 Integral buffers will be    131072 words long.
 Raffenetti 2 integral format.
 Two-electron integral symmetry is turned on.
 One-electron integrals computed using PRISM.
 NBasis=   389 RedAO= T EigKep=  1.24D-06  NBF=   389
 NBsUse=   388 1.00D-06 EigRej=  9.67D-07 NBFU=   388
 Initial guess from the checkpoint file:  "triclofen_a2cl.M062X_6-31pGd_opt.chk"
 B after Tr=    -0.000000   -0.000000    0.000000
         Rot=    1.000000    0.000015   -0.000004    0.000024 Ang=   0.00 deg.
 ExpMin= 4.38D-02 ExpMax= 2.52D+04 ExpMxC= 3.78D+03 IAcc=2 IRadAn=         4 AccDes= 0.00D+00
 Harris functional with IExCor= 1009 and IRadAn=       4 diagonalized for initial guess.
 HarFok:  IExCor= 1009 AccDes= 0.00D+00 IRadAn=         4 IDoV= 1 UseB2=F ITyADJ=14
 ICtDFT=  3500011 ScaDFX=  1.000000  1.000000  1.000000  1.000000
 FoFCou: FMM=F IPFlag=           0 FMFlag=      100000 FMFlg1=           0
         NFxFlg=           0 DoJE=T BraDBF=F KetDBF=T FulRan=T
         wScrn=  0.000000 ICntrl=     500 IOpCl=  0 I1Cent=   200000004 NGrid=           0
         NMat0=    1 NMatS0=      1 NMatT0=    0 NMatD0=    1 NMtDS0=    0 NMtDT0=    0
 Petite list used in FoFCou.
 Requested convergence on RMS density matrix=1.00D-08 within 128 cycles.
 Requested convergence on MAX density matrix=1.00D-06.
 Requested convergence on             energy=1.00D-06.
 No special actions if energy rises.
 SCF Done:  E(RM062X) =  -2065.27102975     A.U. after   14 cycles
            NFock= 14  Conv=0.57D-08     -V/T= 2.0046
 Calling FoFJK, ICntrl=      2127 FMM=F ISym2X=0 I1Cent= 0 IOpClX= 0 NMat=1 NMatS=1 NMatT=0.
 ***** Axes restored to original set *****
 -------------------------------------------------------------------
 Center     Atomic                   Forces (Hartrees/Bohr)
 Number     Number              X              Y              Z
 -------------------------------------------------------------------
      1        6          -0.005057801    0.001553139   -0.000255347
      2        6           0.005072241   -0.000199645    0.000307187
      3        6          -0.011832642   -0.000552421   -0.000733201
      4        6           0.026255888    0.000263806    0.001573628
      5        6          -0.015090018    0.009167696   -0.000574334
      6        6           0.004463401   -0.006590936    0.000060442
      7       17           0.000370755    0.000488259    0.000037433
      8       17           0.001521625   -0.000487170    0.000071190
      9        7          -0.001050697   -0.004480234   -0.000186887
     10        6          -0.035427048    0.003491927   -0.001999260
     11        8           0.006884072    0.008830128    0.000625664
     12        7           0.034599051   -0.009315921    0.001757401
     13        1           0.001620898    0.000025564    0.000097652
     14        1           0.002983620   -0.003120432    0.000051080
     15        1          -0.001121759    0.000649599   -0.000045625
     16        1          -0.003377955    0.006221284   -0.000023454
     17        6          -0.019063113   -0.005755270   -0.001258809
     18        6           0.009876462    0.006296746    0.000655440
     19        6          -0.000210978   -0.004769516   -0.000085219
     20        6          -0.003006888    0.000691132   -0.000160137
     21        6          -0.001394606   -0.000911095   -0.000135890
     22        6           0.005929094    0.001793974    0.000403823
     23       17           0.001169162    0.000215854    0.000077379
     24        1          -0.004027044   -0.003227847   -0.000256873
     25        1           0.000425923    0.000699364    0.000033578
[...]
 9,-0.00294942,0.00780616,0.00004926,0.00000064,0.00000267,0.00000025,-
 0.00001428,0.00001215,-0.00000060,0.00000057,-0.00001272,-0.00000030,0
 .00091248,0.00021063,0.00005429,0.01894236,-0.08470075,-0.00093052,0.0
 6941468,0.05817903,0.00540107,0.07467086,-0.24758779,-0.00033795,-0.03
 125337,0.66784564,0.00000117,0.00000279,-0.00004153,-0.00000759,-0.000
 00056,-0.00002439,0.00002282,0.00000981,-0.00017807,-0.00007162,-0.000
 00433,0.00063684,-0.00000017,-0.00001426,0.00009120,-0.00000144,0.0000
 0183,-0.00005709,0.00000483,0.00000445,0.00000987,0.00000652,-0.000002
 04,0.00000206,0.00004988,0.00002128,0.00007694,0.00005938,-0.00008323,
 -0.00116476,0.00004437,0.00007769,-0.00021766,-0.00024085,0.00004493,-
 0.00116052,-0.00000044,0.00000008,-0.00000593,-0.00000412,0.00000139,0
 .00000100,-0.00000009,-0.00000071,0.00000052,0.00000190,0.00002239,0.0
 0017438,0.00063013,-0.00088522,-0.00293891,-0.00162208,0.00146153,0.00
 664213,-0.00682139,0.00433273,-0.05834685,0.02459603,0.01232784,0.1049
 5296,0.00001828,0.00004174,0.00000157,-0.00004244,-0.00006544,-0.00000
 708,0.00007582,0.00002496,-0.00000100,-0.00031336,0.00002666,0.0000174
 3,0.00019411,-0.00003632,0.00000573,-0.00006668,-0.00000266,-0.0000042
 0,0.00001817,0.00001028,0.00000187,0.00006480,-0.00003004,0.00000297,0
 .00035629,-0.00075503,0.00001004,-0.00217024,0.00384870,-0.00020202,-0
 .00044487,-0.00282323,-0.00008518,0.00971076,-0.00203690,0.00025257,-0
 .00001740,-0.00001150,-0.00000065,0.00001719,-0.00000239,0.00000283,0.
 00001638,-0.00001347,0.00000088,-0.00057724,-0.00057892,0.00001830,-0.
 04793735,0.06056460,-0.00132820,-0.03704283,-0.02746447,-0.00279327,0.
 05617906,-0.00370294,0.00286248,-0.12191358,-0.01507117,-0.00420917,0.
 72758035,-0.00002542,0.00003968,-0.00000072,0.00006908,-0.00003500,0.0
 0000197,-0.00007426,-0.00008290,-0.00000895,0.00038192,-0.00004249,0.0
 0003582,0.00002627,0.00007266,0.00000144,0.00001590,-0.00001729,0.0000
 0040,0.00000579,-0.00000078,0.00000055,0.00000111,-0.00000111,0.,0.000
 06133,-0.00058211,-0.00000762,0.00064828,0.00228151,0.00002482,0.00023
 891,-0.00089136,-0.00000316,0.00388380,-0.01076340,-0.00015689,-0.0000
 0694,-0.00000010,-0.00000013,-0.00001792,0.00000448,-0.00000015,0.0000
 0747,-0.00000295,0.00000047,-0.00004855,-0.00032486,0.00001746,0.00853
 626,0.06641184,0.00216774,-0.03975993,-0.03495826,-0.00319360,0.057470
 23,-0.05407930,0.00188732,-0.09283244,-0.33244578,-0.01240624,-0.03777
 609,0.72607418,-0.00000006,0.00000325,0.00000910,-0.00000375,-0.000006
 02,0.00004905,-0.00000330,-0.00000310,0.00010145,0.00002533,0.00001529
 ,-0.00058494,0.00000736,-0.00000245,0.00008233,-0.00000375,-0.00000062
 ,0.00000225,0.00000177,0.00000083,-0.00000900,0.00000380,-0.00000186,0
 .00000193,0.00003093,-0.00005568,-0.00013768,-0.00028113,0.00021328,0.
 00283637,-0.00000837,-0.00018455,-0.00020668,0.00039862,-0.00050626,0.
 00464336,-0.00000055,-0.00000040,-0.00001115,0.00000241,0.00000076,-0.
 00003093,0.00000141,-0.00000077,-0.00000420,0.00003137,-0.00001492,-0.
 00112811,-0.00263320,0.00524841,0.00014495,-0.00310223,-0.00246600,-0.
 00174018,0.00439785,-0.00173357,0.00647427,-0.00616152,-0.00780432,-0.
 05776712,0.03463278,0.01281734,0.12890014,-0.00014367,-0.00017698,-0.0
 0000965,0.00060810,0.00025425,0.00004147,-0.00114790,-0.00019870,-0.00
 006037,0.00293822,-0.00138853,0.00011751,-0.00096085,0.00082487,-0.000
 04105,0.00045652,-0.00007553,0.00002520,-0.00031105,-0.00026418,-0.000
 02595,-0.00050851,0.00018187,-0.00002532,-0.00702846,0.00134143,-0.000
 39612,0.01168828,-0.01469836,0.00023690,-0.00014869,0.00710664,0.00019
 247,-0.06913013,0.03641644,-0.00376031,0.00005876,0.00001657,0.0000056
 8,0.00007246,-0.00007121,0.00000517,-0.00006393,0.00007811,-0.00000175
 ,0.00132811,0.00339252,0.00026196,-0.19605406,0.05383343,-0.00639834,0
 .05772743,0.03976240,0.00411981,-0.06098961,0.02647692,-0.00281470,-0.
 00297244,-0.09663924,-0.00299409,-0.35777981,-0.01450446,-0.01840514,0
 .71975763,0.00001880,0.00004476,0.00000358,-0.00019634,-0.00012633,-0.
 00001505,0.00025999,0.00015411,0.00002430,-0.00118694,0.00012741,-0.00
 007470,0.00030064,-0.00021067,0.00001015,-0.00011521,0.00004156,-0.000
 00571,0.00007676,0.00006789,0.00000580,0.00018099,-0.00006674,0.000009
 04,0.00054943,-0.00026860,0.00001843,-0.00472062,0.00054069,-0.0003017
 6,0.00038672,-0.00128302,-0.00000005,0.00492490,0.01505755,0.00042805,
 -0.00003084,-0.00001720,-0.00000148,-0.00001064,0.00001048,0.00000084,
 0.00001823,-0.00002618,0.00000045,-0.00291785,0.00200730,-0.00008169,0
 .12005161,-0.23365489,0.00287123,0.00587091,-0.03770652,-0.00072452,0.
 01127884,-0.01014370,0.00046902,-0.03080926,0.00618899,-0.00183481,-0.
 08543078,-0.13681596,-0.00716061,0.03819854,0.71271733,-0.00000483,-0.
 00000799,-0.00005510,0.00003034,0.00001157,0.00001418,-0.00004919,-0.0
 0000269,-0.00021004,0.00012358,-0.00008766,0.00035174,-0.00005439,0.00
 004136,0.00008345,0.00002428,-0.00000337,-0.00000086,-0.00001748,-0.00
 001435,0.00001552,-0.00002546,0.00000912,-0.00000305,-0.00041886,0.000
 06576,0.00025427,0.00049399,-0.00089235,0.00137173,0.00002322,0.000398
 03,-0.00036476,-0.00455179,0.00228894,0.00960969,0.00000448,0.00000129
 ,-0.00003005,0.00000671,-0.00000281,-0.00004576,-0.00000327,0.00000399
 ,-0.00000105,0.00010181,0.00029229,-0.00162752,-0.00473647,-0.00104674
 ,-0.06540009,0.00326888,0.00128276,0.00521812,-0.00319548,0.00136743,-
 0.00237528,-0.00134092,-0.00572994,0.00639340,-0.02018728,-0.00296255,
 -0.05430038,0.03647249,0.01714677,0.12244072,-0.00006378,-0.00008855,-
 0.00000595,0.00044805,0.00013624,0.00002953,-0.00071815,-0.00022838,-0
 .00004813,0.00213845,-0.00073147,0.00010980,-0.00051883,0.00059528,-0.
 00001445,0.00028753,-0.00006714,0.00001517,-0.00021534,-0.00019202,-0.
 00001751,-0.00034264,0.00011541,-0.00001746,-0.00355558,-0.00038408,-0
 .00022317,0.00471748,-0.00093578,0.00025283,-0.00143588,0.00034275,-0.
 00007463,-0.00610049,0.00002905,-0.00032952,0.00003439,0.00000817,0.00
 000220,0.00009905,-0.00006278,0.00000372,-0.00002572,0.00004658,-0.000
 00029,0.00008416,0.00026806,0.00001036,0.00437186,0.00056228,0.0003208
 1,-0.00003128,0.00553012,-0.00011589,-0.03887501,-0.01366271,-0.002746
 35,-0.15705095,-0.02804139,-0.00901689,-0.02840299,-0.00356108,-0.0018
 6258,0.00046546,-0.00285957,-0.00030927,0.22407387,-0.00001328,-0.0000
 1098,-0.00000105,0.00009952,0.00001869,0.00000619,-0.00016336,-0.00005
 233,-0.00001098,0.00047154,-0.00016368,0.00002471,-0.00011781,0.000123
 28,-0.00000333,0.00005767,-0.00001094,0.00000308,-0.00004189,-0.000034
 74,-0.00000334,-0.00007365,0.00002622,-0.00000375,-0.00079774,0.000012
 05,-0.00004839,0.00113019,-0.00065110,0.00004923,-0.00005379,0.0003663
 3,0.00000663,-0.00159061,0.00020943,-0.00007568,0.00000871,0.00000333,
 0.00000058,0.00001547,-0.00001120,0.00000040,-0.00000721,0.00001136,-0
 .00000012,0.00012232,0.00004804,0.00000784,0.00054959,0.00210967,0.000
 10599,-0.00103762,-0.00320931,-0.00024909,0.01730506,0.00652709,0.0011
 4487,-0.02789069,-0.04494498,-0.00236242,-0.03440052,-0.00375621,-0.00
 216953,0.00287681,-0.00394322,-0.00004136,0.04427673,0.04508050,-0.000
 00408,-0.00000551,-0.00000086,0.00002871,0.00000840,0.00000702,-0.0000
 4671,-0.00001488,-0.00000129,0.00014079,-0.00004639,-0.00003306,-0.000
 03243,0.00003885,-0.00002179,0.00001834,-0.00000430,0.00000318,-0.0000
 1381,-0.00001224,-0.00000095,-0.00002228,0.00000742,0.00000145,-0.0002
 3452,-0.00002419,0.00005389,0.00030569,-0.00007249,0.00004938,-0.00008
 502,0.00003000,-0.00002660,-0.00037002,0.00002014,-0.00054423,0.000002
 22,0.00000056,0.00000071,0.00000571,-0.00000422,0.00000927,-0.00000165
 ,0.00000307,-0.00000100,0.00000652,0.00001652,0.00002693,0.00032055,0.
 00010657,-0.00079062,-0.00028071,0.00013956,0.00425682,-0.00196876,-0.
 00068809,0.00158983,-0.00901338,-0.00237131,-0.01722441,-0.00263681,-0
 .00034419,0.00138350,-0.00016542,-0.00038085,0.00446381,0.01377847,0.0
 0349959,0.01100926,0.00000921,0.00000383,-0.00000001,-0.00023095,-0.00
 004804,-0.00001232,0.00035568,0.00011356,0.00002429,-0.00125698,0.0003
 7104,-0.00006863,0.00010088,-0.00031967,-0.00000040,-0.00007497,0.0000
 8062,0.00000167,0.00011787,0.00011163,0.00000981,0.00017234,-0.0000501
 7,0.00000843,0.00152796,0.00218001,0.00011079,0.00053727,-0.01039741,-
 0.00021038,-0.00783030,0.00591904,-0.00024241,-0.00395918,0.00260132,0
 .00002929,-0.00001086,-0.00000064,-0.00000186,-0.00015492,0.00006009,-
 0.00001491,0.00001038,-0.00002351,-0.00000042,-0.00010868,0.00033088,0
 .00002760,0.01595469,-0.00794039,0.00039604,-0.19326243,0.15462442,-0.
 00529956,-0.01469087,0.01954227,-0.00053447,-0.00284390,-0.00254796,-0
 .00067439,0.00052361,-0.00053773,0.00005445,-0.00148885,-0.00222896,-0
 .00047865,-0.00094449,0.00041504,-0.00007353,0.20596976,0.00001991,-0.
 00000198,0.00000084,-0.00009338,-0.00001231,-0.00000474,0.00015669,0.0
 0004114,0.00001045,-0.00054096,0.00019778,-0.00002852,0.00012028,-0.00
 017441,0.00000345,-0.00003424,0.00005064,0.00000097,0.00003944,0.00003
 301,0.00000318,0.00006808,-0.00002187,0.00000327,0.00058641,0.00063820
 ,0.00003597,-0.00113995,-0.00380262,-0.00015457,0.00376815,0.00130440,
 0.00028552,-0.00000772,0.00152299,0.00012246,-0.00000239,-0.00000230,-
 0.00000071,-0.00002816,0.00007484,-0.00000287,0.00001309,-0.00001187,0
 .00000028,0.00005461,-0.00003881,0.00001302,0.02200499,-0.01680303,0.0
 0073214,0.14993156,-0.22411175,0.00420952,-0.00799413,0.01106137,-0.00
 026181,-0.00207633,0.00124240,-0.00027937,-0.00147242,-0.00064614,-0.0
 0008765,-0.00248311,-0.00448563,-0.00040166,-0.00099373,0.00019193,-0.
 00006585,-0.16137275,0.23404903,0.00000038,-0.00000011,0.00001106,-0.0
 0001347,-0.00000208,-0.00004290,0.00002536,0.00000791,-0.00000643,-0.0
 0009139,0.00002522,0.00005950,0.00001065,-0.00002249,-0.00002862,-0.00
 000121,0.00000773,-0.00006837,0.00000800,0.00000743,-0.00000041,0.0000
 1139,-0.00000370,0.00000857,0.00007070,0.00012998,0.00058622,0.0000220
 8,-0.00070035,-0.00033588,-0.00029610,0.00041224,-0.00122247,-0.000035
 24,0.00027672,-0.00335030,-0.00000190,-0.00000060,0.00002022,-0.000017
 10,0.00000234,0.00012227,0.00000050,-0.00000187,0.00000748,0.00002057,
 0.00002939,-0.00042897,0.00114655,-0.00104093,0.00595533,-0.00541667,0
 .00448580,-0.03841616,-0.00122633,0.00136923,0.00259396,-0.00066279,-0
 .00030712,0.00742305,0.00003093,-0.00003249,-0.00062373,-0.00048497,-0
 .00038663,0.00561784,-0.00010902,0.00001754,0.00046711,0.00651890,-0.0
 0436586,0.02769720,-0.00000826,0.00000620,-0.00000048,0.00003014,-0.00
 000861,0.00000165,-0.00005569,-0.00001342,-0.00000369,0.00015627,-0.00
 003090,0.00000782,-0.00005045,0.00003780,-0.00000230,0.00001175,0.0000
 0218,0.00000137,-0.00000822,-0.00000318,-0.00000051,-0.00001590,0.0000
 0714,-0.00000069,-0.00033265,0.00007049,-0.00001433,0.00056539,-0.0004
 9275,0.00001461,-0.00002408,0.00036807,0.00000567,0.00011470,-0.001501
 09,-0.00003009,0.00000492,0.00000250,0.00000023,0.00000151,-0.00000996
 ,-0.00000064,-0.00000753,0.00000435,-0.00000051,-0.00036684,-0.0000371
 0,-0.00000576,-0.00552403,-0.00040071,-0.00080043,-0.00420093,-0.02921
 549,-0.00122039,-0.08128047,-0.08134011,-0.00467828,0.00818386,0.02075
 937,0.00082812,-0.00281621,0.00335852,-0.00039306,-0.00119880,0.000252
 10,-0.00001838,0.00138859,0.00058613,0.00025019,0.00105204,0.00033661,
 0.00035691,0.08372123,-0.00000797,-0.00000630,-0.00000069,0.00005146,0
 .00001055,0.00000334,-0.00008668,-0.00002587,-0.00000579,0.00025532,-0
 .00007950,0.00001272,-0.00006372,0.00007024,-0.00000214,0.00003062,-0.
 00000728,0.00000190,-0.00002283,-0.00001947,-0.00000181,-0.00003873,0.
 00001404,-0.00000190,-0.00044235,-0.00002729,-0.00002525,0.00058796,-0
 .00021218,0.00002683,-0.00015135,0.00008812,-0.00000760,-0.00052398,-0
 .00027085,-0.00003763,0.00000488,0.00000141,0.00000027,0.00001232,-0.0
 0000812,0.00000032,-0.00000437,0.00000605,-0.00000018,-0.00003936,0.00
 005673,0.00000630,-0.00006654,0.00186637,-0.00015357,-0.00063685,-0.00
 187105,-0.00018590,-0.07847082,-0.32197561,-0.01180574,-0.01080572,-0.
 01829619,-0.00117420,0.00447810,-0.00158855,0.00009340,0.00029561,0.00
 083087,0.00005806,-0.00006410,0.00119800,0.00009137,-0.00001962,0.0007
 0326,0.00013781,0.08618630,0.34057381,-0.00000084,0.00000015,0.0000025
 1,0.00000317,-0.00000020,-0.00000147,-0.00000555,-0.00000147,0.0000009
 4,0.00001499,-0.00000411,0.00001179,-0.00000488,0.00000387,0.00000483,
 0.00000209,0.00000021,-0.00001051,-0.00000100,-0.00000065,-0.00000105,
 -0.00000184,0.00000080,-0.00000126,-0.00002724,0.00000502,-0.00006095,
 0.00004211,-0.00003711,0.00010474,-0.00000728,0.00002310,0.00003638,-0
 .00000600,-0.00009548,-0.00000753,0.00000029,0.00000013,0.00000204,-0.
 00000008,-0.00000099,0.00000801,-0.00000072,0.00000034,0.00000284,-0.0
 0000572,0.00000642,-0.00028750,-0.00079183,-0.00017342,0.00777005,-0.0
 0050297,-0.00187766,0.00395262,-0.00460631,-0.01197556,-0.03732399,0.0
 0003576,0.00069425,0.00301636,-0.00036502,0.00002720,0.00522826,-0.000
 01733,0.00005546,-0.00078159,0.00023392,0.00012987,-0.00257241,0.00034
 777,0.00015898,-0.00480920,0.00562414,0.01301763,0.02592850,-0.0000122
 2,-0.00001206,-0.00000112,0.00005437,0.00001653,0.00000377,-0.00010046
 ,-0.00001594,-0.00000656,0.00024301,-0.00011615,0.00001150,-0.00006780
 ,0.00007406,-0.00000307,0.00003759,-0.00000409,0.00000283,-0.00003006,
 -0.00002751,-0.00000236,-0.00003876,0.00001210,-0.00000199,-0.00062489
 ,0.00000435,-0.00003398,0.00062795,-0.00063507,0.00003115,-0.00007828,
 0.00017357,-0.00000251,-0.00123418,0.00169136,-0.00003803,0.00000390,-
 0.00000022,0.,0.00001304,-0.00000745,0.00000036,-0.00000382,0.00000525
 ,-0.00000014,0.00004338,0.00004792,0.00000094,-0.00372496,-0.00301181,
 -0.00074628,-0.00054905,-0.00084398,0.00000410,0.00049928,-0.00236553,
 -0.00034768,0.00720206,-0.00814543,0.00005573,-0.19008818,0.14551128,-
 0.00551198,-0.01481788,0.02351760,-0.00047940,0.00157986,-0.00042498,0
 .00023874,0.00004339,0.00010490,0.00004797,0.00056026,-0.00038974,-0.0
 0000296,0.19954817,0.00000365,0.00000846,0.00000038,-0.00003184,-0.000
 01348,-0.00000215,0.00004692,0.00001820,0.00000311,-0.00015715,0.00004
 576,-0.00000805,0.00003660,-0.00004223,0.00000070,-0.00002056,0.000005
 94,-0.00000076,0.00001563,0.00001428,0.00000132,0.00002580,-0.00000858
 ,0.00000130,0.00022021,0.00003189,0.00001491,-0.00040813,0.00000277,-0
 .00001962,0.00010393,-0.00001767,0.00000472,0.00037496,0.00040601,0.00
 002915,-0.00000252,-0.00000057,-0.00000026,-0.00000690,0.00000350,-0.0
 0000041,0.00000122,-0.00000328,-0.00000003,-0.00000180,-0.00003430,-0.
 00000219,-0.00269164,0.00066122,-0.00033361,-0.00090754,0.00012898,-0.
 00002605,-0.00370171,-0.00486356,-0.00047600,0.02332359,-0.01668955,0.
 00089116,0.14292895,-0.21448011,0.00396161,-0.00599956,0.00905725,-0.0
 0020955,0.00018413,0.00110974,0.00010487,0.00005444,0.00004340,0.00002
 247,0.00115219,-0.00095296,0.00003312,-0.15486002,0.22480309,-0.000000
 73,-0.00000055,0.00000160,0.00000257,0.00000071,-0.00000242,-0.0000050
 0,-0.00000058,0.00000355,0.00001048,-0.00000571,-0.00000005,-0.0000040
 0,0.00000294,0.00001510,0.00000241,0.00000021,-0.00001172,-0.00000129,
 -0.00000123,-0.00000181,-0.00000166,0.00000050,0.00000008,-0.00002874,
 0.00000221,-0.00004762,0.00003732,-0.00003294,-0.00017653,-0.00000434,
 0.00000885,0.00003866,-0.00007162,0.00010690,0.00013351,-0.00000006,-0
 .00000013,0.00000392,0.00000037,-0.00000045,0.00000381,-0.00000025,0.0
 0000021,0.00000083,-0.00000032,0.00000080,0.00004821,-0.00073813,-0.00
 035253,0.00755053,0.00000246,-0.00002236,-0.00097641,-0.00038135,-0.00
 039691,0.00533690,0.00084602,-0.00097192,0.00282930,-0.00557688,0.0041
 1445,-0.03548211,-0.00122025,0.00153801,0.00321868,0.00025402,0.000068
 85,-0.00261599,0.00004667,0.00002546,-0.00071912,0.00003576,-0.0000581
 9,0.00044559,0.00646547,-0.00414221,0.02492431,0.00000498,0.00000190,0
 .00000033,-0.00003563,-0.00000536,-0.00000155,0.00005643,0.00002208,0.
 00000516,-0.00015156,0.00004297,-0.00001632,0.00004098,-0.00003998,0.0
 0000324,-0.00001704,-0.00000271,-0.00000044,0.00001650,0.00001339,0.00
 000145,0.00002083,-0.00000748,0.00000100,0.00027232,-0.00007261,0.0000
 1587,-0.00040549,0.00040032,0.00004240,-0.00004722,-0.00038864,-0.0000
 2168,0.00221316,0.00149962,0.00036420,-0.00000722,-0.00000162,-0.00000
 132,-0.00000400,0.00000206,-0.00000146,0.00000323,-0.00000350,-0.00000
 004,-0.00090733,-0.00035098,-0.00011697,0.00881574,0.01965167,0.000724
 23,-0.00265624,0.00299320,-0.00038429,-0.00120302,0.00049034,-0.000033
 22,-0.00388758,0.00012630,-0.00063654,-0.00514163,-0.03107133,-0.00121
 746,-0.08035632,-0.07537907,-0.00467865,-0.00140764,-0.00130164,-0.000
 14682,0.00048229,0.00103455,0.00008529,0.00009940,-0.00006783,0.000043
 31,0.00091427,0.00031717,0.00033104,0.08328779,0.00000815,0.00001167,0
 .00000077,0.00001458,-0.00001317,0.00000082,-0.00001147,-0.00002130,-0
 .00000067,0.00004728,0.00001566,-0.00000042,-0.00001523,0.00000078,-0.
 00000003,-0.00000762,0.00000828,0.,0.00000065,0.00000571,0.00000025,-0
 .00000506,0.00000481,-0.00000020,0.00013448,0.00017537,0.00001299,0.00
 049000,-0.00044807,0.00004115,0.00009169,0.00083918,0.00002265,-0.0017
 7089,0.00151372,0.00001696,0.00000863,0.00000497,0.00000027,-0.0000042
 0,-0.00000099,-0.00000081,-0.00000410,0.00000243,-0.00000024,0.0016762
 8,-0.00004783,0.00007456,-0.01134267,-0.01823367,-0.00125284,0.0045442
 0,-0.00220037,0.00008563,0.00112372,0.00038567,0.00008707,-0.00075047,
 0.00261376,-0.00015251,-0.00024971,-0.00336967,-0.00015584,-0.07455653
 ,-0.31809752,-0.01156437,-0.00022202,-0.00024698,-0.00003241,-0.000921
 32,-0.00104168,-0.00006757,-0.00007662,-0.00007821,0.00001010,-0.00029
 894,0.00076584,0.00011563,0.08209720,0.33745159,0.00000048,0.00000040,
 0.00000021,-0.00000104,-0.00000035,-0.00001159,0.00000429,0.00000129,-
 0.00002133,-0.00001605,-0.00000068,0.00014153,0.00000390,-0.00000152,-
 0.00003161,-0.00000057,0.00000030,-0.00001038,0.00000113,0.00000099,-0
 .00000239,0.00000105,-0.00000033,0.00000078,0.00002114,0.00000079,-0.0
 0002661,0.00004431,0.00003620,-0.00094262,-0.00000955,-0.00000580,0.00
 015361,0.00028264,0.00020942,-0.00328960,-0.00000106,-0.00000033,0.000
 01435,-0.00000161,-0.00000044,0.00002136,-0.00000006,-0.00000021,0.000
 00249,-0.00006630,-0.00004471,0.00092120,-0.00005455,0.00058205,0.0049
 2765,-0.00034525,-0.00000622,0.00508269,-0.00001715,0.00004951,-0.0004
 3290,-0.00065856,-0.00010037,0.00687724,-0.00044365,-0.00198029,0.0021
 6922,-0.00465791,-0.01161324,-0.03385762,-0.00011972,-0.00009633,0.000
 51103,0.00003625,0.00004810,-0.00051724,0.00004308,0.00001061,-0.00065
 801,0.00031553,0.00015208,-0.00452081,0.00563922,0.01275907,0.02349934
 \\-0.00000149,-0.00000373,-0.00000030,0.00000471,-0.00000278,0.0000008
 9,-0.00000107,0.00000015,0.00000213,-0.00001261,-0.00000106,-0.0000081
 8,-0.00001093,0.00000336,0.00000086,0.00000410,-0.00000257,-0.00000070
 ,0.00000071,-0.00000572,-0.00000007,0.00000092,-0.00000499,0.00000006,
 0.00001045,0.00000418,-0.00000678,0.00000340,0.00000286,0.00003460,-0.
 00002153,-0.00000137,-0.00001362,0.00000978,-0.00000389,-0.00001332,0.
 00000160,-0.00000511,-0.00000033,-0.00000506,-0.00000092,0.00000035,-0
 .00000177,-0.00000223,0.,0.00000037,-0.00001104,0.00000081,0.00000329,
 -0.00000491,0.00000200,0.00001283,0.00001479,0.00000134,-0.00000183,0.
 00000496,-0.00000044,-0.00000171,0.00000326,-0.00000006,0.00000128,0.0
 0000216,0.00000062,-0.00000485,0.00000298,-0.00000057,0.00000111,0.000
 00559,0.00000018,0.00000864,-0.00000205,0.00000052,-0.00000102,0.00000
 254,-0.00000004,-0.00000030,0.00000411,0.00000004,0.00000101,0.0000014
 5,0.00000004\\\@


      SCIENCE SANS CONSCIENCE N'EST QUE RUINE DE L'AME.

                                                  -- RABELAIS
 Job cpu time:       0 days  3 hours 31 minutes 35.6 seconds.
 File lengths (MBytes):  RWF=    475 Int=      0 D2E=      0 Chk=     14 Scr=      1
 Normal termination of Gaussian 09 at Mon Oct  8 16:52:29 2018.
