 Entering Gaussian System, Link 0=/apps/gaussian/g09e01/g09/g09
 AtFile(1): /home/507/hio507/Basis/6-31pGd.gbs
 Initial command:
 /apps/gaussian/g09e01/g09/l1.exe "/jobfs/local/6146863.r-man2/Gau-10243.inp" -scrdir="/jobfs/local/6146863.r-man2/"
 Entering Link 1 = /apps/gaussian/g09e01/g09/l1.exe PID=     10244.
  
 Copyright (c) 1988,1990,1992,1993,1995,1998,2003,2009,2015,
            Gaussian, Inc.  All Rights Reserved.
  
 This is part of the Gaussian(R) 09 program.  It is based on
 the Gaussian(R) 03 system (copyright 2003, Gaussian, Inc.),
 the Gaussian(R) 98 system (copyright 1998, Gaussian, Inc.),
 the Gaussian(R) 94 system (copyright 1995, Gaussian, Inc.),
 the Gaussian 92(TM) system (copyright 1992, Gaussian, Inc.),
 the Gaussian 90(TM) system (copyright 1990, Gaussian, Inc.),
 the Gaussian 88(TM) system (copyright 1988, Gaussian, Inc.),
 the Gaussian 86(TM) system (copyright 1986, Carnegie Mellon
 University), and the Gaussian 82(TM) system (copyright 1983,
 Carnegie Mellon University). Gaussian is a federally registered
 trademark of Gaussian, Inc.
  
 This software contains proprietary and confidential information,
 including trade secrets, belonging to Gaussian, Inc.
  
 This software is provided under written license and may be
 used, copied, transmitted, or stored only in accord with that
 written license.
  
 The following legend is applicable only to US Government
 contracts under FAR:
  
                    RESTRICTED RIGHTS LEGEND
  
 Use, reproduction and disclosure by the US Government is
 subject to restrictions as set forth in subparagraphs (a)
 and (c) of the Commercial Computer Software - Restricted
 Rights clause in FAR 52.227-19.
  
 Gaussian, Inc.
 340 Quinnipiac St., Bldg. 40, Wallingford CT 06492
  
  
 ---------------------------------------------------------------
 Warning -- This program may not be used in any manner that
 competes with the business of Gaussian, Inc. or will provide
 assistance to any competitor of Gaussian, Inc.  The licensee
 of this program is prohibited from giving any competitor of
 Gaussian, Inc. access to this program.  By using this program,
 the user acknowledges that Gaussian, Inc. is engaged in the
 business of creating and licensing software in the field of
 computational chemistry and represents and warrants to the
 licensee that it is not a competitor of Gaussian, Inc. and that
 it will not use this program in any manner prohibited above.
 ---------------------------------------------------------------
  

 Cite this work as:
 Gaussian 09, Revision E.01,
 M. J. Frisch, G. W. Trucks, H. B. Schlegel, G. E. Scuseria, 
 M. A. Robb, J. R. Cheeseman, G. Scalmani, V. Barone, B. Mennucci, 
 G. A. Petersson, H. Nakatsuji, M. Caricato, X. Li, H. P. Hratchian, 
 A. F. Izmaylov, J. Bloino, G. Zheng, J. L. Sonnenberg, M. Hada, 
 M. Ehara, K. Toyota, R. Fukuda, J. Hasegawa, M. Ishida, T. Nakajima, 
 Y. Honda, O. Kitao, H. Nakai, T. Vreven, J. A. Montgomery, Jr., 
 J. E. Peralta, F. Ogliaro, M. Bearpark, J. J. Heyd, E. Brothers, 
 K. N. Kudin, V. N. Staroverov, T. Keith, R. Kobayashi, J. Normand, 
 K. Raghavachari, A. Rendell, J. C. Burant, S. S. Iyengar, J. Tomasi, 
 M. Cossi, N. Rega, J. M. Millam, M. Klene, J. E. Knox, J. B. Cross, 
 V. Bakken, C. Adamo, J. Jaramillo, R. Gomperts, R. E. Stratmann, 
 O. Yazyev, A. J. Austin, R. Cammi, C. Pomelli, J. W. Ochterski, 
 R. L. Martin, K. Morokuma, V. G. Zakrzewski, G. A. Voth, 
 P. Salvador, J. J. Dannenberg, S. Dapprich, A. D. Daniels, 
 O. Farkas, J. B. Foresman, J. V. Ortiz, J. Cioslowski, 
 and D. J. Fox, Gaussian, Inc., Wallingford CT, 2013.
 
 ******************************************
 Gaussian 09:  ES64L-G09RevE.01 30-Nov-2015
                25-Feb-2019 
 ******************************************
 %chk=aryl_urea_nitro.M062X_6-31pGd_opt_Pentadecane.chk
 %mem=196608000
 %nproc=4
 Will use up to    4 processors via shared memory.
 ----------------------------------------------------------------------
 # M062X/Gen 6D SCF=Tight INT(grid=ultrafine) OPT=CalcFC IOP(2/17=4) SC
 RF=(SMD,Solvent=n-Pentadecane) maxdisk=2147483648
 ----------------------------------------------------------------------
 1/10=4,14=-1,18=20,19=15,26=4,38=1/1,3;
 2/9=110,12=2,17=4,18=5,40=1/2;
 3/5=7,8=2,11=2,16=1,25=1,30=1,70=32201,71=2,72=151,74=-55,75=-5,140=1/1,2,3;
 4//1;
 5/5=2,32=2,38=5,53=151/2;
 8/6=4,10=90,11=11/1;
 11/6=1,8=1,9=11,15=111,16=1/1,2,10;
 10/6=1,13=1/2;
 6/7=2,8=2,9=2,10=2,28=1/1;
 7/10=1,18=20,25=1/1,2,3,16;
 1/10=4,14=-1,18=20,19=15,26=4/3(2);
 2/9=110,17=4/2;
 99//99;
 2/9=110,17=4/2;
 3/5=7,6=1,8=2,11=2,16=1,25=1,30=1,70=32205,71=1,72=151,74=-55,75=-5,82=7/1,2,3;
 4/5=5,16=3,69=1/1;
 5/5=2,32=2,38=5,53=151/2;
 7//1,2,3,16;
 1/14=-1,18=20,19=15,26=4/3(-5);
 2/9=110,17=4/2;
 6/7=2,8=2,9=2,10=2,19=2,28=1/1;
 99/9=1/99;
 ---------------------------------------------
 aryl_urea_nitro.M062X_6-31pGd_opt_Pentadecane
 ---------------------------------------------
 Symbolic Z-matrix:
 Charge =  0 Multiplicity = 1
 C                    -4.19203   3.70989  -1.05289 
 C                    -4.36934   2.59757  -0.21748 
 C                    -3.26936   1.96801   0.3691 
 C                    -1.9571    2.42476   0.14342 
 C                    -1.78568   3.54802  -0.70034 
 C                    -2.88947   4.17659  -1.28649 
 N                    -0.88254   1.71502   0.78695 
 C                     0.46009   1.97264   0.713 
 N                     1.33324   1.18004   1.39695 
 O                     0.8926    2.89838   0.04518 
 C                     2.48263   1.72963   2.09502 
 C                     3.43375   0.61641   2.54926 
 C                     4.44042   1.13315   3.57297 
 H                    -3.44573   1.11149   1.00811 
 H                    -0.82688   3.97216  -0.9344 
 H                    -1.16044   0.91309   1.3743 
 H                     1.17447   0.16028   1.41854 
 H                     2.1333    2.29852   2.98493 
 H                     3.02797   2.42053   1.41463 
 H                     3.98594   0.21923   1.66972 
 H                     2.8464   -0.2098    3.00594 
 H                     4.64371   2.21212   3.4039 
 H                     5.39349   0.5721    3.47372 
 H                     4.05021   0.99219   4.60346 
 H                    -5.35968   2.21038  -0.01508 
 H                    -2.71958   5.03312  -1.92654 
 N                    -5.31325   4.35355  -1.65317 
 O                    -5.14216   5.41625  -2.45194 
 O                    -6.55664   3.90574  -1.4293 
 

 GradGradGradGradGradGradGradGradGradGradGradGradGradGradGradGradGradGrad
 Berny optimization.
 Initialization pass.
                           ----------------------------
                           !    Initial Parameters    !
                           ! (Angstroms and Degrees)  !
 --------------------------                            --------------------------
 ! Name  Definition              Value          Derivative Info.                !
 --------------------------------------------------------------------------------
 ! R1    R(1,2)                  1.4024         calculate D2E/DX2 analytically  !
 ! R2    R(1,6)                  1.4032         calculate D2E/DX2 analytically  !
 ! R3    R(1,27)                 1.4254         calculate D2E/DX2 analytically  !
 ! R4    R(2,3)                  1.3966         calculate D2E/DX2 analytically  !
 ! R5    R(2,25)                 1.0824         calculate D2E/DX2 analytically  !
 ! R6    R(3,4)                  1.4077         calculate D2E/DX2 analytically  !
 ! R7    R(3,14)                 1.0831         calculate D2E/DX2 analytically  !
 ! R8    R(4,5)                  1.4153         calculate D2E/DX2 analytically  !
 ! R9    R(4,7)                  1.4396         calculate D2E/DX2 analytically  !
 ! R10   R(5,6)                  1.3989         calculate D2E/DX2 analytically  !
 ! R11   R(5,15)                 1.0742         calculate D2E/DX2 analytically  !
 ! R12   R(6,26)                 1.0827         calculate D2E/DX2 analytically  !
 ! R13   R(7,8)                  1.3691         calculate D2E/DX2 analytically  !
 ! R14   R(7,16)                 1.0321         calculate D2E/DX2 analytically  !
 ! R15   R(8,9)                  1.3632         calculate D2E/DX2 analytically  !
 ! R16   R(8,10)                 1.2207         calculate D2E/DX2 analytically  !
 ! R17   R(9,11)                 1.4527         calculate D2E/DX2 analytically  !
 ! R18   R(9,17)                 1.0323         calculate D2E/DX2 analytically  !
 ! R19   R(11,12)                1.533          calculate D2E/DX2 analytically  !
 ! R20   R(11,18)                1.1125         calculate D2E/DX2 analytically  !
 ! R21   R(11,19)                1.1125         calculate D2E/DX2 analytically  !
 ! R22   R(12,13)                1.5259         calculate D2E/DX2 analytically  !
 ! R23   R(12,20)                1.1119         calculate D2E/DX2 analytically  !
 ! R24   R(12,21)                1.1118         calculate D2E/DX2 analytically  !
 ! R25   R(13,22)                1.1109         calculate D2E/DX2 analytically  !
 ! R26   R(13,23)                1.1104         calculate D2E/DX2 analytically  !
 ! R27   R(13,24)                1.1109         calculate D2E/DX2 analytically  !
 ! R28   R(27,28)                1.3404         calculate D2E/DX2 analytically  !
 ! R29   R(27,29)                1.3404         calculate D2E/DX2 analytically  !
 ! A1    A(2,1,6)              118.7078         calculate D2E/DX2 analytically  !
 ! A2    A(2,1,27)             120.6366         calculate D2E/DX2 analytically  !
 ! A3    A(6,1,27)             120.6556         calculate D2E/DX2 analytically  !
 ! A4    A(1,2,3)              120.5431         calculate D2E/DX2 analytically  !
 ! A5    A(1,2,25)             120.7168         calculate D2E/DX2 analytically  !
 ! A6    A(3,2,25)             118.7401         calculate D2E/DX2 analytically  !
 ! A7    A(2,3,4)              121.375          calculate D2E/DX2 analytically  !
 ! A8    A(2,3,14)             118.4273         calculate D2E/DX2 analytically  !
 ! A9    A(4,3,14)             120.1977         calculate D2E/DX2 analytically  !
 ! A10   A(3,4,5)              117.7755         calculate D2E/DX2 analytically  !
 ! A11   A(3,4,7)              117.6576         calculate D2E/DX2 analytically  !
 ! A12   A(5,4,7)              124.5669         calculate D2E/DX2 analytically  !
 ! A13   A(4,5,6)              120.7197         calculate D2E/DX2 analytically  !
 ! A14   A(4,5,15)             123.4608         calculate D2E/DX2 analytically  !
 ! A15   A(6,5,15)             115.8195         calculate D2E/DX2 analytically  !
 ! A16   A(1,6,5)              120.8789         calculate D2E/DX2 analytically  !
 ! A17   A(1,6,26)             120.4774         calculate D2E/DX2 analytically  !
 ! A18   A(5,6,26)             118.6436         calculate D2E/DX2 analytically  !
 ! A19   A(4,7,8)              127.9564         calculate D2E/DX2 analytically  !
 ! A20   A(4,7,16)             115.8776         calculate D2E/DX2 analytically  !
 ! A21   A(8,7,16)             116.1659         calculate D2E/DX2 analytically  !
 ! A22   A(7,8,9)              119.4463         calculate D2E/DX2 analytically  !
 ! A23   A(7,8,10)             121.3132         calculate D2E/DX2 analytically  !
 ! A24   A(9,8,10)             119.2404         calculate D2E/DX2 analytically  !
 ! A25   A(8,9,11)             121.8626         calculate D2E/DX2 analytically  !
 ! A26   A(8,9,17)             119.1008         calculate D2E/DX2 analytically  !
 ! A27   A(11,9,17)            119.0366         calculate D2E/DX2 analytically  !
 ! A28   A(9,11,12)            111.0099         calculate D2E/DX2 analytically  !
 ! A29   A(9,11,18)            109.2325         calculate D2E/DX2 analytically  !
 ! A30   A(9,11,19)            109.202          calculate D2E/DX2 analytically  !
 ! A31   A(12,11,18)           109.2159         calculate D2E/DX2 analytically  !
 ! A32   A(12,11,19)           109.1506         calculate D2E/DX2 analytically  !
 ! A33   A(18,11,19)           109.0004         calculate D2E/DX2 analytically  !
 ! A34   A(11,12,13)           111.2338         calculate D2E/DX2 analytically  !
 ! A35   A(11,12,20)           109.4585         calculate D2E/DX2 analytically  !
 ! A36   A(11,12,21)           109.4853         calculate D2E/DX2 analytically  !
 ! A37   A(13,12,20)           108.9071         calculate D2E/DX2 analytically  !
 ! A38   A(13,12,21)           108.9413         calculate D2E/DX2 analytically  !
 ! A39   A(20,12,21)           108.7733         calculate D2E/DX2 analytically  !
 ! A40   A(12,13,22)           110.3366         calculate D2E/DX2 analytically  !
 ! A41   A(12,13,23)           109.5833         calculate D2E/DX2 analytically  !
 ! A42   A(12,13,24)           110.3427         calculate D2E/DX2 analytically  !
 ! A43   A(22,13,23)           108.6677         calculate D2E/DX2 analytically  !
 ! A44   A(22,13,24)           109.1901         calculate D2E/DX2 analytically  !
 ! A45   A(23,13,24)           108.6809         calculate D2E/DX2 analytically  !
 ! A46   A(1,27,28)            120.5688         calculate D2E/DX2 analytically  !
 ! A47   A(1,27,29)            120.5622         calculate D2E/DX2 analytically  !
 ! A48   A(28,27,29)           118.869          calculate D2E/DX2 analytically  !
 ! D1    D(6,1,2,3)             -0.0196         calculate D2E/DX2 analytically  !
 ! D2    D(6,1,2,25)           180.0            calculate D2E/DX2 analytically  !
 ! D3    D(27,1,2,3)           179.9673         calculate D2E/DX2 analytically  !
 ! D4    D(27,1,2,25)           -0.0132         calculate D2E/DX2 analytically  !
 ! D5    D(2,1,6,5)              0.0209         calculate D2E/DX2 analytically  !
 ! D6    D(2,1,6,26)          -179.9964         calculate D2E/DX2 analytically  !
 ! D7    D(27,1,6,5)          -179.966          calculate D2E/DX2 analytically  !
 ! D8    D(27,1,6,26)            0.0167         calculate D2E/DX2 analytically  !
 ! D9    D(2,1,27,28)         -179.969          calculate D2E/DX2 analytically  !
 ! D10   D(2,1,27,29)           -0.0215         calculate D2E/DX2 analytically  !
 ! D11   D(6,1,27,28)            0.0176         calculate D2E/DX2 analytically  !
 ! D12   D(6,1,27,29)          179.9651         calculate D2E/DX2 analytically  !
 ! D13   D(1,2,3,4)             -0.0035         calculate D2E/DX2 analytically  !
 ! D14   D(1,2,3,14)          -179.9759         calculate D2E/DX2 analytically  !
 ! D15   D(25,2,3,4)           179.9774         calculate D2E/DX2 analytically  !
 ! D16   D(25,2,3,14)            0.0049         calculate D2E/DX2 analytically  !
 ! D17   D(2,3,4,5)              0.0247         calculate D2E/DX2 analytically  !
 ! D18   D(2,3,4,7)           -179.9261         calculate D2E/DX2 analytically  !
 ! D19   D(14,3,4,5)           179.9967         calculate D2E/DX2 analytically  !
 ! D20   D(14,3,4,7)             0.0459         calculate D2E/DX2 analytically  !
 ! D21   D(3,4,5,6)             -0.0233         calculate D2E/DX2 analytically  !
 ! D22   D(3,4,5,15)           179.9972         calculate D2E/DX2 analytically  !
 ! D23   D(7,4,5,6)            179.9238         calculate D2E/DX2 analytically  !
 ! D24   D(7,4,5,15)            -0.0557         calculate D2E/DX2 analytically  !
 ! D25   D(3,4,7,8)            179.8602         calculate D2E/DX2 analytically  !
 ! D26   D(3,4,7,16)            -0.0274         calculate D2E/DX2 analytically  !
 ! D27   D(5,4,7,8)             -0.0869         calculate D2E/DX2 analytically  !
 ! D28   D(5,4,7,16)          -179.9745         calculate D2E/DX2 analytically  !
 ! D29   D(4,5,6,1)              0.0007         calculate D2E/DX2 analytically  !
 ! D30   D(4,5,6,26)          -179.9822         calculate D2E/DX2 analytically  !
 ! D31   D(15,5,6,1)           179.9817         calculate D2E/DX2 analytically  !
 ! D32   D(15,5,6,26)           -0.0013         calculate D2E/DX2 analytically  !
 ! D33   D(4,7,8,9)           -179.8245         calculate D2E/DX2 analytically  !
 ! D34   D(4,7,8,10)             0.1121         calculate D2E/DX2 analytically  !
 ! D35   D(16,7,8,9)             0.0628         calculate D2E/DX2 analytically  !
 ! D36   D(16,7,8,10)          179.9994         calculate D2E/DX2 analytically  !
 ! D37   D(7,8,9,11)          -139.4051         calculate D2E/DX2 analytically  !
 ! D38   D(7,8,9,17)            40.6908         calculate D2E/DX2 analytically  !
 ! D39   D(10,8,9,11)           40.657          calculate D2E/DX2 analytically  !
 ! D40   D(10,8,9,17)         -139.2471         calculate D2E/DX2 analytically  !
 ! D41   D(8,9,11,12)         -169.2602         calculate D2E/DX2 analytically  !
 ! D42   D(8,9,11,18)           70.2492         calculate D2E/DX2 analytically  !
 ! D43   D(8,9,11,19)          -48.8706         calculate D2E/DX2 analytically  !
 ! D44   D(17,9,11,12)          10.644          calculate D2E/DX2 analytically  !
 ! D45   D(17,9,11,18)        -109.8466         calculate D2E/DX2 analytically  !
 ! D46   D(17,9,11,19)         131.0336         calculate D2E/DX2 analytically  !
 ! D47   D(9,11,12,13)        -165.5461         calculate D2E/DX2 analytically  !
 ! D48   D(9,11,12,20)          74.058          calculate D2E/DX2 analytically  !
 ! D49   D(9,11,12,21)         -45.0899         calculate D2E/DX2 analytically  !
 ! D50   D(18,11,12,13)        -45.0457         calculate D2E/DX2 analytically  !
 ! D51   D(18,11,12,20)       -165.4416         calculate D2E/DX2 analytically  !
 ! D52   D(18,11,12,21)         75.4105         calculate D2E/DX2 analytically  !
 ! D53   D(19,11,12,13)         74.0338         calculate D2E/DX2 analytically  !
 ! D54   D(19,11,12,20)        -46.3621         calculate D2E/DX2 analytically  !
 ! D55   D(19,11,12,21)       -165.51           calculate D2E/DX2 analytically  !
 ! D56   D(11,12,13,22)        -29.2308         calculate D2E/DX2 analytically  !
 ! D57   D(11,12,13,23)       -148.8459         calculate D2E/DX2 analytically  !
 ! D58   D(11,12,13,24)         91.519          calculate D2E/DX2 analytically  !
 ! D59   D(20,12,13,22)         91.49           calculate D2E/DX2 analytically  !
 ! D60   D(20,12,13,23)        -28.1251         calculate D2E/DX2 analytically  !
 ! D61   D(20,12,13,24)       -147.7602         calculate D2E/DX2 analytically  !
 ! D62   D(21,12,13,22)       -150.0074         calculate D2E/DX2 analytically  !
 ! D63   D(21,12,13,23)         90.3775         calculate D2E/DX2 analytically  !
 ! D64   D(21,12,13,24)        -29.2576         calculate D2E/DX2 analytically  !
 --------------------------------------------------------------------------------
 Trust Radius=3.00D-01 FncErr=1.00D-07 GrdErr=1.00D-06
 Number of steps in this run=    151 maximum allowed number of steps=    174.
 GradGradGradGradGradGradGradGradGradGradGradGradGradGradGradGradGradGrad

                          Input orientation:                          
 ---------------------------------------------------------------------
 Center     Atomic      Atomic             Coordinates (Angstroms)
 Number     Number       Type             X           Y           Z
 ---------------------------------------------------------------------
      1          6           0       -4.192030    3.709890   -1.052890
      2          6           0       -4.369340    2.597570   -0.217480
      3          6           0       -3.269360    1.968010    0.369100
      4          6           0       -1.957100    2.424760    0.143420
      5          6           0       -1.785680    3.548020   -0.700340
      6          6           0       -2.889470    4.176590   -1.286490
      7          7           0       -0.882540    1.715020    0.786950
      8          6           0        0.460090    1.972640    0.713000
      9          7           0        1.333240    1.180040    1.396950
     10          8           0        0.892600    2.898380    0.045180
     11          6           0        2.482630    1.729630    2.095020
     12          6           0        3.433750    0.616410    2.549260
     13          6           0        4.440420    1.133150    3.572970
     14          1           0       -3.445730    1.111490    1.008110
     15          1           0       -0.826880    3.972160   -0.934400
     16          1           0       -1.160440    0.913090    1.374300
     17          1           0        1.174470    0.160280    1.418540
     18          1           0        2.133300    2.298520    2.984930
     19          1           0        3.027970    2.420530    1.414630
     20          1           0        3.985940    0.219230    1.669720
     21          1           0        2.846400   -0.209800    3.005940
     22          1           0        4.643710    2.212120    3.403900
     23          1           0        5.393490    0.572100    3.473720
     24          1           0        4.050210    0.992190    4.603460
     25          1           0       -5.359680    2.210380   -0.015080
     26          1           0       -2.719580    5.033120   -1.926540
     27          7           0       -5.313250    4.353550   -1.653170
     28          8           0       -5.142160    5.416250   -2.451940
     29          8           0       -6.556640    3.905740   -1.429300
 ---------------------------------------------------------------------
                    Distance matrix (angstroms):
                    1          2          3          4          5
     1  C    0.000000
     2  C    1.402357   0.000000
     3  C    2.430539   1.396559   0.000000
     4  C    2.842117   2.445202   1.407685   0.000000
     5  C    2.437419   2.794961   2.416907   1.415284   0.000000
     6  C    1.403225   2.413732   2.786238   2.445990   1.398937
     7  N    4.279865   3.734374   2.436291   1.439632   2.527367
     8  C    5.270543   4.957794   3.745275   2.524211   3.085909
     9  N    6.552134   6.093865   4.781349   3.734569   4.442254
    10  O    5.264767   5.277072   4.276964   2.890460   2.854998
    11  C    7.640802   7.283575   6.010076   4.899301   5.416553
    12  C    8.983186   8.512817   7.177158   6.174096   6.811511
    13  C   10.127061   9.701748   8.390619   7.372810   7.928247
    14  H    3.399466   2.136249   1.083082   2.165268   3.407528
    15  H    3.377434   3.866846   3.417812   2.198531   1.074233
    16  H    4.785800   3.958317   2.563362   2.105915   3.411438
    17  H    6.892534   6.273019   4.910890   4.069463   4.972818
    18  H    7.635821   7.254598   6.011700   4.982117   5.522759
    19  H    7.738185   7.577290   6.399553   5.144601   5.377319
    20  H    9.299274   8.889810   7.575567   6.520251   7.071748
    21  H    9.020952   8.386815   7.007018   6.181306   7.022385
    22  H   10.008826   9.721010   8.478578   7.365232   7.743802
    23  H   11.055230  10.632043   9.307642   8.279760   8.821528
    24  H   10.359281   9.833999   8.512234   7.617873   8.289763
    25  H    2.165407   1.082430   2.139106   3.413009   3.877156
    26  H    2.163865   3.402131   3.868736   3.416087   2.140387
    27  N    1.425401   2.456753   3.736022   4.267518   3.741726
    28  O    2.402447   3.678997   4.832805   5.082274   4.221889
    29  O    2.402378   2.822073   4.218442   5.081586   4.839567
                    6          7          8          9         10
     6  C    0.000000
     7  N    3.792921   0.000000
     8  C    4.480503   1.369121   0.000000
     9  N    5.831933   2.359658   1.363229   0.000000
    10  O    4.208470   2.258691   1.220673   2.230278   0.000000
    11  C    6.803064   3.610489   2.461646   1.452738   2.845350
    12  C    8.207982   4.789889   3.748848   2.461227   4.235003
    13  C    9.306136   6.036090   4.972645   3.793656   5.305503
    14  H    3.869038   2.642556   4.010499   4.795253   4.789710
    15  H    2.102388   2.839159   2.892801   4.230514   2.251487
    16  H    4.551899   1.032134   2.045992   2.508030   3.150065
    17  H    6.321672   2.654696   2.071901   1.032272   3.076160
    18  H    6.855683   3.777152   2.840334   2.100660   3.246737
    19  H    6.737647   4.022911   2.699425   2.100295   2.581383
    20  H    8.465881   5.169020   4.052330   2.834498   4.402923
    21  H    8.400332   4.746982   3.964227   2.609628   4.716378
    22  H    9.088878   6.134735   4.980057   4.006526   5.081612
    23  H   10.210748   6.921962   5.824219   4.600891   6.117555
    24  H    9.643188   6.278555   5.383858   4.207008   5.863615
    25  H    3.403587   4.575305   5.869953   6.917413   6.290308
    26  H    1.082668   4.663425   5.142374   6.505164   4.636015
    27  N    2.457739   5.705017   6.678244   7.971840   6.596551
    28  O    2.823056   6.506449   7.297979   8.642351   6.999543
    29  O    3.679931   6.473518   7.586885   8.812907   7.660290
                   11         12         13         14         15
    11  C    0.000000
    12  C    1.533043   0.000000
    13  C    2.524493   1.525905   0.000000
    14  H    6.058789   7.067354   8.292788   0.000000
    15  H    5.015893   6.445922   7.491382   4.337644   0.000000
    16  H    3.802385   4.751329   6.020981   2.322931   3.846982
    17  H    2.152154   2.567280   4.031684   4.734924   4.906339
    18  H    1.112478   2.170362   2.650789   6.036757   5.188919
    19  H    1.112506   2.169537   2.882845   6.617223   4.773402
    20  H    2.173046   1.111871   2.159667   7.514225   6.635447
    21  H    2.173360   1.111827   2.160078   6.732610   6.819681
    22  H    2.572203   2.177316   1.110895   8.508245   7.200413
    23  H    3.422542   2.167296   1.110392   9.192496   8.347750
    24  H    3.048507   2.177377   1.110875   8.314439   7.958274
    25  H    8.135445   9.297365  10.491734   2.432629   4.949272
    26  H    7.358599   8.797931   9.834631   4.951631   2.385852
    27  N    9.039338  10.398877  11.524652   4.591404   4.559562
    28  O    9.612671  11.027089  12.102493   5.777610   4.796870
    29  O    9.943072  11.245289  12.395374   4.840099   5.751477
                   16         17         18         19         20
    16  H    0.000000
    17  H    2.453668   0.000000
    18  H    3.919473   2.818688   0.000000
    19  H    4.451604   2.923048   1.811398   0.000000
    20  H    5.201340   2.823284   3.079854   2.414228   0.000000
    21  H    4.469664   2.334983   2.607800   3.079589   1.807789
    22  H    6.284498   4.493031   2.546598   2.571234   2.722435
    23  H    6.890416   4.710997   3.721328   3.640361   2.315196
    24  H    6.130628   4.371003   2.828548   3.640572   3.034539
    25  H    4.609442   6.996663   8.071715   8.511222   9.702775
    26  H    5.504644   7.077977   7.426373   7.143065   9.003923
    27  N    6.184511   8.313208   9.010340   9.095269  10.705566
    28  O    7.125493   9.083262   9.602714   9.522380  11.283586
    29  O    6.777544   9.050344   9.878443  10.107351  11.590525
                   21         22         23         24         25
    21  H    0.000000
    22  H    3.042103   0.000000
    23  H    2.705153   1.804636   0.000000
    24  H    2.333668   1.810916   1.804768   0.000000
    25  H    9.073234  10.571530  11.423062  10.552769   0.000000
    26  H    9.099324   9.517861  10.718461  10.237191   4.311806
    27  N   10.445638  11.371048  12.458678  11.752385   2.697901
    28  O   11.191871  11.845698  13.022256  12.403654   4.032766
    29  O   11.181511  12.315682  13.340104  12.545447   2.511370
                   26         27         28         29
    26  H    0.000000
    27  N    2.695120   0.000000
    28  O    2.508332   1.340387   0.000000
    29  O    4.030045   1.340399   2.308287   0.000000
 Stoichiometry    C10H13N3O3
 Framework group  C1[X(C10H13N3O3)]
 Deg. of freedom    81
 Full point group                 C1      NOp   1
 Largest Abelian subgroup         C1      NOp   1
 Largest concise Abelian subgroup C1      NOp   1
                         Standard orientation:                         
 ---------------------------------------------------------------------
 Center     Atomic      Atomic             Coordinates (Angstroms)
 Number     Number       Type             X           Y           Z
 ---------------------------------------------------------------------
      1          6           0        3.353858    0.018525    0.063982
      2          6           0        2.821975    1.316077    0.071920
      3          6           0        1.443598    1.518693   -0.025051
      4          6           0        0.549597    0.436725   -0.133151
      5          6           0        1.093320   -0.869930   -0.140061
      6          6           0        2.474488   -1.069757   -0.042750
      7          7           0       -0.854923    0.737498   -0.230098
      8          6           0       -1.898364   -0.141444   -0.344927
      9          7           0       -3.171953    0.337495   -0.428479
     10          8           0       -1.711630   -1.347368   -0.375262
     11          6           0       -4.277667   -0.298757    0.266523
     12          6           0       -5.621854    0.269900   -0.202528
     13          6           0       -6.749036   -0.119402    0.749466
     14          1           0        1.069995    2.535258   -0.015966
     15          1           0        0.496248   -1.759506   -0.218389
     16          1           0       -1.103399    1.739117   -0.212253
     17          1           0       -3.356674    1.175069   -1.002876
     18          1           0       -4.169653   -0.128161    1.360524
     19          1           0       -4.254519   -1.392895    0.066535
     20          1           0       -5.855738   -0.121021   -1.216794
     21          1           0       -5.558336    1.378794   -0.252322
     22          1           0       -6.523750   -1.091614    1.237460
     23          1           0       -7.698211   -0.218188    0.181770
     24          1           0       -6.881037    0.659335    1.530611
     25          1           0        3.470459    2.178962    0.152865
     26          1           0        2.854086   -2.083659   -0.051613
     27          7           0        4.760421   -0.190549    0.162147
     28          8           0        5.267384   -1.431338    0.153806
     29          8           0        5.598775    0.850410    0.263322
 ---------------------------------------------------------------------
 Rotational constants (GHZ):      2.3646662      0.1530482      0.1458971
 General basis read from cards:  (6D, 7F)
 There are   330 symmetry adapted cartesian basis functions of A   symmetry.
 There are   330 symmetry adapted basis functions of A   symmetry.
   330 basis functions,   564 primitive gaussians,   330 cartesian basis functions
    59 alpha electrons       59 beta electrons
       nuclear repulsion energy      1011.1995961453 Hartrees.
 NAtoms=   29 NActive=   29 NUniq=   29 SFac= 1.00D+00 NAtFMM=   60 NAOKFM=F Big=F
 Integral buffers will be    131072 words long.
 Raffenetti 2 integral format.
 Two-electron integral symmetry is turned on.
 Force inversion solution in PCM.
 ------------------------------------------------------------------------------
 Polarizable Continuum Model (PCM)
 =================================
 Model                : PCM (using non-symmetric T matrix).
 Atomic radii         : SMD-Coulomb.
 Polarization charges : Total charges.
 Charge compensation  : None.
 Solution method      : Matrix inversion.
 Cavity type          : VdW (van der Waals Surface) (Alpha=1.000).
 Cavity algorithm     : GePol (No added spheres)
                        Default sphere list used, NSphG=   29.
                        Lebedev-Laikov grids with approx.  5.0 points / Ang**2.
                        Smoothing algorithm: York/Karplus (Gamma=1.0000).
                        Polarization charges: spherical gaussians, with
                                              point-specific exponents (IZeta= 3).
                        Self-potential: point-specific (ISelfS= 7).
                        Self-field    : sphere-specific E.n sum rule (ISelfD= 2).
 1st derivatives      : Analytical E(r).r(x)/FMM algorithm (CHGder, D1EAlg=3).
                        Cavity 1st derivative terms included.
 2nd derivatives      : Analytical E(r).r(xy)/FMM algorithm (CHGder, D2EAlg=3).
                        Cavity 2nd derivative terms included.
 Solvent              : n-Pentadecane, Eps=   2.033300 Eps(inf)=   2.049192
 ------------------------------------------------------------------------------
 ------------------------------------------------------------------------------
 Atomic radii for non-electrostatic terms: SMD-CDS.
 ------------------------------------------------------------------------------
 Nuclear repulsion after PCM non-electrostatic terms =     1011.1907682452 Hartrees.
 One-electron integrals computed using PRISM.
 NBasis=   330 RedAO= T EigKep=  1.87D-06  NBF=   330
 NBsUse=   330 1.00D-06 EigRej= -1.00D+00 NBFU=   330
 ExpMin= 4.38D-02 ExpMax= 5.48D+03 ExpMxC= 8.25D+02 IAcc=3 IRadAn=         5 AccDes= 0.00D+00
 Harris functional with IExCor= 1009 and IRadAn=       5 diagonalized for initial guess.
 HarFok:  IExCor= 1009 AccDes= 0.00D+00 IRadAn=         5 IDoV= 1 UseB2=F ITyADJ=14
 ICtDFT=  3500011 ScaDFX=  1.000000  1.000000  1.000000  1.000000
 FoFCou: FMM=F IPFlag=           0 FMFlag=      100000 FMFlg1=           0
         NFxFlg=           0 DoJE=T BraDBF=F KetDBF=T FulRan=T
         wScrn=  0.000000 ICntrl=     500 IOpCl=  0 I1Cent=   200000004 NGrid=           0
         NMat0=    1 NMatS0=      1 NMatT0=    0 NMatD0=    1 NMtDS0=    0 NMtDT0=    0
 Petite list used in FoFCou.
 Requested convergence on RMS density matrix=1.00D-08 within 128 cycles.
 Requested convergence on MAX density matrix=1.00D-06.
 Requested convergence on             energy=1.00D-06.
 No special actions if energy rises.
 Inv3:  Mode=1 IEnd=    18630192.
 Iteration    1 A*A^-1 deviation from unit magnitude is 6.44D-15 for   2486.
 Iteration    1 A*A^-1 deviation from orthogonality  is 2.00D-15 for   2492    135.
 Iteration    1 A^-1*A deviation from unit magnitude is 6.44D-15 for   2486.
 Iteration    1 A^-1*A deviation from orthogonality  is 2.54D-15 for    792    359.
 Error on total polarization charges =  0.02018
 SCF Done:  E(RM062X) =  -778.413621890     A.U. after   16 cycles
            NFock= 16  Conv=0.53D-08     -V/T= 2.0097
 SMD-CDS (non-electrostatic) energy       (kcal/mol) =      -5.54
 (included in total energy above)
 DoSCS=F DFT=T ScalE2(SS,OS)=  1.000000  1.000000
 Range of M.O.s used for correlation:     1   330
 NBasis=   330 NAE=    59 NBE=    59 NFC=     0 NFV=     0
 NROrb=    330 NOA=    59 NOB=    59 NVA=   271 NVB=   271

 **** Warning!!: The largest alpha MO coefficient is  0.14993701D+03

 Symmetrizing basis deriv contribution to polar:
 IMax=3 JMax=2 DiffMx= 0.00D+00
 G2DrvN: will do    30 centers at a time, making    1 passes.
 Calling FoFCou, ICntrl=  3107 FMM=F I1Cent=   0 AccDes= 0.00D+00.
 NEqPCM:  Using equilibrium solvation (IEInf=0, Eps=   2.0333, EpsInf=   2.0492)
 G2PCM: DoFxE=T DoFxN=T DoGrad=T DoDP/DQ/DG/TGxP=FFFF NFrqRd=   0 IEInf=0 SqF1=F DoCFld=F IF1Alg=4.
 End of G2Drv F.D. properties file   721 does not exist.
 End of G2Drv F.D. properties file   722 does not exist.
 End of G2Drv F.D. properties file   788 does not exist.
          IDoAtm=11111111111111111111111111111
 NEqPCM:  Using equilibrium solvation (IEInf=0, Eps=   2.0333, EpsInf=   2.0492)
          Differentiating once with respect to nuclear coordinates.
          There are    90 degrees of freedom in the 1st order CPHF.  IDoFFX=6 NUNeed=     0.
     84 vectors produced by pass  0 Test12= 1.78D-14 1.11D-09 XBig12= 2.87D-01 1.63D-01.
 AX will form    84 AO Fock derivatives at one time.
     84 vectors produced by pass  1 Test12= 1.78D-14 1.11D-09 XBig12= 1.01D-01 1.39D-01.
     84 vectors produced by pass  2 Test12= 1.78D-14 1.11D-09 XBig12= 4.45D-03 1.37D-02.
     84 vectors produced by pass  3 Test12= 1.78D-14 1.11D-09 XBig12= 3.70D-05 1.04D-03.
     84 vectors produced by pass  4 Test12= 1.78D-14 1.11D-09 XBig12= 3.03D-07 5.50D-05.
     84 vectors produced by pass  5 Test12= 1.78D-14 1.11D-09 XBig12= 1.18D-09 4.14D-06.
     63 vectors produced by pass  6 Test12= 1.78D-14 1.11D-09 XBig12= 4.29D-12 3.24D-07.
     20 vectors produced by pass  7 Test12= 1.78D-14 1.11D-09 XBig12= 1.56D-14 2.29D-08.
      6 vectors produced by pass  8 Test12= 1.78D-14 1.11D-09 XBig12= 1.90D-15 4.96D-09.
      5 vectors produced by pass  9 Test12= 1.78D-14 1.11D-09 XBig12= 2.49D-15 6.52D-09.
      4 vectors produced by pass 10 Test12= 1.78D-14 1.11D-09 XBig12= 4.38D-15 9.43D-09.
      4 vectors produced by pass 11 Test12= 1.78D-14 1.11D-09 XBig12= 1.04D-14 1.14D-08.
      2 vectors produced by pass 12 Test12= 1.78D-14 1.11D-09 XBig12= 1.13D-15 2.88D-09.
 InvSVY:  IOpt=1 It=  1 EMax= 9.99D-16
 Solved reduced A of dimension   608 with    90 vectors.
 End of Minotr F.D. properties file   721 does not exist.
 End of Minotr F.D. properties file   722 does not exist.
 End of Minotr F.D. properties file   788 does not exist.

 **********************************************************************

            Population analysis using the SCF density.

 **********************************************************************

 Orbital symmetries:
       Occupied  (A) (A) (A) (A) (A) (A) (A) (A) (A) (A) (A) (A)
                 (A) (A) (A) (A) (A) (A) (A) (A) (A) (A) (A) (A)
                 (A) (A) (A) (A) (A) (A) (A) (A) (A) (A) (A) (A)
                 (A) (A) (A) (A) (A) (A) (A) (A) (A) (A) (A) (A)
                 (A) (A) (A) (A) (A) (A) (A) (A) (A) (A) (A)
       Virtual   (A) (A) (A) (A) (A) (A) (A) (A) (A) (A) (A) (A)
                 (A) (A) (A) (A) (A) (A) (A) (A) (A) (A) (A) (A)
                 (A) (A) (A) (A) (A) (A) (A) (A) (A) (A) (A) (A)
                 (A) (A) (A) (A) (A) (A) (A) (A) (A) (A) (A) (A)
                 (A) (A) (A) (A) (A) (A) (A) (A) (A) (A) (A) (A)
                 (A) (A) (A) (A) (A) (A) (A) (A) (A) (A) (A) (A)
                 (A) (A) (A) (A) (A) (A) (A) (A) (A) (A) (A) (A)
                 (A) (A) (A) (A) (A) (A) (A) (A) (A) (A) (A) (A)
                 (A) (A) (A) (A) (A) (A) (A) (A) (A) (A) (A) (A)
                 (A) (A) (A) (A) (A) (A) (A) (A) (A) (A) (A) (A)
                 (A) (A) (A) (A) (A) (A) (A) (A) (A) (A) (A) (A)
                 (A) (A) (A) (A) (A) (A) (A) (A) (A) (A) (A) (A)
                 (A) (A) (A) (A) (A) (A) (A) (A) (A) (A) (A) (A)
                 (A) (A) (A) (A) (A) (A) (A) (A) (A) (A) (A) (A)
                 (A) (A) (A) (A) (A) (A) (A) (A) (A) (A) (A) (A)
                 (A) (A) (A) (A) (A) (A) (A) (A) (A) (A) (A) (A)
                 (A) (A) (A) (A) (A) (A) (A) (A) (A) (A) (A) (A)
                 (A) (A) (A) (A) (A) (A) (A) (A) (A) (A) (A) (A)
                 (A) (A) (A) (A) (A) (A) (A) (A) (A) (A) (A) (A)
                 (A) (A) (A) (A) (A) (A) (A) (A) (A) (A) (A) (A)
                 (A) (A) (A) (A) (A) (A) (A) (A) (A) (A) (A) (A)
                 (A) (A) (A) (A) (A) (A) (A) (A) (A) (A) (A) (A)
                 (A) (A) (A) (A) (A) (A) (A)
 The electronic state is 1-A.
 Alpha  occ. eigenvalues --  -19.68875 -19.68859 -19.61999 -15.01044 -14.83048
 Alpha  occ. eigenvalues --  -14.78763 -10.69663 -10.64808 -10.62897 -10.59716
 Alpha  occ. eigenvalues --  -10.59335 -10.59123 -10.58881 -10.57919 -10.55915
 Alpha  occ. eigenvalues --  -10.54689  -1.27708  -1.19251  -1.11003  -1.06849
 Alpha  occ. eigenvalues --   -1.03458  -0.99767  -0.92102  -0.88641  -0.87660
 Alpha  occ. eigenvalues --   -0.82081  -0.77723  -0.73616  -0.70771  -0.68869
 Alpha  occ. eigenvalues --   -0.67800  -0.64819  -0.63681  -0.61682  -0.58374
 Alpha  occ. eigenvalues --   -0.57574  -0.56690  -0.55025  -0.54093  -0.53578
 Alpha  occ. eigenvalues --   -0.52861  -0.51715  -0.50511  -0.48515  -0.48176
 Alpha  occ. eigenvalues --   -0.47245  -0.45758  -0.43741  -0.42775  -0.40911
 Alpha  occ. eigenvalues --   -0.40408  -0.39466  -0.39287  -0.36789  -0.36261
 Alpha  occ. eigenvalues --   -0.35479  -0.33667  -0.31900  -0.30172
 Alpha virt. eigenvalues --   -0.09082  -0.00547  -0.00264   0.01759   0.02116
 Alpha virt. eigenvalues --    0.02936   0.03178   0.03429   0.04305   0.04743
 Alpha virt. eigenvalues --    0.05153   0.05729   0.06405   0.06921   0.07162
 Alpha virt. eigenvalues --    0.07559   0.08170   0.08341   0.08830   0.09247
 Alpha virt. eigenvalues --    0.09515   0.09799   0.10816   0.11536   0.12529
 Alpha virt. eigenvalues --    0.13050   0.13385   0.13893   0.14178   0.14616
 Alpha virt. eigenvalues --    0.15306   0.15421   0.15960   0.16288   0.16691
 Alpha virt. eigenvalues --    0.17199   0.18044   0.18526   0.18941   0.19132
 Alpha virt. eigenvalues --    0.19789   0.20287   0.20981   0.21311   0.21461
 Alpha virt. eigenvalues --    0.22153   0.22223   0.22309   0.23606   0.23810
 Alpha virt. eigenvalues --    0.24243   0.24379   0.25072   0.25538   0.25709
 Alpha virt. eigenvalues --    0.26143   0.26687   0.26963   0.27138   0.27757
 Alpha virt. eigenvalues --    0.28097   0.28490   0.28785   0.29001   0.29677
 Alpha virt. eigenvalues --    0.30241   0.30907   0.31368   0.31857   0.32128
 Alpha virt. eigenvalues --    0.32565   0.33093   0.33466   0.33982   0.34115
 Alpha virt. eigenvalues --    0.35298   0.35668   0.35959   0.36480   0.37346
 Alpha virt. eigenvalues --    0.37712   0.38088   0.38973   0.40039   0.42016
 Alpha virt. eigenvalues --    0.42072   0.43018   0.43847   0.44937   0.45463
 Alpha virt. eigenvalues --    0.48341   0.48443   0.50541   0.54173   0.55112
 Alpha virt. eigenvalues --    0.58247   0.62365   0.65952   0.68294   0.69042
 Alpha virt. eigenvalues --    0.69545   0.70106   0.71595   0.72998   0.73647
 Alpha virt. eigenvalues --    0.74302   0.76239   0.76849   0.77214   0.77593
 Alpha virt. eigenvalues --    0.78551   0.79560   0.80925   0.81745   0.83673
 Alpha virt. eigenvalues --    0.84550   0.85940   0.86667   0.87593   0.90956
 Alpha virt. eigenvalues --    0.92411   0.92507   0.95265   0.98131   0.98804
 Alpha virt. eigenvalues --    0.98958   1.00860   1.01018   1.02036   1.02765
 Alpha virt. eigenvalues --    1.03525   1.03882   1.05313   1.05608   1.08415
 Alpha virt. eigenvalues --    1.09647   1.10851   1.11475   1.12056   1.12880
 Alpha virt. eigenvalues --    1.13385   1.14977   1.16427   1.17792   1.18234
 Alpha virt. eigenvalues --    1.18888   1.20410   1.23982   1.24241   1.24784
 Alpha virt. eigenvalues --    1.25015   1.26028   1.27541   1.28381   1.29474
 Alpha virt. eigenvalues --    1.30649   1.32455   1.34670   1.35217   1.35944
 Alpha virt. eigenvalues --    1.37179   1.39605   1.40673   1.43113   1.43564
 Alpha virt. eigenvalues --    1.44281   1.44942   1.46708   1.47561   1.47617
 Alpha virt. eigenvalues --    1.48535   1.49256   1.51025   1.52857   1.53021
 Alpha virt. eigenvalues --    1.54589   1.55028   1.57814   1.61442   1.64552
 Alpha virt. eigenvalues --    1.68009   1.75768   1.77357   1.79185   1.80744
 Alpha virt. eigenvalues --    1.82087   1.83734   1.85293   1.86446   1.86764
 Alpha virt. eigenvalues --    1.87098   1.87849   1.88884   1.89528   1.90979
 Alpha virt. eigenvalues --    1.92064   1.94146   1.96422   1.96906   1.98372
 Alpha virt. eigenvalues --    1.99469   2.00473   2.03937   2.04455   2.06162
 Alpha virt. eigenvalues --    2.06677   2.08335   2.11166   2.11367   2.12017
 Alpha virt. eigenvalues --    2.12605   2.14322   2.15633   2.16512   2.19393
 Alpha virt. eigenvalues --    2.20759   2.22379   2.23111   2.26152   2.28633
 Alpha virt. eigenvalues --    2.29776   2.30696   2.33451   2.38431   2.39232
 Alpha virt. eigenvalues --    2.40339   2.42763   2.46257   2.46904   2.51030
 Alpha virt. eigenvalues --    2.52326   2.53553   2.57724   2.61172   2.62344
 Alpha virt. eigenvalues --    2.65482   2.67641   2.68265   2.69958   2.72994
 Alpha virt. eigenvalues --    2.76619   2.79982   2.81333   2.82754   2.85453
 Alpha virt. eigenvalues --    2.91712   2.94284   2.99981   3.00845   3.05141
 Alpha virt. eigenvalues --    3.09343   3.21292   3.23781   3.31343   3.41107
 Alpha virt. eigenvalues --    4.11050   4.16040   4.22461   4.26028   4.27126
 Alpha virt. eigenvalues --    4.27538   4.36252   4.38204   4.39971   4.47301
 Alpha virt. eigenvalues --    4.47799   4.51030   4.56563   4.63454   4.69329
 Alpha virt. eigenvalues --    4.76519
          Condensed to atoms (all electrons):
               1          2          3          4          5          6
     1  C   11.974387   0.735765  -1.372428  -2.271026  -4.485235   2.834626
     2  C    0.735765  11.274721  -1.131886  -0.930604  -4.004560  -0.534995
     3  C   -1.372428  -1.131886  15.228469   1.379813  -2.463371  -4.428931
     4  C   -2.271026  -0.930604   1.379813  12.191406   0.466273  -4.300142
     5  C   -4.485235  -4.004560  -2.463371   0.466273  22.263459  -7.446519
     6  C    2.834626  -0.534995  -4.428931  -4.300142  -7.446519  19.743479
     7  N    0.013548   0.073939   0.403905  -0.062596  -0.380440  -0.034676
     8  C   -0.100652  -0.047525  -0.423071  -0.492370   0.544419  -0.290564
     9  N    0.003192   0.006360  -0.060937  -0.029179  -0.009936   0.057769
    10  O   -0.006213   0.007102  -0.100893  -0.445045   0.336736   0.165607
    11  C   -0.005194   0.003609   0.045264  -0.054777  -0.071715  -0.039787
    12  C    0.000751   0.000241   0.000329   0.014157   0.007520   0.005542
    13  C   -0.000016  -0.000071  -0.000459  -0.001117  -0.001049  -0.000550
    14  H   -0.004897   0.035095   0.139804   0.090716   0.070293  -0.026311
    15  H   -0.007188  -0.009873   0.019970   0.066679   0.225918   0.025557
    16  H   -0.001229   0.034810  -0.044720  -0.009622   0.001804   0.020926
    17  H   -0.000101  -0.000310  -0.002514   0.002750   0.001341   0.000196
    18  H   -0.000014  -0.000001   0.000200  -0.001949  -0.001172  -0.000302
    19  H    0.000007   0.000013  -0.000272  -0.000931   0.002834   0.000709
    20  H   -0.000002   0.000000  -0.000087  -0.000633   0.000124   0.000015
    21  H    0.000003   0.000001   0.000090   0.000390  -0.000134  -0.000035
    22  H   -0.000000   0.000000  -0.000008  -0.000138   0.000015  -0.000002
    23  H   -0.000000   0.000000   0.000001   0.000012  -0.000014  -0.000001
    24  H   -0.000000  -0.000000  -0.000005  -0.000027  -0.000006   0.000000
    25  H    0.117925   0.237680  -0.087877   0.011053   0.004855   0.040496
    26  H    0.122350   0.059242  -0.024362  -0.009023  -0.088660   0.264282
    27  N   -0.622058   0.100998   0.130011  -0.017228   0.028817   0.057074
    28  O   -0.445345   0.045975  -0.015048   0.029167   0.248475   0.045773
    29  O   -0.374418   0.029431   0.129130   0.029701   0.064417   0.030654
               7          8          9         10         11         12
     1  C    0.013548  -0.100652   0.003192  -0.006213  -0.005194   0.000751
     2  C    0.073939  -0.047525   0.006360   0.007102   0.003609   0.000241
     3  C    0.403905  -0.423071  -0.060937  -0.100893   0.045264   0.000329
     4  C   -0.062596  -0.492370  -0.029179  -0.445045  -0.054777   0.014157
     5  C   -0.380440   0.544419  -0.009936   0.336736  -0.071715   0.007520
     6  C   -0.034676  -0.290564   0.057769   0.165607  -0.039787   0.005542
     7  N    7.781574   0.017311  -0.367867  -0.080122   0.016272   0.000500
     8  C    0.017311   5.276139   0.274802   0.631708  -0.241219   0.036443
     9  N   -0.367867   0.274802   7.732138  -0.231860   0.154307  -0.013352
    10  O   -0.080122   0.631708  -0.231860   8.304575  -0.012366  -0.014844
    11  C    0.016272  -0.241219   0.154307  -0.012366   6.114954  -0.223108
    12  C    0.000500   0.036443  -0.013352  -0.014844  -0.223108   6.050446
    13  C    0.000401  -0.029357   0.011724  -0.000601  -0.018029  -0.082307
    14  H   -0.009487   0.005217   0.000845  -0.000019  -0.000026   0.000009
    15  H   -0.012480   0.001967  -0.000483  -0.003072   0.000480  -0.000086
    16  H    0.236053  -0.022237   0.018388   0.007380  -0.005275   0.000596
    17  H    0.019307   0.010531   0.256185   0.009433  -0.031080  -0.009818
    18  H    0.004360  -0.022240  -0.080337   0.000713   0.453662  -0.071341
    19  H   -0.000745   0.017176  -0.054043   0.003976   0.392638  -0.024826
    20  H    0.000634  -0.008964   0.007111  -0.000234  -0.071439   0.431514
    21  H   -0.000862   0.010102   0.006296   0.000052  -0.062256   0.410258
    22  H   -0.000071  -0.002433   0.001839  -0.000011   0.015147  -0.101551
    23  H    0.000006  -0.000226   0.000061   0.000003   0.024270  -0.076771
    24  H    0.000047  -0.001507  -0.000091  -0.000007  -0.012934  -0.047092
    25  H    0.000095   0.001316  -0.000000   0.000002   0.000007  -0.000000
    26  H   -0.000405   0.000532   0.000003   0.000135   0.000006   0.000000
    27  N   -0.000308   0.002006  -0.000119   0.000167   0.000047  -0.000005
    28  O   -0.000113   0.000591  -0.000006   0.000001   0.000001  -0.000000
    29  O   -0.000034   0.000900  -0.000000   0.000000   0.000002  -0.000000
              13         14         15         16         17         18
     1  C   -0.000016  -0.004897  -0.007188  -0.001229  -0.000101  -0.000014
     2  C   -0.000071   0.035095  -0.009873   0.034810  -0.000310  -0.000001
     3  C   -0.000459   0.139804   0.019970  -0.044720  -0.002514   0.000200
     4  C   -0.001117   0.090716   0.066679  -0.009622   0.002750  -0.001949
     5  C   -0.001049   0.070293   0.225918   0.001804   0.001341  -0.001172
     6  C   -0.000550  -0.026311   0.025557   0.020926   0.000196  -0.000302
     7  N    0.000401  -0.009487  -0.012480   0.236053   0.019307   0.004360
     8  C   -0.029357   0.005217   0.001967  -0.022237   0.010531  -0.022240
     9  N    0.011724   0.000845  -0.000483   0.018388   0.256185  -0.080337
    10  O   -0.000601  -0.000019  -0.003072   0.007380   0.009433   0.000713
    11  C   -0.018029  -0.000026   0.000480  -0.005275  -0.031080   0.453662
    12  C   -0.082307   0.000009  -0.000086   0.000596  -0.009818  -0.071341
    13  C    5.700777   0.000001   0.000005  -0.000229  -0.002375   0.020103
    14  H    0.000001   0.464564  -0.000091   0.005578   0.000002  -0.000000
    15  H    0.000005  -0.000091   0.411755  -0.000115   0.000001  -0.000000
    16  H   -0.000229   0.005578  -0.000115   0.299070   0.000617  -0.000074
    17  H   -0.002375   0.000002   0.000001   0.000617   0.304130   0.001846
    18  H    0.020103  -0.000000  -0.000000  -0.000074   0.001846   0.516237
    19  H   -0.018368   0.000000   0.000001   0.000012   0.002697  -0.037079
    20  H   -0.035022   0.000000  -0.000000  -0.000001   0.000164   0.003607
    21  H   -0.053780   0.000000  -0.000000   0.000017   0.002733  -0.003418
    22  H    0.428697   0.000000  -0.000000   0.000000   0.000013  -0.001442
    23  H    0.404418  -0.000000   0.000000  -0.000000  -0.000005   0.000135
    24  H    0.412477   0.000000   0.000000  -0.000000  -0.000010   0.000670
    25  H    0.000000  -0.003623   0.000009  -0.000012  -0.000000   0.000000
    26  H   -0.000000   0.000011  -0.003865   0.000002  -0.000000   0.000000
    27  N    0.000000  -0.000421  -0.000009  -0.000019   0.000000   0.000000
    28  O   -0.000000   0.000028  -0.000060  -0.000000  -0.000000  -0.000000
    29  O    0.000000   0.000017   0.000027   0.000001  -0.000000  -0.000000
              19         20         21         22         23         24
     1  C    0.000007  -0.000002   0.000003  -0.000000  -0.000000  -0.000000
     2  C    0.000013   0.000000   0.000001   0.000000   0.000000  -0.000000
     3  C   -0.000272  -0.000087   0.000090  -0.000008   0.000001  -0.000005
     4  C   -0.000931  -0.000633   0.000390  -0.000138   0.000012  -0.000027
     5  C    0.002834   0.000124  -0.000134   0.000015  -0.000014  -0.000006
     6  C    0.000709   0.000015  -0.000035  -0.000002  -0.000001   0.000000
     7  N   -0.000745   0.000634  -0.000862  -0.000071   0.000006   0.000047
     8  C    0.017176  -0.008964   0.010102  -0.002433  -0.000226  -0.001507
     9  N   -0.054043   0.007111   0.006296   0.001839   0.000061  -0.000091
    10  O    0.003976  -0.000234   0.000052  -0.000011   0.000003  -0.000007
    11  C    0.392638  -0.071439  -0.062256   0.015147   0.024270  -0.012934
    12  C   -0.024826   0.431514   0.410258  -0.101551  -0.076771  -0.047092
    13  C   -0.018368  -0.035022  -0.053780   0.428697   0.404418   0.412477
    14  H    0.000000   0.000000   0.000000   0.000000  -0.000000   0.000000
    15  H    0.000001  -0.000000  -0.000000  -0.000000   0.000000   0.000000
    16  H    0.000012  -0.000001   0.000017   0.000000  -0.000000  -0.000000
    17  H    0.002697   0.000164   0.002733   0.000013  -0.000005  -0.000010
    18  H   -0.037079   0.003607  -0.003418  -0.001442   0.000135   0.000670
    19  H    0.471057  -0.006529   0.003551   0.001515  -0.000080   0.000045
    20  H   -0.006529   0.483013  -0.030552  -0.000188  -0.006047   0.003254
    21  H    0.003551  -0.030552   0.515601   0.003785   0.000402  -0.008062
    22  H    0.001515  -0.000188   0.003785   0.487824  -0.024589  -0.025476
    23  H   -0.000080  -0.006047   0.000402  -0.024589   0.485564  -0.023891
    24  H    0.000045   0.003254  -0.008062  -0.025476  -0.023891   0.482157
    25  H   -0.000000   0.000000  -0.000000  -0.000000  -0.000000  -0.000000
    26  H   -0.000000   0.000000   0.000000   0.000000   0.000000  -0.000000
    27  N   -0.000000   0.000000  -0.000000   0.000000   0.000000   0.000000
    28  O    0.000000   0.000000  -0.000000   0.000000  -0.000000   0.000000
    29  O   -0.000000  -0.000000   0.000000   0.000000  -0.000000  -0.000000
              25         26         27         28         29
     1  C    0.117925   0.122350  -0.622058  -0.445345  -0.374418
     2  C    0.237680   0.059242   0.100998   0.045975   0.029431
     3  C   -0.087877  -0.024362   0.130011  -0.015048   0.129130
     4  C    0.011053  -0.009023  -0.017228   0.029167   0.029701
     5  C    0.004855  -0.088660   0.028817   0.248475   0.064417
     6  C    0.040496   0.264282   0.057074   0.045773   0.030654
     7  N    0.000095  -0.000405  -0.000308  -0.000113  -0.000034
     8  C    0.001316   0.000532   0.002006   0.000591   0.000900
     9  N   -0.000000   0.000003  -0.000119  -0.000006  -0.000000
    10  O    0.000002   0.000135   0.000167   0.000001   0.000000
    11  C    0.000007   0.000006   0.000047   0.000001   0.000002
    12  C   -0.000000   0.000000  -0.000005  -0.000000  -0.000000
    13  C    0.000000  -0.000000   0.000000  -0.000000   0.000000
    14  H   -0.003623   0.000011  -0.000421   0.000028   0.000017
    15  H    0.000009  -0.003865  -0.000009  -0.000060   0.000027
    16  H   -0.000012   0.000002  -0.000019  -0.000000   0.000001
    17  H   -0.000000  -0.000000   0.000000  -0.000000  -0.000000
    18  H    0.000000   0.000000   0.000000  -0.000000  -0.000000
    19  H   -0.000000  -0.000000  -0.000000   0.000000  -0.000000
    20  H    0.000000   0.000000   0.000000   0.000000  -0.000000
    21  H   -0.000000   0.000000  -0.000000  -0.000000   0.000000
    22  H   -0.000000   0.000000   0.000000   0.000000   0.000000
    23  H   -0.000000   0.000000   0.000000  -0.000000  -0.000000
    24  H   -0.000000  -0.000000   0.000000   0.000000  -0.000000
    25  H    0.423866  -0.000095  -0.027737  -0.001170   0.011660
    26  H   -0.000095   0.420990  -0.027154   0.012277  -0.001209
    27  N   -0.027737  -0.027154   6.945125   0.449975   0.424131
    28  O   -0.001170   0.012277   0.449975   7.746708  -0.082214
    29  O    0.011660  -0.001209   0.424131  -0.082214   7.777541
 Mulliken charges:
               1
     1  C   -0.106538
     2  C    0.014841
     3  C   -1.320115
     4  C    0.344291
     5  C    0.685513
     6  C   -0.189890
     7  N   -0.617745
     8  C    0.851206
     9  N   -0.682811
    10  O   -0.572305
    11  C   -0.371458
    12  C   -0.293206
    13  C   -0.735271
    14  H    0.232693
    15  H    0.284955
    16  H    0.458281
    17  H    0.434268
    18  H    0.217835
    19  H    0.246641
    20  H    0.230261
    21  H    0.205816
    22  H    0.217072
    23  H    0.216753
    24  H    0.220458
    25  H    0.271552
    26  H    0.274944
    27  N   -0.443290
    28  O   -0.035015
    29  O   -0.039735
 Sum of Mulliken charges =  -0.00000
 Mulliken charges with hydrogens summed into heavy atoms:
               1
     1  C   -0.106538
     2  C    0.286393
     3  C   -1.087423
     4  C    0.344291
     5  C    0.970468
     6  C    0.085055
     7  N   -0.159464
     8  C    0.851206
     9  N   -0.248544
    10  O   -0.572305
    11  C    0.093018
    12  C    0.142872
    13  C   -0.080988
    27  N   -0.443290
    28  O   -0.035015
    29  O   -0.039735
 APT charges:
               1
     1  C    1.952547
     2  C   -0.976103
     3  C   -1.131240
     4  C   -0.627534
     5  C   -0.078452
     6  C   -1.053935
     7  N   -0.789847
     8  C    0.300678
     9  N   -0.344964
    10  O   -0.501882
    11  C   -0.488372
    12  C   -0.636665
    13  C   -2.539074
    14  H    0.539936
    15  H    0.463410
    16  H    0.707996
    17  H    0.738556
    18  H    0.362379
    19  H    0.439002
    20  H    0.590890
    21  H    0.399908
    22  H    0.229163
    23  H    1.073159
    24  H    0.529210
    25  H    0.876021
    26  H    0.733024
    27  N   -1.892183
    28  O    0.507422
    29  O    0.616950
 Sum of APT charges =  -0.00000
 APT charges with hydrogens summed into heavy atoms:
               1
     1  C    1.952547
     2  C   -0.100082
     3  C   -0.591304
     4  C   -0.627534
     5  C    0.384957
     6  C   -0.320910
     7  N   -0.081851
     8  C    0.300678
     9  N    0.393592
    10  O   -0.501882
    11  C    0.313009
    12  C    0.354133
    13  C   -0.707542
    27  N   -1.892183
    28  O    0.507422
    29  O    0.616950
 Electronic spatial extent (au):  <R**2>=           7045.7898
 Charge=             -0.0000 electrons
 Dipole moment (field-independent basis, Debye):
    X=             -9.7829    Y=              5.2489    Z=             -0.5229  Tot=             11.1144
 Quadrupole moment (field-independent basis, Debye-Ang):
   XX=           -128.2070   YY=            -90.1552   ZZ=            -96.9695
   XY=             -3.8433   XZ=             -1.2639   YZ=             -2.2961
 Traceless Quadrupole moment (field-independent basis, Debye-Ang):
   XX=            -23.0965   YY=             14.9554   ZZ=              8.1411
   XY=             -3.8433   XZ=             -1.2639   YZ=             -2.2961
 Octapole moment (field-independent basis, Debye-Ang**2):
  XXX=           -399.6351  YYY=             19.6494  ZZZ=             -0.7731  XYY=             -1.3698
  XXY=             31.8684  XXZ=            -20.6328  XZZ=              1.7748  YZZ=             -0.2051
  YYZ=             -1.9466  XYZ=              6.5798
 Hexadecapole moment (field-independent basis, Debye-Ang**3):
 XXXX=         -10101.9223 YYYY=           -532.7800 ZZZZ=           -184.4585 XXXY=             61.9019
 XXXZ=            -19.0891 YYYX=             -7.3093 YYYZ=             -3.4413 ZZZX=             18.5476
 ZZZY=             -0.5743 XXYY=          -1580.9202 XXZZ=          -1458.6653 YYZZ=           -133.9132
 XXYZ=             -7.1638 YYXZ=              4.1921 ZZXY=            -12.6702
 N-N= 1.011190768245D+03 E-N=-3.834189819098D+03  KE= 7.709004203958D+02
  Exact polarizability:   0.000   0.000   0.000   0.000   0.000   0.000
 Approx polarizability: 268.125  -5.498 222.277  10.285   2.862 118.350
 D2PCM: PCM CHGder 2nd derivatives, FixD1E=F FixD2E=F DoIter=F DoCFld=F I1PDM=0
 Calling FoFJK, ICntrl=    100147 FMM=F ISym2X=0 I1Cent= 0 IOpClX= 0 NMat=1 NMatS=1 NMatT=0.
 ***** Axes restored to original set *****
 -------------------------------------------------------------------
 Center     Atomic                   Forces (Hartrees/Bohr)
 Number     Number              X              Y              Z
 -------------------------------------------------------------------
      1        6           0.009016372   -0.003813943    0.003823537
      2        6           0.003559679   -0.004531938    0.004120415
      3        6          -0.005537768    0.006695195   -0.005684054
      4        6           0.019667366   -0.007159915    0.003532438
      5        6          -0.010916197    0.002605576   -0.002957956
      6        6           0.001018528   -0.005124843    0.004142470
      7        7          -0.037310665   -0.010641008    0.000487644
      8        6           0.019972543    0.018749550   -0.021768028
      9        7          -0.013379432   -0.036801140    0.010623096
     10        8          -0.003401963    0.017948569    0.000017294
     11        6           0.008559656    0.004713931   -0.002406406
     12        6          -0.002865080   -0.005562446   -0.006777440
     13        6           0.006165201    0.000516312    0.005393320
     14        1           0.000333529   -0.001829185    0.001346567
     15        1           0.007475794   -0.003627153    0.003621705
     16        1           0.001142201    0.013560619   -0.007249239
     17        1           0.000290391    0.016760946    0.006550819
     18        1           0.003424095   -0.002804513   -0.007265877
     19        1          -0.006308066   -0.005100733    0.008462370
     20        1          -0.009365799    0.001686204    0.006462580
     21        1           0.005139435    0.004885565   -0.006539799
     22        1           0.000934816   -0.009863841    0.003389038
     23        1          -0.008118432    0.007213241    0.004789563
     24        1           0.005825476    0.004834233   -0.008975894
     25        1          -0.002242325    0.001311786   -0.001230787
     26        1          -0.001704659    0.000963676   -0.000936885
     27        7          -0.097658935    0.056098782   -0.052564775
     28        8          -0.005553884   -0.093778206    0.071416524
     29        8           0.111838125    0.032094678   -0.013822242
 -------------------------------------------------------------------
 Cartesian Forces:  Max     0.111838125 RMS     0.024080592
 FormGI is forming the generalized inverse of G from B-inverse, IUseBI=4.
 GSVD:  received Info=                   1 from GESDD.

 GradGradGradGradGradGradGradGradGradGradGradGradGradGradGradGradGradGrad
 Berny optimization.
 Internal  Forces:  Max     0.117612691 RMS     0.015617294
 Search for a local minimum.
 Step number   1 out of a maximum of  151
 All quantities printed in internal units (Hartrees-Bohrs-Radians)
 Mixed Optimization -- RFO/linear search
 Second derivative matrix not updated -- analytic derivatives used.
 ITU=  0
     Eigenvalues ---   -0.00249   0.00007   0.00030   0.00277   0.00336
     Eigenvalues ---    0.00400   0.00456   0.00598   0.01071   0.01518
     Eigenvalues ---    0.01609   0.01849   0.02021   0.02140   0.02255
     Eigenvalues ---    0.02605   0.02765   0.02782   0.03838   0.03974
     Eigenvalues ---    0.04604   0.04675   0.04722   0.05094   0.05584
     Eigenvalues ---    0.07033   0.08203   0.08352   0.10869   0.11022
     Eigenvalues ---    0.11147   0.11533   0.12152   0.12495   0.12884
     Eigenvalues ---    0.13129   0.13593   0.14977   0.15246   0.16405
     Eigenvalues ---    0.16498   0.16654   0.17115   0.18084   0.18574
     Eigenvalues ---    0.19269   0.21383   0.21631   0.23388   0.24547
     Eigenvalues ---    0.26570   0.27401   0.29974   0.30323   0.30516
     Eigenvalues ---    0.30858   0.31141   0.31463   0.31536   0.31650
     Eigenvalues ---    0.31784   0.32226   0.33856   0.34046   0.36800
     Eigenvalues ---    0.37599   0.37990   0.38063   0.38128   0.39271
     Eigenvalues ---    0.40731   0.41257   0.41539   0.42012   0.44536
     Eigenvalues ---    0.46062   0.46693   0.50345   0.50651   0.57968
     Eigenvalues ---    0.88126
 RFO step:  Lambda=-8.79043533D-02 EMin=-2.49262591D-03
 Linear search not attempted -- first point.
 Maximum step size (   0.300) exceeded in Quadratic search.
    -- Step size scaled by   0.613
 Iteration  1 RMS(Cart)=  0.08858497 RMS(Int)=  0.00589760
 Iteration  2 RMS(Cart)=  0.00971932 RMS(Int)=  0.00151966
 Iteration  3 RMS(Cart)=  0.00011385 RMS(Int)=  0.00151870
 Iteration  4 RMS(Cart)=  0.00000030 RMS(Int)=  0.00151870
 Variable       Old X    -DE/DX   Delta X   Delta X   Delta X     New X
                                 (Linear)    (Quad)   (Total)
    R1        2.65007  -0.00665   0.00000  -0.01271  -0.01269   2.63738
    R2        2.65171  -0.00624   0.00000  -0.01525  -0.01524   2.63647
    R3        2.69362  -0.01142   0.00000   0.03536   0.03536   2.72897
    R4        2.63911  -0.01567   0.00000  -0.01328  -0.01327   2.62584
    R5        2.04550   0.00135   0.00000   0.00139   0.00139   2.04689
    R6        2.66014  -0.00282   0.00000  -0.00168  -0.00169   2.65845
    R7        2.04673   0.00218   0.00000   0.00354   0.00354   2.05027
    R8        2.67450  -0.01079   0.00000  -0.01214  -0.01216   2.66234
    R9        2.72051  -0.03838   0.00000  -0.04913  -0.04913   2.67138
   R10        2.64361  -0.01255   0.00000  -0.00913  -0.00913   2.63447
   R11        2.03001   0.00445   0.00000   0.00555   0.00555   2.03556
   R12        2.04595   0.00105   0.00000   0.00132   0.00132   2.04727
   R13        2.58726   0.01038   0.00000   0.01370   0.01370   2.60096
   R14        1.95045  -0.01497   0.00000  -0.01946  -0.01946   1.93099
   R15        2.57613   0.01203   0.00000   0.00961   0.00961   2.58574
   R16        2.30674   0.01240   0.00000   0.00180   0.00180   2.30854
   R17        2.74528   0.00119   0.00000   0.00263   0.00263   2.74791
   R18        1.95071  -0.01646   0.00000  -0.02160  -0.02160   1.92911
   R19        2.89703  -0.00476   0.00000  -0.00658  -0.00658   2.89045
   R20        2.10228  -0.00832   0.00000  -0.01515  -0.01515   2.08713
   R21        2.10233  -0.01144   0.00000  -0.01563  -0.01563   2.08670
   R22        2.88354   0.00716   0.00000   0.00848   0.00848   2.89202
   R23        2.10113  -0.01037   0.00000  -0.01477  -0.01477   2.08636
   R24        2.10105  -0.00903   0.00000  -0.01407  -0.01407   2.08698
   R25        2.09929  -0.00993   0.00000  -0.01463  -0.01463   2.08465
   R26        2.09834  -0.01104   0.00000  -0.01611  -0.01611   2.08222
   R27        2.09925  -0.01098   0.00000  -0.01615  -0.01615   2.08310
   R28        2.53296  -0.11761   0.00000  -0.18332  -0.18332   2.34965
   R29        2.53299  -0.11678   0.00000  -0.18105  -0.18105   2.35193
    A1        2.07184   0.01121   0.00000   0.02182   0.02185   2.09369
    A2        2.10551  -0.00644   0.00000  -0.01253  -0.01254   2.09296
    A3        2.10584  -0.00477   0.00000  -0.00929  -0.00930   2.09653
    A4        2.10387  -0.00759   0.00000  -0.01416  -0.01414   2.08974
    A5        2.10691   0.00120   0.00000  -0.00065  -0.00066   2.10624
    A6        2.07241   0.00640   0.00000   0.01481   0.01480   2.08721
    A7        2.11839  -0.00316   0.00000  -0.00346  -0.00347   2.11493
    A8        2.06695   0.00229   0.00000   0.00648   0.00648   2.07343
    A9        2.09785   0.00087   0.00000  -0.00302  -0.00302   2.09483
   A10        2.05557   0.00991   0.00000   0.01225   0.01222   2.06779
   A11        2.05351  -0.00502   0.00000  -0.00704  -0.00703   2.04648
   A12        2.17410  -0.00489   0.00000  -0.00521  -0.00519   2.16891
   A13        2.10696  -0.00598   0.00000  -0.00864  -0.00867   2.09829
   A14        2.15480  -0.00502   0.00000  -0.01973  -0.01972   2.13508
   A15        2.02143   0.01101   0.00000   0.02837   0.02838   2.04981
   A16        2.10974  -0.00439   0.00000  -0.00780  -0.00780   2.10194
   A17        2.10273   0.00025   0.00000  -0.00202  -0.00202   2.10071
   A18        2.07072   0.00413   0.00000   0.00982   0.00982   2.08054
   A19        2.23326  -0.00306   0.00000   0.00321   0.00320   2.23646
   A20        2.02245  -0.00123   0.00000  -0.00125  -0.00126   2.02119
   A21        2.02748   0.00429   0.00000  -0.00195  -0.00196   2.02552
   A22        2.08473  -0.02999   0.00000  -0.05977  -0.05980   2.02493
   A23        2.11732   0.00635   0.00000   0.01943   0.01940   2.13672
   A24        2.08114   0.02365   0.00000   0.04035   0.04033   2.12146
   A25        2.12690  -0.00147   0.00000  -0.01060  -0.02081   2.10610
   A26        2.07870   0.00267   0.00000   0.01092   0.00032   2.07902
   A27        2.07758  -0.00120   0.00000  -0.00071  -0.01093   2.06665
   A28        1.93749  -0.00212   0.00000  -0.00543  -0.00546   1.93203
   A29        1.90647   0.00163   0.00000  -0.00932  -0.00932   1.89715
   A30        1.90593  -0.00004   0.00000   0.01261   0.01262   1.91855
   A31        1.90618   0.00069   0.00000   0.00351   0.00346   1.90964
   A32        1.90504   0.00148   0.00000   0.00541   0.00540   1.91044
   A33        1.90242  -0.00165   0.00000  -0.00685  -0.00683   1.89559
   A34        1.94140  -0.00112   0.00000  -0.00103  -0.00102   1.94037
   A35        1.91041  -0.00075   0.00000  -0.00149  -0.00149   1.90892
   A36        1.91088  -0.00054   0.00000  -0.00239  -0.00239   1.90849
   A37        1.90079   0.00258   0.00000   0.00594   0.00594   1.90673
   A38        1.90138   0.00176   0.00000   0.00484   0.00484   1.90622
   A39        1.89845  -0.00194   0.00000  -0.00595  -0.00597   1.89248
   A40        1.92574   0.00274   0.00000   0.00530   0.00528   1.93102
   A41        1.91259   0.00504   0.00000   0.01313   0.01308   1.92567
   A42        1.92584   0.00345   0.00000   0.00590   0.00587   1.93171
   A43        1.89661  -0.00388   0.00000  -0.00855  -0.00859   1.88802
   A44        1.90573  -0.00388   0.00000  -0.00924  -0.00925   1.89648
   A45        1.89684  -0.00371   0.00000  -0.00703  -0.00708   1.88976
   A46        2.10432  -0.00804   0.00000  -0.02530  -0.02530   2.07902
   A47        2.10421  -0.00815   0.00000  -0.02668  -0.02668   2.07753
   A48        2.07466   0.01620   0.00000   0.05199   0.05199   2.12664
    D1       -0.00034  -0.00005   0.00000  -0.00060  -0.00060  -0.00094
    D2        3.14159  -0.00001   0.00000  -0.00026  -0.00026   3.14133
    D3        3.14102  -0.00005   0.00000  -0.00028  -0.00027   3.14075
    D4       -0.00023  -0.00000   0.00000   0.00006   0.00006  -0.00017
    D5        0.00036   0.00000   0.00000   0.00058   0.00059   0.00095
    D6       -3.14153   0.00002   0.00000   0.00071   0.00072  -3.14081
    D7       -3.14100   0.00000   0.00000   0.00026   0.00026  -3.14074
    D8        0.00029   0.00002   0.00000   0.00039   0.00039   0.00068
    D9       -3.14105  -0.00001   0.00000  -0.00076  -0.00076   3.14138
   D10       -0.00038   0.00004   0.00000  -0.00040  -0.00040  -0.00077
   D11        0.00031  -0.00001   0.00000  -0.00042  -0.00042  -0.00012
   D12        3.14098   0.00004   0.00000  -0.00006  -0.00006   3.14092
   D13       -0.00006   0.00006   0.00000   0.00005   0.00005  -0.00001
   D14       -3.14117   0.00000   0.00000  -0.00033  -0.00033  -3.14150
   D15        3.14120   0.00002   0.00000  -0.00029  -0.00029   3.14091
   D16        0.00009  -0.00004   0.00000  -0.00067  -0.00067  -0.00058
   D17        0.00043  -0.00002   0.00000   0.00051   0.00052   0.00095
   D18       -3.14030  -0.00024   0.00000   0.00015   0.00015  -3.14015
   D19        3.14153   0.00003   0.00000   0.00090   0.00090  -3.14075
   D20        0.00080  -0.00018   0.00000   0.00054   0.00054   0.00134
   D21       -0.00041  -0.00002   0.00000  -0.00053  -0.00053  -0.00094
   D22        3.14154  -0.00011   0.00000  -0.00127  -0.00126   3.14028
   D23        3.14026   0.00021   0.00000  -0.00014  -0.00014   3.14012
   D24       -0.00097   0.00012   0.00000  -0.00088  -0.00087  -0.00184
   D25        3.13915  -0.00003   0.00000  -0.00021  -0.00021   3.13894
   D26       -0.00048   0.00011   0.00000  -0.00869  -0.00869  -0.00917
   D27       -0.00152  -0.00027   0.00000  -0.00061  -0.00060  -0.00212
   D28       -3.14115  -0.00012   0.00000  -0.00909  -0.00908   3.13295
   D29        0.00001   0.00003   0.00000  -0.00002  -0.00001  -0.00000
   D30       -3.14128   0.00001   0.00000  -0.00014  -0.00014  -3.14142
   D31        3.14127   0.00011   0.00000   0.00067   0.00068  -3.14124
   D32       -0.00002   0.00009   0.00000   0.00054   0.00055   0.00053
   D33       -3.13853   0.00119   0.00000   0.00354   0.00358  -3.13495
   D34        0.00196   0.00328   0.00000   0.01711   0.01707   0.01903
   D35        0.00110   0.00104   0.00000   0.01204   0.01207   0.01317
   D36        3.14158   0.00313   0.00000   0.02561   0.02557  -3.11603
   D37       -2.43308  -0.00625   0.00000  -0.17908  -0.17906  -2.61214
   D38        0.71019  -0.00550   0.00000   0.09004   0.09010   0.80029
   D39        0.70960  -0.00829   0.00000  -0.19235  -0.19242   0.51718
   D40       -2.43032  -0.00754   0.00000   0.07677   0.07675  -2.35357
   D41       -2.95415   0.00040   0.00000   0.02623   0.02542  -2.92872
   D42        1.22608  -0.00018   0.00000   0.03137   0.03051   1.25659
   D43       -0.85295   0.00088   0.00000   0.03773   0.03692  -0.81604
   D44        0.18577  -0.00034   0.00000  -0.24271  -0.24187  -0.05609
   D45       -1.91719  -0.00092   0.00000  -0.23757  -0.23678  -2.15396
   D46        2.28697   0.00014   0.00000  -0.23121  -0.23037   2.05660
   D47       -2.88933  -0.00088   0.00000   0.01095   0.01095  -2.87838
   D48        1.29256  -0.00289   0.00000   0.00517   0.00517   1.29773
   D49       -0.78697   0.00025   0.00000   0.01476   0.01476  -0.77221
   D50       -0.78620   0.00026   0.00000  -0.00178  -0.00179  -0.78799
   D51       -2.88750  -0.00174   0.00000  -0.00756  -0.00756  -2.89506
   D52        1.31616   0.00139   0.00000   0.00203   0.00202   1.31818
   D53        1.29213  -0.00045   0.00000  -0.00481  -0.00481   1.28732
   D54       -0.80917  -0.00246   0.00000  -0.01059  -0.01059  -0.81976
   D55       -2.88869   0.00067   0.00000  -0.00100  -0.00100  -2.88969
   D56       -0.51017  -0.00071   0.00000  -0.00550  -0.00549  -0.51566
   D57       -2.59785  -0.00078   0.00000  -0.00650  -0.00650  -2.60435
   D58        1.59731  -0.00152   0.00000  -0.00975  -0.00977   1.58754
   D59        1.59680  -0.00065   0.00000  -0.00411  -0.00410   1.59270
   D60       -0.49088  -0.00073   0.00000  -0.00511  -0.00511  -0.49598
   D61       -2.57890  -0.00147   0.00000  -0.00836  -0.00837  -2.58727
   D62       -2.61812  -0.00048   0.00000  -0.00506  -0.00505  -2.62317
   D63        1.57738  -0.00056   0.00000  -0.00606  -0.00605   1.57133
   D64       -0.51064  -0.00130   0.00000  -0.00931  -0.00932  -0.51996
         Item               Value     Threshold  Converged?
 Maximum Force            0.117613     0.000450     NO 
 RMS     Force            0.015617     0.000300     NO 
 Maximum Displacement     0.290344     0.001800     NO 
 RMS     Displacement     0.094062     0.001200     NO 
 Predicted change in Energy=-4.286376D-02
 GradGradGradGradGradGradGradGradGradGradGradGradGradGradGradGradGradGrad

                          Input orientation:                          
 ---------------------------------------------------------------------
 Center     Atomic      Atomic             Coordinates (Angstroms)
 Number     Number       Type             X           Y           Z
 ---------------------------------------------------------------------
      1          6           0       -4.175831    3.674770   -1.061900
      2          6           0       -4.354305    2.547428   -0.258741
      3          6           0       -3.253967    1.947895    0.341783
      4          6           0       -1.955647    2.456699    0.155934
      5          6           0       -1.790521    3.595861   -0.656410
      6          6           0       -2.896292    4.195289   -1.257642
      7          7           0       -0.896602    1.781025    0.804197
      8          6           0        0.446587    2.080015    0.775105
      9          7           0        1.262295    1.248625    1.493221
     10          8           0        0.891590    3.036263    0.158721
     11          6           0        2.491497    1.747947    2.088398
     12          6           0        3.367411    0.590647    2.571083
     13          6           0        4.465058    1.084912    3.516054
     14          1           0       -3.410105    1.072209    0.963009
     15          1           0       -0.825393    4.037685   -0.839756
     16          1           0       -1.164311    0.972612    1.368952
     17          1           0        1.136701    0.238704    1.413213
     18          1           0        2.232662    2.394714    2.945448
     19          1           0        3.050295    2.348919    1.349540
     20          1           0        3.832296    0.095441    1.700686
     21          1           0        2.739012   -0.148435    3.098844
     22          1           0        4.752620    2.121065    3.269805
     23          1           0        5.360881    0.449425    3.427943
     24          1           0        4.120719    1.053730    4.562757
     25          1           0       -5.342475    2.133733   -0.098654
     26          1           0       -2.750352    5.070530   -1.879203
     27          7           0       -5.316460    4.300410   -1.688792
     28          8           0       -5.140424    5.304192   -2.401128
     29          8           0       -6.448600    3.818751   -1.500996
 ---------------------------------------------------------------------
                    Distance matrix (angstroms):
                    1          2          3          4          5
     1  C    0.000000
     2  C    1.395642   0.000000
     3  C    2.408787   1.389537   0.000000
     4  C    2.809988   2.435928   1.406789   0.000000
     5  C    2.420816   2.798275   2.419474   1.408850   0.000000
     6  C    1.395160   2.416412   2.781523   2.430166   1.394103
     7  N    4.221602   3.697691   2.408078   1.413632   2.495214
     8  C    5.223464   4.933140   3.728179   2.509181   3.058051
     9  N    6.479817   6.025151   4.712898   3.688215   4.410228
    10  O    5.251320   5.285135   4.289953   2.905626   2.858550
    11  C    7.621698   7.281019   6.008411   4.900391   5.411509
    12  C    8.922492   8.453507   7.117200   6.135963   6.786183
    13  C   10.115828   9.704081   8.390714   7.375477   7.927584
    14  H    3.385250   2.135522   1.084955   2.164170   3.407989
    15  H    3.377349   3.874489   3.414854   2.183664   1.077170
    16  H    4.720164   3.912223   2.524463   2.073678   3.372783
    17  H    6.793800   6.186823   4.831900   4.007851   4.911463
    18  H    7.665909   7.326546   6.089484   5.032610   5.531920
    19  H    7.732387   7.579846   6.396883   5.147404   5.386297
    20  H    9.196389   8.767669   7.449384   6.439106   7.030285
    21  H    8.929935   8.297963   6.921833   6.122684   6.974120
    22  H   10.044646   9.775915   8.526942   7.403357   7.771929
    23  H   11.023176  10.600853   9.272831   8.262371   8.816152
    24  H   10.360471   9.864279   8.544129   7.636140   8.285221
    25  H    2.159559   1.083167   2.142519   3.411705   3.881403
    26  H    2.155950   3.400677   3.864874   3.406677   2.142696
    27  N    1.444111   2.458401   3.729804   4.254098   3.740916
    28  O    2.319265   3.578765   4.727263   4.978914   4.145394
    29  O    2.319270   2.746913   4.135410   4.978677   4.739272
                    6          7          8          9         10
     6  C    0.000000
     7  N    3.752147   0.000000
     8  C    4.447616   1.376371   0.000000
     9  N    5.791712   2.327883   1.368312   0.000000
    10  O    4.206837   2.278134   1.221626   2.261407   0.000000
    11  C    6.798069   3.623463   2.452889   1.454131   2.818353
    12  C    8.178420   4.766623   3.738311   2.454839   4.234409
    13  C    9.308711   6.048648   4.964992   3.791616   5.277227
    14  H    3.866383   2.616360   3.990620   4.705695   4.796767
[...]
 01358,0.00056484,0.00058739,-0.00002437,0.00063000,0.00011952,0.000062
 27,-0.00080506,-0.00019332,-0.00086913,-0.07847393,0.19323098,-0.00004
 657,0.00002068,-0.00002539,0.00000972,-0.00002094,0.00001189,-0.000053
 66,0.00000959,-0.00002306,0.00012457,-0.00011133,0.00007545,-0.0000228
 9,0.00004621,-0.00002677,0.00002826,-0.00000571,0.00001384,-0.00030737
 ,0.00008092,-0.00015758,0.00025241,-0.00041100,0.00022321,-0.00058721,
 0.00086023,-0.00017084,-0.00006763,0.00016113,-0.00003882,-0.00099459,
 -0.00126723,0.00060405,-0.00106082,0.00376224,-0.00445105,-0.06402099,
 0.11656966,-0.15073894,0.00000305,0.00000126,0.00000138,0.00000996,-0.
 00001023,0.00000703,0.00001351,0.00001823,0.00000568,0.00001893,0.0000
 3676,0.00002904,-0.00001037,0.00024629,-0.00000577,0.00003728,-0.00029
 809,0.00038796,0.00010675,-0.00003376,-0.00021548,0.00001705,-0.000303
 46,0.00049853,-0.01121364,0.01923277,-0.01600368,0.07079575,-0.1276506
 1,0.15940097,0.00000292,-0.00000012,0.00000107,0.00000099,0.00000168,0
 .00000029,0.00000046,-0.00000323,0.00000685,0.00000138,0.00000389,-0.0
 0001306,-0.00000286,0.00000060,0.00000837,-0.00000243,0.00000115,-0.00
 000244,0.00004165,0.00000268,0.00002300,0.00004097,-0.00001877,0.00005
 087,0.00005299,0.00023342,0.00028757,0.00001791,0.00013064,-0.00000017
 ,0.00112169,-0.00160257,0.00012764,-0.00234844,-0.02992673,-0.01599604
 ,-0.04916506,-0.01416565,-0.00680516,0.00000195,-0.00000006,-0.0000021
 3,0.00000081,-0.00000092,-0.00000411,0.00001329,-0.00001394,-0.0000033
 4,0.00028138,0.00003261,0.00016052,-0.00018756,0.00076471,-0.00007129,
 -0.00000760,0.00018157,-0.00001626,-0.00641967,-0.00125159,-0.00186868
 ,0.00142591,0.00018759,0.00056248,0.00092191,0.01707821,0.00690512,0.0
 0016806,0.01067193,0.00695356,0.05403976,-0.00003219,0.00001665,-0.000
 01566,0.00000935,-0.00001286,0.00000867,-0.00003649,0.00000112,-0.0000
 0804,0.00008361,-0.00006870,0.00004120,-0.00001655,0.00003083,-0.00001
 943,0.00001625,-0.00000179,0.00001046,-0.00017586,0.00005295,-0.000061
 43,0.00020197,-0.00024011,0.00007273,-0.00007803,0.00056760,0.00003885
 ,-0.00008221,0.00016409,-0.00004089,0.00052124,0.00064443,0.00053874,-
 0.00053718,-0.00590265,-0.00248581,-0.01505228,-0.26248139,-0.10921495
 ,0.00000414,0.00000094,-0.00000235,0.00000626,-0.00000930,0.00000143,0
 .00001709,-0.00000598,-0.00000340,0.00016802,-0.00012451,0.00013173,-0
 .00018958,0.00035620,-0.00042412,-0.00014379,-0.00004356,0.00001096,-0
 .00150120,0.00100136,0.00018049,-0.00019284,0.00012921,0.00028814,0.00
 075463,0.00224937,0.00133745,-0.00144751,-0.01912671,-0.01092374,0.017
 69183,0.28280893,0.00000660,-0.00000259,0.00000094,0.00000123,0.000003
 06,-0.00000005,0.00000646,-0.00000295,0.00000191,-0.00001430,0.0000106
 7,0.00000040,-0.00000125,-0.00000751,-0.00000141,-0.00000384,0.0000036
 9,0.00000084,0.00005985,0.00003012,0.00001992,-0.00006664,-0.00018221,
 0.00000550,-0.00000997,0.00038090,-0.00002736,0.00008634,0.00014239,0.
 00000453,0.00021078,-0.00088295,0.00000073,-0.00037209,-0.00537674,-0.
 00365480,-0.00745934,-0.10920396,-0.10549603,0.00000091,0.00000130,-0.
 00000088,-0.00000472,-0.00000056,-0.00000293,0.00000577,-0.00000732,0.
 00000309,0.00014833,0.00000128,0.00008506,-0.00045333,0.00022986,-0.00
 006938,0.00001079,-0.00005539,-0.00007201,-0.00146066,0.00002154,0.000
 81872,-0.00007277,0.00061800,0.00038103,-0.00249586,-0.02504619,-0.011
 82890,0.00218102,0.01878816,0.01058927,0.00969820,0.12053485,0.1092440
 4,0.00287709,-0.00149091,-0.00012811,-0.27262767,-0.13470473,-0.029686
 63,-0.01362237,-0.01226950,-0.00171651,-0.00046423,0.00155422,-0.00366
 664,-0.00006620,0.00085501,0.00003735,0.00174135,0.00014116,-0.0012313
 2,-0.00095121,-0.00067217,-0.00009060,0.00016350,0.00040019,0.00004903
 ,-0.00016192,-0.00002434,-0.00006004,-0.00001552,-0.00012617,0.0000219
 4,0.00002757,0.00003542,-0.00001061,-0.00001381,-0.00001496,0.00000293
 ,-0.00000012,0.00000739,-0.00000462,0.00048964,0.00052211,0.00168339,-
 0.00010401,0.00002985,0.00019947,-0.00002712,-0.00007441,-0.00001261,-
 0.00000025,-0.00001690,0.00000239,-0.00000224,-0.00000118,0.00000065,-
 0.00000887,-0.00000211,0.00000107,0.00000029,0.00000306,0.00000114,0.0
 0000071,-0.00000037,-0.00000076,-0.00000035,-0.00000052,0.00000043,-0.
 00000333,-0.00000035,-0.00000123,0.00000052,0.00000020,0.00000053,0.28
 603681,-0.02511518,-0.00870942,-0.00359685,-0.13338068,-0.13592204,-0.
 00955157,0.01296536,0.01170701,0.00187413,0.00179868,-0.00002848,0.003
 85790,0.00080400,-0.00039501,-0.00000280,0.00073711,-0.00435427,0.0039
 6331,0.00069789,0.00064277,0.00000451,-0.00001541,-0.00028004,-0.00003
 634,0.00013568,0.00002392,0.00004584,0.00000409,0.00005906,-0.00000964
 ,-0.00002130,-0.00003029,0.00001281,0.00001142,0.00001286,-0.00000113,
 0.00000069,-0.00000623,0.00000387,0.00027074,0.00007380,-0.00182830,0.
 00003317,-0.00001648,-0.00025429,-0.00001346,0.00003809,0.00001753,-0.
 00000120,0.00001558,-0.00000243,0.00000125,0.00000036,-0.00000003,0.00
 000610,0.00000178,-0.00000151,-0.00000005,-0.00000287,-0.00000152,-0.0
 0000056,0.00000078,0.00000038,0.00000018,0.00000062,-0.00000040,0.0000
 0312,0.00000021,0.00000139,-0.00000072,-0.00000053,-0.00000070,0.14315
 516,0.13665945,0.00913792,0.00477918,0.00625266,-0.03021227,-0.0099988
 6,-0.04676803,-0.01159749,-0.00708214,0.00345871,-0.00380857,0.0037510
 3,0.00537489,0.00006387,-0.00000763,-0.00111858,-0.00147974,0.00375920
 ,0.00306042,-0.00061321,-0.00052584,-0.00010592,0.00019841,0.00018569,
 -0.00023958,-0.00010144,-0.00001160,-0.00006438,-0.00002032,-0.0000770
 7,0.00004923,0.00000791,0.00002479,0.00002005,-0.00000843,-0.00000405,
 0.00000702,-0.00000046,0.00000407,-0.00000301,0.00177988,-0.00173859,-
 0.00351654,0.00021154,-0.00025604,-0.00052598,-0.00003578,-0.00000055,
 0.00007748,-0.00000660,-0.00000505,0.00001340,0.00000057,-0.00000282,0
 .00000102,-0.00000648,-0.00000001,-0.00000473,-0.00000047,-0.00000036,
 0.00000053,0.00000145,0.00000025,-0.00000360,0.00000188,0.00000002,-0.
 00000096,-0.00000242,0.00000035,-0.00000071,-0.00000050,-0.00000108,0.
 00000028,0.03573542,0.00765688,0.03660834,0.00464168,-0.02432617,0.009
 31844,-0.00443873,-0.00262377,-0.00236008,-0.00105131,0.00032998,-0.00
 012795,-0.00298287,0.00099169,-0.00431146,0.00570884,0.02335748,-0.009
 00507,-0.05727158,-0.01784718,0.00109593,0.00032784,0.00118165,-0.0003
 2187,0.00049534,0.00033131,0.00004549,-0.00013718,-0.00004358,-0.00002
 027,-0.00007436,-0.00029485,0.00006572,0.00004217,0.00002186,-0.000003
 85,-0.00001166,-0.00000697,0.00000190,0.00000146,0.00000495,-0.0000030
 2,0.00003609,0.00007218,0.00019644,0.00040482,0.00025282,0.00179730,-0
 .00033036,0.00019121,-0.00006151,0.00002139,-0.00002410,0.00000158,-0.
 00000430,-0.00000199,-0.00000397,-0.00001460,0.00000105,0.00000323,0.0
 0000145,-0.00000126,-0.00000073,0.00000041,-0.00000030,0.00000303,-0.0
 0000196,0.00000090,0.00000151,-0.00000229,-0.00000118,-0.00000026,-0.0
 0000030,-0.00000082,-0.00000187,0.00027385,-0.00138564,0.00041743,0.05
 507151,-0.00056079,-0.01044225,0.00592114,-0.00312051,0.00082568,0.000
 54699,0.00035922,0.00049312,-0.00047963,0.00030613,0.00170187,0.002623
 99,-0.00164185,-0.00466741,0.00326163,-0.01903734,-0.31828163,0.101828
 76,-0.00008102,-0.00026205,0.00001877,-0.00015785,-0.00010711,0.000030
 88,0.00003796,0.00000787,-0.00000420,-0.00001046,0.00009108,-0.0000212
 4,-0.00000764,-0.00000401,0.00000822,0.00000337,0.00000145,-0.00000058
 ,-0.00000033,-0.00000048,0.00000125,0.00008364,-0.00012513,-0.00015038
 ,0.00056665,0.00012401,-0.00176945,0.00010765,-0.00004146,-0.00007322,
 -0.00000325,0.00000629,-0.00000137,0.00000206,0.00000101,-0.00000017,0
 .00000409,-0.00000010,-0.00000082,-0.00000053,-0.00000111,-0.00000010,
 -0.00000004,0.00000056,-0.00000101,0.00000083,0.00000008,-0.00000038,0
 .00000025,0.00000029,-0.00000004,-0.00000010,-0.00000049,-0.00000017,0
 .00008072,-0.00035102,0.00041433,0.01880937,0.33293310,0.00000334,-0.0
 0247881,0.00619239,-0.00211969,0.00069149,0.00402960,-0.00020703,-0.00
 050748,-0.00093588,-0.00405062,0.00285788,0.00560348,0.00077483,0.0121
 3458,0.00069841,0.00156212,0.10217236,-0.08042946,0.00019115,0.0005198
 7,-0.00030500,0.00017971,0.00021688,0.00013029,-0.00005716,-0.00003125
 ,-0.00005012,-0.00007772,-0.00011325,0.00003273,0.00000819,0.00001648,
 0.00002429,-0.00000501,-0.00000289,0.00000380,0.00000036,0.00000358,-0
 .00000104,0.00018679,-0.00015400,-0.00045846,0.00179175,-0.00183988,-0
 .00354432,-0.00005167,-0.00004037,-0.00031072,0.00001429,-0.00000817,-
 0.00000556,-0.00000332,-0.00000023,-0.00000122,-0.00000459,-0.00000180
 ,-0.00000244,0.00000026,-0.00000273,-0.00000066,0.00000150,0.00000204,
 -0.00000218,0.00000119,0.00000001,-0.00000099,-0.00000151,-0.00000005,
 -0.00000037,-0.00000136,-0.00000195,-0.00000075,-0.00015749,-0.0001066
 0,0.00062254,0.00258732,-0.11291065,0.07266145,-0.12861657,0.00473546,
 -0.02121631,-0.00395422,0.02950578,-0.01064628,0.01515113,-0.00318015,
 0.00364492,-0.01362071,0.00452723,-0.00568621,0.00196426,-0.01438466,0
 .00300799,-0.04278221,0.01270688,-0.01782414,0.01544748,-0.00436834,0.
 00721732,-0.01137722,-0.00352450,-0.00269925,0.00348686,-0.00164531,0.
 00250525,0.00232823,0.00255223,-0.00001152,-0.00117813,-0.00049358,-0.
 00046247,0.00021731,0.00031282,-0.00012688,-0.00001716,-0.00018151,0.0
 0009362,0.00101978,-0.00097433,0.00026185,-0.00019149,0.00055672,-0.00
 072519,0.00052561,0.00075575,-0.00015210,0.00007620,0.00046651,-0.0003
 5487,0.00009635,0.00003291,0.00000706,0.00041862,0.00004132,0.00004014
 ,-0.00001863,-0.00004434,0.00000148,-0.00003739,-0.00000729,-0.0000019
 4,0.00000967,0.00002595,-0.00002520,0.00012005,-0.00003579,0.00006621,
 -0.00000518,0.00003981,-0.00001350,-0.00199076,-0.00334012,0.00207288,
 -0.00039913,0.00055729,0.00118657,0.75197122,0.00387561,-0.11623393,0.
 01786138,0.03388398,-0.01463488,0.01517006,-0.00824022,-0.00698783,0.0
 0320518,0.00444880,-0.00727759,0.00359616,-0.01045596,0.00359579,-0.00
 144207,0.00912751,0.01913074,-0.00693983,-0.00826837,0.00208675,-0.004
 04390,0.00624535,0.00230790,0.00129907,-0.00193077,0.00078739,-0.00125
 887,-0.00144310,-0.00160665,-0.00003382,0.00068148,0.00030138,0.000246
 70,-0.00012588,-0.00014824,0.00006686,0.00001685,0.00009675,-0.0000462
 2,0.00119395,-0.00003925,0.00095236,-0.00100937,0.00103017,-0.00024818
 ,-0.00027984,-0.00038086,0.00007982,-0.00001962,-0.00022615,0.00016812
 ,-0.00005226,-0.00002442,-0.00001703,-0.00024108,-0.00001602,-0.000010
 16,0.00001346,0.00000501,-0.00001182,0.00001788,0.00000783,0.00001478,
 -0.00001204,-0.00000638,0.00001834,-0.00006094,0.00001322,-0.00002973,
 -0.00000087,-0.00002840,-0.00000564,-0.00036507,-0.00233616,-0.0008235
 5,-0.00238104,-0.00396548,-0.00099619,0.19447900,0.88398398,-0.0209261
 8,0.01818908,-0.08879184,-0.01232734,0.01358500,-0.01642446,0.00551694
 ,0.00509000,0.00879211,-0.00597550,0.00376650,-0.00527437,0.00154971,-
 0.00294499,0.01097510,-0.01648976,-0.00571498,-0.01054618,0.00912364,-
 0.00283375,0.00295660,-0.00632875,-0.00219223,-0.00170594,0.00193177,-
 0.00081302,0.00154483,0.00152203,0.00140453,-0.00008689,-0.00070298,-0
 .00027026,-0.00021321,0.00013656,0.00018279,-0.00006238,-0.00001199,-0
 .00010495,0.00005438,-0.00056711,0.00018135,0.00101068,-0.00018611,0.0
 0027740,0.00109614,0.00028314,0.00046248,-0.00000645,-0.00000092,0.000
 27884,-0.00016707,0.00007235,-0.00000121,0.00001783,0.00023546,0.00002
 144,-0.00000613,-0.00001601,-0.00001997,0.00000377,-0.00001677,-0.0000
 0633,-0.00000863,0.00001134,0.00001254,-0.00001876,0.00006680,-0.00001
 752,0.00003534,-0.00000405,0.00002366,-0.00000377,0.00089745,-0.001882
 20,-0.00306737,0.00233105,0.00009389,-0.00344464,0.10604873,-0.1859107
 0,0.34882091,0.01006010,0.03272216,-0.01596929,-0.00406928,-0.00316297
 ,-0.00169540,-0.00155374,0.00218375,-0.00100406,0.00211627,0.00056449,
 0.00037347,0.00130369,0.00139529,0.00027238,-0.00604603,0.00094850,-0.
 00316675,-0.00230942,0.00062581,-0.00107226,0.00198377,0.00033259,0.00
 056049,-0.00070767,0.00037918,-0.00049697,-0.00056412,-0.00027995,-0.0
 0014305,0.00026063,0.00010848,0.00008693,-0.00004373,-0.00005940,0.000
 02750,0.00000341,0.00003739,-0.00001910,-0.00059353,0.00034584,-0.0001
 3339,0.00004527,-0.00002984,0.00005556,-0.00008200,-0.00007954,0.00002
 366,-0.00001022,-0.00008491,0.00006474,-0.00001552,-0.00000931,0.00000
 338,-0.00007864,-0.00001182,-0.00000282,0.00000379,0.00000846,-0.00000
 122,0.00000713,0.00000198,0.00000005,-0.00000128,-0.00000596,0.0000056
 6,-0.00002552,0.00000889,-0.00001501,0.00000099,-0.00000918,0.00000321
 ,0.00023383,0.00064628,-0.00027968,-0.00160851,0.00364640,-0.00208654,
 -0.12959459,-0.02303875,-0.00868809,0.13364821,0.02089088,-0.04308488,
 0.03175272,0.00276415,0.00608927,0.00022743,0.00492793,-0.00008657,0.0
 0138300,-0.00537890,0.00199521,-0.00245007,0.00272235,-0.00251290,0.00
 152077,-0.01091333,-0.00379642,-0.00167946,0.00650329,-0.00122217,0.00
 269508,-0.00470904,-0.00192805,-0.00097284,0.00143397,-0.00049776,0.00
 093290,0.00108577,0.00136656,-0.00004891,-0.00050197,-0.00022319,-0.00
 017796,0.00009813,0.00011436,-0.00004699,-0.00001281,-0.00007364,0.000
 03563,0.00057741,-0.00038275,0.00011746,0.00015510,-0.00011539,0.00007
 993,0.00004643,0.00030353,-0.00011885,-0.00001164,0.00017127,-0.000123
 80,0.00004433,0.00001487,0.00001476,0.00017718,0.00001005,0.00000592,-
 0.00001074,-0.00000304,0.00000889,-0.00001410,-0.00000649,-0.00001168,
 0.00000928,0.00000525,-0.00001401,0.00004601,-0.00001010,0.00002249,0.
 00000097,0.00002161,0.00000389,-0.00050185,0.00147518,-0.00063523,0.00
 219104,0.00142224,0.00027661,-0.02013823,-0.52032004,0.16699864,0.0700
 4404,0.64399295,-0.01125235,0.03597066,0.00038771,-0.00403292,-0.00188
 174,0.00345727,-0.00207161,0.00035549,-0.00205241,0.00275281,-0.000452
 95,0.00144114,-0.00030178,0.00115801,-0.00138444,0.00154625,0.00252286
 ,0.00127316,-0.00342529,0.00074628,-0.00132000,0.00254482,0.00087873,0
 .00060514,-0.00080575,0.00031697,-0.00058295,-0.00065072,-0.00060677,0
 .00000681,0.00029699,0.00012305,0.00009338,-0.00005634,-0.00006835,0.0
 0002566,0.00000683,0.00004090,-0.00002204,-0.00023476,0.00004634,-0.00
 067208,-0.00002621,0.00001449,-0.00005933,-0.00004138,-0.00016028,0.00
 002715,0.00000622,-0.00010525,0.00006174,-0.00002412,-0.00000538,-0.00
 000580,-0.00010054,-0.00000802,0.00000227,0.00000710,0.00000664,-0.000
 00326,0.00000605,0.00000248,0.00000676,-0.00000635,-0.00000438,0.00000
 934,-0.00002691,0.00000682,-0.00001423,0.00000126,-0.00001043,-0.00000
 006,0.00017263,-0.00023322,0.00046271,-0.00151510,0.00077338,-0.000810
 81,-0.00983371,0.16594182,-0.14857937,0.00954145,-0.21805336,0.1188463
 0,-0.06364603,-0.01874731,-0.02187732,-0.00021722,-0.00759498,0.002317
 37,-0.00408994,-0.00023428,-0.00111844,0.00443217,-0.00439656,0.003047
 59,-0.00399925,0.00335203,-0.00227016,0.00420954,0.00735421,-0.0028405
 5,-0.00647307,0.00225149,-0.00306584,0.00501920,0.00091727,0.00141724,
 -0.00168258,0.00093704,-0.00127735,-0.00127498,-0.00065765,-0.00026416
 ,0.00058315,0.00024295,0.00022765,-0.00010550,-0.00015653,0.00006688,0
 .00000730,0.00009012,-0.00004919,-0.00017806,0.00030536,-0.00015580,-0
 .00036934,0.00054566,-0.00011956,-0.00030957,-0.00031829,0.00003494,-0
 .00005086,-0.00022170,0.00017363,-0.00004283,-0.00001546,0.00000479,-0
 .00019760,-0.00002626,-0.00001873,0.00000733,0.00002760,0.00000019,0.0
 0001823,0.00000342,-0.00000350,-0.00000288,-0.00001487,0.00001138,-0.0
 0006120,0.00001974,-0.00003477,0.00000357,-0.00001868,0.00001011,-0.00
 178515,0.00200340,-0.00145528,0.00130228,0.00005609,0.00033435,-0.4590
 4940,-0.19605870,-0.05748540,-0.00236324,-0.07152566,0.01752343,0.5303
 1592,-0.00649911,0.01889170,-0.00233392,0.00406676,-0.00857434,0.00547
 198,-0.00140453,0.00181391,-0.00153747,0.00191825,0.00002001,0.0007664
 3,0.00099255,0.00158865,-0.00077053,0.00117176,-0.00074175,0.00233893,
 -0.00089825,0.00077070,-0.00047800,0.00055471,-0.00001834,0.00018911,-
 0.00011295,0.00012115,-0.00015491,-0.00006429,0.00000716,0.00000234,0.
 00001862,-0.00000305,0.00002664,-0.00000534,-0.00002444,0.00000547,-0.
 00000177,0.00000866,-0.00000546,-0.00008969,0.00000363,-0.00005464,0.0
 0015603,-0.00018407,-0.00010430,-0.00011907,-0.00008859,-0.00003254,-0
 .00001763,-0.00003401,0.00002428,-0.00000632,0.00000439,0.00000196,-0.
 00001600,-0.00000300,-0.00000944,-0.00000108,0.00001043,0.00000425,0.0
 0000247,-0.00000127,-0.00000517,0.00000147,-0.00000357,-0.00000092,-0.
 00000589,0.00000249,-0.00000400,0.00000179,0.00000166,0.00000517,0.003
 48103,0.00172138,0.00059466,0.00120137,0.00064108,0.00030452,-0.198977
 52,-0.23911464,-0.00785605,-0.08722791,-0.08271896,0.01268521,0.281880
 53,0.30590302,-0.02669085,-0.00671284,0.01189947,-0.00227566,0.0013388
 1,0.00035584,-0.00061650,-0.00110922,-0.00059196,0.00069648,-0.0014392
 7,0.00116284,-0.00136302,0.00007096,-0.00180940,-0.00043016,0.00454347
 ,0.00228062,-0.00198702,0.00056863,-0.00072890,0.00153392,0.00031059,0
 .00041868,-0.00054152,0.00026531,-0.00041801,-0.00046694,-0.00018617,-
 0.00005119,0.00020526,0.00008004,0.00005733,-0.00003669,-0.00005178,0.
 00001598,0.00000333,0.00002956,-0.00001540,-0.00000913,0.00008500,-0.0
 0008766,0.00003945,0.00004158,-0.00058772,-0.00004988,-0.00009814,-0.0
 0002251,0.00000261,-0.00007308,0.00003457,-0.00001608,0.00000003,-0.00
 000196,-0.00006419,-0.00000965,0.00000501,0.00000453,0.00000772,-0.000
 00083,0.00000355,0.00000173,0.00000266,-0.00000347,-0.00000441,0.00000
 603,-0.00001905,0.00000552,-0.00001096,0.00000181,-0.00000607,0.000002
 07,-0.00203863,0.00007097,-0.00058987,-0.00012935,-0.00010983,0.000305
 63,-0.05637445,-0.00680293,-0.09690025,0.02375514,0.01825704,0.0288002
 6,0.06686651,-0.00907358,0.05646966\\-0.00000007,0.00000420,-0.0000016
 3,0.00000031,0.00000308,-0.00000040,-0.00000235,0.00000337,0.00000140,
 -0.00000005,0.00000075,-0.00000186,0.00000240,0.00000133,-0.00000158,0
 .00000262,0.00000129,-0.00000315,0.00000503,0.00000185,0.00000149,-0.0
 0000572,-0.00000307,0.00000089,-0.00000476,0.00000601,0.00000232,0.000
 00555,-0.00000389,0.00000014,0.00000007,0.00000460,0.00000333,-0.00000
 646,-0.00000388,0.00000351,0.00000067,-0.00000304,0.00000064,-0.000002
 56,0.00000194,0.00000121,0.00000173,-0.00000027,-0.00000259,-0.0000002
 2,-0.00000016,0.00000090,-0.00000310,-0.00000434,0.00000038,0.00000141
 ,-0.00000509,-0.00000194,0.00000324,-0.00000474,-0.00000183,-0.0000017
 1,-0.00000235,0.00000165,-0.00000243,-0.00000028,0.00000313,-0.0000009
 1,-0.00000539,0.00000091,-0.00000317,-0.00000371,0.00000225,-0.0000015
 7,-0.00000322,0.00000054,-0.00000076,0.00000432,0.00000072,0.00000400,
 0.00000076,-0.00000345,0.00000447,0.00001279,-0.00000648,0.00000184,-0
 .00000852,0.00000078,0.00000251,0.00000567,-0.00000131\\\@


 THE MEEK SHALL INHERIT THE EARTH.
 (THE REST OF US WILL ESCAPE TO THE STARS)
 Job cpu time:       0 days  2 hours 18 minutes  6.3 seconds.
 File lengths (MBytes):  RWF=    445 Int=      0 D2E=      0 Chk=     22 Scr=      1
 Normal termination of Gaussian 09 at Mon Feb 25 22:02:39 2019.
WARNING: pbs_rusage is deprecated and values produced may not be accurate


=============================================================================
                                     Resource usage:
                                       CPU time:              16:53:10
   JobId:    6146863.r-man2            Elapsed time:          04:14:02
   Project:             q95            Requested time:        32:00:00
   Service Units:     16.94 
                                       Max physical memory:      564MB
                                       Max virtual memory:      1334MB
                                       Requested memory:           0MB

                                       Number of cpus:               4

                                       Max jobfs disk use:       0.4GB
                                       Requested jobfs:         16.0GB
=============================================================================

