 Entering Gaussian System, Link 0=/apps/gaussian/g09e01/g09/g09
 AtFile(1): /home/507/hio507/Basis/6-31pGd.gbs
 Initial command:
 /apps/gaussian/g09e01/g09/l1.exe "/jobfs/local/5892649.r-man2/Gau-5968.inp" -scrdir="/jobfs/local/5892649.r-man2/"
 Entering Link 1 = /apps/gaussian/g09e01/g09/l1.exe PID=      5976.
  
 Copyright (c) 1988,1990,1992,1993,1995,1998,2003,2009,2015,
            Gaussian, Inc.  All Rights Reserved.
  
 This is part of the Gaussian(R) 09 program.  It is based on
 the Gaussian(R) 03 system (copyright 2003, Gaussian, Inc.),
 the Gaussian(R) 98 system (copyright 1998, Gaussian, Inc.),
 the Gaussian(R) 94 system (copyright 1995, Gaussian, Inc.),
 the Gaussian 92(TM) system (copyright 1992, Gaussian, Inc.),
 the Gaussian 90(TM) system (copyright 1990, Gaussian, Inc.),
 the Gaussian 88(TM) system (copyright 1988, Gaussian, Inc.),
 the Gaussian 86(TM) system (copyright 1986, Carnegie Mellon
 University), and the Gaussian 82(TM) system (copyright 1983,
 Carnegie Mellon University). Gaussian is a federally registered
 trademark of Gaussian, Inc.
  
 This software contains proprietary and confidential information,
 including trade secrets, belonging to Gaussian, Inc.
  
 This software is provided under written license and may be
 used, copied, transmitted, or stored only in accord with that
 written license.
  
 The following legend is applicable only to US Government
 contracts under FAR:
  
                    RESTRICTED RIGHTS LEGEND
  
 Use, reproduction and disclosure by the US Government is
 subject to restrictions as set forth in subparagraphs (a)
 and (c) of the Commercial Computer Software - Restricted
 Rights clause in FAR 52.227-19.
  
 Gaussian, Inc.
 340 Quinnipiac St., Bldg. 40, Wallingford CT 06492
  
  
 ---------------------------------------------------------------
 Warning -- This program may not be used in any manner that
 competes with the business of Gaussian, Inc. or will provide
 assistance to any competitor of Gaussian, Inc.  The licensee
 of this program is prohibited from giving any competitor of
 Gaussian, Inc. access to this program.  By using this program,
 the user acknowledges that Gaussian, Inc. is engaged in the
 business of creating and licensing software in the field of
 computational chemistry and represents and warrants to the
 licensee that it is not a competitor of Gaussian, Inc. and that
 it will not use this program in any manner prohibited above.
 ---------------------------------------------------------------
  

 Cite this work as:
 Gaussian 09, Revision E.01,
 M. J. Frisch, G. W. Trucks, H. B. Schlegel, G. E. Scuseria, 
 M. A. Robb, J. R. Cheeseman, G. Scalmani, V. Barone, B. Mennucci, 
 G. A. Petersson, H. Nakatsuji, M. Caricato, X. Li, H. P. Hratchian, 
 A. F. Izmaylov, J. Bloino, G. Zheng, J. L. Sonnenberg, M. Hada, 
 M. Ehara, K. Toyota, R. Fukuda, J. Hasegawa, M. Ishida, T. Nakajima, 
 Y. Honda, O. Kitao, H. Nakai, T. Vreven, J. A. Montgomery, Jr., 
 J. E. Peralta, F. Ogliaro, M. Bearpark, J. J. Heyd, E. Brothers, 
 K. N. Kudin, V. N. Staroverov, T. Keith, R. Kobayashi, J. Normand, 
 K. Raghavachari, A. Rendell, J. C. Burant, S. S. Iyengar, J. Tomasi, 
 M. Cossi, N. Rega, J. M. Millam, M. Klene, J. E. Knox, J. B. Cross, 
 V. Bakken, C. Adamo, J. Jaramillo, R. Gomperts, R. E. Stratmann, 
 O. Yazyev, A. J. Austin, R. Cammi, C. Pomelli, J. W. Ochterski, 
 R. L. Martin, K. Morokuma, V. G. Zakrzewski, G. A. Voth, 
 P. Salvador, J. J. Dannenberg, S. Dapprich, A. D. Daniels, 
 O. Farkas, J. B. Foresman, J. V. Ortiz, J. Cioslowski, 
 and D. J. Fox, Gaussian, Inc., Wallingford CT, 2013.
 
 ******************************************
 Gaussian 09:  ES64L-G09RevE.01 30-Nov-2015
                19-Feb-2019 
 ******************************************
 %chk=4Nitro_EtO.M062X_6-31pGd_opt_water.chk
 %mem=196608000
 %nproc=8
 Will use up to    8 processors via shared memory.
 ----------------------------------------------------------------------
 # M062X/Gen 6D SCF=Tight INT(grid=ultrafine) OPT IOP(2/17=4) SCRF=(SMD
 ,Solvent=h2o) maxdisk=2684354560
 ----------------------------------------------------------------------
 1/14=-1,18=20,19=15,26=4,38=1/1,3;
 2/9=110,12=2,17=4,18=5,40=1/2;
 3/5=7,8=2,11=2,16=1,25=1,30=1,70=32201,71=1,72=1,74=-55,75=-5/1,2,3;
 4//1;
 5/5=2,32=2,38=5,53=1/2;
 6/7=2,8=2,9=2,10=2,28=1/1;
 7//1,2,3,16;
 1/14=-1,18=20,19=15,26=4/3(2);
 2/9=110,17=4/2;
 99//99;
 2/9=110,17=4/2;
 3/5=7,6=1,8=2,11=2,16=1,25=1,30=1,70=32205,71=1,72=1,74=-55,75=-5,82=7/1,2,3;
 4/5=5,16=3,69=1/1;
 5/5=2,32=2,38=5,53=1/2;
 7//1,2,3,16;
 1/14=-1,18=20,19=15,26=4/3(-5);
 2/9=110,17=4/2;
 6/7=2,8=2,9=2,10=2,19=2,28=1/1;
 99/9=1/99;
 ----------------------------------
 4Nitro_EtO.M062X_6-31pGd_opt_water
 ----------------------------------
 Symbolic Z-matrix:
 Charge = -1 Multiplicity = 1
 C                    -4.02363   3.97393  -1.36157 
 C                    -4.12267   2.65534  -0.90681 
 C                    -3.01648   2.05089  -0.3479 
 C                    -1.78679   2.74701  -0.22873 
 C                    -1.71169   4.07965  -0.69535 
 C                    -2.82621   4.68055  -1.25628 
 N                    -0.74826   2.05607   0.34193 
 C                     0.55198   2.50684   0.56328 
 N                     1.33738   1.57785   1.14829 
 O                     0.94776   3.63399   0.25497 
 C                     2.72015   1.88133   1.45481 
 C                     3.41475   0.64684   2.01711 
 C                     4.87586   0.93025   2.35372 
 H                    -3.06696   1.02668   0.01205 
 H                    -0.77951   4.61945  -0.61031 
 H                    -0.97144   1.077     0.62814 
 H                     0.96011   0.65141   1.42251 
 H                     2.7759    2.70864   2.17718 
 H                     3.23258   2.22453   0.546 
 H                     3.34387  -0.16765   1.28632 
 H                     2.87775   0.30515   2.90984 
 H                     5.43311   1.24462   1.46328 
 H                     5.36881   0.0409    2.75968 
 H                     4.96196   1.72954   3.09932 
 H                    -5.06169   2.12125  -0.997 
 H                    -2.77417   5.70199  -1.61594 
 N                    -5.1795    4.61337  -1.95038 
 O                    -5.07041   5.76853  -2.34853 
 O                    -6.22354   3.97436  -2.02824 
 O                    -1.56117  -0.50015   1.00625 
 C                    -0.753    -1.26047   1.60719 
 O                     0.42556  -0.96582   1.93467 
 C                    -1.22955  -2.67292   1.9714 
 C                    -2.68238  -2.96949   1.62499 
 H                    -1.04653  -2.80916   3.04417 
 H                    -0.55734  -3.37598   1.46324 
 H                    -3.35653  -2.27946   2.14155 
 H                    -2.95284  -3.9929    1.91131 
 H                    -2.86009  -2.85384   0.55179 
 
 Add virtual bond connecting atoms O30        and H16        Dist= 3.26D+00.
 Add virtual bond connecting atoms O32        and H17        Dist= 3.36D+00.

 GradGradGradGradGradGradGradGradGradGradGradGradGradGradGradGradGradGrad
 Berny optimization.
 Initialization pass.
                           ----------------------------
                           !    Initial Parameters    !
                           ! (Angstroms and Degrees)  !
 --------------------------                            --------------------------
 ! Name  Definition              Value          Derivative Info.                !
 --------------------------------------------------------------------------------
 ! R1    R(1,2)                  1.3983         estimate D2E/DX2                !
 ! R2    R(1,6)                  1.3943         estimate D2E/DX2                !
 ! R3    R(1,27)                 1.4462         estimate D2E/DX2                !
 ! R4    R(2,3)                  1.3789         estimate D2E/DX2                !
 ! R5    R(2,25)                 1.084          estimate D2E/DX2                !
 ! R6    R(3,4)                  1.4181         estimate D2E/DX2                !
 ! R7    R(3,14)                 1.0868         estimate D2E/DX2                !
 ! R8    R(4,5)                  1.414          estimate D2E/DX2                !
 ! R9    R(4,7)                  1.3717         estimate D2E/DX2                !
 ! R10   R(5,6)                  1.3849         estimate D2E/DX2                !
 ! R11   R(5,15)                 1.0805         estimate D2E/DX2                !
 ! R12   R(6,26)                 1.0842         estimate D2E/DX2                !
 ! R13   R(7,8)                  1.3938         estimate D2E/DX2                !
 ! R14   R(7,16)                 1.0442         estimate D2E/DX2                !
 ! R15   R(8,9)                  1.3499         estimate D2E/DX2                !
 ! R16   R(8,10)                 1.2338         estimate D2E/DX2                !
 ! R17   R(9,11)                 1.4485         estimate D2E/DX2                !
 ! R18   R(9,17)                 1.0372         estimate D2E/DX2                !
 ! R19   R(11,12)                1.524          estimate D2E/DX2                !
 ! R20   R(11,18)                1.0997         estimate D2E/DX2                !
 ! R21   R(11,19)                1.0983         estimate D2E/DX2                !
 ! R22   R(12,13)                1.5259         estimate D2E/DX2                !
 ! R23   R(12,20)                1.0966         estimate D2E/DX2                !
 ! R24   R(12,21)                1.0964         estimate D2E/DX2                !
 ! R25   R(13,22)                1.0965         estimate D2E/DX2                !
 ! R26   R(13,23)                1.0949         estimate D2E/DX2                !
 ! R27   R(13,24)                1.0964         estimate D2E/DX2                !
 ! R28   R(16,30)                1.7257         estimate D2E/DX2                !
 ! R29   R(17,32)                1.7786         estimate D2E/DX2                !
 ! R30   R(27,28)                1.2267         estimate D2E/DX2                !
 ! R31   R(27,29)                1.2265         estimate D2E/DX2                !
 ! R32   R(30,31)                1.2619         estimate D2E/DX2                !
 ! R33   R(31,32)                1.2582         estimate D2E/DX2                !
 ! R34   R(31,33)                1.5345         estimate D2E/DX2                !
 ! R35   R(33,34)                1.5227         estimate D2E/DX2                !
 ! R36   R(33,35)                1.0968         estimate D2E/DX2                !
 ! R37   R(33,36)                1.0974         estimate D2E/DX2                !
 ! R38   R(34,37)                1.0943         estimate D2E/DX2                !
 ! R39   R(34,38)                1.0966         estimate D2E/DX2                !
 ! R40   R(34,39)                1.094          estimate D2E/DX2                !
 ! A1    A(2,1,6)              120.9402         estimate D2E/DX2                !
 ! A2    A(2,1,27)             119.5202         estimate D2E/DX2                !
 ! A3    A(6,1,27)             119.5395         estimate D2E/DX2                !
 ! A4    A(1,2,3)              119.2328         estimate D2E/DX2                !
 ! A5    A(1,2,25)             119.9261         estimate D2E/DX2                !
 ! A6    A(3,2,25)             120.841          estimate D2E/DX2                !
 ! A7    A(2,3,4)              120.9664         estimate D2E/DX2                !
 ! A8    A(2,3,14)             120.6703         estimate D2E/DX2                !
 ! A9    A(4,3,14)             118.3634         estimate D2E/DX2                !
 ! A10   A(3,4,5)              118.7494         estimate D2E/DX2                !
 ! A11   A(3,4,7)              116.3744         estimate D2E/DX2                !
 ! A12   A(5,4,7)              124.8762         estimate D2E/DX2                !
 ! A13   A(4,5,6)              119.9907         estimate D2E/DX2                !
 ! A14   A(4,5,15)             119.3849         estimate D2E/DX2                !
 ! A15   A(6,5,15)             120.6244         estimate D2E/DX2                !
 ! A16   A(1,6,5)              120.1204         estimate D2E/DX2                !
 ! A17   A(1,6,26)             119.5795         estimate D2E/DX2                !
 ! A18   A(5,6,26)             120.3001         estimate D2E/DX2                !
 ! A19   A(4,7,8)              127.5488         estimate D2E/DX2                !
 ! A20   A(4,7,16)             115.119          estimate D2E/DX2                !
 ! A21   A(8,7,16)             117.3283         estimate D2E/DX2                !
 ! A22   A(7,8,9)              112.8941         estimate D2E/DX2                !
 ! A23   A(7,8,10)             123.7116         estimate D2E/DX2                !
 ! A24   A(9,8,10)             123.3939         estimate D2E/DX2                !
 ! A25   A(8,9,11)             120.1964         estimate D2E/DX2                !
 ! A26   A(8,9,17)             121.175          estimate D2E/DX2                !
 ! A27   A(11,9,17)            118.5823         estimate D2E/DX2                !
 ! A28   A(9,11,12)            110.0876         estimate D2E/DX2                !
 ! A29   A(9,11,18)            110.1828         estimate D2E/DX2                !
 ! A30   A(9,11,19)            109.6184         estimate D2E/DX2                !
 ! A31   A(12,11,18)           110.1154         estimate D2E/DX2                !
 ! A32   A(12,11,19)           110.229          estimate D2E/DX2                !
 ! A33   A(18,11,19)           106.5474         estimate D2E/DX2                !
 ! A34   A(11,12,13)           111.5525         estimate D2E/DX2                !
 ! A35   A(11,12,20)           109.0446         estimate D2E/DX2                !
 ! A36   A(11,12,21)           109.2468         estimate D2E/DX2                !
 ! A37   A(13,12,20)           110.295          estimate D2E/DX2                !
 ! A38   A(13,12,21)           110.319          estimate D2E/DX2                !
 ! A39   A(20,12,21)           106.2302         estimate D2E/DX2                !
 ! A40   A(12,13,22)           111.1455         estimate D2E/DX2                !
 ! A41   A(12,13,23)           111.2253         estimate D2E/DX2                !
 ! A42   A(12,13,24)           111.1365         estimate D2E/DX2                !
 ! A43   A(22,13,23)           107.7692         estimate D2E/DX2                !
 ! A44   A(22,13,24)           107.657          estimate D2E/DX2                !
 ! A45   A(23,13,24)           107.7374         estimate D2E/DX2                !
 ! A46   A(1,27,28)            118.5168         estimate D2E/DX2                !
 ! A47   A(1,27,29)            118.4115         estimate D2E/DX2                !
 ! A48   A(28,27,29)           123.0717         estimate D2E/DX2                !
 ! A49   A(16,30,31)           115.8574         estimate D2E/DX2                !
 ! A50   A(30,31,32)           125.645          estimate D2E/DX2                !
 ! A51   A(30,31,33)           117.9521         estimate D2E/DX2                !
 ! A52   A(32,31,33)           116.402          estimate D2E/DX2                !
 ! A53   A(17,32,31)           114.8031         estimate D2E/DX2                !
 ! A54   A(31,33,34)           114.9339         estimate D2E/DX2                !
 ! A55   A(31,33,35)           107.1375         estimate D2E/DX2                !
 ! A56   A(31,33,36)           106.8309         estimate D2E/DX2                !
 ! A57   A(34,33,35)           110.9491         estimate D2E/DX2                !
 ! A58   A(34,33,36)           110.7506         estimate D2E/DX2                !
 ! A59   A(35,33,36)           105.7308         estimate D2E/DX2                !
 ! A60   A(33,34,37)           110.9522         estimate D2E/DX2                !
 ! A61   A(33,34,38)           110.9579         estimate D2E/DX2                !
 ! A62   A(33,34,39)           110.9516         estimate D2E/DX2                !
 ! A63   A(37,34,38)           108.2591         estimate D2E/DX2                !
 ! A64   A(37,34,39)           107.2389         estimate D2E/DX2                !
 ! A65   A(38,34,39)           108.3455         estimate D2E/DX2                !
 ! A66   L(7,16,30,2,-1)       171.905          estimate D2E/DX2                !
 ! A67   L(9,17,32,1,-1)       183.9727         estimate D2E/DX2                !
 ! A68   L(7,16,30,2,-2)       179.6176         estimate D2E/DX2                !
 ! A69   L(9,17,32,1,-2)       179.9451         estimate D2E/DX2                !
 ! D1    D(6,1,2,3)             -0.0323         estimate D2E/DX2                !
 ! D2    D(6,1,2,25)          -179.9858         estimate D2E/DX2                !
 ! D3    D(27,1,2,3)           179.9211         estimate D2E/DX2                !
 ! D4    D(27,1,2,25)           -0.0324         estimate D2E/DX2                !
 ! D5    D(2,1,6,5)             -0.0014         estimate D2E/DX2                !
 ! D6    D(2,1,6,26)          -179.9924         estimate D2E/DX2                !
 ! D7    D(27,1,6,5)          -179.9548         estimate D2E/DX2                !
 ! D8    D(27,1,6,26)            0.0542         estimate D2E/DX2                !
 ! D9    D(2,1,27,28)         -179.6841         estimate D2E/DX2                !
 ! D10   D(2,1,27,29)            0.3092         estimate D2E/DX2                !
 ! D11   D(6,1,27,28)            0.27           estimate D2E/DX2                !
 ! D12   D(6,1,27,29)         -179.7367         estimate D2E/DX2                !
 ! D13   D(1,2,3,4)              0.0404         estimate D2E/DX2                !
 ! D14   D(1,2,3,14)          -179.9264         estimate D2E/DX2                !
 ! D15   D(25,2,3,4)           179.9934         estimate D2E/DX2                !
 ! D16   D(25,2,3,14)            0.0267         estimate D2E/DX2                !
 ! D17   D(2,3,4,5)             -0.0153         estimate D2E/DX2                !
 ! D18   D(2,3,4,7)            179.9739         estimate D2E/DX2                !
 ! D19   D(14,3,4,5)           179.9522         estimate D2E/DX2                !
 ! D20   D(14,3,4,7)            -0.0586         estimate D2E/DX2                !
 ! D21   D(3,4,5,6)             -0.0187         estimate D2E/DX2                !
 ! D22   D(3,4,5,15)          -179.9533         estimate D2E/DX2                !
 ! D23   D(7,4,5,6)            179.9931         estimate D2E/DX2                !
 ! D24   D(7,4,5,15)             0.0585         estimate D2E/DX2                !
 ! D25   D(3,4,7,8)            179.5551         estimate D2E/DX2                !
 ! D26   D(3,4,7,16)             0.3045         estimate D2E/DX2                !
 ! D27   D(5,4,7,8)             -0.4565         estimate D2E/DX2                !
 ! D28   D(5,4,7,16)          -179.707          estimate D2E/DX2                !
 ! D29   D(4,5,6,1)              0.0269         estimate D2E/DX2                !
 ! D30   D(4,5,6,26)          -179.9822         estimate D2E/DX2                !
 ! D31   D(15,5,6,1)           179.9606         estimate D2E/DX2                !
 ! D32   D(15,5,6,26)           -0.0485         estimate D2E/DX2                !
 ! D33   D(4,7,8,9)            179.9537         estimate D2E/DX2                !
 ! D34   D(4,7,8,10)            -0.2367         estimate D2E/DX2                !
 ! D35   D(16,7,8,9)            -0.8101         estimate D2E/DX2                !
 ! D36   D(16,7,8,10)          178.9995         estimate D2E/DX2                !
 ! D37   D(4,7,30,31)         -176.3899         estimate D2E/DX2                !
 ! D38   D(8,7,30,31)            4.5374         estimate D2E/DX2                !
 ! D39   D(7,8,9,11)          -179.7922         estimate D2E/DX2                !
 ! D40   D(7,8,9,17)            -2.3011         estimate D2E/DX2                !
 ! D41   D(10,8,9,11)            0.3975         estimate D2E/DX2                !
 ! D42   D(10,8,9,17)          177.8886         estimate D2E/DX2                !
 ! D43   D(8,9,11,12)         -176.0607         estimate D2E/DX2                !
 ! D44   D(8,9,11,18)           62.2999         estimate D2E/DX2                !
 ! D45   D(8,9,11,19)          -54.647          estimate D2E/DX2                !
 ! D46   D(17,9,11,12)           6.3838         estimate D2E/DX2                !
 ! D47   D(17,9,11,18)        -115.2557         estimate D2E/DX2                !
 ! D48   D(17,9,11,19)         127.7974         estimate D2E/DX2                !
 ! D49   D(8,9,32,31)            6.0839         estimate D2E/DX2                !
 ! D50   D(11,9,32,31)        -176.339          estimate D2E/DX2                !
 ! D51   D(9,11,12,13)        -179.9346         estimate D2E/DX2                !
 ! D52   D(9,11,12,20)          58.0014         estimate D2E/DX2                !
 ! D53   D(9,11,12,21)         -57.702          estimate D2E/DX2                !
 ! D54   D(18,11,12,13)        -58.2551         estimate D2E/DX2                !
 ! D55   D(18,11,12,20)        179.6809         estimate D2E/DX2                !
 ! D56   D(18,11,12,21)         63.9775         estimate D2E/DX2                !
 ! D57   D(19,11,12,13)         59.0168         estimate D2E/DX2                !
 ! D58   D(19,11,12,20)        -63.0472         estimate D2E/DX2                !
 ! D59   D(19,11,12,21)       -178.7506         estimate D2E/DX2                !
 ! D60   D(11,12,13,22)        -60.0732         estimate D2E/DX2                !
 ! D61   D(11,12,13,23)        179.8442         estimate D2E/DX2                !
 ! D62   D(11,12,13,24)         59.8079         estimate D2E/DX2                !
 ! D63   D(20,12,13,22)         61.2671         estimate D2E/DX2                !
 ! D64   D(20,12,13,23)        -58.8155         estimate D2E/DX2                !
 ! D65   D(20,12,13,24)       -178.8517         estimate D2E/DX2                !
 ! D66   D(21,12,13,22)        178.3132         estimate D2E/DX2                !
 ! D67   D(21,12,13,23)         58.2306         estimate D2E/DX2                !
 ! D68   D(21,12,13,24)        -61.8057         estimate D2E/DX2                !
 ! D69   D(16,30,31,32)         -0.5569         estimate D2E/DX2                !
 ! D70   D(16,30,31,33)        179.7841         estimate D2E/DX2                !
 ! D71   D(30,31,32,17)         -2.5112         estimate D2E/DX2                !
 ! D72   D(33,31,32,17)        177.1526         estimate D2E/DX2                !
 ! D73   D(30,31,33,34)         -3.3421         estimate D2E/DX2                !
 ! D74   D(30,31,33,35)       -127.1192         estimate D2E/DX2                !
 ! D75   D(30,31,33,36)        119.9455         estimate D2E/DX2                !
 ! D76   D(32,31,33,34)        176.9673         estimate D2E/DX2                !
 ! D77   D(32,31,33,35)         53.1902         estimate D2E/DX2                !
 ! D78   D(32,31,33,36)        -59.7452         estimate D2E/DX2                !
 ! D79   D(31,33,34,37)        -59.6561         estimate D2E/DX2                !
 ! D80   D(31,33,34,38)        179.951          estimate D2E/DX2                !
 ! D81   D(31,33,34,39)         59.4494         estimate D2E/DX2                !
 ! D82   D(35,33,34,37)         62.0754         estimate D2E/DX2                !
 ! D83   D(35,33,34,38)        -58.3175         estimate D2E/DX2                !
 ! D84   D(35,33,34,39)       -178.8191         estimate D2E/DX2                !
 ! D85   D(36,33,34,37)        179.1723         estimate D2E/DX2                !
 ! D86   D(36,33,34,38)         58.7794         estimate D2E/DX2                !
 ! D87   D(36,33,34,39)        -61.7222         estimate D2E/DX2                !
 --------------------------------------------------------------------------------
 Trust Radius=3.00D-01 FncErr=1.00D-07 GrdErr=1.00D-06
 Number of steps in this run=    206 maximum allowed number of steps=    234.
 GradGradGradGradGradGradGradGradGradGradGradGradGradGradGradGradGradGrad

                          Input orientation:                          
 ---------------------------------------------------------------------
 Center     Atomic      Atomic             Coordinates (Angstroms)
 Number     Number       Type             X           Y           Z
 ---------------------------------------------------------------------
      1          6           0       -4.023633    3.973926   -1.361566
      2          6           0       -4.122669    2.655337   -0.906808
      3          6           0       -3.016482    2.050892   -0.347902
      4          6           0       -1.786791    2.747005   -0.228728
      5          6           0       -1.711688    4.079653   -0.695352
      6          6           0       -2.826213    4.680545   -1.256279
      7          7           0       -0.748257    2.056074    0.341929
      8          6           0        0.551979    2.506835    0.563281
      9          7           0        1.337382    1.577850    1.148285
     10          8           0        0.947762    3.633988    0.254968
     11          6           0        2.720152    1.881330    1.454808
     12          6           0        3.414750    0.646840    2.017113
     13          6           0        4.875862    0.930248    2.353724
     14          1           0       -3.066958    1.026683    0.012049
     15          1           0       -0.779509    4.619446   -0.610306
     16          1           0       -0.971441    1.076997    0.628136
     17          1           0        0.960113    0.651411    1.422511
     18          1           0        2.775901    2.708643    2.177181
     19          1           0        3.232577    2.224528    0.545998
     20          1           0        3.343870   -0.167647    1.286324
     21          1           0        2.877752    0.305151    2.909839
     22          1           0        5.433108    1.244619    1.463283
     23          1           0        5.368809    0.040902    2.759676
     24          1           0        4.961964    1.729539    3.099318
     25          1           0       -5.061687    2.121249   -0.997005
     26          1           0       -2.774169    5.701986   -1.615941
     27          7           0       -5.179501    4.613365   -1.950379
     28          8           0       -5.070408    5.768528   -2.348532
     29          8           0       -6.223538    3.974361   -2.028242
     30          8           0       -1.561173   -0.500147    1.006247
     31          6           0       -0.753002   -1.260468    1.607186
     32          8           0        0.425561   -0.965824    1.934672
     33          6           0       -1.229550   -2.672923    1.971399
     34          6           0       -2.682384   -2.969491    1.624995
     35          1           0       -1.046526   -2.809162    3.044174
     36          1           0       -0.557345   -3.375977    1.463238
     37          1           0       -3.356529   -2.279459    2.141547
     38          1           0       -2.952837   -3.992903    1.911312
     39          1           0       -2.860093   -2.853843    0.551788
 ---------------------------------------------------------------------
                    Distance matrix (angstroms):
                    1          2          3          4          5
     1  C    0.000000
     2  C    1.398317   0.000000
     3  C    2.395815   1.378906   0.000000
     4  C    2.791437   2.434034   1.418068   0.000000
     5  C    2.408342   2.808242   2.437023   1.413976   0.000000
     6  C    1.394349   2.429896   2.788625   2.423806   1.384875
     7  N    4.160305   3.647618   2.370810   1.371710   2.469620
     8  C    5.176255   4.902607   3.711072   2.480888   3.030198
     9  N    6.386002   5.932668   4.628010   3.608815   4.353716
    10  O    5.238655   5.293085   4.311018   2.915215   2.859090
    11  C    7.601944   7.280146   6.015604   4.888376   5.394165
    12  C    8.821254   8.330431   6.994670   6.042394   6.739588
    13  C   10.112782   9.725254   8.416871   7.372965   7.912738
    14  H    3.389438   2.147403   1.086792   2.157849   3.414352
    15  H    3.391965   3.888748   3.416193   2.160151   1.080540
    16  H    4.654781   3.844145   2.466437   2.046445   3.363856
    17  H    6.605143   5.939371   4.572332   3.829307   4.834946
    18  H    7.768998   7.556725   6.352982   5.158297   5.501778
    19  H    7.704011   7.509720   6.315057   5.105609   5.424776
    20  H    8.856865   8.278181   6.931572   6.092148   6.893857
    21  H    8.906960   8.312404   6.957189   6.129536   6.950340
    22  H   10.240060   9.945870   8.679057   7.566175   7.984060
    23  H   10.985048  10.505548   9.165708   8.213170   8.853370
    24  H   10.279967   9.971796   8.697252   7.593209   8.028710
    25  H    2.154733   1.084039   2.146893   3.421515   3.892151
    26  H    2.147571   3.406376   3.872613   3.410453   2.146699
    27  N    1.446241   2.457602   3.716565   4.237672   3.726348
    28  O    2.300094   3.559317   4.694886   4.940173   4.106860
    29  O    2.298704   2.722331   4.099815   4.942608   4.705792
    30  O    5.629172   4.492006   3.234106   3.481388   4.888012
    31  C    6.849044   5.745290   4.462153   4.527598   5.893865
    32  O    7.420353   6.470951   5.114526   4.833208   6.077968
    33  C    7.943309   6.711525   5.557581   5.875942   7.276077
    34  C    7.676558   6.334283   5.404460   6.075912   7.484430
    35  H    8.618817   7.411725   6.245560   6.490830   7.866528
    36  H    8.603241   7.396310   6.227237   6.470332   7.847193
    37  H    7.198726   5.850782   5.006488   5.774740   7.154844
    38  H    8.679211   7.315012   6.452561   7.166994   8.573290
    39  H    7.185623   5.837180   4.989020   5.755926   7.137756
                    6          7          8          9         10
     6  C    0.000000
     7  N    3.709450   0.000000
     8  C    4.409989   1.393842   0.000000
     9  N    5.722253   2.286657   1.349852   0.000000
    10  O    4.197861   2.318157   1.233764   2.275417   0.000000
    11  C    6.778478   3.646765   2.426324   1.448485   2.766368
    12  C    8.120068   4.703490   3.710616   2.436616   4.256083
    13  C    9.296172   6.078282   4.938347   3.793851   5.210082
    14  H    3.875219   2.558289   3.948596   4.581815   4.793227
    15  H    2.147094   2.734703   2.759220   4.101851   2.168708
    16  H    4.469537   1.044183   2.090323   2.419106   3.218819
    17  H    6.143786   2.461558   2.085054   1.037218   3.202979
    18  H    6.860082   4.026622   2.755218   2.099203   2.809494
    19  H    6.781531   3.989619   2.695478   2.091102   2.700307
    20  H    8.248620   4.752086   3.933230   2.663045   4.610581
    21  H    8.308781   4.775755   3.970260   2.663751   4.674864
    22  H    9.349759   6.334442   5.121387   4.121314   5.223738
    23  H   10.237802   6.879311   5.840105   4.605561   6.223302
    24  H    9.398690   6.349523   5.146225   4.119117   5.275516
    25  H    3.408015   4.516932   5.839214   6.770941   6.322127
    26  H    1.084162   4.607630   5.101104   6.446263   4.650773
    27  N    2.454435   5.606276   6.603470   7.828527   6.585293
    28  O    2.722707   6.300943   7.122396   8.417202   6.895857
    29  O    3.554777   6.267076   7.401166   8.544069   7.533687
    30  O    5.793006   2.763407   3.701834   3.569296   4.893899
    31  C    6.913268   3.549697   4.121321   3.554764   5.355071
    32  O    7.255184   3.612000   3.735780   2.814267   4.924669
    33  C    8.187840   5.024961   5.655664   5.033461   6.889408
    34  C    8.175909   5.535650   6.448139   6.088028   7.659038
    35  H    8.817987   5.573295   6.080285   5.340719   7.298700
    36  H    8.800630   5.549861   6.053759   5.313152   7.270823
    37  H    7.763254   5.370154   6.377771   6.156151   7.553472
    38  H    9.234629   6.626708   7.506498   7.072586   8.725113
    39  H    7.748372   5.348942   6.354466   6.133067   7.528600
                   11         12         13         14         15
    11  C    0.000000
    12  C    1.524015   0.000000
    13  C    2.521843   1.525934   0.000000
    14  H    6.025165   6.795374   8.281372   0.000000
    15  H    4.899959   6.346396   7.374203   4.304381   0.000000
    16  H    3.867583   4.620927   6.098372   2.184785   3.757595
    17  H    2.147436   2.525632   4.034600   4.283402   4.785806
    18  H    1.099716   2.164436   2.757479   6.454129   4.905323
    19  H    1.098317   2.164825   2.764673   6.434600   4.813472
    20  H    2.148422   1.096570   2.166036   6.644465   6.596645
    21  H    2.150882   1.096393   2.166207   6.652621   6.661840
    22  H    2.786683   2.176657   1.096466   8.625815   7.367892
    23  H    3.479259   2.176443   1.094865   8.926555   8.373868
    24  H    2.784452   2.176528   1.096444   8.630690   7.421414
    25  H    8.162473   9.116402  10.554655   2.489018   4.972683
    26  H    7.363048   8.778173   9.851431   4.959289   2.482310
    27  N    9.025731  10.263307  11.541272   4.601984   4.599539
    28  O    9.500975  10.829980  12.018671   5.663149   4.770076
    29  O    9.823544  10.969681  12.315231   4.776567   5.662520
    30  O    4.919592   5.205502   6.730316   2.363689   5.425355
    31  C    4.685821   4.601742   6.086104   3.623522   6.284215
    32  O    3.688049   3.397460   4.855499   4.456932   6.254946
    33  C    6.050474   5.708979   7.099653   4.571892   7.748960
    34  C    7.262701   7.099764   8.536164   4.326534   8.136920
    35  H    6.222111   5.736008   7.038081   5.290523   8.283160
    36  H    6.195267   5.680437   6.989726   5.271387   8.262913
    37  H    7.396609   7.377596   8.838523   3.943245   7.861845
    38  H    8.179108   7.879376   9.258599   5.368097   9.233334
    39  H    7.374039   7.333186   8.798370   3.923339   7.844064
                   16         17         18         19         20
    16  H    0.000000
    17  H    2.131445   0.000000
    18  H    4.370855   2.845842   0.000000
    19  H    4.358594   2.899494   1.761726   0.000000
    20  H    4.539192   2.524223   3.064189   2.506585   0.000000
    21  H    4.540727   2.451403   2.514743   3.065559   1.754025
    22  H    6.460945   4.512343   3.116691   2.577589   2.527988
    23  H    6.768732   4.647293   3.765543   3.772543   2.512894
    24  H    6.460483   4.470889   2.566681   3.123337   3.082934
    25  H    4.523457   6.654064   8.476336   8.437200   9.005889
    26  H    5.447590   6.977490   7.358747   7.269642   8.961369
    27  N    6.071442   8.047877   9.162594   9.094036  10.294764
    28  O    6.904531   8.762011   9.560833   9.480390  10.920184
    29  O    6.560151   8.634497  10.013866   9.955237  10.939738
    30  O    1.725728   2.802900   5.520655   5.533148   4.924272
    31  C    2.543619   2.573742   5.341525   5.399645   4.252244
    32  O    2.798530   1.778624   4.368594   4.470582   3.094184
    33  C    3.991601   4.018345   6.711723   6.776974   5.259459
    34  C    4.505011   5.140011   7.895504   7.945366   6.654380
    35  H    4.576583   4.316474   6.768219   7.063260   5.416938
    36  H    4.549489   4.303973   6.974441   6.824257   5.054123
    37  H    4.386895   5.266916   7.905006   8.139287   7.077182
    38  H    5.592527   6.092598   8.820421   8.875803   7.394032
    39  H    4.361690   5.257275   8.083785   7.931615   6.800320
                   21         22         23         24         25
    21  H    0.000000
    22  H    3.083013   0.000000
    23  H    2.509531   1.770227   0.000000
    24  H    2.531545   1.770236   1.769851   0.000000
    25  H    9.033069  10.814907  11.279883  10.835445   0.000000
    26  H    9.030655   9.834080  10.839834   9.892510   4.293891
    27  N   10.348997  11.645986  12.424125  11.690389   2.670851
    28  O   10.985090  12.054854  12.956726  12.109541   3.889646
    29  O   10.985501  12.470751  13.144534  12.507859   2.418134
    30  O    4.896553   7.223092   7.168815   7.204427   4.810232
    31  C    4.162985   6.675637   6.363834   6.620229   6.064865
    32  O    2.929091   5.493978   5.111735   5.403733   6.945116
    33  C    5.159411   7.745729   7.178062   7.680411   6.817681
    34  C    6.579455   9.145823   8.670161   9.093435   6.200936
    35  H    5.011681   7.804998   7.025691   7.530258   7.534030
    36  H    5.238630   7.565410   6.962407   7.694531   7.520731
    37  H    6.792403   9.494044   9.049734   9.283679   5.667831
    38  H    7.312051   9.897294   9.286608   9.838789   7.091432
    39  H    6.961502   9.295450   8.998286   9.417105   5.656617
                   26         27         28         29         30
    26  H    0.000000
    27  N    2.661309   0.000000
    28  O    2.411189   1.226715   0.000000
    29  O    3.879798   1.226541   2.156695   0.000000
    30  O    6.842053   6.926900   7.928780   7.139117   0.000000
    31  C    7.934068   8.170194   9.148469   8.399198   1.261886
    32  O    8.203951   8.811225   9.690356   9.182626   2.241861
    33  C    9.240885   9.169103  10.230937   9.226236   2.400510
    34  C    9.257787   8.747491   9.891641   8.608310   2.781658
    35  H    9.856017   9.854996  10.901820   9.927086   3.122428
    36  H    9.838957   9.841072  10.886657   9.915828   3.080083
    37  H    8.840890   8.220590   9.373808   8.044697   2.770949
    38  H   10.318155   9.692190  10.858909   9.470737   3.867197
    39  H    8.826588   8.209731   9.361764   8.037020   2.726465
                   31         32         33         34         35
    31  C    0.000000
    32  O    1.258202   0.000000
    33  C    1.534528   2.378009   0.000000
    34  C    2.577517   3.710782   1.522719   0.000000
    35  H    2.132966   2.606900   1.096770   2.171591   0.000000
    36  H    2.129408   2.645220   1.097439   2.169605   1.749266
    37  H    2.846442   4.009069   2.169747   1.094277   2.536027
    38  H    3.521074   4.536223   2.171560   1.096582   2.513690
    39  H    2.844739   4.033919   2.169492   1.093950   3.082695
                   36         37         38         39
    36  H    0.000000
    37  H    3.081864   0.000000
    38  H    2.513911   1.775349   0.000000
    39  H    2.531011   1.761731   1.776053   0.000000
 Stoichiometry    C13H18N3O5(1-)
 Framework group  C1[X(C13H18N3O5)]
 Deg. of freedom   111
 Full point group                 C1      NOp   1
 Largest Abelian subgroup         C1      NOp   1
 Largest concise Abelian subgroup C1      NOp   1
                         Standard orientation:                         
 ---------------------------------------------------------------------
 Center     Atomic      Atomic             Coordinates (Angstroms)
 Number     Number       Type             X           Y           Z
 ---------------------------------------------------------------------
      1          6           0       -3.982842   -0.259740    0.003247
      2          6           0       -3.205197    0.902343    0.014251
      3          6           0       -1.830652    0.792859    0.009850
      4          6           0       -1.199898   -0.477102   -0.006472
      5          6           0       -2.007683   -1.637567   -0.017917
      6          6           0       -3.387595   -1.520547   -0.012709
      7          7           0        0.171807   -0.476195   -0.010130
      8          6           0        1.021982   -1.580712   -0.016551
      9          7           0        2.327691   -1.238345   -0.019755
     10          8           0        0.626394   -2.749336   -0.015647
     11          6           0        3.349906   -2.264531   -0.031030
     12          6           0        4.731379   -1.628304    0.065770
     13          6           0        5.835555   -2.681468    0.055030
     14          1           0       -1.203785    1.680589    0.019381
     15          1           0       -1.537822   -2.610532   -0.029621
     16          1           0        0.614477    0.469397    0.004607
     17          1           0        2.622043   -0.244330   -0.053115
     18          1           0        3.273866   -2.865753   -0.948704
     19          1           0        3.189613   -2.953951    0.808795
     20          1           0        4.786000   -1.029298    0.982652
     21          1           0        4.865629   -0.927439   -0.766602
     22          1           0        5.731372   -3.372408    0.900007
     23          1           0        6.825494   -2.218581    0.122007
     24          1           0        5.806257   -3.275643   -0.865995
     25          1           0       -3.685250    1.874213    0.026842
     26          1           0       -4.011757   -2.406977   -0.021141
     27          7           0       -5.425063   -0.152162    0.009516
     28          8           0       -6.089294   -1.183476    0.005605
     29          8           0       -5.926756    0.967045    0.018627
     30          8           0        1.118706    2.119398    0.041844
     31          6           0        2.363247    2.316234   -0.026930
     32          8           0        3.243753    1.421176   -0.108503
     33          6           0        2.864529    3.766378   -0.002920
     34          6           0        1.769214    4.823861    0.023327
     35          1           0        3.515605    3.897753   -0.875700
     36          1           0        3.518463    3.862075    0.873200
     37          1           0        1.123844    4.740692   -0.856458
     38          1           0        2.198438    5.832804    0.040427
     39          1           0        1.132370    4.705621    0.904903
 ---------------------------------------------------------------------
 Rotational constants (GHZ):      0.3964755      0.1372716      0.1023057
 General basis read from cards:  (6D, 7F)
 There are   435 symmetry adapted cartesian basis functions of A   symmetry.
 There are   435 symmetry adapted basis functions of A   symmetry.
   435 basis functions,   744 primitive gaussians,   435 cartesian basis functions
    79 alpha electrons       79 beta electrons
       nuclear repulsion energy      1627.8406364664 Hartrees.
 NAtoms=   39 NActive=   39 NUniq=   39 SFac= 1.00D+00 NAtFMM=   60 NAOKFM=F Big=F
 Integral buffers will be    131072 words long.
 Raffenetti 2 integral format.
 Two-electron integral symmetry is turned on.
 ------------------------------------------------------------------------------
 Polarizable Continuum Model (PCM)
 =================================
 Model                : PCM (using non-symmetric T matrix).
 Atomic radii         : SMD-Coulomb.
 Polarization charges : Total charges.
 Charge compensation  : None.
 Solution method      : On-the-fly selection.
 Cavity type          : VdW (van der Waals Surface) (Alpha=1.000).
 Cavity algorithm     : GePol (No added spheres)
                        Default sphere list used, NSphG=   39.
                        Lebedev-Laikov grids with approx.  5.0 points / Ang**2.
                        Smoothing algorithm: York/Karplus (Gamma=1.0000).
                        Polarization charges: spherical gaussians, with
                                              point-specific exponents (IZeta= 3).
                        Self-potential: point-specific (ISelfS= 7).
                        Self-field    : sphere-specific E.n sum rule (ISelfD= 2).
 1st derivatives      : Analytical E(r).r(x)/FMM algorithm (CHGder, D1EAlg=3).
                        Cavity 1st derivative terms included.
 Solvent              : Water, Eps=  78.355300 Eps(inf)=   1.777849
 ------------------------------------------------------------------------------
 ------------------------------------------------------------------------------
 Atomic radii for non-electrostatic terms: SMD-CDS.
 ------------------------------------------------------------------------------
 Nuclear repulsion after PCM non-electrostatic terms =     1627.8567787736 Hartrees.
 One-electron integrals computed using PRISM.
 NBasis=   435 RedAO= T EigKep=  1.21D-06  NBF=   435
 NBsUse=   434 1.00D-06 EigRej=  7.71D-07 NBFU=   434
 ExpMin= 4.38D-02 ExpMax= 5.48D+03 ExpMxC= 8.25D+02 IAcc=3 IRadAn=         5 AccDes= 0.00D+00
 Harris functional with IExCor= 1009 and IRadAn=       5 diagonalized for initial guess.
 HarFok:  IExCor= 1009 AccDes= 0.00D+00 IRadAn=         5 IDoV= 1 UseB2=F ITyADJ=14
 ICtDFT=  3500011 ScaDFX=  1.000000  1.000000  1.000000  1.000000
 FoFCou: FMM=F IPFlag=           0 FMFlag=      100000 FMFlg1=           0
         NFxFlg=           0 DoJE=T BraDBF=F KetDBF=T FulRan=T
         wScrn=  0.000000 ICntrl=     500 IOpCl=  0 I1Cent=   200000004 NGrid=           0
         NMat0=    1 NMatS0=      1 NMatT0=    0 NMatD0=    1 NMtDS0=    0 NMtDT0=    0
 Petite list used in FoFCou.
 Requested convergence on RMS density matrix=1.00D-08 within 128 cycles.
 Requested convergence on MAX density matrix=1.00D-06.
 Requested convergence on             energy=1.00D-06.
 No special actions if energy rises.
 Inv3:  Mode=1 IEnd=    25526667.
 Iteration    1 A*A^-1 deviation from unit magnitude is 5.22D-15 for   1094.
 Iteration    1 A*A^-1 deviation from orthogonality  is 2.92D-15 for   2485    234.
 Iteration    1 A^-1*A deviation from unit magnitude is 4.44D-15 for   2913.
 Iteration    1 A^-1*A deviation from orthogonality  is 5.11D-12 for   2773   2757.
 Error on total polarization charges =  0.07874
 SCF Done:  E(RM062X) =  -1046.33163593     A.U. after   15 cycles
            NFock= 15  Conv=0.91D-08     -V/T= 2.0085
 SMD-CDS (non-electrostatic) energy       (kcal/mol) =      10.13
 (included in total energy above)

 **********************************************************************

            Population analysis using the SCF density.

 **********************************************************************

 Orbital symmetries:
       Occupied  (A) (A) (A) (A) (A) (A) (A) (A) (A) (A) (A) (A)
                 (A) (A) (A) (A) (A) (A) (A) (A) (A) (A) (A) (A)
                 (A) (A) (A) (A) (A) (A) (A) (A) (A) (A) (A) (A)
                 (A) (A) (A) (A) (A) (A) (A) (A) (A) (A) (A) (A)
                 (A) (A) (A) (A) (A) (A) (A) (A) (A) (A) (A) (A)
                 (A) (A) (A) (A) (A) (A) (A) (A) (A) (A) (A) (A)
                 (A) (A) (A) (A) (A) (A) (A)
       Virtual   (A) (A) (A) (A) (A) (A) (A) (A) (A) (A) (A) (A)
                 (A) (A) (A) (A) (A) (A) (A) (A) (A) (A) (A) (A)
                 (A) (A) (A) (A) (A) (A) (A) (A) (A) (A) (A) (A)
                 (A) (A) (A) (A) (A) (A) (A) (A) (A) (A) (A) (A)
                 (A) (A) (A) (A) (A) (A) (A) (A) (A) (A) (A) (A)
                 (A) (A) (A) (A) (A) (A) (A) (A) (A) (A) (A) (A)
                 (A) (A) (A) (A) (A) (A) (A) (A) (A) (A) (A) (A)
                 (A) (A) (A) (A) (A) (A) (A) (A) (A) (A) (A) (A)
                 (A) (A) (A) (A) (A) (A) (A) (A) (A) (A) (A) (A)
                 (A) (A) (A) (A) (A) (A) (A) (A) (A) (A) (A) (A)
                 (A) (A) (A) (A) (A) (A) (A) (A) (A) (A) (A) (A)
                 (A) (A) (A) (A) (A) (A) (A) (A) (A) (A) (A) (A)
                 (A) (A) (A) (A) (A) (A) (A) (A) (A) (A) (A) (A)
                 (A) (A) (A) (A) (A) (A) (A) (A) (A) (A) (A) (A)
                 (A) (A) (A) (A) (A) (A) (A) (A) (A) (A) (A) (A)
                 (A) (A) (A) (A) (A) (A) (A) (A) (A) (A) (A) (A)
                 (A) (A) (A) (A) (A) (A) (A) (A) (A) (A) (A) (A)
                 (A) (A) (A) (A) (A) (A) (A) (A) (A) (A) (A) (A)
                 (A) (A) (A) (A) (A) (A) (A) (A) (A) (A) (A) (A)
                 (A) (A) (A) (A) (A) (A) (A) (A) (A) (A) (A) (A)
                 (A) (A) (A) (A) (A) (A) (A) (A) (A) (A) (A) (A)
                 (A) (A) (A) (A) (A) (A) (A) (A) (A) (A) (A) (A)
                 (A) (A) (A) (A) (A) (A) (A) (A) (A) (A) (A) (A)
                 (A) (A) (A) (A) (A) (A) (A) (A) (A) (A) (A) (A)
                 (A) (A) (A) (A) (A) (A) (A) (A) (A) (A) (A) (A)
                 (A) (A) (A) (A) (A) (A) (A) (A) (A) (A) (A) (A)
                 (A) (A) (A) (A) (A) (A) (A) (A) (A) (A) (A) (A)
                 (A) (A) (A) (A) (A) (A) (A) (A) (A) (A) (A) (A)
                 (A) (A) (A) (A) (A) (A) (A) (A) (A) (A) (A) (A)
                 (A) (A) (A) (A) (A) (A) (A)
 The electronic state is 1-A.
 Alpha  occ. eigenvalues --  -19.69255 -19.69243 -19.62124 -19.60924 -19.60651
 Alpha  occ. eigenvalues --  -15.02467 -14.79071 -14.77066 -10.68671 -10.65232
 Alpha  occ. eigenvalues --  -10.62138 -10.60638 -10.57715 -10.57679 -10.57116
 Alpha  occ. eigenvalues --  -10.56212 -10.55956 -10.53837 -10.53565 -10.52806
 Alpha  occ. eigenvalues --  -10.52571  -1.37619  -1.18832  -1.18130  -1.17121
 Alpha  occ. eigenvalues --   -1.07575  -1.05960  -1.02392  -0.98444  -0.90287
 Alpha  occ. eigenvalues --   -0.87231  -0.86375  -0.85578  -0.80475  -0.76127
 Alpha  occ. eigenvalues --   -0.72618  -0.71969  -0.69632  -0.67904  -0.66478
 Alpha  occ. eigenvalues --   -0.65192  -0.63294  -0.63120  -0.61370  -0.61075
 Alpha  occ. eigenvalues --   -0.58834  -0.55301  -0.54121  -0.53582  -0.53477
 Alpha  occ. eigenvalues --   -0.52820  -0.52139  -0.51813  -0.51254  -0.50507
 Alpha  occ. eigenvalues --   -0.49573  -0.47666  -0.46999  -0.46397  -0.46113
 Alpha  occ. eigenvalues --   -0.44634  -0.44360  -0.42061  -0.41692  -0.41364
 Alpha  occ. eigenvalues --   -0.40627  -0.39565  -0.39507  -0.39499  -0.39283
 Alpha  occ. eigenvalues --   -0.39105  -0.38566  -0.35702  -0.34315  -0.33140
 Alpha  occ. eigenvalues --   -0.32679  -0.32251  -0.31967  -0.27221
 Alpha virt. eigenvalues --   -0.06225   0.01046   0.01916   0.02951   0.03408
 Alpha virt. eigenvalues --    0.03527   0.04062   0.04347   0.04359   0.04718
 Alpha virt. eigenvalues --    0.05597   0.06112   0.06575   0.06668   0.07034
 Alpha virt. eigenvalues --    0.07264   0.08054   0.08261   0.08685   0.08695
 Alpha virt. eigenvalues --    0.09326   0.09605   0.09810   0.09927   0.10331
 Alpha virt. eigenvalues --    0.10477   0.11302   0.11685   0.12732   0.12975
 Alpha virt. eigenvalues --    0.13233   0.13322   0.13851   0.14350   0.14750
 Alpha virt. eigenvalues --    0.15103   0.15579   0.15851   0.15978   0.16649
 Alpha virt. eigenvalues --    0.17377   0.17989   0.18250   0.18498   0.18933
 Alpha virt. eigenvalues --    0.19511   0.19932   0.20576   0.20945   0.21332
 Alpha virt. eigenvalues --    0.21553   0.22172   0.22346   0.22608   0.23113
 Alpha virt. eigenvalues --    0.23460   0.23841   0.24269   0.24484   0.24669
 Alpha virt. eigenvalues --    0.24907   0.25316   0.25450   0.25511   0.26300
 Alpha virt. eigenvalues --    0.26398   0.26840   0.27200   0.27396   0.27612
 Alpha virt. eigenvalues --    0.27862   0.28178   0.28505   0.28990   0.29437
 Alpha virt. eigenvalues --    0.29824   0.29971   0.30298   0.31008   0.31417
 Alpha virt. eigenvalues --    0.31828   0.31910   0.32052   0.32514   0.32978
 Alpha virt. eigenvalues --    0.33325   0.33689   0.33976   0.34320   0.34545
 Alpha virt. eigenvalues --    0.34838   0.35077   0.36027   0.36298   0.36780
 Alpha virt. eigenvalues --    0.37006   0.37261   0.37480   0.37871   0.38898
 Alpha virt. eigenvalues --    0.39258   0.39375   0.39959   0.40859   0.41161
 Alpha virt. eigenvalues --    0.41750   0.43505   0.43770   0.44410   0.45921
 Alpha virt. eigenvalues --    0.46434   0.47091   0.47750   0.48718   0.49057
 Alpha virt. eigenvalues --    0.50214   0.51982   0.52619   0.53404   0.54397
 Alpha virt. eigenvalues --    0.54983   0.55340   0.58837   0.59561   0.61864
 Alpha virt. eigenvalues --    0.65331   0.68714   0.69604   0.70511   0.71029
 Alpha virt. eigenvalues --    0.71453   0.72566   0.74263   0.74950   0.75367
 Alpha virt. eigenvalues --    0.75661   0.76286   0.77252   0.77828   0.78263
 Alpha virt. eigenvalues --    0.78989   0.79678   0.80174   0.80889   0.81515
 Alpha virt. eigenvalues --    0.82144   0.82884   0.84304   0.84926   0.85870
 Alpha virt. eigenvalues --    0.86930   0.87263   0.88836   0.90705   0.91381
 Alpha virt. eigenvalues --    0.92226   0.93673   0.94379   0.95565   0.97352
 Alpha virt. eigenvalues --    0.99244   0.99400   1.00532   1.01858   1.03200
 Alpha virt. eigenvalues --    1.03851   1.05039   1.05504   1.06034   1.07146
 Alpha virt. eigenvalues --    1.08103   1.08297   1.08838   1.09674   1.10627
 Alpha virt. eigenvalues --    1.12002   1.12828   1.14612   1.16418   1.16942
 Alpha virt. eigenvalues --    1.18084   1.18551   1.18730   1.20714   1.21826
 Alpha virt. eigenvalues --    1.22401   1.22865   1.24241   1.24607   1.25707
 Alpha virt. eigenvalues --    1.25880   1.26724   1.26899   1.28678   1.30042
 Alpha virt. eigenvalues --    1.30771   1.31637   1.32237   1.34539   1.35203
 Alpha virt. eigenvalues --    1.35482   1.35663   1.35887   1.37421   1.37618
 Alpha virt. eigenvalues --    1.39686   1.40073   1.40497   1.41220   1.42027
 Alpha virt. eigenvalues --    1.42937   1.43436   1.44222   1.44576   1.45142
 Alpha virt. eigenvalues --    1.46271   1.46820   1.47963   1.48673   1.49212
 Alpha virt. eigenvalues --    1.50373   1.51643   1.51971   1.52811   1.53319
 Alpha virt. eigenvalues --    1.54193   1.56510   1.57299   1.58675   1.59571
 Alpha virt. eigenvalues --    1.61681   1.63959   1.67282   1.68490   1.72908
 Alpha virt. eigenvalues --    1.74597   1.75577   1.77846   1.79625   1.80610
 Alpha virt. eigenvalues --    1.82500   1.84413   1.84654   1.85462   1.86332
 Alpha virt. eigenvalues --    1.87860   1.88218   1.89827   1.90082   1.91008
 Alpha virt. eigenvalues --    1.92665   1.93329   1.93970   1.94301   1.95233
 Alpha virt. eigenvalues --    1.96541   1.97078   1.97792   1.99066   1.99885
 Alpha virt. eigenvalues --    2.00508   2.02412   2.02770   2.04594   2.06478
 Alpha virt. eigenvalues --    2.06603   2.07278   2.08197   2.08322   2.09611
 Alpha virt. eigenvalues --    2.10835   2.12423   2.13468   2.14603   2.15859
 Alpha virt. eigenvalues --    2.17517   2.18045   2.19983   2.21171   2.21515
 Alpha virt. eigenvalues --    2.23761   2.24019   2.26230   2.26891   2.27385
 Alpha virt. eigenvalues --    2.28853   2.31320   2.32179   2.33289   2.35901
 Alpha virt. eigenvalues --    2.39248   2.40168   2.40309   2.41173   2.43524
 Alpha virt. eigenvalues --    2.44965   2.45649   2.48129   2.50150   2.52786
 Alpha virt. eigenvalues --    2.52898   2.54900   2.57745   2.58193   2.60839
 Alpha virt. eigenvalues --    2.62689   2.64638   2.66208   2.67735   2.71297
 Alpha virt. eigenvalues --    2.74105   2.75515   2.75777   2.76416   2.77590
 Alpha virt. eigenvalues --    2.80630   2.81298   2.83471   2.88633   2.90285
 Alpha virt. eigenvalues --    2.94051   2.98889   3.00261   3.04856   3.09023
 Alpha virt. eigenvalues --    3.10136   3.12543   3.14554   3.17027   3.21518
 Alpha virt. eigenvalues --    3.22455   3.29655   3.37754   3.46081   4.16000
 Alpha virt. eigenvalues --    4.25115   4.27050   4.30057   4.32101   4.32501
 Alpha virt. eigenvalues --    4.42328   4.43009   4.44213   4.44987   4.47595
 Alpha virt. eigenvalues --    4.49766   4.51672   4.53785   4.59930   4.62050
 Alpha virt. eigenvalues --    4.69819   4.75782   4.78754   4.79617   4.88452
          Condensed to atoms (all electrons):
               1          2          3          4          5          6
     1  C   13.757125   1.030859  -1.347195  -4.554071  -3.360394   2.300326
     2  C    1.030859  12.189061   0.273264  -3.014589  -1.349168  -3.712859
     3  C   -1.347195   0.273264  15.592303   1.070541  -7.391939  -0.458255
     4  C   -4.554071  -3.014589   1.070541  17.171355  -0.240012  -3.348218
     5  C   -3.360394  -1.349168  -7.391939  -0.240012  17.407638  -1.472729
     6  C    2.300326  -3.712859  -0.458255  -3.348218  -1.472729  13.774785
     7  N   -0.001885   0.030585  -0.002466   0.164383  -0.162757   0.016900
     8  C   -0.391461   0.130745  -1.164957  -0.663911   1.026531  -0.824197
     9  N    0.006682  -0.006099  -0.091169  -0.118722   0.017447   0.007584
    10  O    0.020320  -0.021572  -0.163223  -0.501542   0.484161   0.128831
    11  C   -0.020584   0.000656  -0.130887  -0.279569  -0.006992  -0.056542
    12  C   -0.000475  -0.000911   0.000240   0.015197  -0.002020  -0.000525
    13  C   -0.000209  -0.000419  -0.004916  -0.004255   0.000359  -0.000085
    14  H   -0.000212   0.003285   0.168546   0.086344   0.068630  -0.037993
    15  H   -0.004919  -0.025001   0.020165   0.025134   0.255071   0.037392
    16  H    0.004607  -0.008076  -0.114463   0.036473   0.089045   0.003788
    17  H   -0.000184  -0.000939  -0.008784   0.006960   0.003576  -0.000183
    18  H    0.000007   0.000003   0.000318   0.001480  -0.001729   0.000035
    19  H   -0.000013   0.000004  -0.000344  -0.006401   0.000315  -0.000072
    20  H   -0.000000  -0.000001   0.000079   0.000007  -0.000082   0.000003
    21  H   -0.000001  -0.000013  -0.000176  -0.001198   0.000323   0.000010
    22  H   -0.000000   0.000000   0.000003  -0.000047  -0.000021  -0.000002
    23  H   -0.000000  -0.000000  -0.000002  -0.000026  -0.000006  -0.000000
    24  H    0.000000   0.000000   0.000002   0.000065  -0.000002  -0.000000
    25  H    0.114763   0.274122  -0.126112   0.015076   0.005369   0.040545
    26  H    0.153809   0.042767  -0.004575  -0.026813  -0.089779   0.254318
    27  N   -0.576184  -0.000609   0.070136   0.020630  -0.058865   0.185533
    28  O   -0.490535   0.139436  -0.025578   0.044276   0.212416   0.030205
    29  O   -0.495976   0.062546   0.176178   0.062565  -0.006164   0.112957
    30  O    0.003108   0.079612   0.267860  -0.346661  -0.024750   0.000403
    31  C   -0.008911  -0.054192  -0.076892   0.135615  -0.012813  -0.001612
    32  O   -0.000553  -0.006062  -0.007980   0.015706  -0.003533   0.001396
    33  C    0.000986   0.023446   0.046978  -0.064128  -0.026113  -0.006429
    34  C    0.002117   0.017036   0.017555  -0.033777  -0.004083   0.000251
    35  H   -0.000003  -0.000015   0.000800  -0.000735  -0.000109  -0.000004
    36  H   -0.000010  -0.000169  -0.000013   0.000072  -0.000004   0.000002
    37  H   -0.000187  -0.001827  -0.000856   0.002016   0.000207   0.000027
    38  H    0.000005   0.000053  -0.000095  -0.000019  -0.000000   0.000001
    39  H   -0.000080  -0.000273   0.000479  -0.000422  -0.000049   0.000001
               7          8          9         10         11         12
     1  C   -0.001885  -0.391461   0.006682   0.020320  -0.020584  -0.000475
     2  C    0.030585   0.130745  -0.006099  -0.021572   0.000656  -0.000911
     3  C   -0.002466  -1.164957  -0.091169  -0.163223  -0.130887   0.000240
     4  C    0.164383  -0.663911  -0.118722  -0.501542  -0.279569   0.015197
     5  C   -0.162757   1.026531   0.017447   0.484161  -0.006992  -0.002020
     6  C    0.016900  -0.824197   0.007584   0.128831  -0.056542  -0.000525
     7  N    7.854818   0.194253  -0.324873  -0.061778  -0.138204   0.020024
     8  C    0.194253   6.479651   0.467396   0.584960  -0.795548   0.240609
     9  N   -0.324873   0.467396   7.759809  -0.187220   0.302043  -0.055619
    10  O   -0.061778   0.584960  -0.187220   8.494210  -0.080973   0.019773
    11  C   -0.138204  -0.795548   0.302043  -0.080973   7.108443  -0.533754
    12  C    0.020024   0.240609  -0.055619   0.019773  -0.533754   6.329518
    13  C   -0.002085  -0.042357  -0.021678  -0.001252   0.040486  -0.198203
    14  H   -0.014066   0.010344   0.001105   0.000030   0.000190   0.000008
    15  H   -0.016616   0.009203   0.000188  -0.004469   0.002852   0.000107
    16  H    0.109804  -0.023637   0.010548   0.003607   0.000470  -0.000880
    17  H    0.001755  -0.010814   0.168969   0.004184  -0.019352  -0.000794
    18  H   -0.002028  -0.034938  -0.042911   0.000795   0.434464  -0.038325
    19  H    0.000139  -0.056996  -0.047110   0.002707   0.468300  -0.044619
    20  H   -0.000101   0.002899   0.006290  -0.000146  -0.097182   0.432102
    21  H    0.000583   0.002223   0.006432  -0.000028  -0.091514   0.430586
    22  H    0.000027  -0.000584   0.000742  -0.000025  -0.015402  -0.059632
    23  H    0.000012  -0.002017   0.000567   0.000003   0.025205  -0.114861
    24  H    0.000033   0.004332   0.000467  -0.000011  -0.008166  -0.062121
    25  H    0.000936   0.003458   0.000023  -0.000000   0.000033   0.000000
    26  H   -0.000515  -0.002339   0.000000   0.000135  -0.000036   0.000001
    27  N   -0.001784   0.002379  -0.000230   0.000010   0.000120   0.000002
    28  O   -0.000089   0.001443   0.000000   0.000016   0.000010   0.000000
    29  O   -0.000271   0.000717  -0.000002  -0.000003   0.000002   0.000000
    30  O    0.013734   0.001098   0.008508  -0.000138   0.012406  -0.003988
    31  C   -0.018453  -0.012150  -0.011982  -0.001443   0.015601  -0.009503
    32  O    0.003674  -0.018239  -0.031279  -0.000377  -0.001560   0.003995
    33  C   -0.019705  -0.020004  -0.023363  -0.000836   0.031988  -0.007785
    34  C    0.005529  -0.001246   0.002595   0.000069  -0.001924  -0.000814
    35  H    0.000147  -0.000263   0.000009  -0.000000   0.000070   0.000122
    36  H    0.000143  -0.000109  -0.000128  -0.000000  -0.000005   0.000087
    37  H   -0.000032  -0.000024   0.000002   0.000000  -0.000018   0.000003
    38  H    0.000007   0.000018  -0.000006   0.000000  -0.000009   0.000001
    39  H    0.000106  -0.000030  -0.000005   0.000000  -0.000017   0.000018
              13         14         15         16         17         18
     1  C   -0.000209  -0.000212  -0.004919   0.004607  -0.000184   0.000007
     2  C   -0.000419   0.003285  -0.025001  -0.008076  -0.000939   0.000003
     3  C   -0.004916   0.168546   0.020165  -0.114463  -0.008784   0.000318
     4  C   -0.004255   0.086344   0.025134   0.036473   0.006960   0.001480
     5  C    0.000359   0.068630   0.255071   0.089045   0.003576  -0.001729
     6  C   -0.000085  -0.037993   0.037392   0.003788  -0.000183   0.000035
     7  N   -0.002085  -0.014066  -0.016616   0.109804   0.001755  -0.002028
     8  C   -0.042357   0.010344   0.009203  -0.023637  -0.010814  -0.034938
     9  N   -0.021678   0.001105   0.000188   0.010548   0.168969  -0.042911
    10  O   -0.001252   0.000030  -0.004469   0.003607   0.004184   0.000795
    11  C    0.040486   0.000190   0.002852   0.000470  -0.019352   0.434464
    12  C   -0.198203   0.000008   0.000107  -0.000880  -0.000794  -0.038325
    13  C    5.841895  -0.000001   0.000010   0.000073   0.000632  -0.009275
    14  H   -0.000001   0.424757  -0.000092   0.006675   0.000002   0.000000
    15  H    0.000010  -0.000092   0.419539  -0.000171   0.000002  -0.000001
    16  H    0.000073   0.006675  -0.000171   0.258791   0.008006   0.000005
    17  H    0.000632   0.000002   0.000002   0.008006   0.240538   0.001343
    18  H   -0.009275   0.000000  -0.000001   0.000005   0.001343   0.495569
    19  H   -0.004533   0.000000  -0.000000   0.000006   0.001753  -0.044921
    20  H   -0.025966  -0.000000  -0.000000  -0.000001   0.000167   0.004051
    21  H   -0.030860   0.000000  -0.000000   0.000000   0.001207  -0.005515
    22  H    0.422270   0.000000  -0.000000  -0.000000   0.000001  -0.000325
    23  H    0.445590  -0.000000   0.000000  -0.000000  -0.000001  -0.000056
    24  H    0.412400   0.000000   0.000000  -0.000000  -0.000004   0.002656
    25  H    0.000000  -0.002953   0.000010  -0.000011   0.000000  -0.000000
    26  H   -0.000000   0.000010  -0.002988   0.000002  -0.000000   0.000000
    27  N    0.000001  -0.000301   0.000275  -0.000024   0.000000  -0.000000
    28  O    0.000000   0.000055  -0.000125   0.000001   0.000000  -0.000000
    29  O    0.000000  -0.000043   0.000053   0.000000   0.000000  -0.000000
    30  O   -0.000515   0.001392  -0.000014   0.088096   0.002150  -0.000008
    31  C   -0.003014   0.001760   0.000095  -0.007266  -0.004972   0.000715
    32  O    0.004689   0.000040   0.000001   0.000362   0.067090   0.000123
    33  C    0.002914   0.000699   0.000012   0.012783   0.010109   0.000119
    34  C   -0.000527  -0.000599  -0.000001  -0.001559  -0.001617   0.000000
    35  H    0.000041   0.000000   0.000000  -0.000024   0.000003   0.000000
    36  H    0.000026  -0.000000   0.000000  -0.000024  -0.000007   0.000000
    37  H   -0.000000   0.000003   0.000000  -0.000007  -0.000000   0.000000
    38  H   -0.000000   0.000000  -0.000000  -0.000000   0.000000  -0.000000
    39  H    0.000001   0.000014   0.000000  -0.000003   0.000000  -0.000000
              19         20         21         22         23         24
     1  C   -0.000013  -0.000000  -0.000001  -0.000000  -0.000000   0.000000
     2  C    0.000004  -0.000001  -0.000013   0.000000  -0.000000   0.000000
     3  C   -0.000344   0.000079  -0.000176   0.000003  -0.000002   0.000002
     4  C   -0.006401   0.000007  -0.001198  -0.000047  -0.000026   0.000065
     5  C    0.000315  -0.000082   0.000323  -0.000021  -0.000006  -0.000002
     6  C   -0.000072   0.000003   0.000010  -0.000002  -0.000000  -0.000000
     7  N    0.000139  -0.000101   0.000583   0.000027   0.000012   0.000033
     8  C   -0.056996   0.002899   0.002223  -0.000584  -0.002017   0.004332
     9  N   -0.047110   0.006290   0.006432   0.000742   0.000567   0.000467
    10  O    0.002707  -0.000146  -0.000028  -0.000025   0.000003  -0.000011
    11  C    0.468300  -0.097182  -0.091514  -0.015402   0.025205  -0.008166
    12  C   -0.044619   0.432102   0.430586  -0.059632  -0.114861  -0.062121
    13  C   -0.004533  -0.025966  -0.030860   0.422270   0.445590   0.412400
    14  H    0.000000  -0.000000   0.000000   0.000000  -0.000000   0.000000
    15  H   -0.000000  -0.000000  -0.000000  -0.000000   0.000000   0.000000
    16  H    0.000006  -0.000001   0.000000  -0.000000  -0.000000  -0.000000
    17  H    0.001753   0.000167   0.001207   0.000001  -0.000001  -0.000004
    18  H   -0.044921   0.004051  -0.005515  -0.000325  -0.000056   0.002656
    19  H    0.493327  -0.005518   0.004016   0.002517  -0.000050  -0.000285
    20  H   -0.005518   0.488935  -0.036621  -0.004590  -0.002898   0.003713
    21  H    0.004016  -0.036621   0.489744   0.003714  -0.002907  -0.004557
    22  H    0.002517  -0.004590   0.003714   0.486252  -0.025113  -0.030823
    23  H   -0.000050  -0.002898  -0.002907  -0.025113   0.479179  -0.025069
    24  H   -0.000285   0.003713  -0.004557  -0.030823  -0.025069   0.485860
    25  H    0.000000  -0.000000   0.000000   0.000000  -0.000000   0.000000
    26  H    0.000000   0.000000   0.000000   0.000000  -0.000000   0.000000
    27  N    0.000000  -0.000000   0.000000   0.000000   0.000000  -0.000000
    28  O   -0.000000  -0.000000   0.000000  -0.000000  -0.000000  -0.000000
    29  O   -0.000000  -0.000000  -0.000000  -0.000000  -0.000000  -0.000000
    30  O   -0.000005   0.000012   0.000066   0.000000  -0.000000   0.000000
    31  C    0.000455  -0.001604  -0.000596  -0.000030  -0.000108  -0.000035
    32  O   -0.000064   0.000160   0.000186   0.000006  -0.000069   0.000012
    33  C   -0.000001   0.000105  -0.001325  -0.000019   0.000069  -0.000016
    34  C    0.000002  -0.000049  -0.000044   0.000000  -0.000001  -0.000000
    35  H    0.000000   0.000000  -0.000000   0.000000  -0.000000   0.000000
    36  H   -0.000000  -0.000000   0.000000   0.000000  -0.000000   0.000000
    37  H   -0.000000   0.000000   0.000000  -0.000000   0.000000   0.000000
    38  H   -0.000000  -0.000000  -0.000000  -0.000000   0.000000  -0.000000
    39  H    0.000000  -0.000000  -0.000000   0.000000   0.000000  -0.000000
              25         26         27         28         29         30
     1  C    0.114763   0.153809  -0.576184  -0.490535  -0.495976   0.003108
     2  C    0.274122   0.042767  -0.000609   0.139436   0.062546   0.079612
     3  C   -0.126112  -0.004575   0.070136  -0.025578   0.176178   0.267860
     4  C    0.015076  -0.026813   0.020630   0.044276   0.062565  -0.346661
     5  C    0.005369  -0.089779  -0.058865   0.212416  -0.006164  -0.024750
     6  C    0.040545   0.254318   0.185533   0.030205   0.112957   0.000403
     7  N    0.000936  -0.000515  -0.001784  -0.000089  -0.000271   0.013734
     8  C    0.003458  -0.002339   0.002379   0.001443   0.000717   0.001098
     9  N    0.000023   0.000000  -0.000230   0.000000  -0.000002   0.008508
    10  O   -0.000000   0.000135   0.000010   0.000016  -0.000003  -0.000138
    11  C    0.000033  -0.000036   0.000120   0.000010   0.000002   0.012406
    12  C    0.000000   0.000001   0.000002   0.000000   0.000000  -0.003988
    13  C    0.000000  -0.000000   0.000001   0.000000   0.000000  -0.000515
    14  H   -0.002953   0.000010  -0.000301   0.000055  -0.000043   0.001392
    15  H    0.000010  -0.002988   0.000275  -0.000125   0.000053  -0.000014
    16  H   -0.000011   0.000002  -0.000024   0.000001   0.000000   0.088096
    17  H    0.000000  -0.000000   0.000000   0.000000   0.000000   0.002150
    18  H   -0.000000   0.000000  -0.000000  -0.000000  -0.000000  -0.000008
    19  H    0.000000   0.000000   0.000000  -0.000000  -0.000000  -0.000005
    20  H   -0.000000   0.000000  -0.000000  -0.000000  -0.000000   0.000012
    21  H    0.000000   0.000000   0.000000   0.000000  -0.000000   0.000066
    22  H    0.000000   0.000000   0.000000  -0.000000  -0.000000   0.000000
    23  H   -0.000000  -0.000000   0.000000  -0.000000  -0.000000  -0.000000
    24  H    0.000000   0.000000  -0.000000  -0.000000  -0.000000   0.000000
    25  H    0.415574  -0.000094  -0.037795  -0.002072   0.017495  -0.000010
    26  H   -0.000094   0.417412  -0.037499   0.017561  -0.002200   0.000001
    27  N   -0.037795  -0.037499   6.870582   0.382914   0.388745   0.000073
    28  O   -0.002072   0.017561   0.382914   7.911446  -0.082185  -0.000000
    29  O    0.017495  -0.002200   0.388745  -0.082185   7.912952   0.000013
    30  O   -0.000010   0.000001   0.000073  -0.000000   0.000013   8.666328
    31  C   -0.000031   0.000002   0.000056   0.000004   0.000020   0.184935
    32  O    0.000000  -0.000000   0.000001  -0.000000   0.000000  -0.176257
    33  C    0.000036  -0.000000  -0.000039  -0.000001  -0.000001  -0.045032
    34  C   -0.000029   0.000000   0.000017   0.000001  -0.000007   0.047496
    35  H   -0.000000   0.000000  -0.000000   0.000000  -0.000000   0.003589
    36  H    0.000000   0.000000   0.000000   0.000000  -0.000000   0.001062
    37  H    0.000000  -0.000000   0.000000  -0.000000  -0.000000  -0.001304
    38  H    0.000000   0.000000  -0.000000   0.000000   0.000000   0.000895
    39  H    0.000000  -0.000000   0.000000  -0.000000  -0.000000   0.000506
              31         32         33         34         35         36
     1  C   -0.008911  -0.000553   0.000986   0.002117  -0.000003  -0.000010
     2  C   -0.054192  -0.006062   0.023446   0.017036  -0.000015  -0.000169
     3  C   -0.076892  -0.007980   0.046978   0.017555   0.000800  -0.000013
     4  C    0.135615   0.015706  -0.064128  -0.033777  -0.000735   0.000072
     5  C   -0.012813  -0.003533  -0.026113  -0.004083  -0.000109  -0.000004
     6  C   -0.001612   0.001396  -0.006429   0.000251  -0.000004   0.000002
     7  N   -0.018453   0.003674  -0.019705   0.005529   0.000147   0.000143
     8  C   -0.012150  -0.018239  -0.020004  -0.001246  -0.000263  -0.000109
     9  N   -0.011982  -0.031279  -0.023363   0.002595   0.000009  -0.000128
    10  O   -0.001443  -0.000377  -0.000836   0.000069  -0.000000  -0.000000
    11  C    0.015601  -0.001560   0.031988  -0.001924   0.000070  -0.000005
    12  C   -0.009503   0.003995  -0.007785  -0.000814   0.000122   0.000087
    13  C   -0.003014   0.004689   0.002914  -0.000527   0.000041   0.000026
    14  H    0.001760   0.000040   0.000699  -0.000599   0.000000  -0.000000
    15  H    0.000095   0.000001   0.000012  -0.000001   0.000000   0.000000
    16  H   -0.007266   0.000362   0.012783  -0.001559  -0.000024  -0.000024
    17  H   -0.004972   0.067090   0.010109  -0.001617   0.000003  -0.000007
    18  H    0.000715   0.000123   0.000119   0.000000   0.000000   0.000000
    19  H    0.000455  -0.000064  -0.000001   0.000002   0.000000  -0.000000
    20  H   -0.001604   0.000160   0.000105  -0.000049   0.000000  -0.000000
    21  H   -0.000596   0.000186  -0.001325  -0.000044  -0.000000   0.000000
    22  H   -0.000030   0.000006  -0.000019   0.000000   0.000000   0.000000
    23  H   -0.000108  -0.000069   0.000069  -0.000001  -0.000000  -0.000000
    24  H   -0.000035   0.000012  -0.000016  -0.000000   0.000000   0.000000
    25  H   -0.000031   0.000000   0.000036  -0.000029  -0.000000   0.000000
    26  H    0.000002  -0.000000  -0.000000   0.000000   0.000000   0.000000
    27  N    0.000056   0.000001  -0.000039   0.000017  -0.000000   0.000000
    28  O    0.000004  -0.000000  -0.000001   0.000001   0.000000   0.000000
    29  O    0.000020   0.000000  -0.000001  -0.000007  -0.000000  -0.000000
    30  O    0.184935  -0.176257  -0.045032   0.047496   0.003589   0.001062
    31  C    5.467255   0.449994  -0.618914  -0.068525  -0.084516  -0.063918
    32  O    0.449994   8.670750  -0.247813   0.029577  -0.000554  -0.001267
    33  C   -0.618914  -0.247813   6.963570  -0.163147   0.445199   0.423358
    34  C   -0.068525   0.029577  -0.163147   5.759234  -0.045046  -0.040469
    35  H   -0.084516  -0.000554   0.445199  -0.045046   0.468567  -0.027453
    36  H   -0.063918  -0.001267   0.423358  -0.040469  -0.027453   0.466136
    37  H    0.001638   0.000079  -0.068183   0.417687  -0.003877   0.003479
    38  H    0.026609  -0.000311  -0.067840   0.389819  -0.002004  -0.002025
    39  H   -0.017408   0.000134  -0.046867   0.412696   0.003489  -0.003972
              37         38         39
     1  C   -0.000187   0.000005  -0.000080
     2  C   -0.001827   0.000053  -0.000273
     3  C   -0.000856  -0.000095   0.000479
     4  C    0.002016  -0.000019  -0.000422
     5  C    0.000207  -0.000000  -0.000049
     6  C    0.000027   0.000001   0.000001
     7  N   -0.000032   0.000007   0.000106
     8  C   -0.000024   0.000018  -0.000030
     9  N    0.000002  -0.000006  -0.000005
    10  O    0.000000   0.000000   0.000000
    11  C   -0.000018  -0.000009  -0.000017
    12  C    0.000003   0.000001   0.000018
    13  C   -0.000000  -0.000000   0.000001
    14  H    0.000003   0.000000   0.000014
    15  H    0.000000  -0.000000   0.000000
    16  H   -0.000007  -0.000000  -0.000003
    17  H   -0.000000   0.000000   0.000000
    18  H    0.000000  -0.000000  -0.000000
    19  H   -0.000000  -0.000000   0.000000
    20  H    0.000000  -0.000000  -0.000000
    21  H    0.000000  -0.000000  -0.000000
    22  H   -0.000000  -0.000000   0.000000
    23  H    0.000000   0.000000   0.000000
    24  H    0.000000  -0.000000  -0.000000
    25  H    0.000000   0.000000   0.000000
    26  H   -0.000000   0.000000  -0.000000
    27  N    0.000000  -0.000000   0.000000
    28  O   -0.000000   0.000000  -0.000000
    29  O   -0.000000   0.000000  -0.000000
    30  O   -0.001304   0.000895   0.000506
    31  C    0.001638   0.026609  -0.017408
    32  O    0.000079  -0.000311   0.000134
    33  C   -0.068183  -0.067840  -0.046867
    34  C    0.417687   0.389819   0.412696
    35  H   -0.003877  -0.002004   0.003489
    36  H    0.003479  -0.002025  -0.003972
    37  H    0.484939  -0.025551  -0.030521
    38  H   -0.025551   0.487753  -0.025576
    39  H   -0.030521  -0.025576   0.485288
 Mulliken charges:
               1
     1  C   -0.140674
     2  C   -0.094687
     3  C   -0.584570
     4  C    0.331222
     5  C    0.643024
     6  C   -0.975586
     7  N   -0.649886
     8  C    0.903561
     9  N   -0.805009
    10  O   -0.718774
    11  C   -0.165102
    12  C   -0.357565
    13  C   -0.821237
    14  H    0.282373
    15  H    0.284288
    16  H    0.523005
    17  H    0.529203
    18  H    0.238350
    19  H    0.237392
    20  H    0.236237
    21  H    0.236266
    22  H    0.221079
    23  H    0.222560
    24  H    0.221550
    25  H    0.281668
    26  H    0.280821
    27  N   -0.208145
    28  O   -0.139199
    29  O   -0.147394
    30  O   -0.784661
    31  C    0.794132
    32  O   -0.752057
    33  C   -0.534811
    34  C   -0.738219
    35  H    0.242566
    36  H    0.245209
    37  H    0.222308
    38  H    0.218274
    39  H    0.222489
 Sum of Mulliken charges =  -1.00000
 Mulliken charges with hydrogens summed into heavy atoms:
               1
     1  C   -0.140674
     2  C    0.186982
     3  C   -0.302197
     4  C    0.331222
     5  C    0.927312
     6  C   -0.694765
     7  N   -0.126881
     8  C    0.903561
     9  N   -0.275806
    10  O   -0.718774
    11  C    0.310639
    12  C    0.114937
    13  C   -0.156047
    27  N   -0.208145
    28  O   -0.139199
    29  O   -0.147394
    30  O   -0.784661
    31  C    0.794132
    32  O   -0.752057
    33  C   -0.047036
    34  C   -0.075148
 Electronic spatial extent (au):  <R**2>=           9970.9210
 Charge=             -1.0000 electrons
 Dipole moment (field-independent basis, Debye):
    X=              4.2285    Y=              0.3140    Z=              0.1177  Tot=              4.2418
 Quadrupole moment (field-independent basis, Debye-Ang):
   XX=           -205.1966   YY=           -144.0748   ZZ=           -128.6950
   XY=             -6.7994   XZ=              1.0250   YZ=              0.0502
 Traceless Quadrupole moment (field-independent basis, Debye-Ang):
   XX=            -45.8745   YY=             15.2473   ZZ=             30.6272
   XY=             -6.7994   XZ=              1.0250   YZ=              0.0502
 Octapole moment (field-independent basis, Debye-Ang**2):
  XXX=            412.3556  YYY=             46.2015  ZZZ=             -0.0943  XYY=              3.3701
  XXY=            -31.0897  XXZ=              2.4541  XZZ=             -2.1269  YZZ=              1.5435
  YYZ=              0.0254  XYZ=              1.0285
 Hexadecapole moment (field-independent basis, Debye-Ang**3):
 XXXX=         -12744.8696 YYYY=          -3740.3336 ZZZZ=           -170.3557 XXXY=           -175.5847
 XXXZ=             20.5008 YYYX=            108.6999 YYYZ=             -3.1654 ZZZX=             -1.3573
 ZZZY=              0.1197 XXYY=          -2208.5811 XXZZ=          -1586.8692 YYZZ=           -632.8580
 XXYZ=              5.9692 YYXZ=              2.2809 ZZXY=              0.4051
 N-N= 1.627856778774D+03 E-N=-5.715931935029D+03  KE= 1.037539850750D+03
 D1PCM: PCM CHGder 1st derivatives, ID1Alg=3 FixD1E=F DoIter=F DoCFld=F I1PDM=0.
 Calling FoFJK, ICntrl=      2127 FMM=F ISym2X=0 I1Cent= 0 IOpClX= 0 NMat=1 NMatS=1 NMatT=0.
 ***** Axes restored to original set *****
 -------------------------------------------------------------------
 Center     Atomic                   Forces (Hartrees/Bohr)
 Number     Number              X              Y              Z
 -------------------------------------------------------------------
      1        6           0.000997570   -0.000737393    0.000554829
      2        6          -0.002023303   -0.000024006   -0.000626677
      3        6           0.002074348    0.000862834    0.000268349
      4        6          -0.005783220    0.003562257   -0.003079541
      5        6           0.000589582   -0.002208322    0.000991839
      6        6          -0.000817848    0.001726442   -0.000848950
      7        7           0.005122155   -0.000303810    0.001659677
      8        6          -0.005716789   -0.017559564    0.004963954
      9        7          -0.004207443    0.002404711   -0.002034245
     10        8           0.003856340    0.009266540   -0.002330237
     11        6           0.004915299    0.001243114    0.001175495
     12        6          -0.000005721    0.000501254   -0.000485974
     13        6           0.000497386    0.000213817    0.000176514
     14        1          -0.001691099    0.000958819   -0.000805147
     15        1          -0.001704904    0.001389291   -0.000980851
     16        1           0.001369995    0.003949072   -0.000934498
     17        1           0.000777602    0.004449028   -0.001756862
     18        1          -0.000192531   -0.001149027    0.000019492
[...]
 2260,0.00000721,-0.00002101,0.00000857,0.00002283,0.00000456,0.0000060
 2,0.00116030,-0.00779926,-0.00023783,-0.00122093,0.00117220,0.03366806
 ,0.00149556,-0.00025711,-0.00265889,-0.00267312,-0.04482930,0.01321555
 ,-0.00028312,-0.00034594,-0.00919771,0.00347921,0.04959037,-0.00002114
 ,0.00001203,-0.00000979,0.00000693,-0.00000650,0.00000696,-0.00002457,
 -0.00001789,-0.00000847,0.00008452,-0.00001101,0.00003017,-0.00002051,
 0.00002064,-0.00001124,0.00001286,0.00000535,0.00000246,0.00005498,0.0
 0022408,-0.00006388,-0.00011642,0.00000482,-0.00003604,0.00003103,-0.0
 0002742,-0.00000422,0.00004452,0.00003000,0.00000175,-0.00000515,-0.00
 000362,-0.00000196,0.00000321,0.00000501,-0.00000033,-0.00000065,-0.00
 000082,-0.00000074,0.00001285,0.00000122,0.00000131,0.00000037,-0.0000
 0047,-0.00000046,-0.00009945,-0.00038029,0.00009516,-0.00001982,0.0000
 6319,0.00001903,0.00000074,0.00000014,0.00000071,0.00000277,-0.0000002
 8,0.00000120,-0.00000165,-0.00000167,-0.00000034,0.00000014,0.,0.00000
 219,-0.00000026,-0.00000021,0.00000013,0.00000140,-0.00000107,0.000000
 58,0.00000026,0.00000046,0.00000041,-0.00000050,-0.00000018,-0.0000007
 3,-0.00000134,0.00000077,-0.00000101,0.00002571,-0.00001528,0.00001294
 ,-0.00000417,0.00001327,-0.00000498,-0.00001211,-0.00000203,-0.0000033
 8,0.00072522,0.00293392,-0.00011965,-0.00163069,-0.00183772,-0.0100167
 0,-0.00058708,-0.00034051,0.00236049,-0.00482202,0.01164935,-0.3161875
 4,-0.00022819,-0.00013269,-0.00848264,0.00853071,-0.01232206,0.3413398
 9,0.00000481,-0.00000317,0.00000103,-0.00000181,0.00000172,-0.00000020
 ,0.00000668,-0.00000344,-0.00000029,-0.00001438,0.00001192,-0.00000535
 ,0.00000313,-0.00000337,0.00000128,-0.00000337,0.00000109,0.00000027,0
 .00001424,-0.00002403,-0.00001443,-0.00002970,0.00003080,-0.00002514,0
 .00000569,-0.00005525,0.00001211,-0.00000245,-0.00002495,0.00001431,0.
 00001253,0.00000359,0.00000682,-0.00000318,0.00000300,0.00000262,0.000
 00016,-0.00000056,-0.00000151,-0.00000212,0.00000047,0.00000019,-0.000
 00026,0.00000077,0.00000003,-0.00001239,0.00007108,0.00002094,0.000050
 92,0.00015061,-0.00004066,-0.00000200,-0.00000225,-0.00000131,-0.00000
 268,-0.00000098,0.00000061,-0.00000023,-0.00000211,-0.00000179,0.00000
 017,0.00000022,0.00000106,-0.00000018,-0.00000013,-0.00000016,-0.00000
 012,-0.00000073,0.00000032,-0.00000072,-0.00000056,-0.00000019,0.00000
 028,-0.00000048,0.00000065,0.00000013,-0.00000007,-0.00000008,-0.00000
 532,0.00000039,-0.00000188,0.00000064,-0.00000057,0.00000023,0.0000030
 9,0.00000146,0.00000050,0.00027422,-0.00020018,0.00178958,0.00558726,-
 0.00524402,-0.00594638,-0.00088105,-0.00127285,0.00054009,-0.16927805,
 0.11795886,0.06069035,-0.02093490,0.01885585,0.01010428,0.00008865,-0.
 00052344,0.00011454,0.18738965,0.00003320,-0.00001907,0.00001838,-0.00
 001235,0.00001324,-0.00000779,0.00004273,0.00001696,0.00000394,-0.0001
 3306,0.00003123,-0.00005559,0.00003085,-0.00003449,0.00002540,-0.00002
 137,-0.00000588,-0.00000526,-0.00004694,-0.00041011,0.00004045,0.00011
 603,0.00002906,-0.00000603,-0.00002232,-0.00009327,-0.00001150,-0.0000
 6653,-0.00007558,0.00003732,0.00003299,0.00000355,0.00000326,-0.000011
 92,-0.00000597,0.00000376,0.00000223,-0.00000045,-0.00000108,-0.000019
 20,0.00000662,-0.00001572,-0.00000027,0.00000162,-0.00000082,0.0000974
 4,0.00070182,-0.00003699,0.00003999,0.00018396,0.00002793,-0.00000924,
 -0.00000329,-0.00000261,-0.00000649,-0.00000186,0.00000063,-0.00000485
 ,-0.00000251,-0.00000236,0.00000135,0.00000197,-0.00000053,-0.00000128
 ,-0.00000046,0.00000056,-0.00000279,0.00000097,-0.00000139,-0.00000079
 ,-0.00000044,-0.00000017,0.00000136,-0.00000074,0.00000029,0.00000238,
 -0.00000152,0.00000021,-0.00004219,0.00002306,-0.00002074,0.00000648,-
 0.00001937,0.00000790,0.00002009,0.00000390,0.00000573,-0.00241016,-0.
 00407057,0.00522433,0.02325854,-0.01911518,-0.01448072,-0.00246867,0.0
 0188574,0.00266175,0.12002691,-0.16314720,-0.06151651,-0.00766060,0.00
 693453,0.00376602,-0.00182626,0.00148446,0.00053063,-0.12776799,0.1746
 5738,-0.00000397,0.00000279,-0.00000247,0.00000127,-0.00000217,0.00000
 057,-0.00000630,-0.00000254,0.00000090,0.00002411,-0.00000414,0.000011
 38,-0.00000501,0.00000369,-0.00000698,0.00000299,0.00000150,0.00000071
 ,0.00001834,0.00012252,0.00001195,-0.00005321,0.00001180,-0.00001043,-
 0.00000666,-0.00003211,0.00003230,0.00001664,-0.00000176,-0.00000401,0
 .00000577,-0.00000136,0.00000435,0.00000017,-0.00000085,-0.00000306,0.
 00000052,-0.00000040,0.00000088,0.00000216,-0.00000356,0.00000531,0.00
 000009,-0.00000017,0.00000012,-0.00000889,-0.00020024,-0.00003371,0.00
 002238,0.00003778,-0.00005174,-0.00000071,-0.00000039,-0.00000033,-0.0
 0000225,-0.00000042,0.00000009,0.00000008,-0.00000076,0.00000177,-0.00
 000031,-0.00000083,-0.00000021,-0.00000017,0.00000005,0.00000012,-0.00
 000105,0.00000057,-0.00000045,-0.00000003,0.00000014,-0.00000005,-0.00
 000031,0.00000033,0.00000005,-0.00000055,0.00000029,0.00000022,0.00000
 498,-0.00000233,0.00000240,-0.00000072,0.00000195,-0.00000078,-0.00000
 241,-0.00000071,-0.00000072,0.00107107,0.00133163,-0.00252558,-0.00764
 171,0.00901905,0.00366203,-0.00051149,-0.00143287,-0.00038257,0.060134
 90,-0.05903174,-0.07249206,-0.00867979,0.00834218,0.00375026,0.0219925
 9,-0.02248310,-0.01065598,-0.06499802,0.06406780,0.07761612,0.00000258
 ,-0.00000073,0.00000119,-0.00000074,-0.00000127,-0.00000243,0.00000125
 ,0.00000033,0.00000672,-0.00000810,0.00000568,-0.00001252,0.00000186,-
 0.00000221,0.00000370,-0.00000133,0.00000077,-0.00000151,0.00000403,-0
 .00001281,0.00000821,-0.00002625,0.00001416,-0.00001065,-0.00000968,-0
 .00004923,0.00001910,0.00000153,-0.00001526,0.00000497,0.00000654,-0.0
 0000172,0.00000387,-0.00000102,0.00000088,0.00000113,0.00000099,-0.000
 00029,-0.00000032,-0.00000640,-0.00000864,0.00000717,-0.00000048,0.000
 00057,0.00000044,0.00000923,0.00001928,0.00000111,0.00002909,0.0000620
 9,-0.00002727,-0.00000180,-0.00000188,-0.00000073,-0.00000199,-0.00000
 096,0.00000028,0.00000114,-0.00000044,-0.00000189,-0.00000027,0.000001
 52,0.00000062,-0.00000029,-0.00000001,0.00000027,-0.00000018,0.0000001
 7,0.00000008,-0.00000065,-0.00000084,-0.00000049,0.00000129,0.,0.00000
 101,0.00000006,-0.00000009,0.00000026,-0.00000179,-0.00000137,0.000000
 47,0.00000003,0.00000116,-0.00000058,0.00000154,0.00000101,-0.00000029
 ,0.00089978,-0.00051599,0.00038524,0.00048228,0.00225017,-0.00052217,-
 0.00006792,-0.00071620,-0.00002190,-0.02129239,0.01921921,0.01089414,-
 0.17608785,0.11961848,0.06435088,0.00136631,0.00007287,-0.00006148,-0.
 00496858,-0.00233742,-0.00252002,0.19272198,-0.00000396,0.00000220,-0.
 00000401,0.00000385,0.00000047,0.00000362,-0.00000304,-0.00000496,-0.0
 0000143,0.00001082,-0.00000338,0.00000265,-0.00000223,0.00000276,-0.00
 000349,0.00000131,0.00000088,0.00000207,0.00000205,0.00003072,-0.00000
 510,-0.00000097,-0.00000559,0.00000521,0.00000339,0.00002269,-0.000007
 73,0.00000443,0.00001044,-0.00000436,-0.00000477,0.00000010,-0.0000007
 7,0.00000041,0.00000013,0.00000005,-0.00000045,-0.00000020,-0.00000021
 ,0.00000445,0.00001225,-0.00000175,0.00000011,-0.00000015,0.00000010,-
 0.00000423,-0.00005160,-0.00000162,-0.00000787,-0.00003098,0.00001140,
 0.00000086,0.00000091,0.00000032,0.00000134,0.00000016,-0.00000027,0.,
 0.00000015,0.00000065,0.00000032,-0.00000020,0.00000007,0.00000022,0.0
 0000006,-0.00000008,0.00000024,-0.00000015,0.00000006,0.00000020,0.000
 00030,0.00000019,-0.00000053,-0.00000022,-0.00000025,-0.00000013,0.000
 00019,-0.00000018,0.00000677,-0.00000106,0.00000215,-0.00000139,0.0000
 0140,-0.00000077,-0.00000366,-0.00000122,-0.00000073,-0.00109334,0.000
 19725,-0.00014404,0.00024782,-0.00036783,0.00118884,0.00013021,0.00024
 870,-0.00033023,-0.00688926,0.00628542,0.00373865,0.12162607,-0.159566
 45,-0.06049387,0.00060449,0.00030105,0.00032494,-0.00198401,0.00029199
 ,-0.00024731,-0.13101427,0.16996146,0.00000254,-0.00000178,0.00000046,
 -0.00000034,0.00000229,0.00000159,0.00000228,0.00000508,-0.00000470,-0
 .00000657,-0.00000033,0.00000393,0.00000198,-0.00000341,-0.00000014,-0
 .00000154,-0.00000204,0.00000075,-0.00000828,-0.00002898,0.00000242,0.
 00001674,0.00000376,0.00000180,-0.00000686,-0.00000160,-0.00000104,-0.
 00000744,-0.00000759,0.00000243,0.00000296,0.00000005,0.00000050,-0.00
 000039,-0.00000070,0.00000054,-0.00000017,0.00000029,-0.00000036,0.000
 00043,0.00000321,-0.00000559,0.00000024,-0.00000043,-0.00000009,0.0000
 1014,0.00005555,-0.00001635,0.00000918,0.00000742,-0.00000173,-0.00000
 070,-0.00000030,-0.00000014,-0.00000114,-0.00000038,0.,0.00000014,0.00
 000027,-0.00000017,0.00000004,0.00000023,0.00000029,0.,-0.00000003,0.0
 0000003,-0.00000018,-0.00000011,0.00000001,-0.00000001,0.00000006,0.00
 000008,-0.00000113,0.00000108,-0.00000115,0.00000006,-0.00000018,0.000
 00007,-0.00000381,0.00000704,-0.00000344,0.00000105,-0.00000583,0.0000
 0210,0.00000072,-0.00000150,0.00000083,-0.00021878,-0.00030155,0.00009
 889,0.00069506,0.00012429,0.00024888,-0.00000699,0.00002141,-0.0001637
 7,-0.00900779,0.00865857,0.00404675,0.06518434,-0.05997620,-0.08098546
 ,0.00057177,0.00058349,0.00054394,-0.00255842,-0.00075896,0.00026875,-
 0.06844109,0.06645983,0.08230625,0.00001886,-0.00001050,0.00000977,-0.
 00000643,0.00000660,-0.00000469,0.00002351,0.00000377,0.00000666,-0.00
 006225,0.00002817,-0.00002850,0.00001463,-0.00001891,0.00001086,-0.000
 01162,-0.00000117,-0.00000399,0.00002280,-0.00011067,0.00003841,-0.000
 07571,0.00007471,-0.00005195,-0.00003999,-0.00024025,0.00011790,-0.000
 01100,-0.00009020,0.00003580,0.00004821,-0.00000444,0.00001624,-0.0000
 0563,-0.00000217,-0.00000419,0.00000240,0.00000068,0.00000061,-0.00001
 134,-0.00000121,-0.00000231,-0.00000034,0.00000159,-0.00000048,0.00003
 971,0.00019993,-0.00005392,0.00013070,0.00036497,-0.00017024,-0.000010
 60,-0.00000617,-0.00000256,-0.00001286,-0.00000476,0.00000134,0.000001
 24,0.00000009,-0.00000437,-0.00000130,0.00000374,0.00000403,-0.0000020
 2,-0.00000082,0.00000082,-0.00000263,0.00000042,-0.00000088,-0.0000014
 6,-0.00000131,-0.00000067,0.00000104,-0.00000035,0.00000065,0.00000078
 ,-0.00000054,0.00000038,-0.00002279,0.00001142,-0.00001112,0.00000325,
 -0.00000955,0.00000383,0.00001108,0.00000274,0.00000301,0.00077414,-0.
 00071493,0.00058142,-0.00337262,0.00365812,-0.00368669,-0.00275430,-0.
 00345674,-0.00000126,-0.00730398,-0.02977217,0.01099067,-0.06270267,-0
 .05832471,0.02052399,0.00129853,0.00054050,-0.00002187,0.00118877,0.00
 056979,0.00065926,0.00631147,0.02018464,-0.00858254,0.06739102,0.00001
 620,-0.00001020,0.00000751,-0.00000600,0.00000688,-0.00000272,0.000018
 46,0.00000587,0.00000394,-0.00004974,0.00001389,-0.00002041,0.00001187
 ,-0.00001515,0.00000718,-0.00000978,-0.00000239,-0.00000153,0.00000514
 ,-0.00010624,0.00003314,-0.00000448,0.00004244,-0.00001985,-0.00002210
 ,-0.00009822,0.00004862,-0.00001877,-0.00005374,0.00001958,0.00002574,
 -0.00000042,0.00000756,-0.00000323,-0.00000179,-0.00000095,0.00000179,
 0.00000048,0.00000003,-0.00000660,0.00000420,-0.00000556,-0.00000004,0
 .00000048,-0.00000053,0.00003088,0.00020982,-0.00005565,0.00007493,0.0
 0017801,-0.00007646,-0.00000570,-0.00000342,-0.00000165,-0.00000682,-0
 .00000247,0.00000082,0.00000080,-0.00000007,-0.00000187,0.00000006,0.0
 0000190,0.00000177,-0.00000121,-0.00000040,0.00000065,-0.00000171,0.00
 000075,-0.00000071,-0.00000090,-0.00000094,-0.00000060,0.00000032,0.00
 000041,-0.00000014,0.00000068,-0.00000061,0.00000035,-0.00002199,0.000
 01248,-0.00001110,0.00000365,-0.00001050,0.00000431,0.00001073,0.00000
 148,0.00000314,-0.00075306,-0.00079932,0.00008946,0.00018277,0.0023726
 1,-0.00051591,-0.00133951,-0.00123168,-0.00015359,0.00001591,-0.006168
 70,0.00240355,-0.05987394,-0.27920406,0.07816671,0.00016100,0.00015081
 ,-0.00030386,-0.00017803,0.00055229,0.00002993,-0.00519384,-0.01766849
 ,0.00664455,0.06616603,0.30060300,0.00000203,-0.00000088,0.00000044,-0
 .00000133,0.00000044,0.00000088,0.00000356,0.00000038,0.00000003,-0.00
 000532,0.00000618,-0.00000545,0.00000139,-0.00000212,0.00000080,-0.000
 00145,0.00000081,0.00000016,0.00000418,0.00000112,0.00001024,-0.000034
 62,0.00001576,-0.00001606,-0.00001002,-0.00007153,0.00003811,0.0000032
 5,-0.00001885,0.00000847,0.00001172,-0.00000144,0.00000433,-0.00000155
 ,0.00000044,-0.00000098,0.00000037,-0.00000009,0.00000010,-0.00000074,
 -0.00000207,-0.00000188,-0.00000011,0.00000048,-0.00000009,0.00000931,
 -0.00000673,-0.00000286,0.00002830,0.00009643,-0.00004874,-0.00000235,
 -0.00000143,-0.00000041,-0.00000329,-0.00000141,0.00000020,0.00000021,
 0.00000019,-0.00000168,-0.00000061,0.00000111,0.00000129,-0.00000046,-
 0.00000020,0.00000009,-0.00000048,-0.00000010,-0.00000003,-0.00000031,
 -0.00000028,-0.00000007,0.00000032,-0.00000045,0.00000009,0.00000007,0
 .00000001,-0.00000009,-0.00000097,0.00000012,-0.00000064,-0.00000005,-
 0.00000009,-0.00000003,0.00000045,0.00000057,0.00000022,0.00075808,0.0
 0021440,0.00051307,-0.00226453,0.00119570,-0.00088230,-0.00074802,-0.0
 0111689,0.00015883,-0.00324580,-0.01251282,0.00318986,0.02129386,0.078
 85215,-0.07533252,0.00071771,-0.00005771,0.00043315,0.00046135,0.00036
 217,0.00013362,-0.00394271,-0.01109058,0.00341795,-0.02058962,-0.08627
 709,0.07668511,0.00000183,-0.00000072,0.00000098,0.00000015,0.00000013
 ,-0.00000094,0.00000080,0.00000168,0.00000203,-0.00000410,0.00000298,-
 0.00000109,0.00000145,-0.00000236,0.00000124,-0.00000140,-0.00000023,-
 0.00000035,-0.00000139,-0.00001394,0.00000616,-0.00000858,0.00000915,-
 0.00001037,-0.00001022,-0.00003327,0.00001301,-0.00000205,-0.00001158,
 0.00000611,0.00000641,-0.00000119,0.00000210,-0.00000033,-0.00000078,-
 0.00000082,0.00000028,0.00000034,0.00000017,0.00000010,-0.00000054,-0.
 00000130,0.00000005,-0.00000005,-0.00000029,0.00000776,0.00002307,-0.0
 0000229,0.00002063,0.00004950,-0.00001171,-0.00000185,-0.00000071,-0.0
 0000032,-0.00000185,-0.00000103,0.00000042,-0.00000053,-0.00000005,-0.
 00000084,0.00000006,0.00000091,0.00000121,-0.00000058,-0.00000030,0.00
 000026,-0.00000021,-0.00000008,-0.00000020,-0.00000005,-0.00000008,-0.
 00000003,-0.00000009,0.00000064,-0.00000007,0.00000004,-0.00000019,-0.
 00000002,-0.00000148,0.00000319,-0.00000169,0.00000036,-0.00000253,0.0
 0000088,0.00000040,-0.00000066,0.00000036,0.00007893,-0.00038988,0.000
 41266,0.00106249,0.00103982,-0.00043426,-0.00021187,-0.00016921,0.0003
 5177,-0.00062234,0.00045563,-0.03248052,-0.04769015,0.00081562,-0.0038
 7880,-0.00543960,-0.00221472,-0.00197368,0.00151246,0.00059034,0.00048
 626,0.00063473,-0.00181984,0.02235448,-0.00087060,0.00077048,0.0075581
 9,0.05154032,-0.00000365,0.00000284,-0.00000086,0.00000141,-0.00000226
 ,0.00000007,-0.00000270,-0.00000569,-0.00000193,0.00001052,0.00000049,
 0.00000702,-0.00000296,0.00000263,-0.00000108,0.00000180,0.00000201,-0
 .00000038,0.00000854,0.00003794,-0.00000969,-0.00001792,-0.00000231,-0
 .00000659,0.00000341,-0.00000221,0.00000073,0.00000776,0.00000804,-0.0
 0000020,-0.00000272,-0.00000095,-0.00000069,0.00000016,0.00000073,-0.0
 0000003,-0.00000006,-0.00000031,0.00000034,0.00000488,-0.00000135,-0.0
 0000179,-0.00000010,0.,-0.00000040,-0.00000994,-0.00006496,0.00001448,
 -0.00000473,-0.00000558,0.00000459,0.00000049,0.00000027,0.00000019,0.
 00000080,0.00000012,0.00000019,-0.00000027,-0.00000019,-0.00000029,-0.
 00000005,0.00000004,0.00000022,-0.00000013,0.,0.00000004,0.00000024,0.
 ,0.00000008,0.00000008,0.,-0.00000002,0.00000071,-0.00000072,0.0000001
 0,-0.00000015,0.00000016,-0.00000022,0.00000590,-0.00000515,0.00000325
 ,-0.00000129,0.00000436,-0.00000164,-0.00000235,0.00000031,-0.00000051
 ,-0.00019641,0.00007128,-0.00023132,0.00035212,-0.00015854,-0.00044959
 ,0.00000410,0.00006967,0.00015441,0.00016461,-0.00047948,-0.00835136,0
 .00066932,-0.04832141,0.00345653,-0.00165407,0.00024056,-0.00041425,0.
 00020134,0.00018363,0.00047578,-0.00139288,0.00033081,-0.02148658,0.00
 095367,0.00122099,0.03041429,0.00090049,0.04687424,0.00000272,-0.00000
 119,0.00000111,-0.00000322,-0.00000058,0.00000032,0.00000164,0.0000029
 8,0.00000763,-0.00000476,0.00000410,-0.00001255,0.00000044,-0.00000038
 ,0.00000487,-0.00000068,0.00000113,-0.00000186,0.00000169,-0.00000285,
 0.00000902,-0.00002257,0.00000803,-0.00001420,-0.00000700,-0.00004244,
 0.00002469,0.00000201,-0.00001143,0.00000629,0.00000675,-0.00000138,0.
 00000147,0.00000036,-0.00000122,-0.00000266,0.00000096,0.00000029,0.00
 000042,-0.00000217,-0.00001006,-0.00000114,-0.00000011,0.00000038,-0.0
 0000066,0.00001303,0.00000043,0.00000083,0.00001970,0.00006152,-0.0000
 2995,-0.00000110,-0.00000072,-0.00000028,-0.00000238,-0.00000122,0.000
 00084,-0.00000035,0.00000073,-0.00000019,-0.00000036,0.00000084,0.0000
 0149,-0.00000092,-0.00000035,0.00000066,-0.00000023,0.00000019,-0.0000
 0030,-0.00000013,-0.00000010,-0.00000017,0.00000168,-0.00000042,-0.000
 00016,0.00000017,-0.00000020,-0.00000019,-0.00000208,-0.00000294,-0.00
 000075,0.00000004,0.00000214,-0.00000022,0.00000178,0.00000186,0.00000
 071,0.00124409,0.00027419,0.00111286,-0.00042635,0.00196338,-0.0009764
 5,-0.00009287,-0.00068537,0.00029878,-0.00021656,-0.00024093,-0.009725
 56,-0.00566851,0.00192048,-0.32214304,-0.00237212,-0.00037770,0.000757
 67,-0.00016730,0.00013631,0.00066726,-0.00012282,0.00059798,-0.0097651
 0,0.00021620,-0.00002261,-0.00830321,0.00760133,-0.00357287,0.34808169
 \\-0.00003631,0.00002352,-0.00001815,0.00001637,-0.00001523,0.00001062
 ,-0.00002388,-0.00000054,-0.00000384,0.00002159,-0.00000207,0.00002018
 ,-0.00000317,0.00000161,-0.00001056,0.00000859,-0.00001120,0.00000323,
 -0.00000923,0.00000934,-0.00002379,0.00000258,0.00000229,0.00000777,-0
 .00000515,-0.00000519,-0.00000219,-0.00000389,-0.00000154,-0.00000349,
 0.00000648,-0.00000219,-0.00000037,0.00000127,0.00000304,-0.00000078,0
 .00000123,-0.00000042,-0.00000592,0.00000077,-0.00000070,0.00000291,0.
 00000201,-0.00000173,-0.00000510,-0.00000707,-0.00002916,0.00000880,0.
 00001124,0.00004319,-0.00001818,-0.00000014,0.00000081,-0.00000451,-0.
 00000133,0.00000076,-0.00000403,-0.00000009,0.00000129,-0.00000340,0.0
 0000122,0.00000131,-0.00000198,0.00000018,-0.00000011,-0.00000387,0.00
 000052,0.00000314,-0.00000161,0.00000202,0.00000353,-0.00000539,-0.000
 00316,-0.00000186,0.00000207,-0.00000094,-0.00000111,-0.00000429,0.000
 03407,-0.00002101,0.00000957,-0.00000427,0.00000886,-0.00000260,-0.000
 01409,-0.00000916,-0.00000016,-0.00000698,0.00000910,-0.00001254,0.000
 03222,0.00002389,0.00001567,-0.00002269,-0.00003867,0.00001313,-0.0000
 0422,-0.00000170,0.00000519,0.00000071,-0.00000087,0.00000612,0.000001
 88,0.00000282,0.00000567,0.00000021,0.00000106,0.00000408,0.00000046,0
 .00000314,0.00000650,0.00000181,0.00000249,0.00000921,-0.00000083,-0.0
 0000073,0.00000605\\\@


 ACHIEVEMENT--  THE MAN WHO ROWS THE BOAT GENERALLY 
                DOESN'T HAVE TIME TO ROCK IT.

                   -- FROM THE BACK OF A SUGAR PACKET
 Job cpu time:       0 days  5 hours 55 minutes 47.5 seconds.
 File lengths (MBytes):  RWF=    932 Int=      0 D2E=      0 Chk=     28 Scr=      1
 Normal termination of Gaussian 09 at Tue Feb 19 19:27:54 2019.
WARNING: pbs_rusage is deprecated and values produced may not be accurate


=============================================================================
                                     Resource usage:
                                       CPU time:              21:49:28
   JobId:    5892649.r-man2            Elapsed time:          02:46:43
   Project:             q95            Requested time:        42:00:00
   Service Units:     22.23 
                                       Max physical memory:     1544MB
                                       Max virtual memory:      2653MB
                                       Requested memory:           0MB

                                       Number of cpus:               8

                                       Max jobfs disk use:       0.9GB
                                       Requested jobfs:         20.0GB
=============================================================================

