 Entering Gaussian System, Link 0=/apps/gaussian/g09e01/g09/g09
 AtFile(1): /home/507/hio507/Basis/6-31pGd.gbs
 Initial command:
 /apps/gaussian/g09e01/g09/l1.exe "/jobfs/local/7503380.r-man2/Gau-22778.inp" -scrdir="/jobfs/local/7503380.r-man2/"
 Entering Link 1 = /apps/gaussian/g09e01/g09/l1.exe PID=     22779.
  
 Copyright (c) 1988,1990,1992,1993,1995,1998,2003,2009,2015,
            Gaussian, Inc.  All Rights Reserved.
  
 This is part of the Gaussian(R) 09 program.  It is based on
 the Gaussian(R) 03 system (copyright 2003, Gaussian, Inc.),
 the Gaussian(R) 98 system (copyright 1998, Gaussian, Inc.),
 the Gaussian(R) 94 system (copyright 1995, Gaussian, Inc.),
 the Gaussian 92(TM) system (copyright 1992, Gaussian, Inc.),
 the Gaussian 90(TM) system (copyright 1990, Gaussian, Inc.),
 the Gaussian 88(TM) system (copyright 1988, Gaussian, Inc.),
 the Gaussian 86(TM) system (copyright 1986, Carnegie Mellon
 University), and the Gaussian 82(TM) system (copyright 1983,
 Carnegie Mellon University). Gaussian is a federally registered
 trademark of Gaussian, Inc.
  
 This software contains proprietary and confidential information,
 including trade secrets, belonging to Gaussian, Inc.
  
 This software is provided under written license and may be
 used, copied, transmitted, or stored only in accord with that
 written license.
  
 The following legend is applicable only to US Government
 contracts under FAR:
  
                    RESTRICTED RIGHTS LEGEND
  
 Use, reproduction and disclosure by the US Government is
 subject to restrictions as set forth in subparagraphs (a)
 and (c) of the Commercial Computer Software - Restricted
 Rights clause in FAR 52.227-19.
  
 Gaussian, Inc.
 340 Quinnipiac St., Bldg. 40, Wallingford CT 06492
  
  
 ---------------------------------------------------------------
 Warning -- This program may not be used in any manner that
 competes with the business of Gaussian, Inc. or will provide
 assistance to any competitor of Gaussian, Inc.  The licensee
 of this program is prohibited from giving any competitor of
 Gaussian, Inc. access to this program.  By using this program,
 the user acknowledges that Gaussian, Inc. is engaged in the
 business of creating and licensing software in the field of
 computational chemistry and represents and warrants to the
 licensee that it is not a competitor of Gaussian, Inc. and that
 it will not use this program in any manner prohibited above.
 ---------------------------------------------------------------
  

 Cite this work as:
 Gaussian 09, Revision E.01,
 M. J. Frisch, G. W. Trucks, H. B. Schlegel, G. E. Scuseria, 
 M. A. Robb, J. R. Cheeseman, G. Scalmani, V. Barone, B. Mennucci, 
 G. A. Petersson, H. Nakatsuji, M. Caricato, X. Li, H. P. Hratchian, 
 A. F. Izmaylov, J. Bloino, G. Zheng, J. L. Sonnenberg, M. Hada, 
 M. Ehara, K. Toyota, R. Fukuda, J. Hasegawa, M. Ishida, T. Nakajima, 
 Y. Honda, O. Kitao, H. Nakai, T. Vreven, J. A. Montgomery, Jr., 
 J. E. Peralta, F. Ogliaro, M. Bearpark, J. J. Heyd, E. Brothers, 
 K. N. Kudin, V. N. Staroverov, T. Keith, R. Kobayashi, J. Normand, 
 K. Raghavachari, A. Rendell, J. C. Burant, S. S. Iyengar, J. Tomasi, 
 M. Cossi, N. Rega, J. M. Millam, M. Klene, J. E. Knox, J. B. Cross, 
 V. Bakken, C. Adamo, J. Jaramillo, R. Gomperts, R. E. Stratmann, 
 O. Yazyev, A. J. Austin, R. Cammi, C. Pomelli, J. W. Ochterski, 
 R. L. Martin, K. Morokuma, V. G. Zakrzewski, G. A. Voth, 
 P. Salvador, J. J. Dannenberg, S. Dapprich, A. D. Daniels, 
 O. Farkas, J. B. Foresman, J. V. Ortiz, J. Cioslowski, 
 and D. J. Fox, Gaussian, Inc., Wallingford CT, 2013.
 
 ******************************************
 Gaussian 09:  ES64L-G09RevE.01 30-Nov-2015
                 8-Apr-2019 
 ******************************************
 %chk=4Nitro_EtO_c3.M062X_6-31pGd_opt.chk
 %mem=196608000
 %nproc=8
 Will use up to    8 processors via shared memory.
 ----------------------------------------------------------------------
 # M062X/Gen 6D SCF=Tight INT(grid=ultrafine) OPT=CalcFC IOP(2/17=4) ma
 xdisk=2684354560
 ----------------------------------------------------------------------
 1/10=4,14=-1,18=20,19=15,26=4,38=1/1,3;
 2/9=110,12=2,17=4,18=5,40=1/2;
 3/5=7,8=2,11=2,16=1,25=1,30=1,71=2,74=-55,75=-5,140=1/1,2,3;
 4//1;
 5/5=2,32=2,38=5/2;
 8/6=4,10=90,11=11/1;
 11/6=1,8=1,9=11,15=111,16=1/1,2,10;
 10/6=1,13=1/2;
 6/7=2,8=2,9=2,10=2,28=1/1;
 7/10=1,18=20,25=1/1,2,3,16;
 1/10=4,14=-1,18=20,19=15,26=4/3(2);
 2/9=110,17=4/2;
 99//99;
 2/9=110,17=4/2;
 3/5=7,6=1,8=2,11=2,16=1,25=1,30=1,71=1,74=-55,75=-5,82=7/1,2,3;
 4/5=5,16=3,69=1/1;
 5/5=2,32=2,38=5/2;
 7//1,2,3,16;
 1/14=-1,18=20,19=15,26=4/3(-5);
 2/9=110,17=4/2;
 6/7=2,8=2,9=2,10=2,19=2,28=1/1;
 99/9=1/99;
 -------------------------------
 4Nitro_EtO_c3.M062X_6-31pGd_opt
 -------------------------------
 Symbolic Z-matrix:
 Charge = -1 Multiplicity = 1
 C                    -4.02363   3.97393  -1.36157 
 C                    -4.08662   2.62064  -1.01527 
 C                    -2.98055   2.01652  -0.45576 
 C                    -1.78695   2.74749  -0.22789 
 C                    -1.74795   4.11481  -0.58599 
 C                    -2.8621    4.71523  -1.14816 
 N                    -0.74532   2.05371   0.33358 
 C                     0.52465   2.53488   0.64738 
 N                     1.32291   1.59316   1.19332 
 O                     0.88571   3.69721   0.44543 
 C                     2.53505   1.97823   1.88652 
 C                     3.71723   1.17315   1.36031 
 C                     4.90017   1.21973   2.3231 
 H                    -3.00335   0.96584  -0.17889 
 H                    -0.84341   4.6814   -0.41759 
 H                    -0.93932   1.04723   0.53275 
 H                     1.06728   0.58844   1.16154 
 H                     2.42039   1.81859   2.96853 
 H                     2.71468   3.05264   1.74616 
 H                     4.00959   1.56631   0.37927 
 H                     3.4027    0.13616   1.19352 
 H                     4.96926   2.19578   2.81788 
 H                     5.84506   1.0432    1.79893 
 H                     4.80412   0.45674   3.10465 
 H                    -4.99801   2.05988  -1.18866 
 H                    -2.83764   5.76319  -1.42489 
 N                    -5.1795    4.61337  -1.95038 
 O                    -5.07041   5.76853  -2.34853 
 O                    -6.22354   3.97436  -2.02824 
 O                    -1.56117  -0.50015   1.00625 
 C                    -0.753    -1.26047   1.60719 
 O                     0.42556  -0.96582   1.93467 
 C                    -1.22955  -2.67292   1.9714 
 C                    -2.73896  -2.82824   2.09872 
 H                    -0.7264   -2.95311   2.90479 
 H                    -0.83233  -3.34994   1.20443 
 H                    -3.13665  -2.16504   2.87297 
 H                    -3.00661  -3.85935   2.35889 
 H                    -3.23937  -2.56873   1.16119 
 
 Add virtual bond connecting atoms O30        and H16        Dist= 3.28D+00.
 Add virtual bond connecting atoms O32        and H17        Dist= 3.50D+00.

 GradGradGradGradGradGradGradGradGradGradGradGradGradGradGradGradGradGrad
 Berny optimization.
 Initialization pass.
                           ----------------------------
                           !    Initial Parameters    !
                           ! (Angstroms and Degrees)  !
 --------------------------                            --------------------------
 ! Name  Definition              Value          Derivative Info.                !
 --------------------------------------------------------------------------------
 ! R1    R(1,2)                  1.3983         calculate D2E/DX2 analytically  !
 ! R2    R(1,6)                  1.3944         calculate D2E/DX2 analytically  !
 ! R3    R(1,27)                 1.4462         calculate D2E/DX2 analytically  !
 ! R4    R(2,3)                  1.3789         calculate D2E/DX2 analytically  !
 ! R5    R(2,25)                 1.084          calculate D2E/DX2 analytically  !
 ! R6    R(3,4)                  1.4181         calculate D2E/DX2 analytically  !
 ! R7    R(3,14)                 1.0868         calculate D2E/DX2 analytically  !
 ! R8    R(4,5)                  1.414          calculate D2E/DX2 analytically  !
 ! R9    R(4,7)                  1.3717         calculate D2E/DX2 analytically  !
 ! R10   R(5,6)                  1.3849         calculate D2E/DX2 analytically  !
 ! R11   R(5,15)                 1.0805         calculate D2E/DX2 analytically  !
 ! R12   R(6,26)                 1.0842         calculate D2E/DX2 analytically  !
 ! R13   R(7,8)                  1.3939         calculate D2E/DX2 analytically  !
 ! R14   R(7,16)                 1.0442         calculate D2E/DX2 analytically  !
 ! R15   R(8,9)                  1.3499         calculate D2E/DX2 analytically  !
 ! R16   R(8,10)                 1.2338         calculate D2E/DX2 analytically  !
 ! R17   R(9,11)                 1.4485         calculate D2E/DX2 analytically  !
 ! R18   R(9,17)                 1.0372         calculate D2E/DX2 analytically  !
 ! R19   R(11,12)                1.524          calculate D2E/DX2 analytically  !
 ! R20   R(11,18)                1.0997         calculate D2E/DX2 analytically  !
 ! R21   R(11,19)                1.0983         calculate D2E/DX2 analytically  !
 ! R22   R(12,13)                1.5259         calculate D2E/DX2 analytically  !
 ! R23   R(12,20)                1.0966         calculate D2E/DX2 analytically  !
 ! R24   R(12,21)                1.0964         calculate D2E/DX2 analytically  !
 ! R25   R(13,22)                1.0965         calculate D2E/DX2 analytically  !
 ! R26   R(13,23)                1.0949         calculate D2E/DX2 analytically  !
 ! R27   R(13,24)                1.0964         calculate D2E/DX2 analytically  !
 ! R28   R(16,30)                1.7336         calculate D2E/DX2 analytically  !
 ! R29   R(17,32)                1.8507         calculate D2E/DX2 analytically  !
 ! R30   R(27,28)                1.2267         calculate D2E/DX2 analytically  !
 ! R31   R(27,29)                1.2265         calculate D2E/DX2 analytically  !
 ! R32   R(30,31)                1.2619         calculate D2E/DX2 analytically  !
 ! R33   R(31,32)                1.2582         calculate D2E/DX2 analytically  !
 ! R34   R(31,33)                1.5345         calculate D2E/DX2 analytically  !
 ! R35   R(33,34)                1.5227         calculate D2E/DX2 analytically  !
 ! R36   R(33,35)                1.0968         calculate D2E/DX2 analytically  !
 ! R37   R(33,36)                1.0974         calculate D2E/DX2 analytically  !
 ! R38   R(34,37)                1.0943         calculate D2E/DX2 analytically  !
 ! R39   R(34,38)                1.0966         calculate D2E/DX2 analytically  !
 ! R40   R(34,39)                1.0939         calculate D2E/DX2 analytically  !
 ! A1    A(2,1,6)              120.9404         calculate D2E/DX2 analytically  !
 ! A2    A(2,1,27)             119.52           calculate D2E/DX2 analytically  !
 ! A3    A(6,1,27)             119.5395         calculate D2E/DX2 analytically  !
 ! A4    A(1,2,3)              119.2329         calculate D2E/DX2 analytically  !
 ! A5    A(1,2,25)             119.9266         calculate D2E/DX2 analytically  !
 ! A6    A(3,2,25)             120.8404         calculate D2E/DX2 analytically  !
 ! A7    A(2,3,4)              120.9659         calculate D2E/DX2 analytically  !
 ! A8    A(2,3,14)             120.6706         calculate D2E/DX2 analytically  !
 ! A9    A(4,3,14)             118.3635         calculate D2E/DX2 analytically  !
 ! A10   A(3,4,5)              118.7494         calculate D2E/DX2 analytically  !
 ! A11   A(3,4,7)              116.3739         calculate D2E/DX2 analytically  !
 ! A12   A(5,4,7)              124.8766         calculate D2E/DX2 analytically  !
 ! A13   A(4,5,6)              119.9913         calculate D2E/DX2 analytically  !
 ! A14   A(4,5,15)             119.385          calculate D2E/DX2 analytically  !
 ! A15   A(6,5,15)             120.6237         calculate D2E/DX2 analytically  !
 ! A16   A(1,6,5)              120.12           calculate D2E/DX2 analytically  !
 ! A17   A(1,6,26)             119.5789         calculate D2E/DX2 analytically  !
 ! A18   A(5,6,26)             120.3011         calculate D2E/DX2 analytically  !
 ! A19   A(4,7,8)              127.5484         calculate D2E/DX2 analytically  !
 ! A20   A(4,7,16)             115.1197         calculate D2E/DX2 analytically  !
 ! A21   A(8,7,16)             117.328          calculate D2E/DX2 analytically  !
 ! A22   A(7,8,9)              112.8941         calculate D2E/DX2 analytically  !
 ! A23   A(7,8,10)             123.7116         calculate D2E/DX2 analytically  !
 ! A24   A(9,8,10)             123.394          calculate D2E/DX2 analytically  !
 ! A25   A(8,9,11)             120.1966         calculate D2E/DX2 analytically  !
 ! A26   A(8,9,17)             121.1747         calculate D2E/DX2 analytically  !
 ! A27   A(11,9,17)            118.5825         calculate D2E/DX2 analytically  !
 ! A28   A(9,11,12)            110.0879         calculate D2E/DX2 analytically  !
 ! A29   A(9,11,18)            110.1832         calculate D2E/DX2 analytically  !
 ! A30   A(9,11,19)            109.6188         calculate D2E/DX2 analytically  !
 ! A31   A(12,11,18)           110.1154         calculate D2E/DX2 analytically  !
 ! A32   A(12,11,19)           110.2289         calculate D2E/DX2 analytically  !
 ! A33   A(18,11,19)           106.5464         calculate D2E/DX2 analytically  !
 ! A34   A(11,12,13)           111.5531         calculate D2E/DX2 analytically  !
 ! A35   A(11,12,20)           109.045          calculate D2E/DX2 analytically  !
 ! A36   A(11,12,21)           109.2466         calculate D2E/DX2 analytically  !
 ! A37   A(13,12,20)           110.2944         calculate D2E/DX2 analytically  !
 ! A38   A(13,12,21)           110.319          calculate D2E/DX2 analytically  !
 ! A39   A(20,12,21)           106.2299         calculate D2E/DX2 analytically  !
 ! A40   A(12,13,22)           111.1453         calculate D2E/DX2 analytically  !
 ! A41   A(12,13,23)           111.2255         calculate D2E/DX2 analytically  !
 ! A42   A(12,13,24)           111.1364         calculate D2E/DX2 analytically  !
 ! A43   A(22,13,23)           107.7691         calculate D2E/DX2 analytically  !
 ! A44   A(22,13,24)           107.657          calculate D2E/DX2 analytically  !
 ! A45   A(23,13,24)           107.7376         calculate D2E/DX2 analytically  !
 ! A46   A(9,17,32)            152.393          calculate D2E/DX2 analytically  !
 ! A47   A(1,27,28)            118.5169         calculate D2E/DX2 analytically  !
 ! A48   A(1,27,29)            118.4114         calculate D2E/DX2 analytically  !
 ! A49   A(28,27,29)           123.0718         calculate D2E/DX2 analytically  !
 ! A50   A(16,30,31)           115.986          calculate D2E/DX2 analytically  !
 ! A51   A(30,31,32)           125.6447         calculate D2E/DX2 analytically  !
 ! A52   A(30,31,33)           117.952          calculate D2E/DX2 analytically  !
 ! A53   A(32,31,33)           116.4025         calculate D2E/DX2 analytically  !
 ! A54   A(17,32,31)           114.3764         calculate D2E/DX2 analytically  !
 ! A55   A(31,33,34)           114.9339         calculate D2E/DX2 analytically  !
 ! A56   A(31,33,35)           107.1376         calculate D2E/DX2 analytically  !
 ! A57   A(31,33,36)           106.8312         calculate D2E/DX2 analytically  !
 ! A58   A(34,33,35)           110.9489         calculate D2E/DX2 analytically  !
 ! A59   A(34,33,36)           110.7504         calculate D2E/DX2 analytically  !
 ! A60   A(35,33,36)           105.7308         calculate D2E/DX2 analytically  !
 ! A61   A(33,34,37)           110.9523         calculate D2E/DX2 analytically  !
 ! A62   A(33,34,38)           110.9585         calculate D2E/DX2 analytically  !
 ! A63   A(33,34,39)           110.9519         calculate D2E/DX2 analytically  !
 ! A64   A(37,34,38)           108.2582         calculate D2E/DX2 analytically  !
 ! A65   A(37,34,39)           107.2391         calculate D2E/DX2 analytically  !
 ! A66   A(38,34,39)           108.3451         calculate D2E/DX2 analytically  !
 ! A67   L(7,16,30,2,-1)       171.8497         calculate D2E/DX2 analytically  !
 ! A68   L(7,16,30,2,-2)       188.7257         calculate D2E/DX2 analytically  !
 ! D1    D(6,1,2,3)             -0.0325         calculate D2E/DX2 analytically  !
 ! D2    D(6,1,2,25)          -179.9865         calculate D2E/DX2 analytically  !
 ! D3    D(27,1,2,3)           179.9213         calculate D2E/DX2 analytically  !
 ! D4    D(27,1,2,25)           -0.0327         calculate D2E/DX2 analytically  !
 ! D5    D(2,1,6,5)             -0.0013         calculate D2E/DX2 analytically  !
 ! D6    D(2,1,6,26)          -179.9925         calculate D2E/DX2 analytically  !
 ! D7    D(27,1,6,5)          -179.9551         calculate D2E/DX2 analytically  !
 ! D8    D(27,1,6,26)            0.0538         calculate D2E/DX2 analytically  !
 ! D9    D(2,1,27,28)         -174.0576         calculate D2E/DX2 analytically  !
 ! D10   D(2,1,27,29)            5.9357         calculate D2E/DX2 analytically  !
 ! D11   D(6,1,27,28)            5.8968         calculate D2E/DX2 analytically  !
 ! D12   D(6,1,27,29)         -174.1099         calculate D2E/DX2 analytically  !
 ! D13   D(1,2,3,4)              0.0404         calculate D2E/DX2 analytically  !
 ! D14   D(1,2,3,14)          -179.9266         calculate D2E/DX2 analytically  !
 ! D15   D(25,2,3,4)           179.9939         calculate D2E/DX2 analytically  !
 ! D16   D(25,2,3,14)            0.027          calculate D2E/DX2 analytically  !
 ! D17   D(2,3,4,5)             -0.015          calculate D2E/DX2 analytically  !
 ! D18   D(2,3,4,7)            179.9738         calculate D2E/DX2 analytically  !
 ! D19   D(14,3,4,5)           179.9527         calculate D2E/DX2 analytically  !
 ! D20   D(14,3,4,7)            -0.0586         calculate D2E/DX2 analytically  !
 ! D21   D(3,4,5,6)             -0.0191         calculate D2E/DX2 analytically  !
 ! D22   D(3,4,5,15)          -179.9531         calculate D2E/DX2 analytically  !
 ! D23   D(7,4,5,6)            179.9932         calculate D2E/DX2 analytically  !
 ! D24   D(7,4,5,15)             0.0593         calculate D2E/DX2 analytically  !
 ! D25   D(3,4,7,8)            179.5553         calculate D2E/DX2 analytically  !
 ! D26   D(3,4,7,16)             0.3042         calculate D2E/DX2 analytically  !
 ! D27   D(5,4,7,8)             -0.4568         calculate D2E/DX2 analytically  !
 ! D28   D(5,4,7,16)          -179.7078         calculate D2E/DX2 analytically  !
 ! D29   D(4,5,6,1)              0.0271         calculate D2E/DX2 analytically  !
 ! D30   D(4,5,6,26)          -179.9818         calculate D2E/DX2 analytically  !
 ! D31   D(15,5,6,1)           179.9602         calculate D2E/DX2 analytically  !
 ! D32   D(15,5,6,26)           -0.0487         calculate D2E/DX2 analytically  !
 ! D33   D(4,7,8,9)            179.9539         calculate D2E/DX2 analytically  !
 ! D34   D(4,7,8,10)            -0.2367         calculate D2E/DX2 analytically  !
 ! D35   D(16,7,8,9)            -0.8094         calculate D2E/DX2 analytically  !
 ! D36   D(16,7,8,10)          179.0            calculate D2E/DX2 analytically  !
 ! D37   D(4,7,30,31)         -175.9765         calculate D2E/DX2 analytically  !
 ! D38   D(8,7,30,31)           -0.641          calculate D2E/DX2 analytically  !
 ! D39   D(7,8,9,11)          -164.2449         calculate D2E/DX2 analytically  !
 ! D40   D(7,8,9,17)            13.246          calculate D2E/DX2 analytically  !
 ! D41   D(10,8,9,11)           15.9451         calculate D2E/DX2 analytically  !
 ! D42   D(10,8,9,17)         -166.5641         calculate D2E/DX2 analytically  !
 ! D43   D(8,9,11,12)         -129.3675         calculate D2E/DX2 analytically  !
 ! D44   D(8,9,11,18)          108.9926         calculate D2E/DX2 analytically  !
 ! D45   D(8,9,11,19)           -7.9537         calculate D2E/DX2 analytically  !
 ! D46   D(17,9,11,12)          53.0772         calculate D2E/DX2 analytically  !
 ! D47   D(17,9,11,18)         -68.5627         calculate D2E/DX2 analytically  !
 ! D48   D(17,9,11,19)         174.491          calculate D2E/DX2 analytically  !
 ! D49   D(8,9,17,32)         -103.2798         calculate D2E/DX2 analytically  !
 ! D50   D(11,9,17,32)          74.2505         calculate D2E/DX2 analytically  !
 ! D51   D(9,11,12,13)        -162.4042         calculate D2E/DX2 analytically  !
 ! D52   D(9,11,12,20)          75.5319         calculate D2E/DX2 analytically  !
 ! D53   D(9,11,12,21)         -40.1713         calculate D2E/DX2 analytically  !
 ! D54   D(18,11,12,13)        -40.724          calculate D2E/DX2 analytically  !
 ! D55   D(18,11,12,20)       -162.7878         calculate D2E/DX2 analytically  !
 ! D56   D(18,11,12,21)         81.5089         calculate D2E/DX2 analytically  !
 ! D57   D(19,11,12,13)         76.5467         calculate D2E/DX2 analytically  !
 ! D58   D(19,11,12,20)        -45.5172         calculate D2E/DX2 analytically  !
 ! D59   D(19,11,12,21)       -161.2204         calculate D2E/DX2 analytically  !
 ! D60   D(11,12,13,22)        -35.1013         calculate D2E/DX2 analytically  !
 ! D61   D(11,12,13,23)       -155.1837         calculate D2E/DX2 analytically  !
 ! D62   D(11,12,13,24)         84.7797         calculate D2E/DX2 analytically  !
 ! D63   D(20,12,13,22)         86.2395         calculate D2E/DX2 analytically  !
 ! D64   D(20,12,13,23)        -33.8429         calculate D2E/DX2 analytically  !
 ! D65   D(20,12,13,24)       -153.8795         calculate D2E/DX2 analytically  !
 ! D66   D(21,12,13,22)       -156.7151         calculate D2E/DX2 analytically  !
 ! D67   D(21,12,13,23)         83.2025         calculate D2E/DX2 analytically  !
 ! D68   D(21,12,13,24)        -36.8341         calculate D2E/DX2 analytically  !
 ! D69   D(9,17,32,31)         103.6962         calculate D2E/DX2 analytically  !
 ! D70   D(16,30,31,32)          3.296          calculate D2E/DX2 analytically  !
 ! D71   D(16,30,31,33)       -176.3629         calculate D2E/DX2 analytically  !
 ! D72   D(30,31,32,17)        -12.2328         calculate D2E/DX2 analytically  !
 ! D73   D(33,31,32,17)        167.4308         calculate D2E/DX2 analytically  !
 ! D74   D(30,31,33,34)        -24.1018         calculate D2E/DX2 analytically  !
 ! D75   D(30,31,33,35)       -147.8787         calculate D2E/DX2 analytically  !
 ! D76   D(30,31,33,36)         99.1857         calculate D2E/DX2 analytically  !
 ! D77   D(32,31,33,34)        156.2077         calculate D2E/DX2 analytically  !
 ! D78   D(32,31,33,35)         32.4308         calculate D2E/DX2 analytically  !
 ! D79   D(32,31,33,36)        -80.5048         calculate D2E/DX2 analytically  !
 ! D80   D(31,33,34,37)        -59.6568         calculate D2E/DX2 analytically  !
 ! D81   D(31,33,34,38)        179.9509         calculate D2E/DX2 analytically  !
 ! D82   D(31,33,34,39)         59.4492         calculate D2E/DX2 analytically  !
 ! D83   D(35,33,34,37)         62.0748         calculate D2E/DX2 analytically  !
 ! D84   D(35,33,34,38)        -58.3175         calculate D2E/DX2 analytically  !
 ! D85   D(35,33,34,39)       -178.8192         calculate D2E/DX2 analytically  !
 ! D86   D(36,33,34,37)        179.1715         calculate D2E/DX2 analytically  !
 ! D87   D(36,33,34,38)         58.7792         calculate D2E/DX2 analytically  !
 ! D88   D(36,33,34,39)        -61.7225         calculate D2E/DX2 analytically  !
 --------------------------------------------------------------------------------
 Trust Radius=3.00D-01 FncErr=1.00D-07 GrdErr=1.00D-06
 Number of steps in this run=    206 maximum allowed number of steps=    234.
 GradGradGradGradGradGradGradGradGradGradGradGradGradGradGradGradGradGrad

                          Input orientation:                          
 ---------------------------------------------------------------------
 Center     Atomic      Atomic             Coordinates (Angstroms)
 Number     Number       Type             X           Y           Z
 ---------------------------------------------------------------------
      1          6           0       -4.023630    3.973930   -1.361570
      2          6           0       -4.086620    2.620640   -1.015270
      3          6           0       -2.980550    2.016520   -0.455760
      4          6           0       -1.786950    2.747490   -0.227890
      5          6           0       -1.747950    4.114810   -0.585990
      6          6           0       -2.862100    4.715230   -1.148160
      7          7           0       -0.745320    2.053710    0.333580
      8          6           0        0.524650    2.534880    0.647380
      9          7           0        1.322910    1.593160    1.193320
     10          8           0        0.885710    3.697210    0.445430
     11          6           0        2.535050    1.978230    1.886520
     12          6           0        3.717230    1.173150    1.360310
     13          6           0        4.900170    1.219730    2.323100
     14          1           0       -3.003350    0.965840   -0.178890
     15          1           0       -0.843410    4.681400   -0.417590
     16          1           0       -0.939320    1.047230    0.532750
     17          1           0        1.067280    0.588440    1.161540
     18          1           0        2.420390    1.818590    2.968530
     19          1           0        2.714680    3.052640    1.746160
     20          1           0        4.009590    1.566310    0.379270
     21          1           0        3.402700    0.136160    1.193520
     22          1           0        4.969260    2.195780    2.817880
     23          1           0        5.845060    1.043200    1.798930
     24          1           0        4.804120    0.456740    3.104650
     25          1           0       -4.998010    2.059880   -1.188660
     26          1           0       -2.837640    5.763190   -1.424890
     27          7           0       -5.179500    4.613370   -1.950380
     28          8           0       -5.070410    5.768530   -2.348530
     29          8           0       -6.223540    3.974360   -2.028240
     30          8           0       -1.561170   -0.500150    1.006250
     31          6           0       -0.753000   -1.260470    1.607190
     32          8           0        0.425560   -0.965820    1.934670
     33          6           0       -1.229550   -2.672920    1.971400
     34          6           0       -2.738960   -2.828240    2.098720
     35          1           0       -0.726400   -2.953110    2.904790
     36          1           0       -0.832330   -3.349940    1.204430
     37          1           0       -3.136650   -2.165040    2.872970
     38          1           0       -3.006610   -3.859350    2.358890
     39          1           0       -3.239370   -2.568730    1.161190
 ---------------------------------------------------------------------
                    Distance matrix (angstroms):
                    1          2          3          4          5
     1  C    0.000000
     2  C    1.398315   0.000000
     3  C    2.395822   1.378914   0.000000
     4  C    2.791437   2.434038   1.418070   0.000000
     5  C    2.408338   2.808238   2.437023   1.413973   0.000000
     6  C    1.394353   2.429900   2.788635   2.423808   1.384872
     7  N    4.160300   3.647615   2.370800   1.371704   2.469617
     8  C    5.176253   4.902609   3.711070   2.480886   3.030197
     9  N    6.386002   5.932672   4.628009   3.608815   4.353716
    10  O    5.238649   5.293082   4.311012   2.915208   2.859088
    11  C    7.586118   7.258071   5.992461   4.872594   5.387241
    12  C    8.670289   8.284847   6.990682   5.941121   6.504586
    13  C   10.039752   9.688635   8.394205   7.318413   7.812925
    14  H    3.389441   2.147410   1.086787   2.157848   3.414348
    15  H    3.391963   3.888748   3.416198   2.160153   1.080544
    16  H    4.654781   3.844149   2.466434   2.046444   3.363853
    17  H    6.614000   5.952396   4.586938   3.839094   4.838870
    18  H    8.057335   7.671709   6.398054   5.364855   5.939890
    19  H    7.477405   7.353217   6.193355   4.924902   5.146085
    20  H    8.565032   8.282812   7.054220   5.946739   6.369917
    21  H    8.741129   8.193980   6.855783   5.980963   6.747259
    22  H   10.074805   9.842891   8.599322   7.431519   7.771095
    23  H   10.768889  10.442524   9.160915   8.078377   8.530910
    24  H   10.499853  10.035012   8.701179   7.732759   8.362531
    25  H    2.154739   1.084042   2.146897   3.421519   3.892151
    26  H    2.147564   3.406371   3.872618   3.410455   2.146703
    27  N    1.446242   2.457598   3.716571   4.237673   3.726346
    28  O    2.300093   3.557336   4.693365   4.940132   4.108537
    29  O    2.298707   2.724902   4.101563   4.942651   4.704330
    30  O    5.629180   4.494861   3.238169   3.481558   4.885486
    31  C    6.849051   5.749203   4.467259   4.527727   5.890127
    32  O    7.420352   6.474922   5.119579   4.833274   6.073769
    33  C    7.943311   6.716013   5.563089   5.876088   7.272019
    34  C    7.739089   6.418989   5.482284   6.116225   7.509708
    35  H    8.778237   7.597673   6.408721   6.590546   7.948874
    36  H    8.390937   7.152992   6.014148   6.335731   7.730877
    37  H    7.510327   6.238877   5.346986   5.964057   7.302699
    38  H    8.731347   7.385232   6.515273   7.199259   8.593240
    39  H    7.055904   5.690727   4.868884   5.683420   7.067296
                    6          7          8          9         10
     6  C    0.000000
     7  N    3.709447   0.000000
     8  C    4.409985   1.393850   0.000000
     9  N    5.722251   2.286664   1.349854   0.000000
    10  O    4.197853   2.318159   1.233758   2.275414   0.000000
    11  C    6.769762   3.630172   2.426321   1.448478   2.784233
    12  C    7.882026   4.663037   3.543324   2.436609   3.901973
    13  C    9.193530   6.043614   4.866501   3.769966   5.077346
    14  H    3.875224   2.558278   3.948594   4.581814   4.793219
    15  H    2.147088   2.734709   2.759220   4.101853   2.168707
    16  H    4.469537   1.044178   2.090323   2.419107   3.218812
    17  H    6.148588   2.473470   2.085051   1.037217   3.195345
    18  H    7.296736   4.125526   3.081337   2.099203   3.500070
    19  H    6.499367   3.868442   2.504321   2.091109   2.335059
    20  H    7.711606   4.780043   3.626957   2.807427   3.782028
    21  H    8.105496   4.650007   3.786198   2.539365   4.424472
    22  H    9.132760   6.232845   4.957884   4.037105   4.955622
    23  H    9.898676   6.826528   5.644284   4.595548   5.785403
    24  H    9.746387   6.405109   5.354503   4.130794   5.738121
    25  H    3.408025   4.516926   5.839216   6.770944   6.322125
    26  H    1.084158   4.607631   5.101106   6.446266   4.650775
    27  N    2.454440   5.606272   6.603469   7.828528   6.585289
    28  O    2.725245   6.300794   7.122967   8.417420   6.897242
    29  O    3.552845   6.267215   7.400616   8.543856   7.532416
    30  O    5.790863   2.764109   3.700113   3.568593   4.890764
    31  C    6.910083   3.550483   4.118046   3.553012   5.349173
    32  O    7.251681   3.612757   3.731198   2.811266   4.916647
    33  C    8.184231   5.025730   5.652559   5.031888   6.883420
    34  C    8.213485   5.560913   6.443648   6.071846   7.645463
    35  H    8.932584   5.628475   6.064574   5.272321   7.271458
    36  H    8.643009   5.474065   6.064883   5.392534   7.293152
    37  H    7.973894   5.474012   6.359844   6.069017   7.512543
    38  H    9.265188   6.646773   7.502349   7.059261   8.712811
    39  H    7.650588   5.317159   6.362286   6.175497   7.535954
                   11         12         13         14         15
    11  C    0.000000
    12  C    1.524008   0.000000
    13  C    2.521848   1.525936   0.000000
    14  H    5.997060   6.897703   8.293976   0.000000
    15  H    4.902045   6.022307   7.244533   4.304382   0.000000
    16  H    3.843267   4.731191   6.110217   2.184783   3.757597
    17  H    2.147431   2.720961   4.054478   4.302233   4.785051
    18  H    1.099717   2.164430   2.631449   6.328538   5.505804
    19  H    1.098328   2.164825   2.910118   6.384075   4.471541
    20  H    2.148429   1.096580   2.166039   7.060696   5.821545
    21  H    2.150881   1.096402   2.166216   6.603738   6.425288
    22  H    2.615366   2.176663   1.096474   8.605573   7.101669
    23  H    3.440657   2.176450   1.094867   9.067090   7.930012
    24  H    2.991229   2.176533   1.096449   8.485128   7.883433
    25  H    8.136977   9.123538  10.536236   2.489021   4.972687
    26  H    7.359155   8.473023   9.724411   4.959289   2.482313
    27  N    9.009997  10.096910  11.462075   4.601987   4.599538
    28  O    9.494474  10.587522  11.913361   5.660910   4.772621
    29  O    9.799121  10.869589  12.258021   4.779217   5.660380
    30  O    4.867881   5.548585   6.814763   2.373514   5.421343
    31  C    4.623686   5.095725   6.214680   3.634641   6.278035
    32  O    3.622112   3.967389   4.994962   4.467199   6.247760
    33  C    5.984364   6.295738   7.269793   4.583742   7.742248
    34  C    7.138793   7.631432   8.648278   4.433109   8.143686
    35  H    5.999337   6.257578   7.029171   5.481948   8.326923
    36  H    6.339865   6.417253   7.415852   5.025222   8.193503
    37  H    7.092810   7.772215   8.737820   4.374246   7.934764
    38  H    8.062907   8.457733   9.397633   5.451862   9.237569
    39  H    7.385450   7.901620   9.052877   3.787440   7.797279
                   16         17         18         19         20
    16  H    0.000000
    17  H    2.152280   0.000000
    18  H    4.220861   2.570873   0.000000
    19  H    4.341169   3.021256   1.761725   0.000000
    20  H    4.978424   3.197712   3.048519   2.398824   0.000000
    21  H    4.485510   2.379026   2.635558   3.047070   1.754038
    22  H    6.438346   4.533481   2.581028   2.639304   2.695184
    23  H    6.901524   4.841514   3.701021   3.720203   2.378661
    24  H    6.320637   4.213905   2.748697   3.598604   3.047970
    25  H    4.523459   6.669057   8.507239   8.311698   9.156357
    26  H    5.447591   6.979689   7.906256   6.944847   8.231243
    27  N    6.071443   8.056449   9.474429   8.855414   9.957471
    28  O    6.903503   8.764996   9.999262   9.205986  10.370436
    29  O    6.561230   8.648422  10.214332   9.746150  10.784793
    30  O    1.733576   2.849192   5.007985   5.608269   5.974674
    31  C    2.552375   2.632583   4.626474   5.535976   5.672807
    32  O    2.807249   1.850745   3.577870   4.628566   4.655773
    33  C    3.999183   4.070353   5.872818   6.956272   6.924921
    34  C    4.550850   5.199949   6.997749   8.028153   8.234774
    35  H    4.655602   4.335757   5.716246   7.018012   7.016624
    36  H    4.449461   4.372779   6.356567   7.339467   6.949431
    37  H    4.541318   5.308830   6.838065   7.920350   8.438617
    38  H    5.628766   6.149233   7.878007   8.993565   9.087560
    39  H    4.331320   5.339940   7.385658   8.209306   8.381967
                   21         22         23         24         25
    21  H    0.000000
    22  H    3.055273   0.000000
    23  H    2.674765   1.770233   0.000000
    24  H    2.391478   1.770245   1.769858   0.000000
    25  H    8.941331  10.743245  11.292985  10.820551   0.000000
    26  H    8.801215   9.574717  10.395220  10.347543   4.293892
    27  N   10.177606  11.470762  12.179670  11.937486   2.670855
    28  O   10.773268  11.842775  12.596732  12.468305   3.886467
    29  O   10.852466  12.325867  12.995770  12.662128   2.423232
    30  O    5.007990   7.293597   7.606741   6.770217   4.814899
    31  C    4.403583   6.793798   6.991284   6.006062   6.071376
    32  O    3.259912   5.605442   5.781485   4.750191   6.951630
    33  C    5.473004   7.927548   7.993085   6.890878   6.825443
    34  C    6.879465   9.229010   9.421429   8.288609   6.309033
    35  H    5.433369   7.678487   7.770296   6.500282   7.754551
    36  H    5.485298   8.186371   8.015026   7.061956   7.235048
    37  H    7.132964   9.204649   9.597785   8.365598   6.149101
    38  H    7.642084  10.024459  10.134131   8.955015   7.182483
    39  H    7.171790   9.634666   9.796919   8.810689   5.480752
                   26         27         28         29         30
    26  H    0.000000
    27  N    2.661303   0.000000
    28  O    2.416278   1.226711   0.000000
    29  O    3.876630   1.226546   2.156697   0.000000
    30  O    6.838804   6.926908   7.928787   7.139122   0.000000
    31  C    7.929126   8.170202   9.148475   8.399203   1.261885
    32  O    8.198457   8.811224   9.690354   9.182623   2.241854
    33  C    9.235188   9.169105  10.230937   9.226234   2.400503
    34  C    9.286454   8.816405   9.955810   8.686165   2.828548
    35  H    9.958783  10.032666  11.069544  10.126360   3.212212
    36  H    9.694521   9.605468  10.664490   9.651978   2.948184
    37  H    9.023183   8.566492   9.692524   8.440556   2.956119
    38  H   10.341123   9.750807  10.913989   9.537429   3.899123
    39  H    8.733275   8.064027   9.229342   7.867005   2.668218
                   31         32         33         34         35
    31  C    0.000000
    32  O    1.258199   0.000000
    33  C    1.534524   2.378009   0.000000
    34  C    2.577507   3.675555   1.522712   0.000000
    35  H    2.132957   2.493485   1.096760   2.171575   0.000000
    36  H    2.129412   2.792770   1.097444   2.169600   1.749263
    37  H    2.846442   3.874000   2.169747   1.094283   2.536015
    38  H    3.521078   4.509132   2.171568   1.096591   2.513690
    39  H    2.844731   4.074224   2.169487   1.093946   3.082679
                   36         37         38         39
    36  H    0.000000
    37  H    3.081867   0.000000
    38  H    2.513915   1.775352   0.000000
    39  H    2.531008   1.761734   1.776053   0.000000
 Stoichiometry    C13H18N3O5(1-)
 Framework group  C1[X(C13H18N3O5)]
 Deg. of freedom   111
 Full point group                 C1      NOp   1
 Largest Abelian subgroup         C1      NOp   1
 Largest concise Abelian subgroup C1      NOp   1
                         Standard orientation:                         
 ---------------------------------------------------------------------
 Center     Atomic      Atomic             Coordinates (Angstroms)
 Number     Number       Type             X           Y           Z
 ---------------------------------------------------------------------
      1          6           0       -3.958257   -0.294883    0.027678
      2          6           0       -3.204582    0.873484    0.176604
      3          6           0       -1.828108    0.791497    0.176693
      4          6           0       -1.171503   -0.456519    0.027529
      5          6           0       -1.955345   -1.623801   -0.122026
      6          6           0       -3.337335   -1.534523   -0.120541
      7          7           0        0.199862   -0.428951    0.040534
      8          6           0        1.072372   -1.509476   -0.077838
      9          7           0        2.370810   -1.143938   -0.027381
     10          8           0        0.700667   -2.678343   -0.211046
     11          6           0        3.403089   -2.059575   -0.467948
     12          6           0        4.485195   -2.180718    0.598340
     13          6           0        5.771595   -2.770080    0.027105
     14          1           0       -1.219570    1.684525    0.291969
     15          1           0       -1.465683   -2.580300   -0.235668
     16          1           0        0.623029    0.517466    0.165163
     17          1           0        2.649880   -0.196048    0.287965
     18          1           0        3.841708   -1.710141   -1.413932
     19          1           0        2.960237   -3.043504   -0.673105
     20          1           0        4.111494   -2.806056    1.417967
     21          1           0        4.678644   -1.192001    1.030906
     22          1           0        5.555238   -3.519956   -0.743044
     23          1           0        6.366337   -3.255097    0.807986
     24          1           0        6.393335   -1.992099   -0.431573
     25          1           0       -3.704418    1.828603    0.290880
     26          1           0       -3.943215   -2.426324   -0.234550
     27          7           0       -5.402362   -0.216285    0.028417
     28          8           0       -6.045728   -1.260545    0.007938
     29          8           0       -5.926459    0.892447    0.049636
     30          8           0        1.094274    2.185194    0.121611
     31          6           0        2.334910    2.407784    0.061369
     32          8           0        3.233563    1.531669   -0.027578
     33          6           0        2.806857    3.867231    0.106593
     34          6           0        1.774838    4.890029   -0.348899
     35          1           0        3.717405    3.931430   -0.501406
     36          1           0        3.123259    4.067062    1.138262
     37          1           0        1.467820    4.702565   -1.382365
     38          1           0        2.178684    5.907830   -0.289716
     39          1           0        0.874739    4.840175    0.270821
 ---------------------------------------------------------------------
 Rotational constants (GHZ):      0.3786928      0.1391059      0.1026369
 General basis read from cards:  (6D, 7F)
 There are   435 symmetry adapted cartesian basis functions of A   symmetry.
 There are   435 symmetry adapted basis functions of A   symmetry.
   435 basis functions,   744 primitive gaussians,   435 cartesian basis functions
    79 alpha electrons       79 beta electrons
       nuclear repulsion energy      1625.8498674666 Hartrees.
 NAtoms=   39 NActive=   39 NUniq=   39 SFac= 1.00D+00 NAtFMM=   60 NAOKFM=F Big=F
 Integral buffers will be    131072 words long.
 Raffenetti 2 integral format.
 Two-electron integral symmetry is turned on.
 One-electron integrals computed using PRISM.
 NBasis=   435 RedAO= T EigKep=  1.34D-06  NBF=   435
 NBsUse=   434 1.00D-06 EigRej=  9.00D-07 NBFU=   434
 ExpMin= 4.38D-02 ExpMax= 5.48D+03 ExpMxC= 8.25D+02 IAcc=3 IRadAn=         5 AccDes= 0.00D+00
 Harris functional with IExCor= 1009 and IRadAn=       5 diagonalized for initial guess.
 HarFok:  IExCor= 1009 AccDes= 0.00D+00 IRadAn=         5 IDoV= 1 UseB2=F ITyADJ=14
 ICtDFT=  3500011 ScaDFX=  1.000000  1.000000  1.000000  1.000000
 FoFCou: FMM=F IPFlag=           0 FMFlag=      100000 FMFlg1=           0
         NFxFlg=           0 DoJE=T BraDBF=F KetDBF=T FulRan=T
         wScrn=  0.000000 ICntrl=     500 IOpCl=  0 I1Cent=   200000004 NGrid=           0
         NMat0=    1 NMatS0=      1 NMatT0=    0 NMatD0=    1 NMtDS0=    0 NMtDT0=    0
 Petite list used in FoFCou.
 Requested convergence on RMS density matrix=1.00D-08 within 128 cycles.
 Requested convergence on MAX density matrix=1.00D-06.
 Requested convergence on             energy=1.00D-06.
 No special actions if energy rises.
 SCF Done:  E(RM062X) =  -1046.25055107     A.U. after   16 cycles
            NFock= 16  Conv=0.75D-08     -V/T= 2.0084
 DoSCS=F DFT=T ScalE2(SS,OS)=  1.000000  1.000000
 Range of M.O.s used for correlation:     1   434
 NBasis=   435 NAE=    79 NBE=    79 NFC=     0 NFV=     0
 NROrb=    434 NOA=    79 NOB=    79 NVA=   355 NVB=   355

 **** Warning!!: The largest alpha MO coefficient is  0.16684567D+03

 Symmetrizing basis deriv contribution to polar:
 IMax=3 JMax=2 DiffMx= 0.00D+00
 G2DrvN: will do    40 centers at a time, making    1 passes.
 Calling FoFCou, ICntrl=  3107 FMM=F I1Cent=   0 AccDes= 0.00D+00.
 End of G2Drv F.D. properties file   721 does not exist.
 End of G2Drv F.D. properties file   722 does not exist.
 End of G2Drv F.D. properties file   788 does not exist.
          IDoAtm=111111111111111111111111111111111111111
          Differentiating once with respect to nuclear coordinates.
          There are   120 degrees of freedom in the 1st order CPHF.  IDoFFX=6 NUNeed=     0.
    114 vectors produced by pass  0 Test12= 2.80D-14 1.00D-09 XBig12= 3.33D-01 1.49D-01.
 AX will form   114 AO Fock derivatives at one time.
    114 vectors produced by pass  1 Test12= 2.80D-14 1.00D-09 XBig12= 7.26D-02 9.98D-02.
    114 vectors produced by pass  2 Test12= 2.80D-14 1.00D-09 XBig12= 2.98D-03 1.10D-02.
    114 vectors produced by pass  3 Test12= 2.80D-14 1.00D-09 XBig12= 2.49D-05 6.38D-04.
    114 vectors produced by pass  4 Test12= 2.80D-14 1.00D-09 XBig12= 1.55D-07 4.37D-05.
    114 vectors produced by pass  5 Test12= 2.80D-14 1.00D-09 XBig12= 7.59D-10 3.14D-06.
     88 vectors produced by pass  6 Test12= 2.80D-14 1.00D-09 XBig12= 3.27D-12 2.00D-07.
     21 vectors produced by pass  7 Test12= 2.80D-14 1.00D-09 XBig12= 1.67D-14 1.15D-08.
      5 vectors produced by pass  8 Test12= 2.80D-14 1.00D-09 XBig12= 3.50D-15 8.30D-09.
      5 vectors produced by pass  9 Test12= 2.80D-14 1.00D-09 XBig12= 1.43D-14 1.03D-08.
      5 vectors produced by pass 10 Test12= 2.80D-14 1.00D-09 XBig12= 9.43D-14 3.07D-08.
      5 vectors produced by pass 11 Test12= 2.80D-14 1.00D-09 XBig12= 1.37D-14 1.00D-08.
      5 vectors produced by pass 12 Test12= 2.80D-14 1.00D-09 XBig12= 1.74D-14 1.27D-08.
      5 vectors produced by pass 13 Test12= 2.80D-14 1.00D-09 XBig12= 1.86D-14 1.06D-08.
      5 vectors produced by pass 14 Test12= 2.80D-14 1.00D-09 XBig12= 1.64D-14 1.18D-08.
      5 vectors produced by pass 15 Test12= 2.80D-14 1.00D-09 XBig12= 3.12D-14 1.67D-08.
      5 vectors produced by pass 16 Test12= 2.80D-14 1.00D-09 XBig12= 1.50D-14 1.13D-08.
      5 vectors produced by pass 17 Test12= 2.80D-14 1.00D-09 XBig12= 8.74D-15 7.99D-09.
      5 vectors produced by pass 18 Test12= 2.80D-14 1.00D-09 XBig12= 9.01D-15 8.59D-09.
      5 vectors produced by pass 19 Test12= 2.80D-14 1.00D-09 XBig12= 8.49D-15 6.32D-09.
      5 vectors produced by pass 20 Test12= 2.80D-14 1.00D-09 XBig12= 5.47D-15 4.66D-09.
      5 vectors produced by pass 21 Test12= 2.80D-14 1.00D-09 XBig12= 2.88D-14 1.63D-08.
      5 vectors produced by pass 22 Test12= 2.80D-14 1.00D-09 XBig12= 1.03D-14 7.76D-09.
      5 vectors produced by pass 23 Test12= 2.80D-14 1.00D-09 XBig12= 3.35D-14 1.81D-08.
      5 vectors produced by pass 24 Test12= 2.80D-14 1.00D-09 XBig12= 6.52D-15 8.81D-09.
      5 vectors produced by pass 25 Test12= 2.80D-14 1.00D-09 XBig12= 1.04D-14 8.05D-09.
      3 vectors produced by pass 26 Test12= 2.80D-14 1.00D-09 XBig12= 4.34D-15 4.81D-09.
      3 vectors produced by pass 27 Test12= 2.80D-14 1.00D-09 XBig12= 1.11D-14 9.62D-09.
      3 vectors produced by pass 28 Test12= 2.80D-14 1.00D-09 XBig12= 9.55D-15 8.21D-09.
      3 vectors produced by pass 29 Test12= 2.80D-14 1.00D-09 XBig12= 3.06D-14 1.10D-08.
      3 vectors produced by pass 30 Test12= 2.80D-14 1.00D-09 XBig12= 4.92D-15 5.03D-09.
      3 vectors produced by pass 31 Test12= 2.80D-14 1.00D-09 XBig12= 5.53D-15 4.79D-09.
      3 vectors produced by pass 32 Test12= 2.80D-14 1.00D-09 XBig12= 1.72D-14 9.36D-09.
      3 vectors produced by pass 33 Test12= 2.80D-14 1.00D-09 XBig12= 1.34D-14 8.00D-09.
      3 vectors produced by pass 34 Test12= 2.80D-14 1.00D-09 XBig12= 1.16D-14 7.33D-09.
      3 vectors produced by pass 35 Test12= 2.80D-14 1.00D-09 XBig12= 4.64D-15 5.09D-09.
      3 vectors produced by pass 36 Test12= 2.80D-14 1.00D-09 XBig12= 6.26D-15 5.83D-09.
      3 vectors produced by pass 37 Test12= 2.80D-14 1.00D-09 XBig12= 6.83D-15 6.12D-09.
      3 vectors produced by pass 38 Test12= 2.80D-14 1.00D-09 XBig12= 6.10D-15 5.18D-09.
      3 vectors produced by pass 39 Test12= 2.80D-14 1.00D-09 XBig12= 1.52D-14 8.47D-09.
      3 vectors produced by pass 40 Test12= 2.80D-14 1.00D-09 XBig12= 7.06D-15 5.61D-09.
      3 vectors produced by pass 41 Test12= 2.80D-14 1.00D-09 XBig12= 8.01D-15 7.05D-09.
      3 vectors produced by pass 42 Test12= 2.80D-14 1.00D-09 XBig12= 1.22D-14 7.49D-09.
      3 vectors produced by pass 43 Test12= 2.80D-14 1.00D-09 XBig12= 4.79D-15 5.08D-09.
      3 vectors produced by pass 44 Test12= 2.80D-14 1.00D-09 XBig12= 1.29D-14 6.74D-09.
      3 vectors produced by pass 45 Test12= 2.80D-14 1.00D-09 XBig12= 3.76D-15 5.55D-09.
      3 vectors produced by pass 46 Test12= 2.80D-14 1.00D-09 XBig12= 1.17D-14 7.81D-09.
      2 vectors produced by pass 47 Test12= 2.80D-14 1.00D-09 XBig12= 5.16D-15 5.17D-09.
 InvSVY:  IOpt=1 It=  1 EMax= 9.99D-16
 Solved reduced A of dimension   948 with   120 vectors.
 End of Minotr F.D. properties file   721 does not exist.
 End of Minotr F.D. properties file   722 does not exist.
 End of Minotr F.D. properties file   788 does not exist.

 **********************************************************************

            Population analysis using the SCF density.

 **********************************************************************

 Orbital symmetries:
       Occupied  (A) (A) (A) (A) (A) (A) (A) (A) (A) (A) (A) (A)
                 (A) (A) (A) (A) (A) (A) (A) (A) (A) (A) (A) (A)
                 (A) (A) (A) (A) (A) (A) (A) (A) (A) (A) (A) (A)
                 (A) (A) (A) (A) (A) (A) (A) (A) (A) (A) (A) (A)
                 (A) (A) (A) (A) (A) (A) (A) (A) (A) (A) (A) (A)
                 (A) (A) (A) (A) (A) (A) (A) (A) (A) (A) (A) (A)
                 (A) (A) (A) (A) (A) (A) (A)
       Virtual   (A) (A) (A) (A) (A) (A) (A) (A) (A) (A) (A) (A)
                 (A) (A) (A) (A) (A) (A) (A) (A) (A) (A) (A) (A)
                 (A) (A) (A) (A) (A) (A) (A) (A) (A) (A) (A) (A)
                 (A) (A) (A) (A) (A) (A) (A) (A) (A) (A) (A) (A)
                 (A) (A) (A) (A) (A) (A) (A) (A) (A) (A) (A) (A)
                 (A) (A) (A) (A) (A) (A) (A) (A) (A) (A) (A) (A)
                 (A) (A) (A) (A) (A) (A) (A) (A) (A) (A) (A) (A)
                 (A) (A) (A) (A) (A) (A) (A) (A) (A) (A) (A) (A)
                 (A) (A) (A) (A) (A) (A) (A) (A) (A) (A) (A) (A)
                 (A) (A) (A) (A) (A) (A) (A) (A) (A) (A) (A) (A)
                 (A) (A) (A) (A) (A) (A) (A) (A) (A) (A) (A) (A)
                 (A) (A) (A) (A) (A) (A) (A) (A) (A) (A) (A) (A)
                 (A) (A) (A) (A) (A) (A) (A) (A) (A) (A) (A) (A)
                 (A) (A) (A) (A) (A) (A) (A) (A) (A) (A) (A) (A)
                 (A) (A) (A) (A) (A) (A) (A) (A) (A) (A) (A) (A)
                 (A) (A) (A) (A) (A) (A) (A) (A) (A) (A) (A) (A)
                 (A) (A) (A) (A) (A) (A) (A) (A) (A) (A) (A) (A)
                 (A) (A) (A) (A) (A) (A) (A) (A) (A) (A) (A) (A)
                 (A) (A) (A) (A) (A) (A) (A) (A) (A) (A) (A) (A)
                 (A) (A) (A) (A) (A) (A) (A) (A) (A) (A) (A) (A)
                 (A) (A) (A) (A) (A) (A) (A) (A) (A) (A) (A) (A)
                 (A) (A) (A) (A) (A) (A) (A) (A) (A) (A) (A) (A)
                 (A) (A) (A) (A) (A) (A) (A) (A) (A) (A) (A) (A)
                 (A) (A) (A) (A) (A) (A) (A) (A) (A) (A) (A) (A)
                 (A) (A) (A) (A) (A) (A) (A) (A) (A) (A) (A) (A)
                 (A) (A) (A) (A) (A) (A) (A) (A) (A) (A) (A) (A)
                 (A) (A) (A) (A) (A) (A) (A) (A) (A) (A) (A) (A)
                 (A) (A) (A) (A) (A) (A) (A) (A) (A) (A) (A) (A)
                 (A) (A) (A) (A) (A) (A) (A) (A) (A) (A) (A) (A)
                 (A) (A) (A) (A) (A) (A) (A)
 The electronic state is 1-A.
 Alpha  occ. eigenvalues --  -19.58155 -19.58141 -19.49704 -19.47251 -19.46585
 Alpha  occ. eigenvalues --  -14.91445 -14.67750 -14.65751 -10.56907 -10.51866
 Alpha  occ. eigenvalues --  -10.51547 -10.50359 -10.47763 -10.47692 -10.47577
 Alpha  occ. eigenvalues --  -10.45885 -10.45684 -10.45679 -10.45163 -10.43248
 Alpha  occ. eigenvalues --  -10.43077  -1.26575  -1.07732  -1.05961  -1.03236
 Alpha  occ. eigenvalues --   -0.94598  -0.93444  -0.91328  -0.88035  -0.79981
 Alpha  occ. eigenvalues --   -0.78250  -0.76267  -0.75266  -0.70403  -0.66602
 Alpha  occ. eigenvalues --   -0.62124  -0.61493  -0.59637  -0.57912  -0.55709
 Alpha  occ. eigenvalues --   -0.54602  -0.52575  -0.52288  -0.50957  -0.49813
 Alpha  occ. eigenvalues --   -0.46447  -0.44276  -0.44001  -0.42476  -0.42180
 Alpha  occ. eigenvalues --   -0.41822  -0.41577  -0.40897  -0.40222  -0.39295
 Alpha  occ. eigenvalues --   -0.38518  -0.38163  -0.36823  -0.36160  -0.34984
 Alpha  occ. eigenvalues --   -0.34633  -0.33589  -0.33075  -0.31965  -0.31755
 Alpha  occ. eigenvalues --   -0.30966  -0.30007  -0.29396  -0.28939  -0.28204
 Alpha  occ. eigenvalues --   -0.28063  -0.27683  -0.23245  -0.22506  -0.20430
 Alpha  occ. eigenvalues --   -0.19828  -0.19521  -0.18619  -0.16425
 Alpha virt. eigenvalues --    0.04595   0.09888   0.10703   0.11141   0.11350
 Alpha virt. eigenvalues --    0.11742   0.12183   0.12616   0.12841   0.13573
 Alpha virt. eigenvalues --    0.13722   0.14269   0.14753   0.14909   0.15478
 Alpha virt. eigenvalues --    0.15766   0.16719   0.16933   0.17017   0.17243
 Alpha virt. eigenvalues --    0.17788   0.18176   0.18379   0.19040   0.19260
 Alpha virt. eigenvalues --    0.19624   0.20371   0.20607   0.20774   0.21403
 Alpha virt. eigenvalues --    0.21556   0.22220   0.22537   0.23127   0.23601
 Alpha virt. eigenvalues --    0.23755   0.24179   0.24438   0.25191   0.25512
 Alpha virt. eigenvalues --    0.25894   0.26773   0.27238   0.27801   0.28038
 Alpha virt. eigenvalues --    0.28131   0.28532   0.28951   0.29352   0.29848
 Alpha virt. eigenvalues --    0.30273   0.30694   0.31289   0.31486   0.32350
 Alpha virt. eigenvalues --    0.32719   0.32898   0.33129   0.33454   0.34084
 Alpha virt. eigenvalues --    0.34344   0.34422   0.35094   0.35409   0.35479
 Alpha virt. eigenvalues --    0.35815   0.36062   0.36573   0.36982   0.37254
 Alpha virt. eigenvalues --    0.37388   0.38078   0.38374   0.38582   0.39419
 Alpha virt. eigenvalues --    0.40020   0.40279   0.40524   0.41120   0.41339
 Alpha virt. eigenvalues --    0.41475   0.41789   0.42145   0.42418   0.42619
 Alpha virt. eigenvalues --    0.43035   0.43709   0.43902   0.44215   0.44498
 Alpha virt. eigenvalues --    0.45215   0.45307   0.45717   0.45921   0.46927
 Alpha virt. eigenvalues --    0.47027   0.47483   0.47785   0.47980   0.48896
 Alpha virt. eigenvalues --    0.49048   0.49444   0.50380   0.50849   0.51082
 Alpha virt. eigenvalues --    0.51761   0.52225   0.53523   0.54176   0.54696
 Alpha virt. eigenvalues --    0.56501   0.57369   0.57948   0.58365   0.59667
 Alpha virt. eigenvalues --    0.60819   0.62214   0.62693   0.64355   0.65450
 Alpha virt. eigenvalues --    0.65874   0.66653   0.69835   0.70404   0.71625
 Alpha virt. eigenvalues --    0.75441   0.78277   0.79221   0.80221   0.80362
 Alpha virt. eigenvalues --    0.80929   0.82193   0.82755   0.82872   0.83026
 Alpha virt. eigenvalues --    0.84988   0.85228   0.85983   0.86684   0.88426
 Alpha virt. eigenvalues --    0.89215   0.89406   0.89716   0.90218   0.92140
 Alpha virt. eigenvalues --    0.92298   0.93539   0.94813   0.95443   0.96227
 Alpha virt. eigenvalues --    0.97851   0.98209   0.99473   1.00329   1.02100
 Alpha virt. eigenvalues --    1.02632   1.03603   1.04313   1.06296   1.07816
 Alpha virt. eigenvalues --    1.09102   1.09524   1.10122   1.11467   1.12125
 Alpha virt. eigenvalues --    1.12356   1.13055   1.13592   1.15100   1.16903
 Alpha virt. eigenvalues --    1.17641   1.18059   1.19796   1.20612   1.21193
 Alpha virt. eigenvalues --    1.22578   1.23282   1.24595   1.25749   1.26709
 Alpha virt. eigenvalues --    1.27365   1.27985   1.28879   1.29269   1.30064
 Alpha virt. eigenvalues --    1.31410   1.32117   1.32980   1.33199   1.35373
 Alpha virt. eigenvalues --    1.35807   1.36739   1.37411   1.38135   1.38879
 Alpha virt. eigenvalues --    1.40401   1.41308   1.42782   1.43117   1.45225
 Alpha virt. eigenvalues --    1.45716   1.46124   1.47096   1.48082   1.48794
 Alpha virt. eigenvalues --    1.50296   1.51257   1.51418   1.52419   1.52956
 Alpha virt. eigenvalues --    1.53552   1.55002   1.55869   1.56475   1.56810
 Alpha virt. eigenvalues --    1.57961   1.58599   1.58923   1.59810   1.60205
 Alpha virt. eigenvalues --    1.60847   1.62809   1.63369   1.64161   1.64540
 Alpha virt. eigenvalues --    1.65337   1.68148   1.68637   1.69625   1.70853
 Alpha virt. eigenvalues --    1.73168   1.75837   1.76865   1.78454   1.81134
 Alpha virt. eigenvalues --    1.83016   1.86609   1.87736   1.88351   1.90382
 Alpha virt. eigenvalues --    1.93333   1.93812   1.95265   1.96119   1.96357
 Alpha virt. eigenvalues --    1.97741   1.98464   2.00412   2.00935   2.02368
 Alpha virt. eigenvalues --    2.03493   2.04697   2.04858   2.05741   2.07148
 Alpha virt. eigenvalues --    2.07989   2.08442   2.08778   2.09388   2.10794
 Alpha virt. eigenvalues --    2.11798   2.12784   2.13631   2.14665   2.15796
 Alpha virt. eigenvalues --    2.16401   2.17111   2.17447   2.18772   2.19259
 Alpha virt. eigenvalues --    2.20162   2.21529   2.23692   2.24522   2.25927
 Alpha virt. eigenvalues --    2.26273   2.27136   2.28321   2.29841   2.31430
 Alpha virt. eigenvalues --    2.34347   2.35216   2.35535   2.36851   2.37219
 Alpha virt. eigenvalues --    2.39923   2.41709   2.43523   2.45110   2.47279
 Alpha virt. eigenvalues --    2.48176   2.48951   2.49284   2.52912   2.53414
 Alpha virt. eigenvalues --    2.54964   2.57954   2.59493   2.59827   2.62360
 Alpha virt. eigenvalues --    2.65066   2.66200   2.67938   2.69583   2.71563
 Alpha virt. eigenvalues --    2.72763   2.74682   2.76126   2.77006   2.79350
 Alpha virt. eigenvalues --    2.82811   2.85278   2.87075   2.88413   2.89533
 Alpha virt. eigenvalues --    2.90502   2.92017   2.94511   2.98661   3.00045
 Alpha virt. eigenvalues --    3.06116   3.09506   3.10117   3.15349   3.19564
 Alpha virt. eigenvalues --    3.22581   3.23976   3.27068   3.28675   3.32815
 Alpha virt. eigenvalues --    3.33949   3.40568   3.48190   3.56408   4.26397
 Alpha virt. eigenvalues --    4.32065   4.36126   4.37897   4.40798   4.41875
 Alpha virt. eigenvalues --    4.51648   4.52558   4.53035   4.54422   4.56299
 Alpha virt. eigenvalues --    4.59191   4.61803   4.63497   4.67542   4.74210
 Alpha virt. eigenvalues --    4.78415   4.84128   4.89022   4.89686   4.96368
          Condensed to atoms (all electrons):
               1          2          3          4          5          6
     1  C   15.713489   0.852570  -1.901642  -5.536164  -3.634343   2.144478
     2  C    0.852570  14.480667  -0.511693  -2.934968  -1.162054  -5.354250
     3  C   -1.901642  -0.511693  17.426946   1.645077  -8.400090  -0.553550
     4  C   -5.536164  -2.934968   1.645077  19.417255  -0.843180  -4.359166
     5  C   -3.634343  -1.162054  -8.400090  -0.843180  18.798795  -1.269939
     6  C    2.144478  -5.354250  -0.553550  -4.359166  -1.269939  16.105337
     7  N    0.027782   0.031236  -0.000449   0.321000  -0.236376   0.026421
     8  C   -0.252621   0.233778  -1.166238  -0.862618   1.083654  -0.695703
     9  N    0.017311  -0.028502  -0.141979  -0.222583   0.147611   0.058529
    10  O    0.015808  -0.017494  -0.142302  -0.619072   0.515442   0.125635
    11  C   -0.009692   0.000558  -0.149309  -0.347386   0.111338  -0.026497
    12  C    0.000659  -0.000261   0.000105   0.005801   0.001085   0.001947
    13  C   -0.000154  -0.000324  -0.003909  -0.007026   0.001557   0.000152
    14  H    0.001256   0.022293   0.184215   0.072621   0.053237  -0.038525
    15  H   -0.005647  -0.023591   0.015576   0.025931   0.284401   0.005770
    16  H    0.006917   0.015843  -0.076707  -0.032158   0.084678   0.000061
    17  H   -0.000377   0.001087   0.004877  -0.006329  -0.008096  -0.001302
    18  H    0.000046  -0.000183  -0.001300   0.008054   0.002687   0.000529
    19  H   -0.000196   0.000346   0.002677  -0.005345  -0.010628  -0.002099
    20  H    0.000003   0.000002  -0.000057   0.000543   0.000051   0.000008
    21  H   -0.000004   0.000033   0.000627  -0.000140  -0.000955  -0.000047
    22  H   -0.000000   0.000000   0.000016   0.000078  -0.000077  -0.000003
    23  H   -0.000000   0.000000   0.000001   0.000019  -0.000021  -0.000001
    24  H   -0.000000   0.000000   0.000001  -0.000082  -0.000013  -0.000001
    25  H    0.159850   0.233502  -0.133175   0.002923  -0.003632   0.064908
    26  H    0.196660   0.066098  -0.014324  -0.032389  -0.087353   0.197673
    27  N   -0.658846   0.035242   0.069511   0.033132  -0.025544   0.204409
    28  O   -0.533420   0.133944  -0.039436   0.054980   0.231773   0.051416
    29  O   -0.530182   0.069073   0.214950   0.067207  -0.012806   0.091949
    30  O    0.004544   0.082823   0.262672  -0.331722  -0.014907   0.002476
    31  C   -0.006958  -0.069986  -0.067127   0.137088  -0.010116   0.002043
    32  O   -0.000553  -0.006989   0.000602  -0.000552  -0.006833   0.001903
    33  C    0.002677   0.037508   0.049360  -0.058925  -0.024837  -0.006935
    34  C    0.000866   0.017114   0.005563  -0.026602  -0.004245  -0.000496
    35  H   -0.000002  -0.000038   0.000554  -0.000704  -0.000104  -0.000003
    36  H   -0.000014  -0.000110   0.000349  -0.000072  -0.000026  -0.000005
    37  H   -0.000080  -0.000532  -0.000207   0.000847   0.000071  -0.000016
    38  H    0.000003  -0.000014  -0.000125   0.000035   0.000004   0.000001
    39  H   -0.000131  -0.001091  -0.000793   0.000952   0.000051   0.000023
               7          8          9         10         11         12
     1  C    0.027782  -0.252621   0.017311   0.015808  -0.009692   0.000659
     2  C    0.031236   0.233778  -0.028502  -0.017494   0.000558  -0.000261
     3  C   -0.000449  -1.166238  -0.141979  -0.142302  -0.149309   0.000105
     4  C    0.321000  -0.862618  -0.222583  -0.619072  -0.347386   0.005801
     5  C   -0.236376   1.083654   0.147611   0.515442   0.111338   0.001085
     6  C    0.026421  -0.695703   0.058529   0.125635  -0.026497   0.001947
     7  N    7.916209   0.009619  -0.343297  -0.063141  -0.094176  -0.008284
     8  C    0.009619   6.361746   0.419190   0.661621  -0.513729   0.041207
     9  N   -0.343297   0.419190   7.672440  -0.159591   0.114852   0.012592
    10  O   -0.063141   0.661621  -0.159591   8.354417  -0.038296  -0.012671
    11  C   -0.094176  -0.513729   0.114852  -0.038296   7.116128  -0.565956
    12  C   -0.008284   0.041207   0.012592  -0.012671  -0.565956   6.429749
    13  C   -0.000080  -0.078312  -0.014298   0.001334   0.131905  -0.237406
    14  H   -0.011326   0.006912   0.000582   0.000058  -0.000072  -0.000006
    15  H   -0.016246   0.020375   0.000426  -0.007165   0.001164   0.000024
    16  H    0.093275  -0.005438   0.006881   0.002955   0.001352   0.000946
    17  H    0.015160  -0.000322   0.179190   0.002960   0.014235  -0.020131
    18  H   -0.002466   0.022324  -0.061571   0.003311   0.387069  -0.078274
    19  H    0.003699  -0.047589  -0.067948  -0.003854   0.548416  -0.087430
    20  H    0.000308   0.000798   0.016415  -0.000003  -0.098955   0.450420
    21  H    0.000639  -0.001594  -0.006886  -0.000195  -0.036562   0.408914
    22  H    0.000009  -0.002933   0.000143  -0.000080   0.008412  -0.096057
    23  H    0.000011  -0.000328   0.000434  -0.000004   0.022576  -0.095724
    24  H    0.000023  -0.003884   0.000434  -0.000003  -0.011710  -0.069928
    25  H    0.000417   0.001898   0.000012   0.000001   0.000013  -0.000001
    26  H   -0.000499  -0.000790   0.000006   0.000165  -0.000010  -0.000001
    27  N   -0.002129   0.002016  -0.000262   0.000036   0.000085  -0.000003
    28  O   -0.000200   0.001387  -0.000002   0.000010   0.000010   0.000000
    29  O   -0.000316   0.000620  -0.000002  -0.000004   0.000001   0.000000
    30  O    0.005787   0.003904   0.004061  -0.000394  -0.009778   0.001536
    31  C   -0.009585  -0.005241   0.003371  -0.001085  -0.019818   0.006126
    32  O    0.016909  -0.003342  -0.061986  -0.001146  -0.006928  -0.002066
    33  C   -0.019483  -0.025827  -0.015999  -0.001311  -0.005074   0.009361
    34  C    0.002322   0.002582   0.001958   0.000039   0.001727  -0.000559
    35  H    0.000129  -0.000447  -0.000371  -0.000000   0.000553  -0.000097
    36  H    0.000059  -0.000170   0.000103  -0.000000  -0.000183   0.000104
    37  H   -0.000023   0.000042  -0.000001  -0.000000  -0.000015   0.000002
    38  H    0.000021   0.000013  -0.000004   0.000000  -0.000003   0.000000
    39  H   -0.000069   0.000059   0.000003  -0.000000   0.000048  -0.000002
              13         14         15         16         17         18
     1  C   -0.000154   0.001256  -0.005647   0.006917  -0.000377   0.000046
     2  C   -0.000324   0.022293  -0.023591   0.015843   0.001087  -0.000183
     3  C   -0.003909   0.184215   0.015576  -0.076707   0.004877  -0.001300
     4  C   -0.007026   0.072621   0.025931  -0.032158  -0.006329   0.008054
     5  C    0.001557   0.053237   0.284401   0.084678  -0.008096   0.002687
     6  C    0.000152  -0.038525   0.005770   0.000061  -0.001302   0.000529
     7  N   -0.000080  -0.011326  -0.016246   0.093275   0.015160  -0.002466
     8  C   -0.078312   0.006912   0.020375  -0.005438  -0.000322   0.022324
     9  N   -0.014298   0.000582   0.000426   0.006881   0.179190  -0.061571
    10  O    0.001334   0.000058  -0.007165   0.002955   0.002960   0.003311
    11  C    0.131905  -0.000072   0.001164   0.001352   0.014235   0.387069
    12  C   -0.237406  -0.000006   0.000024   0.000946  -0.020131  -0.078274
    13  C    5.830502  -0.000001   0.000017  -0.000107   0.001567   0.004857
    14  H   -0.000001   0.425305  -0.000095   0.007431   0.000009  -0.000000
    15  H    0.000017  -0.000095   0.429772  -0.000194  -0.000000   0.000000
    16  H   -0.000107   0.007431  -0.000194   0.269896   0.007647  -0.000044
    17  H    0.001567   0.000009  -0.000000   0.007647   0.251460  -0.000795
    18  H    0.004857  -0.000000   0.000000  -0.000044  -0.000795   0.542382
    19  H   -0.003346   0.000000  -0.000008   0.000015   0.001954  -0.037008
    20  H   -0.050973  -0.000000   0.000000  -0.000002  -0.000293   0.004461
    21  H   -0.041460   0.000000  -0.000000   0.000006   0.002847  -0.002909
    22  H    0.435282   0.000000  -0.000000   0.000000   0.000009  -0.001598
    23  H    0.426284   0.000000   0.000000  -0.000000   0.000000   0.000082
    24  H    0.437335   0.000000   0.000000  -0.000000  -0.000013   0.001128
    25  H    0.000000  -0.003050   0.000011  -0.000013  -0.000000   0.000000
    26  H   -0.000000   0.000011  -0.003221   0.000002  -0.000000  -0.000000
    27  N    0.000001  -0.000277   0.000377  -0.000015   0.000000  -0.000000
    28  O    0.000000   0.000054  -0.000130   0.000001   0.000000  -0.000000
    29  O    0.000000  -0.000051   0.000056   0.000001  -0.000000  -0.000000
    30  O   -0.000622  -0.001546  -0.000002   0.098370  -0.002018  -0.000155
    31  C   -0.003705   0.000244   0.000068  -0.007634  -0.000595   0.000437
    32  O    0.000312  -0.000020   0.000002   0.000050   0.058730   0.001891
    33  C    0.002724   0.002431   0.000004   0.013095   0.009511   0.000635
    34  C   -0.000005  -0.000423   0.000000  -0.001495  -0.001025  -0.000029
    35  H    0.000044   0.000001   0.000000  -0.000031   0.000007   0.000000
    36  H    0.000004  -0.000002   0.000000  -0.000023  -0.000028   0.000000
    37  H   -0.000000  -0.000008   0.000000  -0.000009  -0.000001  -0.000000
    38  H    0.000000   0.000000  -0.000000   0.000000   0.000000   0.000000
    39  H    0.000001   0.000062   0.000000  -0.000017   0.000000  -0.000000
              19         20         21         22         23         24
     1  C   -0.000196   0.000003  -0.000004  -0.000000  -0.000000  -0.000000
     2  C    0.000346   0.000002   0.000033   0.000000   0.000000   0.000000
     3  C    0.002677  -0.000057   0.000627   0.000016   0.000001   0.000001
     4  C   -0.005345   0.000543  -0.000140   0.000078   0.000019  -0.000082
     5  C   -0.010628   0.000051  -0.000955  -0.000077  -0.000021  -0.000013
     6  C   -0.002099   0.000008  -0.000047  -0.000003  -0.000001  -0.000001
     7  N    0.003699   0.000308   0.000639   0.000009   0.000011   0.000023
     8  C   -0.047589   0.000798  -0.001594  -0.002933  -0.000328  -0.003884
     9  N   -0.067948   0.016415  -0.006886   0.000143   0.000434   0.000434
    10  O   -0.003854  -0.000003  -0.000195  -0.000080  -0.000004  -0.000003
    11  C    0.548416  -0.098955  -0.036562   0.008412   0.022576  -0.011710
    12  C   -0.087430   0.450420   0.408914  -0.096057  -0.095724  -0.069928
    13  C   -0.003346  -0.050973  -0.041460   0.435282   0.426284   0.437335
    14  H    0.000000  -0.000000   0.000000   0.000000   0.000000   0.000000
    15  H   -0.000008   0.000000  -0.000000  -0.000000   0.000000   0.000000
    16  H    0.000015  -0.000002   0.000006   0.000000  -0.000000  -0.000000
    17  H    0.001954  -0.000293   0.002847   0.000009   0.000000  -0.000013
    18  H   -0.037008   0.004461  -0.002909  -0.001598   0.000082   0.001128
    19  H    0.456755  -0.006797   0.003231   0.001689  -0.000119   0.000004
    20  H   -0.006797   0.509409  -0.032076  -0.001059  -0.005069   0.003557
    21  H    0.003231  -0.032076   0.481452   0.003737  -0.000293  -0.006715
    22  H    0.001689  -0.001059   0.003737   0.513167  -0.029551  -0.030321
    23  H   -0.000119  -0.005069  -0.000293  -0.029551   0.515523  -0.026796
    24  H    0.000004   0.003557  -0.006715  -0.030321  -0.026796   0.491863
    25  H    0.000000   0.000000  -0.000000  -0.000000  -0.000000   0.000000
    26  H    0.000000  -0.000000   0.000000   0.000000  -0.000000   0.000000
    27  N    0.000000  -0.000000   0.000000  -0.000000   0.000000   0.000000
    28  O   -0.000000  -0.000000  -0.000000  -0.000000  -0.000000  -0.000000
    29  O    0.000000  -0.000000  -0.000000   0.000000  -0.000000  -0.000000
    30  O    0.000006   0.000002  -0.000040  -0.000000  -0.000000   0.000001
    31  C   -0.000130   0.000325  -0.000126  -0.000005   0.000022   0.000070
    32  O   -0.000543   0.000300  -0.002544  -0.000022  -0.000006   0.000096
    33  C   -0.000065   0.000035   0.000270  -0.000004   0.000012   0.000027
    34  C    0.000003   0.000001  -0.000002   0.000000  -0.000000   0.000001
    35  H   -0.000000   0.000000   0.000000   0.000000  -0.000000   0.000000
    36  H    0.000000  -0.000000  -0.000000   0.000000  -0.000000  -0.000000
    37  H    0.000000  -0.000000  -0.000000   0.000000   0.000000  -0.000000
    38  H   -0.000000   0.000000  -0.000000  -0.000000  -0.000000   0.000000
    39  H   -0.000000  -0.000000   0.000000   0.000000  -0.000000  -0.000000
              25         26         27         28         29         30
     1  C    0.159850   0.196660  -0.658846  -0.533420  -0.530182   0.004544
     2  C    0.233502   0.066098   0.035242   0.133944   0.069073   0.082823
     3  C   -0.133175  -0.014324   0.069511  -0.039436   0.214950   0.262672
     4  C    0.002923  -0.032389   0.033132   0.054980   0.067207  -0.331722
     5  C   -0.003632  -0.087353  -0.025544   0.231773  -0.012806  -0.014907
     6  C    0.064908   0.197673   0.204409   0.051416   0.091949   0.002476
     7  N    0.000417  -0.000499  -0.002129  -0.000200  -0.000316   0.005787
     8  C    0.001898  -0.000790   0.002016   0.001387   0.000620   0.003904
     9  N    0.000012   0.000006  -0.000262  -0.000002  -0.000002   0.004061
    10  O    0.000001   0.000165   0.000036   0.000010  -0.000004  -0.000394
    11  C    0.000013  -0.000010   0.000085   0.000010   0.000001  -0.009778
    12  C   -0.000001  -0.000001  -0.000003   0.000000   0.000000   0.001536
    13  C    0.000000  -0.000000   0.000001   0.000000   0.000000  -0.000622
    14  H   -0.003050   0.000011  -0.000277   0.000054  -0.000051  -0.001546
    15  H    0.000011  -0.003221   0.000377  -0.000130   0.000056  -0.000002
    16  H   -0.000013   0.000002  -0.000015   0.000001   0.000001   0.098370
    17  H   -0.000000  -0.000000   0.000000   0.000000  -0.000000  -0.002018
    18  H    0.000000  -0.000000  -0.000000  -0.000000  -0.000000  -0.000155
    19  H    0.000000   0.000000   0.000000  -0.000000   0.000000   0.000006
    20  H    0.000000  -0.000000  -0.000000  -0.000000  -0.000000   0.000002
    21  H   -0.000000   0.000000   0.000000  -0.000000  -0.000000  -0.000040
    22  H   -0.000000   0.000000  -0.000000  -0.000000   0.000000  -0.000000
    23  H   -0.000000  -0.000000   0.000000  -0.000000  -0.000000  -0.000000
    24  H    0.000000   0.000000   0.000000  -0.000000  -0.000000   0.000001
    25  H    0.459660  -0.000119  -0.037967  -0.002278   0.016348   0.000011
    26  H   -0.000119   0.464215  -0.038058   0.016540  -0.002386   0.000000
    27  N   -0.037967  -0.038058   7.036061   0.350473   0.359945   0.000052
    28  O   -0.002278   0.016540   0.350473   7.888117  -0.079680  -0.000001
    29  O    0.016348  -0.002386   0.359945  -0.079680   7.884711   0.000014
    30  O    0.000011   0.000000   0.000052  -0.000001   0.000014   8.611314
    31  C   -0.000011   0.000001   0.000047   0.000007   0.000015   0.171178
    32  O    0.000000  -0.000000   0.000001  -0.000000   0.000000  -0.180551
    33  C    0.000014  -0.000000  -0.000018   0.000000  -0.000007  -0.072220
    34  C   -0.000016   0.000000   0.000020   0.000001  -0.000004   0.037821
    35  H   -0.000000   0.000000  -0.000000  -0.000000  -0.000000   0.006326
    36  H    0.000000   0.000000   0.000000   0.000000  -0.000000  -0.002217
    37  H    0.000000  -0.000000   0.000000  -0.000000  -0.000000  -0.003398
    38  H    0.000000   0.000000  -0.000000  -0.000000   0.000000   0.001245
    39  H   -0.000000  -0.000000   0.000000   0.000000  -0.000000  -0.003079
              31         32         33         34         35         36
     1  C   -0.006958  -0.000553   0.002677   0.000866  -0.000002  -0.000014
     2  C   -0.069986  -0.006989   0.037508   0.017114  -0.000038  -0.000110
     3  C   -0.067127   0.000602   0.049360   0.005563   0.000554   0.000349
     4  C    0.137088  -0.000552  -0.058925  -0.026602  -0.000704  -0.000072
     5  C   -0.010116  -0.006833  -0.024837  -0.004245  -0.000104  -0.000026
     6  C    0.002043   0.001903  -0.006935  -0.000496  -0.000003  -0.000005
     7  N   -0.009585   0.016909  -0.019483   0.002322   0.000129   0.000059
     8  C   -0.005241  -0.003342  -0.025827   0.002582  -0.000447  -0.000170
     9  N    0.003371  -0.061986  -0.015999   0.001958  -0.000371   0.000103
    10  O   -0.001085  -0.001146  -0.001311   0.000039  -0.000000  -0.000000
    11  C   -0.019818  -0.006928  -0.005074   0.001727   0.000553  -0.000183
    12  C    0.006126  -0.002066   0.009361  -0.000559  -0.000097   0.000104
    13  C   -0.003705   0.000312   0.002724  -0.000005   0.000044   0.000004
    14  H    0.000244  -0.000020   0.002431  -0.000423   0.000001  -0.000002
    15  H    0.000068   0.000002   0.000004   0.000000   0.000000   0.000000
    16  H   -0.007634   0.000050   0.013095  -0.001495  -0.000031  -0.000023
    17  H   -0.000595   0.058730   0.009511  -0.001025   0.000007  -0.000028
    18  H    0.000437   0.001891   0.000635  -0.000029   0.000000   0.000000
    19  H   -0.000130  -0.000543  -0.000065   0.000003  -0.000000   0.000000
    20  H    0.000325   0.000300   0.000035   0.000001   0.000000  -0.000000
    21  H   -0.000126  -0.002544   0.000270  -0.000002   0.000000  -0.000000
    22  H   -0.000005  -0.000022  -0.000004   0.000000   0.000000   0.000000
    23  H    0.000022  -0.000006   0.000012  -0.000000  -0.000000  -0.000000
    24  H    0.000070   0.000096   0.000027   0.000001   0.000000  -0.000000
    25  H   -0.000011   0.000000   0.000014  -0.000016  -0.000000   0.000000
    26  H    0.000001  -0.000000  -0.000000   0.000000   0.000000   0.000000
    27  N    0.000047   0.000001  -0.000018   0.000020  -0.000000   0.000000
    28  O    0.000007  -0.000000   0.000000   0.000001  -0.000000   0.000000
    29  O    0.000015   0.000000  -0.000007  -0.000004  -0.000000  -0.000000
    30  O    0.171178  -0.180551  -0.072220   0.037821   0.006326  -0.002217
    31  C    5.639361   0.499476  -0.722142  -0.065896  -0.128057  -0.043698
    32  O    0.499476   8.530291  -0.221949   0.021932  -0.004473  -0.001542
    33  C   -0.722142  -0.221949   7.084966  -0.238286   0.497951   0.423343
    34  C   -0.065896   0.021932  -0.238286   5.838434  -0.052494  -0.056729
    35  H   -0.128057  -0.004473   0.497951  -0.052494   0.503692  -0.030833
    36  H   -0.043698  -0.001542   0.423343  -0.056729  -0.030833   0.507435
    37  H   -0.008871   0.000623  -0.042243   0.404201  -0.003901   0.003741
    38  H    0.041304  -0.000217  -0.100652   0.400509  -0.002514  -0.002297
    39  H   -0.014278  -0.000152  -0.048553   0.419189   0.003727  -0.003884
              37         38         39
     1  C   -0.000080   0.000003  -0.000131
     2  C   -0.000532  -0.000014  -0.001091
     3  C   -0.000207  -0.000125  -0.000793
     4  C    0.000847   0.000035   0.000952
     5  C    0.000071   0.000004   0.000051
     6  C   -0.000016   0.000001   0.000023
     7  N   -0.000023   0.000021  -0.000069
     8  C    0.000042   0.000013   0.000059
     9  N   -0.000001  -0.000004   0.000003
    10  O   -0.000000   0.000000  -0.000000
    11  C   -0.000015  -0.000003   0.000048
    12  C    0.000002   0.000000  -0.000002
    13  C   -0.000000   0.000000   0.000001
    14  H   -0.000008   0.000000   0.000062
    15  H    0.000000  -0.000000   0.000000
    16  H   -0.000009   0.000000  -0.000017
    17  H   -0.000001   0.000000   0.000000
    18  H   -0.000000   0.000000  -0.000000
    19  H    0.000000  -0.000000  -0.000000
    20  H   -0.000000   0.000000  -0.000000
    21  H   -0.000000  -0.000000   0.000000
    22  H    0.000000  -0.000000   0.000000
    23  H    0.000000  -0.000000  -0.000000
    24  H   -0.000000   0.000000  -0.000000
    25  H    0.000000   0.000000  -0.000000
    26  H   -0.000000   0.000000  -0.000000
    27  N    0.000000  -0.000000   0.000000
    28  O   -0.000000  -0.000000   0.000000
    29  O   -0.000000   0.000000  -0.000000
    30  O   -0.003398   0.001245  -0.003079
    31  C   -0.008871   0.041304  -0.014278
    32  O    0.000623  -0.000217  -0.000152
    33  C   -0.042243  -0.100652  -0.048553
    34  C    0.404201   0.400509   0.419189
    35  H   -0.003901  -0.002514   0.003727
    36  H    0.003741  -0.002297  -0.003884
    37  H    0.498963  -0.030340  -0.026882
    38  H   -0.030340   0.548981  -0.030091
    39  H   -0.026882  -0.030091   0.481655
 Mulliken charges:
               1
     1  C   -0.073893
     2  C   -0.201637
     3  C   -0.579267
     4  C    0.433640
     5  C    0.439742
     6  C   -0.777132
     7  N   -0.662888
     8  C    0.793383
     9  N   -0.531264
    10  O   -0.615978
    11  C   -0.526292
    12  C   -0.095722
    13  C   -0.832148
    14  H    0.278680
    15  H    0.272324
    16  H    0.514464
    17  H    0.490074
    18  H    0.206438
    19  H    0.254308
    20  H    0.208647
    21  H    0.230793
    22  H    0.199166
    23  H    0.192948
    24  H    0.214927
    25  H    0.240694
    26  H    0.237781
    27  N   -0.328288
    28  O   -0.073566
    29  O   -0.079453
    30  O   -0.671492
    31  C    0.683876
    32  O   -0.630706
    33  C   -0.529395
    34  C   -0.705978
    35  H    0.211088
    36  H    0.206696
    37  H    0.208038
    38  H    0.174142
    39  H    0.223251
 Sum of Mulliken charges =  -1.00000
 Mulliken charges with hydrogens summed into heavy atoms:
               1
     1  C   -0.073893
     2  C    0.039057
     3  C   -0.300587
     4  C    0.433640
     5  C    0.712066
     6  C   -0.539351
     7  N   -0.148424
     8  C    0.793383
     9  N   -0.041189
    10  O   -0.615978
    11  C   -0.065546
    12  C    0.343718
    13  C   -0.225107
    27  N   -0.328288
    28  O   -0.073566
[...]
 04207,-0.00005563,0.00001530,-0.00004036,0.00002284,0.00004939,0.00000
 768,0.00001680,0.00018140,-0.00731731,-0.00150394,0.00255924,-0.002046
 69,0.03451874,0.00084251,0.00009688,-0.00381765,0.00178635,-0.04954375
 ,0.04070883,-0.00086142,0.00027745,-0.00596825,-0.00199815,0.05437171,
 -0.00004342,0.00004192,-0.00003760,0.00002627,-0.00001756,0.00002676,-
 0.00005652,-0.00004869,-0.00000131,0.00009498,-0.00001942,0.00005423,-
 0.00001479,0.00003597,-0.00002136,0.00001872,0.00001610,0.00000394,0.0
 0018347,0.00036614,-0.00007233,-0.00028689,-0.00000813,-0.00013873,0.0
 0010163,-0.00001917,0.00006309,0.00010896,0.00007382,0.00002857,-0.000
 06777,0.00000460,-0.00005419,0.00001403,-0.00000304,0.00000907,-0.0000
 0177,0.00000444,-0.00001109,0.00003650,-0.00004587,0.00001419,-0.00000
 165,0.00000218,-0.00000481,-0.00024186,-0.00054981,0.00014891,-0.00004
 718,0.00000970,0.00002036,0.00001438,-0.00001323,0.00001397,0.00000889
 ,0.00000845,0.00000287,-0.00000523,-0.00000451,0.00000692,-0.00000444,
 0.00000399,-0.00000424,0.00000141,0.00000200,0.00000188,0.00000457,-0.
 00000005,0.00000039,0.00000502,-0.00000455,0.00000782,0.00000678,-0.00
 000878,0.00000103,-0.00000032,0.00000197,-0.00000279,0.00008244,-0.000
 07569,0.00006463,-0.00001632,0.00006708,-0.00003287,-0.00004066,0.0000
 0982,-0.00001756,0.00127524,0.00226004,0.00052935,-0.00360524,-0.00129
 477,-0.00854167,0.00079490,-0.00017631,0.00272595,-0.02310199,0.037678
 22,-0.30509122,-0.00030194,0.00080406,-0.00677859,0.02827074,-0.040874
 90,0.33050824,0.00002762,-0.00001121,0.00001629,-0.00000942,0.00000551
 ,-0.00001209,0.00004915,-0.00001672,0.00000900,-0.00009398,0.00006535,
 -0.00006155,0.00001650,-0.00002253,0.00001993,-0.00001860,0.00000906,-
 0.00001354,0.00009765,-0.00006553,0.00000456,-0.00011054,0.00006282,-0
 .00006993,0.00004641,-0.00005569,0.00003268,0.00001478,-0.00003924,0.0
 0002052,0.00000585,0.00000467,0.00000215,0.00000149,0.00000255,0.00000
 091,0.00000077,-0.00000033,0.00000081,-0.00003663,-0.00001362,0.000020
 47,-0.00000476,0.00000603,-0.00000235,-0.00001584,0.00010901,0.0000590
 0,0.00003795,0.00012767,-0.00002328,0.00000534,0.00000048,0.00000359,-
 0.00000167,-0.00000444,0.00000030,-0.00000100,0.00000095,0.00000122,0.
 00000261,-0.00000278,-0.00000066,-0.00000054,-0.00000144,-0.00000088,-
 0.00000002,0.00000038,-0.00000008,0.00000002,0.00000016,-0.00000006,0.
 00000387,-0.00000696,0.00001229,0.00000062,0.00000093,0.00000101,-0.00
 003229,-0.00001527,-0.00000347,0.00000441,0.00001338,-0.00000646,0.000
 02411,0.00001527,-0.00000178,0.00057410,-0.00059781,0.00144697,0.00514
 692,-0.00629722,-0.00700792,-0.00054187,-0.00071798,0.00081490,-0.1422
 5693,0.10502742,0.07079452,-0.01929657,0.02073404,0.01446936,0.0013602
 0,-0.00199382,-0.00088714,0.15850628,0.00008344,-0.00006717,0.00006459
 ,-0.00005089,0.00002930,-0.00002764,0.00012617,0.00006707,0.00002311,-
 0.00024107,0.00008469,-0.00013777,0.00003646,-0.00006820,0.00005555,-0
 .00004352,-0.00001479,-0.00001083,-0.00024799,-0.00074867,0.00009922,0
 .00041167,-0.00000375,0.00013195,-0.00009373,0.00006280,-0.00010175,-0
 .00017886,-0.00010423,0.00000327,0.00009100,0.00001124,0.00002227,-0.0
 0001145,-0.00003562,-0.00002024,-0.00000615,0.00000630,0.00001456,-0.0
 0006741,0.00003664,-0.00005939,0.00000124,-0.00000178,-0.00000253,0.00
 038997,0.00117367,-0.00005673,0.00001424,0.00003547,0.00013785,-0.0000
 1155,0.00000260,-0.00000885,-0.00001339,-0.00000369,0.00000184,0.00000
 620,0.00000235,-0.00000201,-0.00000155,0.00001404,0.00000644,0.0000038
 2,0.00000549,0.00000119,-0.00001128,-0.00000339,0.00000222,-0.00000144
 ,-0.00000069,-0.00000764,0.00000201,-0.00000020,-0.00000432,0.00000367
 ,-0.00000436,0.00000064,-0.00013173,0.00007649,-0.00009316,0.00002223,
 -0.00007073,0.00004185,0.00006964,0.00000691,0.00003119,-0.00284254,-0
 .00474959,0.00494844,0.02276317,-0.01934899,-0.01767701,-0.00293708,0.
 00262891,0.00297182,0.10637587,-0.16328313,-0.08227340,-0.00502781,0.0
 0468327,0.00339819,-0.00356725,0.00346675,0.00239055,-0.11441436,0.175
 09193,0.00002176,-0.00001658,0.00001524,-0.00001203,0.00001410,-0.0000
 0965,0.00001947,0.00000243,0.00000076,-0.00002820,0.00002285,-0.000019
 22,0.00000522,-0.00001654,0.00000635,-0.00001158,-0.00000012,-0.000004
 80,0.00003990,0.00005969,0.00004657,-0.00002749,0.00006778,-0.00004013
 ,-0.00004714,-0.00009363,0.00005846,-0.00000917,-0.00004994,0.00001340
 ,0.00005553,-0.00000605,0.00002227,-0.00000414,-0.00000492,-0.00000576
 ,0.00000038,-0.00000219,0.00000926,-0.00000699,0.00000152,0.00000288,-
 0.00000013,0.00000096,-0.00000089,-0.00001717,-0.00010907,-0.00008654,
 0.00006459,0.00012937,-0.00008450,0.00000360,0.00000382,-0.00000809,-0
 .00000696,-0.00000329,-0.00000276,0.00000061,0.00000361,-0.00000082,0.
 00000379,-0.00000003,0.00000617,-0.00000047,0.00000137,-0.00000195,-0.
 00000562,-0.00000079,0.00000198,-0.00000220,0.00000095,-0.00000728,-0.
 00000223,0.00000143,0.00000031,-0.00000032,-0.00000008,0.00000032,-0.0
 0003798,0.00002977,-0.00002870,0.00000675,-0.00002452,0.00001340,0.000
 01985,-0.00000130,0.00000845,0.00036690,0.00118767,-0.00192905,-0.0039
 8843,0.00751276,0.00416442,-0.00133397,-0.00086249,-0.00031360,0.07057
 909,-0.07902345,-0.09749732,-0.00691832,0.00774112,0.00488463,0.020042
 30,-0.02319953,-0.01538533,-0.07733694,0.08588024,0.10503301,-0.000017
 16,0.00002280,-0.00001305,0.00002415,-0.00000981,0.00000438,-0.0000087
 3,-0.00003471,-0.00001224,0.00001003,0.00001278,-0.00000429,0.00000125
 ,0.00000273,-0.00000074,0.00000253,0.00000832,-0.00000497,0.00009007,0
 .00009055,-0.00002461,-0.00018687,0.00002781,-0.00006328,0.00004772,-0
 .00011870,0.00002784,0.00005629,-0.00000244,0.00001100,-0.00002714,-0.
 00000118,-0.00000804,0.00000474,0.00001478,0.00000855,0.00000235,-0.00
 000167,-0.00000619,-0.00001030,-0.00003441,0.00006545,-0.00000391,0.00
 000483,-0.00000007,-0.00006603,-0.00017130,0.00007728,0.00001119,0.000
 11863,-0.00001243,0.00000484,0.00000315,0.00000810,0.00000055,-0.00000
 390,-0.00000019,-0.00000259,-0.00000222,0.00000124,0.00000207,-0.00000
 673,-0.00000599,-0.00000171,-0.00000385,-0.00000070,0.00000356,0.00000
 146,-0.00000067,0.00000127,0.00000066,0.00000399,0.00000218,-0.0000005
 7,0.00000576,-0.00000066,0.00000122,0.00000061,0.00004436,-0.00002509,
 0.00003429,-0.00000957,0.00002548,-0.00001732,-0.00002281,-0.00000037,
 -0.00001374,0.00204902,-0.00124028,0.00009869,-0.00132930,0.00316207,-
 0.00086670,0.00085326,-0.00086911,0.00024382,-0.02027427,0.02117567,0.
 01553916,-0.14432290,0.10741473,0.07465769,0.00131313,0.00027743,-0.00
 029750,-0.00582645,-0.00177065,-0.00260914,0.15931337,-0.00006361,0.00
 004995,-0.00004525,0.00004293,-0.00002454,0.00002538,-0.00006959,-0.00
 004568,-0.00000922,0.00011831,-0.00005728,0.00005713,-0.00001727,0.000
 04445,-0.00002110,0.00002965,0.00000530,0.00000997,-0.00000993,0.00020
 194,-0.00007450,-0.00003654,-0.00007510,0.00001641,0.00003615,0.000096
 03,-0.00001969,0.00004092,0.00008477,-0.00001568,-0.00004153,-0.000003
 28,-0.00001412,0.00000315,-0.00000305,0.00000173,-0.00000040,0.0000000
 7,-0.00000408,0.00002072,-0.00001953,0.00004730,0.00000228,-0.00000098
 ,0.00000061,-0.00009484,-0.00030091,0.00007427,-0.00006735,-0.00014918
 ,0.00002339,-0.00000049,-0.00000715,-0.00000160,0.00000771,0.00000932,
 0.00000039,-0.00000095,0.00000109,0.00000060,-0.00000279,0.00000221,0.
 00000299,0.00000035,0.00000342,0.00000176,0.00000499,-0.00000031,-0.00
 000180,-0.00000004,-0.00000175,0.00000171,0.00000349,0.00000002,-0.000
 00177,-0.00000001,0.00000096,-0.00000147,0.00011874,-0.00004237,0.0000
 6767,-0.00002309,0.00004122,-0.00002580,-0.00006936,-0.00001223,-0.000
 02129,-0.00037367,-0.00006851,-0.00018779,-0.00078349,-0.00019777,0.00
 062471,0.00043864,0.00028118,-0.00000793,-0.00302459,0.00403639,0.0028
 1415,0.10940034,-0.16697282,-0.08285363,0.00057209,0.00016681,0.000283
 62,-0.00162772,0.00049405,0.00021988,-0.11861546,0.17839038,-0.0000104
 7,-0.00001036,-0.00000387,0.00000035,0.00000189,0.00001219,-0.00005175
 ,0.00006668,-0.00001577,0.00009816,-0.00008030,0.00007671,-0.00002539,
 0.00001017,-0.00001689,0.00001398,-0.00002253,0.00001772,-0.00014580,-
 0.00003644,-0.00003770,0.00018685,-0.00000496,0.00007554,-0.00006527,0
 .00006443,-0.00005033,-0.00005961,-0.00001414,-0.00001431,0.00003006,0
 .00000352,0.00001338,-0.00000580,-0.00000643,-0.00000629,-0.00000122,0
 .00000073,0.00000475,0.00007518,0.00006919,-0.00006946,0.00000542,-0.0
 0001022,0.00000489,0.00004379,0.00009969,-0.00004289,0.00001129,-0.000
 03560,0.00001142,-0.00000678,0.00000337,-0.00000360,-0.00000369,-0.000
 00265,0.00000111,0.00000277,-0.00000069,-0.00000234,-0.00000006,0.0000
 0367,0.00000004,0.00000071,0.00000048,0.00000032,-0.00000406,-0.000000
 86,0.00000067,-0.00000071,0.00000099,-0.00000241,-0.00001044,0.0000187
 5,-0.00002638,-0.00000182,-0.00000280,-0.00000073,-0.00001203,0.000060
 68,-0.00003550,0.00000585,-0.00005594,0.00002850,-0.00000316,-0.000024
 07,0.00001614,-0.00123473,0.00030670,-0.00010672,0.00101222,-0.0012657
 7,0.00080961,-0.00016726,0.00039946,-0.00041481,-0.00710517,0.00789494
 ,0.00497962,0.07530441,-0.08180588,-0.10466450,0.00048346,0.00063672,0
 .00056632,-0.00251884,-0.00033395,0.00038802,-0.07934504,0.09076975,0.
 10988367,0.00009087,-0.00005490,0.00006392,-0.00003245,0.00003636,-0.0
 0003194,0.00011727,0.00000303,0.00004001,-0.00023597,0.00015421,-0.000
 16612,0.00004123,-0.00008403,0.00005407,-0.00005744,0.00000811,-0.0000
 2903,0.00017766,-0.00021661,0.00015912,-0.00025304,0.00022830,-0.00020
 476,-0.00006784,-0.00052335,0.00018786,-0.00000580,-0.00021090,0.00008
 456,0.00011418,-0.00000699,0.00002967,-0.00000425,0.00000269,-0.000005
 26,-0.00000008,-0.00000074,0.00001063,-0.00006250,-0.00000197,-0.00000
 548,-0.00000902,0.00001061,-0.00000811,0.00006709,0.00029921,-0.000084
 22,0.00024105,0.00074320,-0.00017441,0.00001237,0.00002056,0.00000752,
 -0.00002464,-0.00002300,-0.00000205,-0.00000063,-0.00000454,0.00000171
 ,0.00000838,-0.00000182,-0.00000780,-0.00000081,-0.00000468,-0.0000036
 7,-0.00001383,-0.00000041,0.00000543,0.00000168,0.00000247,-0.00000463
 ,0.00000548,-0.00000519,0.00000617,0.00000110,-0.00000108,0.00000107,-
 0.00012196,0.00005582,-0.00007638,0.00001772,-0.00004591,0.00002701,0.
 00006917,0.00001629,0.00002295,0.00142082,-0.00072906,0.00051251,-0.00
 420606,0.00506423,-0.00354271,-0.00285988,-0.00337415,0.00013402,-0.00
 883598,-0.03195277,0.00884326,-0.07174673,-0.07245813,0.01871746,0.001
 25631,0.00040195,-0.00034508,0.00095974,0.00056927,0.00080163,0.006818
 11,0.01780201,-0.00646782,0.07758995,0.00013552,-0.00010603,0.00010260
 ,-0.00007275,0.00006288,-0.00005472,0.00013701,0.00008023,0.00003287,-
 0.00024129,0.00012007,-0.00015580,0.00003396,-0.00010516,0.00005969,-0
 .00007000,-0.00001473,-0.00002423,0.00003139,-0.00041330,0.00019093,0.
 00005895,0.00023459,-0.00007883,-0.00011405,-0.00029400,0.00008270,-0.
 00010390,-0.00023430,0.00005395,0.00012889,0.00000622,0.00003547,-0.00
 000851,0.00000286,-0.00000606,0.00000025,0.,0.00001306,-0.00003353,0.0
 0008136,-0.00006801,-0.00000469,0.00000196,-0.00000295,0.00018774,0.00
 065684,-0.00019574,0.00022560,0.00049249,-0.00009538,0.00000359,0.0000
 1746,0.00000427,-0.00002287,-0.00002512,-0.00000052,0.00000234,-0.0000
 0382,-0.00000086,0.00000819,-0.00000266,-0.00000730,-0.00000052,-0.000
 00720,-0.00000493,-0.00001765,-0.00000019,0.00000732,0.00000084,0.0000
 0413,-0.00000696,-0.00000853,0.00000867,-0.00000931,-0.00000041,-0.000
 00364,0.00000140,-0.00024736,0.00013859,-0.00016723,0.00004622,-0.0001
 2353,0.00007237,0.00013662,0.00000989,0.00005615,-0.00173716,-0.000597
 91,-0.00013666,0.00159500,0.00107101,0.00042796,-0.00174268,-0.0007892
 1,-0.00036528,0.00110283,-0.00271985,0.00100474,-0.07254583,-0.2737639
 3,0.05468447,-0.00028006,-0.00001681,-0.00054148,-0.00051528,0.0004717
 6,0.00007781,-0.00709568,-0.01895787,0.00593355,0.08133968,0.29818922,
 -0.00001558,0.00001863,-0.00001769,0.00001230,-0.00000655,0.00001578,-
 0.00001543,-0.00002306,0.00002561,-0.00000012,0.00001445,-0.00000978,0
 .00000401,0.00000773,-0.00000200,0.00000396,0.00000960,-0.00000147,0.0
 0005032,0.00008033,0.00000399,-0.00011500,-0.00000564,-0.00005139,0.00
 001661,-0.00008009,0.00004223,0.00003677,0.00001091,0.00001244,-0.0000
 0682,-0.00000548,-0.00000042,0.00000166,0.00000161,0.00000026,-0.00000
 023,-0.00000058,-0.00000053,0.00000782,-0.00005865,-0.00002548,-0.0000
 0146,0.00000339,-0.00000261,-0.00003680,-0.00014283,0.00002260,0.00000
 507,0.00008461,-0.00003038,0.00000297,0.00000136,0.00000129,-0.0000001
 2,0.00000072,-0.00000089,-0.00000107,-0.00000071,0.00000066,-0.0000005
 1,-0.00000002,-0.00000056,-0.00000001,0.00000042,0.00000047,0.00000201
 ,0.00000025,-0.00000123,0.00000025,-0.00000019,0.00000129,0.00000775,-
 0.00000778,0.00000209,0.00000071,0.00000100,-0.00000021,0.00004927,-0.
 00003250,0.00003419,-0.00001125,0.00003035,-0.00001762,-0.00002676,0.0
 0000305,-0.00001200,0.00092618,0.00024649,0.00098606,-0.00231241,0.001
 69063,-0.00091643,-0.00038592,-0.00092383,0.00021624,-0.00322555,-0.01
 087466,0.00171209,0.01875148,0.05470442,-0.06388107,0.00055604,-0.0002
 5675,0.00019251,0.00054666,0.00043406,0.00008935,-0.00627447,-0.014299
 63,0.00330008,-0.01874886,-0.06151533,0.06323704,-0.00003357,0.0000232
 5,-0.00002606,0.00003059,-0.00001063,0.00002122,-0.00005554,0.00000196
 ,-0.00001650,0.00008410,-0.00004367,0.00006033,-0.00001733,0.00001661,
 -0.00001415,0.00001551,-0.00000456,0.00000900,-0.00001669,0.00010448,-
 0.00003923,-0.00004907,-0.00000186,-0.00003534,-0.00001020,-0.00003089
 ,0.00003164,0.00001622,0.00000974,0.00000959,-0.00000540,0.00000294,-0
 .00001368,0.00000305,-0.00000673,-0.00000068,-0.00000210,0.00000292,-0
 .00000099,0.00005428,-0.00000568,-0.00000189,0.00000143,-0.00000311,0.
 00000008,-0.00004031,-0.00015761,0.00003131,0.00001139,0.00003891,-0.0
 0002190,0.00000466,-0.00000168,0.00000422,-0.00000051,0.00000096,0.000
 00181,-0.00000091,-0.00000289,0.00000208,-0.00000234,0.00000458,-0.000
 00244,0.00000122,0.00000113,0.00000109,-0.00000089,-0.00000068,0.00000
 057,0.00000209,-0.00000134,0.00000192,-0.00000556,0.00001350,-0.000006
 61,-0.00000140,-0.00000068,-0.00000080,0.00005853,0.00000573,0.0000217
 5,-0.00001056,-0.00000264,-0.00000278,-0.00003683,-0.00001834,-0.00000
 822,0.00049268,-0.00045584,0.00105464,-0.00030273,0.00132734,-0.001425
 38,0.00044548,-0.00020305,0.00067074,-0.00299876,0.00425007,-0.0338899
 1,-0.04822752,0.00337690,-0.02083705,-0.00638980,-0.00145681,-0.001681
 23,0.00136071,0.00070162,0.00037525,0.00145433,-0.00371976,0.01997241,
 -0.00047128,-0.00031188,0.01019655,0.05464304,-0.00004554,0.00004920,-
 0.00004622,0.00003376,-0.00001416,0.00003148,-0.00003634,-0.00007864,0
 .00003595,0.00001920,0.00002201,0.00001273,0.00000810,0.00002714,-0.00
 001165,0.00001362,0.00002208,-0.00000180,0.00010421,0.00019868,-0.0000
 4091,-0.00017942,-0.00005572,-0.00005812,0.00007582,0.00001686,0.00003
 036,0.00007906,0.00007789,0.00000383,-0.00005658,-0.00000623,-0.000020
 22,0.00000695,0.00000499,0.00000621,0.00000050,-0.00000066,-0.00000664
 ,0.00001016,-0.00011467,-0.00001128,-0.00000166,0.00000667,-0.00000456
 ,-0.00010863,-0.00034135,0.00008179,-0.00005586,-0.00007739,0.00000361
 ,0.00000488,-0.00000700,0.00000272,0.00000885,0.00000832,-0.00000060,-
 0.00000297,0.00000017,0.00000203,-0.00000284,-0.00000153,0.00000094,-0
 .00000020,0.00000138,0.00000116,0.00000760,0.00000083,-0.00000250,0.00
 000072,-0.00000157,0.00000404,0.00001405,-0.00001582,0.00000919,0.0000
 0122,0.00000283,-0.00000066,0.00011765,-0.00007772,0.00008369,-0.00002
 573,0.00007429,-0.00004254,-0.00006247,0.00000542,-0.00002937,0.000468
 44,-0.00028637,0.00076876,-0.00099631,0.00073546,-0.00148257,0.0006328
 7,-0.00017765,0.00032633,0.00013249,0.00039646,-0.00461068,0.00356600,
 -0.05283149,0.03830154,-0.00110885,0.00027649,-0.00035867,0.00023429,0
 .00005724,0.00045539,-0.00235697,0.00303077,-0.02263178,0.00294223,-0.
 00347097,0.03089026,-0.00344229,0.05254377,0.00003677,-0.00001135,0.00
 001958,-0.00001908,0.00001419,-0.00000621,0.00005144,-0.00001671,0.000
 05288,-0.00012420,0.00008867,-0.00009848,0.00002595,-0.00003044,0.0000
 2591,-0.00002671,0.00001761,-0.00001724,0.00013730,-0.00002667,0.00009
 153,-0.00019769,0.00005250,-0.00012045,0.00002661,-0.00014850,0.000103
 36,0.00003983,-0.00003455,0.00004084,-0.00000071,0.00000022,-0.0000180
 6,0.00000564,0.00000136,0.00000386,-0.00000068,0.00000168,-0.00000287,
 -0.00003668,-0.00009319,-0.00002068,-0.00000503,0.00000790,-0.00000857
 ,0.00001250,-0.00000974,-0.00002393,0.00004966,0.00016089,-0.00005833,
 0.00001101,-0.00000124,0.00000817,-0.00000128,-0.00000086,0.00000040,-
 0.00000267,-0.00000413,0.00000391,-0.00000005,0.00000122,-0.00000431,0
 .00000047,-0.00000038,-0.00000047,-0.00000192,0.00000022,0.00000192,0.
 00000300,-0.00000179,0.00000286,0.00001323,-0.00002014,0.00000476,0.00
 000199,0.00000081,-0.00000112,-0.00003550,-0.00003374,-0.00000646,0.00
 000272,0.00002951,-0.00000826,0.00002647,0.00002865,0.00000642,0.00170
 246,-0.00027104,0.00157637,-0.00094478,0.00268522,-0.00137358,0.000312
 66,-0.00086103,0.00051399,-0.00103152,0.00039458,-0.00869191,-0.022279
 20,0.03643524,-0.31490427,-0.00197181,0.00002082,0.00120470,-0.0003301
 5,0.00015618,0.00066114,-0.00120647,0.00256294,-0.01467622,0.00019774,
 0.00059631,-0.00492450,0.02555866,-0.04169125,0.34064330\\-0.00000089,
 -0.00000026,-0.00000073,0.00000020,-0.00000091,0.00000004,-0.00000055,
 -0.00000058,-0.00000014,0.00000181,-0.00000106,0.00000062,-0.00000054,
 0.00000007,-0.00000069,-0.00000005,-0.00000078,-0.00000055,0.00000022,
 -0.00000312,0.00000184,0.00000089,-0.00000284,-0.00000337,-0.00000305,
 0.00000803,0.00000191,-0.00000109,0.00000080,0.00000075,-0.00000023,-0
 .00000173,-0.00000020,0.00000162,0.00000120,-0.00000003,-0.00000029,0.
 00000021,-0.00000057,-0.00000025,-0.00000028,0.00000052,-0.00000012,-0
 .00000016,-0.00000064,0.00000152,0.00000421,0.00000073,0.,-0.00000577,
 -0.00000147,-0.00000035,0.00000109,-0.00000013,-0.00000038,0.00000064,
 -0.00000218,-0.00000036,0.00000090,-0.00000036,0.00000077,0.00000001,-
 0.00000046,-0.00000034,0.00000067,-0.00000103,-0.00000016,0.00000022,-
 0.00000059,-0.00000004,0.00000087,-0.00000048,-0.00000020,-0.00000069,
 0.00000014,-0.00000047,-0.00000069,-0.00000085,0.00000021,-0.00000131,
 0.00000007,-0.00000060,-0.00000064,-0.00000084,-0.00000068,-0.00000118
 ,-0.00000036,-0.00000303,-0.00000419,-0.00000224,-0.00000707,0.0000099
 6,-0.00000002,0.00001015,-0.00000458,0.00000497,-0.00000240,0.00000198
 ,-0.00000036,0.00000164,-0.00000080,0.00000024,0.00000273,0.00000043,0
 .00000013,0.00000109,0.00000001,0.00000218,0.00000022,0.00000027,0.000
 00023,0.00000049,-0.00000022,0.00000197,-0.00000039,0.00000023,0.00000
 197\\\@


 Any fool can criticize, condemn, and complain -- and most do.
 -- Dale Carnegie
 Job cpu time:       0 days  5 hours 45 minutes 55.9 seconds.
 File lengths (MBytes):  RWF=    784 Int=      0 D2E=      0 Chk=     15 Scr=      1
 Normal termination of Gaussian 09 at Mon Apr  8 19:31:50 2019.
WARNING: pbs_rusage is deprecated and values produced may not be accurate


=============================================================================
                                     Resource usage:
                                       CPU time:              23:59:16
   JobId:    7503380.r-man2            Elapsed time:          03:00:17
   Project:             q95            Requested time:        42:00:00
   Service Units:     24.04 
                                       Max physical memory:     1560MB
                                       Max virtual memory:      2678MB
                                       Requested memory:           0MB

                                       Number of cpus:               8

                                       Max jobfs disk use:       0.8GB
                                       Requested jobfs:         20.0GB
=============================================================================

