 Entering Gaussian System, Link 0=/apps/gaussian/g09e01/g09/g09
 AtFile(1): /home/507/hio507/Basis/6-31pGd.gbs
 Initial command:
 /apps/gaussian/g09e01/g09/l1.exe "/jobfs/local/7531255.r-man2/Gau-50344.inp" -scrdir="/jobfs/local/7531255.r-man2/"
 Entering Link 1 = /apps/gaussian/g09e01/g09/l1.exe PID=     50345.
  
 Copyright (c) 1988,1990,1992,1993,1995,1998,2003,2009,2015,
            Gaussian, Inc.  All Rights Reserved.
  
 This is part of the Gaussian(R) 09 program.  It is based on
 the Gaussian(R) 03 system (copyright 2003, Gaussian, Inc.),
 the Gaussian(R) 98 system (copyright 1998, Gaussian, Inc.),
 the Gaussian(R) 94 system (copyright 1995, Gaussian, Inc.),
 the Gaussian 92(TM) system (copyright 1992, Gaussian, Inc.),
 the Gaussian 90(TM) system (copyright 1990, Gaussian, Inc.),
 the Gaussian 88(TM) system (copyright 1988, Gaussian, Inc.),
 the Gaussian 86(TM) system (copyright 1986, Carnegie Mellon
 University), and the Gaussian 82(TM) system (copyright 1983,
 Carnegie Mellon University). Gaussian is a federally registered
 trademark of Gaussian, Inc.
  
 This software contains proprietary and confidential information,
 including trade secrets, belonging to Gaussian, Inc.
  
 This software is provided under written license and may be
 used, copied, transmitted, or stored only in accord with that
 written license.
  
 The following legend is applicable only to US Government
 contracts under FAR:
  
                    RESTRICTED RIGHTS LEGEND
  
 Use, reproduction and disclosure by the US Government is
 subject to restrictions as set forth in subparagraphs (a)
 and (c) of the Commercial Computer Software - Restricted
 Rights clause in FAR 52.227-19.
  
 Gaussian, Inc.
 340 Quinnipiac St., Bldg. 40, Wallingford CT 06492
  
  
 ---------------------------------------------------------------
 Warning -- This program may not be used in any manner that
 competes with the business of Gaussian, Inc. or will provide
 assistance to any competitor of Gaussian, Inc.  The licensee
 of this program is prohibited from giving any competitor of
 Gaussian, Inc. access to this program.  By using this program,
 the user acknowledges that Gaussian, Inc. is engaged in the
 business of creating and licensing software in the field of
 computational chemistry and represents and warrants to the
 licensee that it is not a competitor of Gaussian, Inc. and that
 it will not use this program in any manner prohibited above.
 ---------------------------------------------------------------
  

 Cite this work as:
 Gaussian 09, Revision E.01,
 M. J. Frisch, G. W. Trucks, H. B. Schlegel, G. E. Scuseria, 
 M. A. Robb, J. R. Cheeseman, G. Scalmani, V. Barone, B. Mennucci, 
 G. A. Petersson, H. Nakatsuji, M. Caricato, X. Li, H. P. Hratchian, 
 A. F. Izmaylov, J. Bloino, G. Zheng, J. L. Sonnenberg, M. Hada, 
 M. Ehara, K. Toyota, R. Fukuda, J. Hasegawa, M. Ishida, T. Nakajima, 
 Y. Honda, O. Kitao, H. Nakai, T. Vreven, J. A. Montgomery, Jr., 
 J. E. Peralta, F. Ogliaro, M. Bearpark, J. J. Heyd, E. Brothers, 
 K. N. Kudin, V. N. Staroverov, T. Keith, R. Kobayashi, J. Normand, 
 K. Raghavachari, A. Rendell, J. C. Burant, S. S. Iyengar, J. Tomasi, 
 M. Cossi, N. Rega, J. M. Millam, M. Klene, J. E. Knox, J. B. Cross, 
 V. Bakken, C. Adamo, J. Jaramillo, R. Gomperts, R. E. Stratmann, 
 O. Yazyev, A. J. Austin, R. Cammi, C. Pomelli, J. W. Ochterski, 
 R. L. Martin, K. Morokuma, V. G. Zakrzewski, G. A. Voth, 
 P. Salvador, J. J. Dannenberg, S. Dapprich, A. D. Daniels, 
 O. Farkas, J. B. Foresman, J. V. Ortiz, J. Cioslowski, 
 and D. J. Fox, Gaussian, Inc., Wallingford CT, 2013.
 
 ******************************************
 Gaussian 09:  ES64L-G09RevE.01 30-Nov-2015
                 9-Apr-2019 
 ******************************************
 %chk=4Nitro_EtO_c3.M062X_6-31pGd_opt_water.chk
 %mem=196608000
 %nproc=8
 Will use up to    8 processors via shared memory.
 ----------------------------------------------------------------------
 # M062X/Gen 6D SCF=Tight INT(grid=ultrafine) OPT IOP(2/17=4) SCRF=(SMD
 ,Solvent=h2o) maxdisk=2684354560
 ----------------------------------------------------------------------
 1/14=-1,18=20,19=15,26=4,38=1/1,3;
 2/9=110,12=2,17=4,18=5,40=1/2;
 3/5=7,8=2,11=2,16=1,25=1,30=1,70=32201,71=1,72=1,74=-55,75=-5/1,2,3;
 4//1;
 5/5=2,32=2,38=5,53=1/2;
 6/7=2,8=2,9=2,10=2,28=1/1;
 7//1,2,3,16;
 1/14=-1,18=20,19=15,26=4/3(2);
 2/9=110,17=4/2;
 99//99;
 2/9=110,17=4/2;
 3/5=7,6=1,8=2,11=2,16=1,25=1,30=1,70=32205,71=1,72=1,74=-55,75=-5,82=7/1,2,3;
 4/5=5,16=3,69=1/1;
 5/5=2,32=2,38=5,53=1/2;
 7//1,2,3,16;
 1/14=-1,18=20,19=15,26=4/3(-5);
 2/9=110,17=4/2;
 6/7=2,8=2,9=2,10=2,19=2,28=1/1;
 99/9=1/99;
 -------------------------------------
 4Nitro_EtO_c3.M062X_6-31pGd_opt_water
 -------------------------------------
 Symbolic Z-matrix:
 Charge = -1 Multiplicity = 1
 C                    -3.75133   3.9287   -1.45054 
 C                    -3.94556   2.62437  -0.98463 
 C                    -2.93693   2.00141  -0.2802 
 C                    -1.70967   2.66595  -0.02442 
 C                    -1.5357    3.98503  -0.50525 
 C                    -2.55399   4.60282  -1.21178 
 N                    -0.77201   1.96087   0.68313 
 C                     0.50256   2.38346   1.05735 
 N                     1.18275   1.43627   1.74312 
 O                     0.95866   3.49996   0.79917 
 C                     2.53103   1.69608   2.19079 
 C                     3.57762   1.53058   1.08683 
 C                     4.98657   1.82721   1.59598 
 H                    -3.06052   0.98791   0.09343 
 H                    -0.60395   4.49755  -0.31231 
 H                    -1.05869   0.99558   0.96432 
 H                     0.77783   0.49519   1.91024 
 H                     2.74012   0.99954   3.01104 
 H                     2.58349   2.71723   2.58857 
 H                     3.3181    2.20875   0.26625 
 H                     3.51881   0.50685   0.69772 
 H                     5.05768   2.85634   1.96737 
 H                     5.73555   1.70444   0.80653 
 H                     5.25692   1.15639   2.42074 
 H                    -4.8841    2.11914  -1.18153 
 H                    -2.43083   5.61343  -1.58439 
 N                    -4.80636   4.58709  -2.18958 
 O                    -4.61496   5.73153  -2.58828 
 O                    -5.85001   3.97355  -2.38753 
 O                    -1.72681  -0.54628   1.31345 
 C                    -0.96558  -1.35945   1.90633 
 O                     0.21583  -1.13678   2.27194 
 C                    -1.52131  -2.75853   2.215 
 C                    -2.96438  -2.97578   1.77706 
 H                    -1.40697  -2.91824   3.29421 
 H                    -0.85042  -3.48194   1.7351 
 H                    -3.62858  -2.25688   2.2655 
 H                    -3.30515  -3.98926   2.02192 
 H                    -3.06771  -2.82348   0.69888 
 
 Add virtual bond connecting atoms O30        and H16        Dist= 3.24D+00.
 Add virtual bond connecting atoms O32        and H17        Dist= 3.33D+00.

 GradGradGradGradGradGradGradGradGradGradGradGradGradGradGradGradGradGrad
 Berny optimization.
 Initialization pass.
                           ----------------------------
                           !    Initial Parameters    !
                           ! (Angstroms and Degrees)  !
 --------------------------                            --------------------------
 ! Name  Definition              Value          Derivative Info.                !
 --------------------------------------------------------------------------------
 ! R1    R(1,2)                  1.3986         estimate D2E/DX2                !
 ! R2    R(1,6)                  1.3946         estimate D2E/DX2                !
 ! R3    R(1,27)                 1.4466         estimate D2E/DX2                !
 ! R4    R(2,3)                  1.379          estimate D2E/DX2                !
 ! R5    R(2,25)                 1.0839         estimate D2E/DX2                !
 ! R6    R(3,4)                  1.4189         estimate D2E/DX2                !
 ! R7    R(3,14)                 1.0872         estimate D2E/DX2                !
 ! R8    R(4,5)                  1.4147         estimate D2E/DX2                !
 ! R9    R(4,7)                  1.37           estimate D2E/DX2                !
 ! R10   R(5,6)                  1.3848         estimate D2E/DX2                !
 ! R11   R(5,15)                 1.0808         estimate D2E/DX2                !
 ! R12   R(6,26)                 1.0841         estimate D2E/DX2                !
 ! R13   R(7,8)                  1.394          estimate D2E/DX2                !
 ! R14   R(7,16)                 1.0455         estimate D2E/DX2                !
 ! R15   R(8,9)                  1.3528         estimate D2E/DX2                !
 ! R16   R(8,10)                 1.2334         estimate D2E/DX2                !
 ! R17   R(9,11)                 1.4442         estimate D2E/DX2                !
 ! R18   R(9,17)                 1.038          estimate D2E/DX2                !
 ! R19   R(11,12)                1.5302         estimate D2E/DX2                !
 ! R20   R(11,18)                1.0962         estimate D2E/DX2                !
 ! R21   R(11,19)                1.0972         estimate D2E/DX2                !
 ! R22   R(12,13)                1.5272         estimate D2E/DX2                !
 ! R23   R(12,20)                1.0957         estimate D2E/DX2                !
 ! R24   R(12,21)                1.0968         estimate D2E/DX2                !
 ! R25   R(13,22)                1.0964         estimate D2E/DX2                !
 ! R26   R(13,23)                1.0951         estimate D2E/DX2                !
 ! R27   R(13,24)                1.097          estimate D2E/DX2                !
 ! R28   R(16,30)                1.7163         estimate D2E/DX2                !
 ! R29   R(17,32)                1.7635         estimate D2E/DX2                !
 ! R30   R(27,28)                1.2269         estimate D2E/DX2                !
 ! R31   R(27,29)                1.2267         estimate D2E/DX2                !
 ! R32   R(30,31)                1.2618         estimate D2E/DX2                !
 ! R33   R(31,32)                1.2566         estimate D2E/DX2                !
 ! R34   R(31,33)                1.5367         estimate D2E/DX2                !
 ! R35   R(33,34)                1.5236         estimate D2E/DX2                !
 ! R36   R(33,35)                1.0969         estimate D2E/DX2                !
 ! R37   R(33,36)                1.0971         estimate D2E/DX2                !
 ! R38   R(34,37)                1.0939         estimate D2E/DX2                !
 ! R39   R(34,38)                1.0969         estimate D2E/DX2                !
 ! R40   R(34,39)                1.0938         estimate D2E/DX2                !
 ! A1    A(2,1,6)              120.8623         estimate D2E/DX2                !
 ! A2    A(2,1,27)             119.5605         estimate D2E/DX2                !
 ! A3    A(6,1,27)             119.5772         estimate D2E/DX2                !
 ! A4    A(1,2,3)              119.3338         estimate D2E/DX2                !
 ! A5    A(1,2,25)             119.6325         estimate D2E/DX2                !
 ! A6    A(3,2,25)             121.0337         estimate D2E/DX2                !
 ! A7    A(2,3,4)              120.8737         estimate D2E/DX2                !
 ! A8    A(2,3,14)             120.8986         estimate D2E/DX2                !
 ! A9    A(4,3,14)             118.2277         estimate D2E/DX2                !
 ! A10   A(3,4,5)              118.8028         estimate D2E/DX2                !
 ! A11   A(3,4,7)              116.362          estimate D2E/DX2                !
 ! A12   A(5,4,7)              124.8352         estimate D2E/DX2                !
 ! A13   A(4,5,6)              119.9288         estimate D2E/DX2                !
 ! A14   A(4,5,15)             119.1765         estimate D2E/DX2                !
 ! A15   A(6,5,15)             120.8947         estimate D2E/DX2                !
 ! A16   A(1,6,5)              120.1987         estimate D2E/DX2                !
 ! A17   A(1,6,26)             119.2926         estimate D2E/DX2                !
 ! A18   A(5,6,26)             120.5087         estimate D2E/DX2                !
 ! A19   A(4,7,8)              127.475          estimate D2E/DX2                !
 ! A20   A(4,7,16)             115.2393         estimate D2E/DX2                !
 ! A21   A(8,7,16)             117.2853         estimate D2E/DX2                !
 ! A22   A(7,8,9)              112.5544         estimate D2E/DX2                !
 ! A23   A(7,8,10)             123.8034         estimate D2E/DX2                !
 ! A24   A(9,8,10)             123.6409         estimate D2E/DX2                !
 ! A25   A(8,9,11)             120.038          estimate D2E/DX2                !
 ! A26   A(8,9,17)             121.3487         estimate D2E/DX2                !
 ! A27   A(11,9,17)            118.5128         estimate D2E/DX2                !
 ! A28   A(9,11,12)            113.2936         estimate D2E/DX2                !
 ! A29   A(9,11,18)            107.1997         estimate D2E/DX2                !
 ! A30   A(9,11,19)            108.9328         estimate D2E/DX2                !
 ! A31   A(12,11,18)           109.9164         estimate D2E/DX2                !
 ! A32   A(12,11,19)           109.2401         estimate D2E/DX2                !
 ! A33   A(18,11,19)           108.1183         estimate D2E/DX2                !
 ! A34   A(11,12,13)           111.6833         estimate D2E/DX2                !
 ! A35   A(11,12,20)           108.1407         estimate D2E/DX2                !
 ! A36   A(11,12,21)           108.6775         estimate D2E/DX2                !
 ! A37   A(13,12,20)           110.3628         estimate D2E/DX2                !
 ! A38   A(13,12,21)           110.429          estimate D2E/DX2                !
 ! A39   A(20,12,21)           107.4163         estimate D2E/DX2                !
 ! A40   A(12,13,22)           110.7983         estimate D2E/DX2                !
 ! A41   A(12,13,23)           111.6457         estimate D2E/DX2                !
 ! A42   A(12,13,24)           111.0539         estimate D2E/DX2                !
 ! A43   A(22,13,23)           107.7613         estimate D2E/DX2                !
 ! A44   A(22,13,24)           107.6583         estimate D2E/DX2                !
 ! A45   A(23,13,24)           107.7521         estimate D2E/DX2                !
 ! A46   A(1,27,28)            118.4738         estimate D2E/DX2                !
 ! A47   A(1,27,29)            118.3777         estimate D2E/DX2                !
 ! A48   A(28,27,29)           123.1485         estimate D2E/DX2                !
 ! A49   A(16,30,31)           116.0834         estimate D2E/DX2                !
 ! A50   A(30,31,32)           126.1358         estimate D2E/DX2                !
 ! A51   A(30,31,33)           117.5761         estimate D2E/DX2                !
 ! A52   A(32,31,33)           116.2881         estimate D2E/DX2                !
 ! A53   A(17,32,31)           113.8239         estimate D2E/DX2                !
 ! A54   A(31,33,34)           114.4936         estimate D2E/DX2                !
 ! A55   A(31,33,35)           107.0066         estimate D2E/DX2                !
 ! A56   A(31,33,36)           106.9367         estimate D2E/DX2                !
 ! A57   A(34,33,35)           111.146          estimate D2E/DX2                !
 ! A58   A(34,33,36)           111.0641         estimate D2E/DX2                !
 ! A59   A(35,33,36)           105.6999         estimate D2E/DX2                !
 ! A60   A(33,34,37)           110.6733         estimate D2E/DX2                !
 ! A61   A(33,34,38)           111.2115         estimate D2E/DX2                !
 ! A62   A(33,34,39)           110.668          estimate D2E/DX2                !
 ! A63   A(37,34,38)           108.5969         estimate D2E/DX2                !
 ! A64   A(37,34,39)           106.9355         estimate D2E/DX2                !
 ! A65   A(38,34,39)           108.6234         estimate D2E/DX2                !
 ! A66   L(7,16,30,2,-1)       172.277          estimate D2E/DX2                !
 ! A67   L(9,17,32,1,-1)       184.9243         estimate D2E/DX2                !
 ! A68   L(7,16,30,2,-2)       179.7659         estimate D2E/DX2                !
 ! A69   L(9,17,32,1,-2)       180.2309         estimate D2E/DX2                !
 ! D1    D(6,1,2,3)              0.016          estimate D2E/DX2                !
 ! D2    D(6,1,2,25)           179.9978         estimate D2E/DX2                !
 ! D3    D(27,1,2,3)          -179.9746         estimate D2E/DX2                !
 ! D4    D(27,1,2,25)            0.0072         estimate D2E/DX2                !
 ! D5    D(2,1,6,5)             -0.0187         estimate D2E/DX2                !
 ! D6    D(2,1,6,26)          -179.9832         estimate D2E/DX2                !
 ! D7    D(27,1,6,5)           179.9719         estimate D2E/DX2                !
 ! D8    D(27,1,6,26)            0.0074         estimate D2E/DX2                !
 ! D9    D(2,1,27,28)          179.9581         estimate D2E/DX2                !
 ! D10   D(2,1,27,29)           -0.0453         estimate D2E/DX2                !
 ! D11   D(6,1,27,28)           -0.0326         estimate D2E/DX2                !
 ! D12   D(6,1,27,29)          179.964          estimate D2E/DX2                !
 ! D13   D(1,2,3,4)             -0.0206         estimate D2E/DX2                !
 ! D14   D(1,2,3,14)          -179.9819         estimate D2E/DX2                !
 ! D15   D(25,2,3,4)           179.9979         estimate D2E/DX2                !
 ! D16   D(25,2,3,14)            0.0366         estimate D2E/DX2                !
 ! D17   D(2,3,4,5)              0.0274         estimate D2E/DX2                !
 ! D18   D(2,3,4,7)           -179.9781         estimate D2E/DX2                !
 ! D19   D(14,3,4,5)           179.9897         estimate D2E/DX2                !
 ! D20   D(14,3,4,7)            -0.0158         estimate D2E/DX2                !
 ! D21   D(3,4,5,6)             -0.0296         estimate D2E/DX2                !
 ! D22   D(3,4,5,15)           179.8902         estimate D2E/DX2                !
 ! D23   D(7,4,5,6)            179.9764         estimate D2E/DX2                !
 ! D24   D(7,4,5,15)            -0.1038         estimate D2E/DX2                !
 ! D25   D(3,4,7,8)            179.8051         estimate D2E/DX2                !
 ! D26   D(3,4,7,16)             0.0581         estimate D2E/DX2                !
 ! D27   D(5,4,7,8)             -0.2007         estimate D2E/DX2                !
 ! D28   D(5,4,7,16)          -179.9477         estimate D2E/DX2                !
 ! D29   D(4,5,6,1)              0.0256         estimate D2E/DX2                !
 ! D30   D(4,5,6,26)           179.9896         estimate D2E/DX2                !
 ! D31   D(15,5,6,1)          -179.8928         estimate D2E/DX2                !
 ! D32   D(15,5,6,26)            0.0713         estimate D2E/DX2                !
 ! D33   D(4,7,8,9)           -179.4954         estimate D2E/DX2                !
 ! D34   D(4,7,8,10)             0.8875         estimate D2E/DX2                !
 ! D35   D(16,7,8,9)             0.2471         estimate D2E/DX2                !
 ! D36   D(16,7,8,10)         -179.37           estimate D2E/DX2                !
 ! D37   D(4,7,30,31)          176.3422         estimate D2E/DX2                !
 ! D38   D(8,7,30,31)           -3.2789         estimate D2E/DX2                !
 ! D39   D(7,8,9,11)           178.9853         estimate D2E/DX2                !
 ! D40   D(7,8,9,17)             2.6857         estimate D2E/DX2                !
 ! D41   D(10,8,9,11)           -1.3969         estimate D2E/DX2                !
 ! D42   D(10,8,9,17)         -177.6966         estimate D2E/DX2                !
 ! D43   D(8,9,11,12)          -79.563          estimate D2E/DX2                !
 ! D44   D(8,9,11,18)          159.0034         estimate D2E/DX2                !
 ! D45   D(8,9,11,19)           42.2381         estimate D2E/DX2                !
 ! D46   D(17,9,11,12)          96.8408         estimate D2E/DX2                !
 ! D47   D(17,9,11,18)         -24.5928         estimate D2E/DX2                !
 ! D48   D(17,9,11,19)        -141.3581         estimate D2E/DX2                !
 ! D49   D(8,9,32,31)           -4.7084         estimate D2E/DX2                !
 ! D50   D(11,9,32,31)         178.7329         estimate D2E/DX2                !
 ! D51   D(9,11,12,13)         179.4287         estimate D2E/DX2                !
 ! D52   D(9,11,12,20)          57.8064         estimate D2E/DX2                !
 ! D53   D(9,11,12,21)         -58.5038         estimate D2E/DX2                !
 ! D54   D(18,11,12,13)        -60.6761         estimate D2E/DX2                !
 ! D55   D(18,11,12,20)        177.7016         estimate D2E/DX2                !
 ! D56   D(18,11,12,21)         61.3914         estimate D2E/DX2                !
 ! D57   D(19,11,12,13)         57.7997         estimate D2E/DX2                !
 ! D58   D(19,11,12,20)        -63.8226         estimate D2E/DX2                !
 ! D59   D(19,11,12,21)        179.8672         estimate D2E/DX2                !
 ! D60   D(11,12,13,22)        -60.1224         estimate D2E/DX2                !
 ! D61   D(11,12,13,23)        179.7577         estimate D2E/DX2                !
 ! D62   D(11,12,13,24)         59.4753         estimate D2E/DX2                !
 ! D63   D(20,12,13,22)         60.2069         estimate D2E/DX2                !
 ! D64   D(20,12,13,23)        -59.9129         estimate D2E/DX2                !
 ! D65   D(20,12,13,24)        179.8047         estimate D2E/DX2                !
 ! D66   D(21,12,13,22)        178.8229         estimate D2E/DX2                !
 ! D67   D(21,12,13,23)         58.7031         estimate D2E/DX2                !
 ! D68   D(21,12,13,24)        -61.5793         estimate D2E/DX2                !
 ! D69   D(16,30,31,32)          0.8875         estimate D2E/DX2                !
 ! D70   D(16,30,31,33)       -179.0095         estimate D2E/DX2                !
 ! D71   D(30,31,32,17)          1.0766         estimate D2E/DX2                !
 ! D72   D(33,31,32,17)       -179.0253         estimate D2E/DX2                !
 ! D73   D(30,31,33,34)         -1.1505         estimate D2E/DX2                !
 ! D74   D(30,31,33,35)       -124.785          estimate D2E/DX2                !
 ! D75   D(30,31,33,36)        122.3263         estimate D2E/DX2                !
 ! D76   D(32,31,33,34)        178.9424         estimate D2E/DX2                !
 ! D77   D(32,31,33,35)         55.3079         estimate D2E/DX2                !
 ! D78   D(32,31,33,36)        -57.5808         estimate D2E/DX2                !
 ! D79   D(31,33,34,37)        -59.2412         estimate D2E/DX2                !
 ! D80   D(31,33,34,38)        179.9568         estimate D2E/DX2                !
 ! D81   D(31,33,34,39)         59.1248         estimate D2E/DX2                !
 ! D82   D(35,33,34,37)         62.1466         estimate D2E/DX2                !
 ! D83   D(35,33,34,38)        -58.6554         estimate D2E/DX2                !
 ! D84   D(35,33,34,39)       -179.4875         estimate D2E/DX2                !
 ! D85   D(36,33,34,37)        179.526          estimate D2E/DX2                !
 ! D86   D(36,33,34,38)         58.724          estimate D2E/DX2                !
 ! D87   D(36,33,34,39)        -62.108          estimate D2E/DX2                !
 --------------------------------------------------------------------------------
 Trust Radius=3.00D-01 FncErr=1.00D-07 GrdErr=1.00D-06
 Number of steps in this run=    206 maximum allowed number of steps=    234.
 GradGradGradGradGradGradGradGradGradGradGradGradGradGradGradGradGradGrad

                          Input orientation:                          
 ---------------------------------------------------------------------
 Center     Atomic      Atomic             Coordinates (Angstroms)
 Number     Number       Type             X           Y           Z
 ---------------------------------------------------------------------
      1          6           0       -3.751326    3.928700   -1.450540
      2          6           0       -3.945557    2.624373   -0.984629
      3          6           0       -2.936928    2.001406   -0.280203
      4          6           0       -1.709669    2.665952   -0.024422
      5          6           0       -1.535696    3.985031   -0.505247
      6          6           0       -2.553994    4.602817   -1.211775
      7          7           0       -0.772009    1.960873    0.683129
      8          6           0        0.502556    2.383461    1.057353
      9          7           0        1.182752    1.436269    1.743122
     10          8           0        0.958657    3.499964    0.799166
     11          6           0        2.531029    1.696075    2.190789
     12          6           0        3.577621    1.530575    1.086834
     13          6           0        4.986574    1.827206    1.595981
     14          1           0       -3.060524    0.987906    0.093434
     15          1           0       -0.603947    4.497547   -0.312310
     16          1           0       -1.058693    0.995576    0.964317
     17          1           0        0.777834    0.495188    1.910244
     18          1           0        2.740122    0.999535    3.011044
     19          1           0        2.583493    2.717231    2.588571
     20          1           0        3.318097    2.208751    0.266251
     21          1           0        3.518810    0.506852    0.697719
     22          1           0        5.057685    2.856336    1.967373
     23          1           0        5.735552    1.704445    0.806534
     24          1           0        5.256917    1.156387    2.420739
     25          1           0       -4.884095    2.119137   -1.181531
     26          1           0       -2.430831    5.613430   -1.584394
     27          7           0       -4.806364    4.587090   -2.189578
     28          8           0       -4.614956    5.731527   -2.588282
     29          8           0       -5.850011    3.973551   -2.387535
     30          8           0       -1.726809   -0.546276    1.313447
     31          6           0       -0.965579   -1.359445    1.906329
     32          8           0        0.215833   -1.136776    2.271944
     33          6           0       -1.521306   -2.758525    2.215000
     34          6           0       -2.964385   -2.975778    1.777056
     35          1           0       -1.406972   -2.918239    3.294213
     36          1           0       -0.850422   -3.481940    1.735105
     37          1           0       -3.628579   -2.256884    2.265498
     38          1           0       -3.305151   -3.989263    2.021919
     39          1           0       -3.067709   -2.823484    0.698881
 ---------------------------------------------------------------------
                    Distance matrix (angstroms):
                    1          2          3          4          5
     1  C    0.000000
     2  C    1.398595   0.000000
     3  C    2.397373   1.378999   0.000000
     4  C    2.792259   2.433706   1.418876   0.000000
     5  C    2.409517   2.808671   2.439030   1.414719   0.000000
     6  C    1.394649   2.429462   2.789589   2.423663   1.384837
     7  N    4.159474   3.645965   2.369921   1.370026   2.468334
     8  C    5.174244   4.900351   3.710130   2.478705   3.026750
     9  N    6.384107   5.928893   4.624390   3.605888   4.352161
    10  O    5.237264   5.291493   4.311183   2.914419   2.856322
    11  C    7.596833   7.272632   6.008126   4.881735   5.389450
    12  C    8.118050   7.879439   6.673066   5.520815   5.891102
    13  C    9.489387   9.331559   8.144464   6.940379   7.184105
    14  H    3.392541   2.150239   1.087226   2.157437   3.415593
    15  H    3.394872   3.889364   3.416804   2.158759   1.080765
    16  H    4.656718   3.845173   2.467446   2.047323   3.365114
    17  H    6.602815   5.934993   4.567954   3.826594   4.833841
    18  H    8.403847   7.956369   6.638143   5.638407   6.289682
    19  H    7.609994   7.443445   6.262373   5.026092   5.305350
    20  H    7.475449   7.382284   6.282272   5.056872   5.225867
    21  H    8.317388   7.939204   6.698251   5.702648   6.252430
    22  H    9.509509   9.477684   8.348433   7.056952   7.131652
    23  H   10.002127   9.888296   8.745346   7.552900   7.732586
    24  H   10.189257   9.921544   8.668808   7.535974   7.918472
    25  H    2.151755   1.083922   2.148887   3.422702   3.892390
    26  H    2.144747   3.404200   3.873470   3.411923   2.148839
    27  N    1.446637   2.458688   3.718369   4.238890   3.727830
    28  O    2.300108   3.560085   4.696468   4.940832   4.107448
    29  O    2.298793   2.723117   4.100763   4.943334   4.707064
    30  O    5.635930   4.500779   3.239566   3.479740   4.886401
    31  C    6.855176   5.754017   4.467936   4.526068   5.891023
    32  O    7.433323   6.486038   5.128503   4.841652   6.083877
    33  C    7.945323   6.714924   5.557604   5.871579   7.271554
    34  C    7.662145   6.320703   5.385668   6.053821   7.463439
    35  H    8.653858   7.448050   6.270575   6.502934   7.880838
    36  H    8.572116   7.366402   6.203390   6.452195   7.825882
    37  H    7.217026   5.872859   5.009192   5.758495   7.142737
    38  H    8.657435   7.293122   6.428332   7.143175   8.550257
    39  H    7.118942   5.769226   4.924963   5.700995   7.081869
                    6          7          8          9         10
     6  C    0.000000
     7  N    3.707561   0.000000
     8  C    4.406470   1.393965   0.000000
     9  N    5.720290   2.284706   1.352819   0.000000
    10  O    4.195103   2.318938   1.233397   2.280375   0.000000
    11  C    6.773777   3.640496   2.423196   1.444215   2.768209
    12  C    7.233186   4.389466   3.191286   2.484956   3.289410
    13  C    8.511620   5.832019   4.550380   3.826688   4.433638
    14  H    3.876561   2.555720   3.946169   4.574701   4.791900
    15  H    2.150071   2.730176   2.751305   4.097379   2.161546
    16  H    4.470290   1.045492   2.091024   2.413467   3.220084
    17  H    6.141718   2.460905   2.090162   1.038037   3.208718
    18  H    7.670952   4.321854   3.277020   2.055180   3.783935
    19  H    6.662720   3.932198   2.605059   2.077914   2.540617
    20  H    6.511341   4.118762   2.929785   2.708796   2.741932
    21  H    7.569812   4.530509   3.570544   2.722839   3.939974
    22  H    8.431775   6.036262   4.669148   4.133036   4.310568
    23  H    9.010588   6.513780   5.282823   4.655867   5.103202
    24  H    9.278112   6.325696   5.095928   4.139604   5.157217
    25  H    3.405724   4.517882   5.839390   6.769530   6.321993
    26  H    1.084137   4.608094   5.100616   6.448179   4.651529
    27  N    2.455507   5.605843   6.601755   7.827088   6.584064
    28  O    2.723292   6.299858   7.119629   8.415683   6.893463
    29  O    3.555575   6.266255   7.399374   8.541655   7.532417
    30  O    5.794320   2.755855   3.690394   3.546921   4.883469
    31  C    6.913335   3.543755   4.109200   3.529586   5.342504
    32  O    7.263001   3.618784   3.734904   2.799133   4.921405
    33  C    8.185267   5.018046   5.645900   5.013072   6.879207
    34  C    8.156999   5.511235   6.423324   6.055250   7.634249
    35  H    8.842278   5.570159   6.062826   5.298518   7.281126
    36  H    8.772090   5.544097   6.057460   5.321902   7.272945
    37  H    7.765415   5.334169   6.329194   6.087788   7.505609
    38  H    9.211126   6.604035   7.486029   7.046658   8.704235
    39  H    7.685340   5.306652   6.323572   6.107565   7.497178
                   11         12         13         14         15
    11  C    0.000000
    12  C    1.530183   0.000000
    13  C    2.529959   1.527209   0.000000
    14  H    6.013806   6.733966   8.229086   0.000000
    15  H    4.893037   5.314699   6.482763   4.303136   0.000000
    16  H    3.857595   4.668688   6.134808   2.183076   3.755046
    17  H    2.143485   3.096585   4.425667   4.275109   4.782043
    18  H    1.096224   2.164715   2.781005   6.493079   5.870567
    19  H    1.097152   2.156769   2.748122   6.408682   4.663089
    20  H    2.141533   1.095734   2.167389   6.496702   4.577745
    21  H    2.149238   1.096758   2.168995   6.624516   5.826056
    22  H    2.789285   2.173380   1.096402   8.538617   6.320173
    23  H    3.490731   2.182994   1.095109   8.853976   7.017298
    24  H    2.788298   2.177005   1.096954   8.638550   7.278916
    25  H    8.156935   8.780235  10.258163   2.496123   4.973133
    26  H    7.363269   7.739939   8.914492   4.960554   2.490161
    27  N    9.021247   9.506227  10.855830   4.605890   4.603527
    28  O    9.496814   9.913263  11.177708   5.666551   4.773987
    29  O    9.817829  10.340194  11.743371   4.780221   5.665891
    30  O    4.891528   5.701021   7.126201   2.370853   5.417015
    31  C    4.652245   5.446509   6.758638   3.631176   6.273555
    32  O    3.659476   4.452063   5.657038   4.471543   6.252680
    33  C    6.022081   6.757825   7.985275   4.572306   7.738179
    34  C    7.224746   7.973799   9.290812   4.307507   8.110962
    35  H    6.165816   7.036380   8.141294   5.313867   8.285272
    36  H    6.201105   6.719608   7.891572   5.249682   8.241654
    37  H    7.319306   8.225777   9.557662   3.945784   7.836825
    38  H    8.149391   8.872178  10.137329   5.343323   9.207120
    39  H    7.348337   7.954165   9.343724   3.859185   7.790386
                   16         17         18         19         20
    16  H    0.000000
    17  H    2.125558   0.000000
    18  H    4.315102   2.305797   0.000000
    19  H    4.343710   2.942449   1.775808   0.000000
    20  H    4.595148   3.477348   3.054529   2.488246   0.000000
    21  H    4.611232   2.997216   2.490093   3.055473   1.767176
    22  H    6.471370   4.888293   3.147706   2.554772   2.517806
    23  H    6.832947   5.221058   3.785414   3.759902   2.527908
    24  H    6.483360   4.556311   2.589849   3.100257   3.083555
    25  H    4.527776   6.652347   8.772678   8.386671   8.329469
    26  H    5.450071   6.978856   8.315337   7.137580   6.933030
    27  N    6.073801   8.045835   9.842076   8.996503   8.814446
    28  O    6.906316   8.760032  10.384670   9.365012   9.137376
    29  O    6.562009   8.631236  10.572597   9.872383   9.706250
    30  O    1.716268   2.777418   5.022433   5.554739   5.842762
    31  C    2.538145   2.545421   4.529614   5.447996   5.811348
    32  O    2.807353   1.763513   3.388529   4.534251   4.983914
    33  C    3.983904   3.995694   5.737288   6.853673   7.203560
    34  C    4.479269   5.105835   7.061674   7.990486   8.284410
    35  H    4.568113   4.282550   5.712052   6.941201   7.601373
    36  H    4.548147   4.301098   5.882487   7.137920   7.205418
    37  H    4.344638   5.207358   7.191694   7.964674   8.496776
    38  H    5.568995   6.065768   7.900114   8.942834   9.239327
    39  H    4.323403   5.221990   7.327515   8.136740   8.141810
                   21         22         23         24         25
    21  H    0.000000
    22  H    3.082245   0.000000
    23  H    2.521906   1.770284   0.000000
    24  H    2.532135   1.770610   1.770626   0.000000
    25  H    8.760129  10.454570  10.812089  10.804784   0.000000
    26  H    8.165991   8.734671   9.364107   9.747193   4.288460
    27  N    9.710476  10.843210  11.332180  11.588544   2.667019
    28  O   10.210444  11.071616  11.613577  11.978149   3.885968
    29  O   10.455218  11.797932  12.230134  12.426574   2.413771
    30  O    5.385603   7.618054   7.810860   7.273072   4.826779
    31  C    5.005352   7.352295   7.449975   6.731529   6.081955
    32  O    4.011154   6.283409   6.378656   5.540150   6.966831
    33  C    6.194158   8.652809   8.635036   7.830273   6.829082
    34  C    7.438111   9.919848   9.926494   9.223823   6.196505
    35  H    6.537305   8.769151   8.864164   7.859577   7.582732
    36  H    6.006398   8.667954   8.434209   7.699595   7.493287
    37  H    7.821850  10.083902  10.271691   9.519798   5.710332
    38  H    8.278587  10.807508  10.753128   9.997289   7.075853
    39  H    7.380608   9.994571   9.900057   9.386350   5.591485
                   26         27         28         29         30
    26  H    0.000000
    27  N    2.657589   0.000000
    28  O    2.406686   1.226923   0.000000
    29  O    3.876214   1.226709   2.157809   0.000000
    30  O    6.843618   6.935869   7.935723   7.150307   0.000000
    31  C    7.934299   8.178591   9.154308   8.410457   1.261833
    32  O    8.212275   8.825547   9.702160   9.198948   2.245277
    33  C    9.238629   9.173329  10.233434   9.232652   2.397723
    34  C    9.238968   8.736363   9.879156   8.600222   2.765684
    35  H    9.881218   9.897362  10.941360   9.975952   3.106757
    36  H    9.810328   9.806215  10.851330   9.878076   3.092568
    37  H    8.842970   8.250749   9.399300   8.087261   2.729343
    38  H   10.294738   9.671823  10.838048   9.451243   3.853214
    39  H    8.763588   8.141420   9.294494   7.966608   2.713186
                   31         32         33         34         35
    31  C    0.000000
    32  O    1.256579   0.000000
    33  C    1.536729   2.377176   0.000000
    34  C    2.573804   3.706836   1.523637   0.000000
    35  H    2.133281   2.617660   1.096942   2.174997   0.000000
    36  H    2.132502   2.631519   1.097139   2.174120   1.748806
    37  H    2.833014   4.004271   2.166747   1.093864   2.535977
    38  H    3.521775   4.538339   2.175799   1.096919   2.523669
    39  H    2.832011   4.012625   2.166610   1.093768   3.082656
                   36         37         38         39
    36  H    0.000000
    37  H    3.082245   0.000000
    38  H    2.522961   1.779065   0.000000
    39  H    2.534499   1.757811   1.779283   0.000000
 Stoichiometry    C13H18N3O5(1-)
 Framework group  C1[X(C13H18N3O5)]
 Deg. of freedom   111
 Full point group                 C1      NOp   1
 Largest Abelian subgroup         C1      NOp   1
 Largest concise Abelian subgroup C1      NOp   1
                         Standard orientation:                         
 ---------------------------------------------------------------------
 Center     Atomic      Atomic             Coordinates (Angstroms)
 Number     Number       Type             X           Y           Z
 ---------------------------------------------------------------------
      1          6           0       -3.849985   -0.335367    0.055449
      2          6           0       -3.136689    0.866544    0.107300
      3          6           0       -1.761214    0.840462    0.012288
      4          6           0       -1.064797   -0.386775   -0.136381
      5          6           0       -1.807175   -1.590016   -0.186534
      6          6           0       -3.188203   -1.554321   -0.090296
      7          7           0        0.300163   -0.305264   -0.221298
      8          6           0        1.205174   -1.355643   -0.365511
      9          7           0        2.489340   -0.932161   -0.406736
     10          8           0        0.873186   -2.540255   -0.453534
     11          6           0        3.562874   -1.890205   -0.530959
     12          6           0        3.918186   -2.575535    0.790229
     13          6           0        5.046383   -3.589723    0.614263
     14          1           0       -1.181445    1.759437    0.049908
     15          1           0       -1.282969   -2.528129   -0.301451
     16          1           0        0.693268    0.661954   -0.166435
     17          1           0        2.731047    0.071016   -0.293887
     18          1           0        4.435209   -1.351125   -0.918425
     19          1           0        3.277247   -2.651363   -1.267708
     20          1           0        3.017436   -3.069527    1.171351
     21          1           0        4.204323   -1.807149    1.518643
     22          1           0        4.758626   -4.372598   -0.097355
     23          1           0        5.303061   -4.076730    1.560945
     24          1           0        5.953403   -3.107412    0.229557
     25          1           0       -3.671327    1.802562    0.220960
     26          1           0       -3.766401   -2.470637   -0.127792
     27          7           0       -5.293091   -0.313662    0.154100
     28          8           0       -5.898816   -1.379531    0.105524
     29          8           0       -5.852470    0.770513    0.282451
     30          8           0        1.120026    2.320158   -0.048895
     31          6           0        2.355677    2.575689   -0.039174
     32          8           0        3.286704    1.735923   -0.122689
     33          6           0        2.776644    4.048108    0.088505
     34          6           0        1.616256    5.032823    0.161368
     35          1           0        3.430864    4.269805   -0.763626
     36          1           0        3.413384    4.122428    0.978872
     37          1           0        0.990593    4.959235   -0.732875
     38          1           0        1.976639    6.064862    0.252202
     39          1           0        0.974334    4.810286    1.018539
 ---------------------------------------------------------------------
 Rotational constants (GHZ):      0.3375318      0.1488082      0.1049412
 General basis read from cards:  (6D, 7F)
 There are   435 symmetry adapted cartesian basis functions of A   symmetry.
 There are   435 symmetry adapted basis functions of A   symmetry.
   435 basis functions,   744 primitive gaussians,   435 cartesian basis functions
    79 alpha electrons       79 beta electrons
       nuclear repulsion energy      1630.2622221361 Hartrees.
 NAtoms=   39 NActive=   39 NUniq=   39 SFac= 1.00D+00 NAtFMM=   60 NAOKFM=F Big=F
 Integral buffers will be    131072 words long.
 Raffenetti 2 integral format.
 Two-electron integral symmetry is turned on.
 ------------------------------------------------------------------------------
 Polarizable Continuum Model (PCM)
 =================================
 Model                : PCM (using non-symmetric T matrix).
 Atomic radii         : SMD-Coulomb.
 Polarization charges : Total charges.
 Charge compensation  : None.
 Solution method      : On-the-fly selection.
 Cavity type          : VdW (van der Waals Surface) (Alpha=1.000).
 Cavity algorithm     : GePol (No added spheres)
                        Default sphere list used, NSphG=   39.
                        Lebedev-Laikov grids with approx.  5.0 points / Ang**2.
                        Smoothing algorithm: York/Karplus (Gamma=1.0000).
                        Polarization charges: spherical gaussians, with
                                              point-specific exponents (IZeta= 3).
                        Self-potential: point-specific (ISelfS= 7).
                        Self-field    : sphere-specific E.n sum rule (ISelfD= 2).
 1st derivatives      : Analytical E(r).r(x)/FMM algorithm (CHGder, D1EAlg=3).
                        Cavity 1st derivative terms included.
 Solvent              : Water, Eps=  78.355300 Eps(inf)=   1.777849
 ------------------------------------------------------------------------------
 ------------------------------------------------------------------------------
 Atomic radii for non-electrostatic terms: SMD-CDS.
 ------------------------------------------------------------------------------
 Nuclear repulsion after PCM non-electrostatic terms =     1630.2786725897 Hartrees.
 One-electron integrals computed using PRISM.
 NBasis=   435 RedAO= T EigKep=  1.24D-06  NBF=   435
 NBsUse=   434 1.00D-06 EigRej=  8.49D-07 NBFU=   434
 ExpMin= 4.38D-02 ExpMax= 5.48D+03 ExpMxC= 8.25D+02 IAcc=3 IRadAn=         5 AccDes= 0.00D+00
 Harris functional with IExCor= 1009 and IRadAn=       5 diagonalized for initial guess.
 HarFok:  IExCor= 1009 AccDes= 0.00D+00 IRadAn=         5 IDoV= 1 UseB2=F ITyADJ=14
 ICtDFT=  3500011 ScaDFX=  1.000000  1.000000  1.000000  1.000000
 FoFCou: FMM=F IPFlag=           0 FMFlag=      100000 FMFlg1=           0
         NFxFlg=           0 DoJE=T BraDBF=F KetDBF=T FulRan=T
         wScrn=  0.000000 ICntrl=     500 IOpCl=  0 I1Cent=   200000004 NGrid=           0
         NMat0=    1 NMatS0=      1 NMatT0=    0 NMatD0=    1 NMtDS0=    0 NMtDT0=    0
 Petite list used in FoFCou.
 Requested convergence on RMS density matrix=1.00D-08 within 128 cycles.
 Requested convergence on MAX density matrix=1.00D-06.
 Requested convergence on             energy=1.00D-06.
 No special actions if energy rises.
 Inv3:  Mode=1 IEnd=    25631787.
 Iteration    1 A*A^-1 deviation from unit magnitude is 5.77D-15 for   2922.
 Iteration    1 A*A^-1 deviation from orthogonality  is 3.63D-15 for   1912   1553.
 Iteration    1 A^-1*A deviation from unit magnitude is 5.55D-15 for   2914.
 Iteration    1 A^-1*A deviation from orthogonality  is 7.68D-10 for   1427   1327.
 Iteration    2 A*A^-1 deviation from unit magnitude is 3.55D-15 for     64.
 Iteration    2 A*A^-1 deviation from orthogonality  is 4.35D-15 for   1654    261.
 Iteration    2 A^-1*A deviation from unit magnitude is 1.11D-15 for     81.
 Iteration    2 A^-1*A deviation from orthogonality  is 4.18D-16 for    607    606.
 Error on total polarization charges =  0.07896
 SCF Done:  E(RM062X) =  -1046.33102584     A.U. after   15 cycles
            NFock= 15  Conv=0.95D-08     -V/T= 2.0085
 SMD-CDS (non-electrostatic) energy       (kcal/mol) =      10.32
 (included in total energy above)

 **********************************************************************

            Population analysis using the SCF density.

 **********************************************************************

 Orbital symmetries:
       Occupied  (A) (A) (A) (A) (A) (A) (A) (A) (A) (A) (A) (A)
                 (A) (A) (A) (A) (A) (A) (A) (A) (A) (A) (A) (A)
                 (A) (A) (A) (A) (A) (A) (A) (A) (A) (A) (A) (A)
                 (A) (A) (A) (A) (A) (A) (A) (A) (A) (A) (A) (A)
                 (A) (A) (A) (A) (A) (A) (A) (A) (A) (A) (A) (A)
                 (A) (A) (A) (A) (A) (A) (A) (A) (A) (A) (A) (A)
                 (A) (A) (A) (A) (A) (A) (A)
       Virtual   (A) (A) (A) (A) (A) (A) (A) (A) (A) (A) (A) (A)
                 (A) (A) (A) (A) (A) (A) (A) (A) (A) (A) (A) (A)
                 (A) (A) (A) (A) (A) (A) (A) (A) (A) (A) (A) (A)
                 (A) (A) (A) (A) (A) (A) (A) (A) (A) (A) (A) (A)
                 (A) (A) (A) (A) (A) (A) (A) (A) (A) (A) (A) (A)
                 (A) (A) (A) (A) (A) (A) (A) (A) (A) (A) (A) (A)
                 (A) (A) (A) (A) (A) (A) (A) (A) (A) (A) (A) (A)
                 (A) (A) (A) (A) (A) (A) (A) (A) (A) (A) (A) (A)
                 (A) (A) (A) (A) (A) (A) (A) (A) (A) (A) (A) (A)
                 (A) (A) (A) (A) (A) (A) (A) (A) (A) (A) (A) (A)
                 (A) (A) (A) (A) (A) (A) (A) (A) (A) (A) (A) (A)
                 (A) (A) (A) (A) (A) (A) (A) (A) (A) (A) (A) (A)
                 (A) (A) (A) (A) (A) (A) (A) (A) (A) (A) (A) (A)
                 (A) (A) (A) (A) (A) (A) (A) (A) (A) (A) (A) (A)
                 (A) (A) (A) (A) (A) (A) (A) (A) (A) (A) (A) (A)
                 (A) (A) (A) (A) (A) (A) (A) (A) (A) (A) (A) (A)
                 (A) (A) (A) (A) (A) (A) (A) (A) (A) (A) (A) (A)
                 (A) (A) (A) (A) (A) (A) (A) (A) (A) (A) (A) (A)
                 (A) (A) (A) (A) (A) (A) (A) (A) (A) (A) (A) (A)
                 (A) (A) (A) (A) (A) (A) (A) (A) (A) (A) (A) (A)
                 (A) (A) (A) (A) (A) (A) (A) (A) (A) (A) (A) (A)
                 (A) (A) (A) (A) (A) (A) (A) (A) (A) (A) (A) (A)
                 (A) (A) (A) (A) (A) (A) (A) (A) (A) (A) (A) (A)
                 (A) (A) (A) (A) (A) (A) (A) (A) (A) (A) (A) (A)
                 (A) (A) (A) (A) (A) (A) (A) (A) (A) (A) (A) (A)
                 (A) (A) (A) (A) (A) (A) (A) (A) (A) (A) (A) (A)
                 (A) (A) (A) (A) (A) (A) (A) (A) (A) (A) (A) (A)
                 (A) (A) (A) (A) (A) (A) (A) (A) (A) (A) (A) (A)
                 (A) (A) (A) (A) (A) (A) (A) (A) (A) (A) (A) (A)
                 (A) (A) (A) (A) (A) (A) (A)
 The electronic state is 1-A.
 Alpha  occ. eigenvalues --  -19.69262 -19.69247 -19.62072 -19.60968 -19.60745
 Alpha  occ. eigenvalues --  -15.02470 -14.79038 -14.76983 -10.68699 -10.65280
 Alpha  occ. eigenvalues --  -10.62117 -10.60617 -10.57708 -10.57672 -10.56928
 Alpha  occ. eigenvalues --  -10.56221 -10.55945 -10.53539 -10.53366 -10.52697
 Alpha  occ. eigenvalues --  -10.52551  -1.37596  -1.18832  -1.18113  -1.17203
 Alpha  occ. eigenvalues --   -1.07730  -1.05968  -1.02315  -0.98405  -0.90205
 Alpha  occ. eigenvalues --   -0.86870  -0.86346  -0.85522  -0.80507  -0.76033
 Alpha  occ. eigenvalues --   -0.72622  -0.71892  -0.69852  -0.67597  -0.65847
 Alpha  occ. eigenvalues --   -0.65161  -0.63839  -0.63280  -0.61872  -0.61154
 Alpha  occ. eigenvalues --   -0.58824  -0.54313  -0.53963  -0.53518  -0.53243
 Alpha  occ. eigenvalues --   -0.52781  -0.52235  -0.52008  -0.50755  -0.50505
 Alpha  occ. eigenvalues --   -0.49454  -0.47953  -0.47508  -0.46383  -0.45730
 Alpha  occ. eigenvalues --   -0.44529  -0.43640  -0.42183  -0.41858  -0.41400
 Alpha  occ. eigenvalues --   -0.40620  -0.40306  -0.39518  -0.39503  -0.39187
 Alpha  occ. eigenvalues --   -0.39119  -0.38264  -0.35662  -0.34378  -0.33209
 Alpha  occ. eigenvalues --   -0.32644  -0.32207  -0.31656  -0.27158
 Alpha virt. eigenvalues --   -0.06224   0.01051   0.01878   0.02935   0.03333
 Alpha virt. eigenvalues --    0.03533   0.03856   0.04154   0.04509   0.04721
 Alpha virt. eigenvalues --    0.05645   0.06099   0.06279   0.06784   0.07004
 Alpha virt. eigenvalues --    0.07491   0.08134   0.08319   0.08639   0.08714
 Alpha virt. eigenvalues --    0.09068   0.09450   0.09904   0.10108   0.10277
 Alpha virt. eigenvalues --    0.10771   0.10998   0.11476   0.12221   0.12620
 Alpha virt. eigenvalues --    0.13138   0.13521   0.13931   0.14348   0.14689
 Alpha virt. eigenvalues --    0.15030   0.15467   0.15555   0.16269   0.16766
 Alpha virt. eigenvalues --    0.16947   0.17884   0.18019   0.18445   0.18671
 Alpha virt. eigenvalues --    0.19261   0.19450   0.19621   0.20143   0.20633
 Alpha virt. eigenvalues --    0.21104   0.21344   0.22176   0.22376   0.22954
 Alpha virt. eigenvalues --    0.23352   0.23735   0.23876   0.24627   0.24861
 Alpha virt. eigenvalues --    0.24967   0.25332   0.25595   0.25678   0.26179
 Alpha virt. eigenvalues --    0.26539   0.27069   0.27409   0.27631   0.27653
 Alpha virt. eigenvalues --    0.27848   0.28452   0.29092   0.29300   0.29689
 Alpha virt. eigenvalues --    0.29783   0.30203   0.30682   0.30834   0.31044
 Alpha virt. eigenvalues --    0.31590   0.32081   0.32235   0.32388   0.32855
 Alpha virt. eigenvalues --    0.32926   0.33355   0.33861   0.34014   0.34766
 Alpha virt. eigenvalues --    0.34922   0.35520   0.35987   0.36168   0.36688
 Alpha virt. eigenvalues --    0.37252   0.37502   0.37634   0.38256   0.38731
 Alpha virt. eigenvalues --    0.38766   0.39345   0.40008   0.40466   0.41410
 Alpha virt. eigenvalues --    0.41784   0.42138   0.43346   0.44245   0.45100
 Alpha virt. eigenvalues --    0.45854   0.46638   0.47449   0.48324   0.48745
 Alpha virt. eigenvalues --    0.49743   0.51195   0.52031   0.53215   0.54051
 Alpha virt. eigenvalues --    0.54457   0.54959   0.58178   0.59833   0.61445
 Alpha virt. eigenvalues --    0.65296   0.68095   0.69851   0.70277   0.70982
 Alpha virt. eigenvalues --    0.72005   0.72347   0.73537   0.74620   0.75333
 Alpha virt. eigenvalues --    0.75465   0.75674   0.75800   0.76487   0.78667
 Alpha virt. eigenvalues --    0.79236   0.79510   0.80363   0.80846   0.81665
 Alpha virt. eigenvalues --    0.82405   0.83344   0.84039   0.85124   0.85810
 Alpha virt. eigenvalues --    0.85909   0.87227   0.88220   0.89836   0.90284
 Alpha virt. eigenvalues --    0.92635   0.94392   0.95723   0.96805   0.97344
 Alpha virt. eigenvalues --    0.97547   0.99302   1.00716   1.02061   1.02959
 Alpha virt. eigenvalues --    1.03279   1.05184   1.05439   1.06736   1.07844
 Alpha virt. eigenvalues --    1.08140   1.08504   1.09388   1.09735   1.11580
 Alpha virt. eigenvalues --    1.12035   1.14750   1.15097   1.16839   1.17643
 Alpha virt. eigenvalues --    1.17983   1.18483   1.19211   1.20536   1.21640
 Alpha virt. eigenvalues --    1.22015   1.22785   1.24161   1.24645   1.25751
 Alpha virt. eigenvalues --    1.26461   1.27052   1.27811   1.28202   1.29810
 Alpha virt. eigenvalues --    1.30358   1.30603   1.32833   1.33215   1.34098
 Alpha virt. eigenvalues --    1.35227   1.35497   1.35935   1.36748   1.37522
 Alpha virt. eigenvalues --    1.37935   1.39948   1.40363   1.40934   1.41845
 Alpha virt. eigenvalues --    1.42182   1.43675   1.44258   1.44415   1.44848
 Alpha virt. eigenvalues --    1.46036   1.47432   1.47995   1.49254   1.49744
 Alpha virt. eigenvalues --    1.50238   1.51881   1.52223   1.52871   1.53180
 Alpha virt. eigenvalues --    1.54374   1.55595   1.57650   1.57912   1.59172
 Alpha virt. eigenvalues --    1.64195   1.66746   1.68841   1.69567   1.71378
 Alpha virt. eigenvalues --    1.72958   1.75584   1.77202   1.78405   1.81107
 Alpha virt. eigenvalues --    1.82572   1.83460   1.84510   1.84642   1.85809
 Alpha virt. eigenvalues --    1.86971   1.88057   1.88792   1.90029   1.90460
 Alpha virt. eigenvalues --    1.92653   1.93374   1.94110   1.95012   1.95652
 Alpha virt. eigenvalues --    1.96458   1.96661   1.97688   2.00004   2.00298
 Alpha virt. eigenvalues --    2.01183   2.02346   2.02894   2.03973   2.05416
 Alpha virt. eigenvalues --    2.06657   2.07130   2.08100   2.08168   2.08317
 Alpha virt. eigenvalues --    2.10001   2.10938   2.12895   2.14105   2.15392
 Alpha virt. eigenvalues --    2.16620   2.18086   2.19709   2.21005   2.21521
 Alpha virt. eigenvalues --    2.22704   2.25888   2.26358   2.27266   2.28106
 Alpha virt. eigenvalues --    2.30647   2.31584   2.33295   2.33580   2.36007
 Alpha virt. eigenvalues --    2.39231   2.40205   2.40643   2.42135   2.44510
 Alpha virt. eigenvalues --    2.45428   2.48448   2.49416   2.51605   2.52115
 Alpha virt. eigenvalues --    2.52505   2.55273   2.57467   2.57719   2.61034
 Alpha virt. eigenvalues --    2.62504   2.64227   2.65484   2.66879   2.70723
 Alpha virt. eigenvalues --    2.73068   2.74709   2.75660   2.75898   2.77538
 Alpha virt. eigenvalues --    2.80133   2.82117   2.84303   2.88595   2.90709
 Alpha virt. eigenvalues --    2.94046   2.97565   2.99184   3.04789   3.08992
 Alpha virt. eigenvalues --    3.10030   3.12144   3.14242   3.16971   3.21763
 Alpha virt. eigenvalues --    3.22139   3.28883   3.37835   3.45942   4.15952
 Alpha virt. eigenvalues --    4.24328   4.26338   4.29848   4.31505   4.34719
 Alpha virt. eigenvalues --    4.41521   4.42275   4.43710   4.44187   4.48143
 Alpha virt. eigenvalues --    4.49167   4.51837   4.53753   4.59137   4.63383
 Alpha virt. eigenvalues --    4.66418   4.75216   4.78951   4.79557   4.88444
          Condensed to atoms (all electrons):
               1          2          3          4          5          6
     1  C   13.453584   1.191993  -1.751190  -4.380782  -2.826033   1.863725
     2  C    1.191993  12.207901   0.334436  -3.181353  -1.512034  -3.557525
     3  C   -1.751190   0.334436  15.425240   1.287038  -7.017104  -0.979912
     4  C   -4.380782  -3.181353   1.287038  16.936232  -0.464677  -3.310659
     5  C   -2.826033  -1.512034  -7.017104  -0.464677  16.201033  -0.358723
     6  C    1.863725  -3.557525  -0.979912  -3.310659  -0.358723  12.884989
     7  N    0.008863   0.032496  -0.003209   0.151289  -0.151839   0.038372
     8  C   -0.188122   0.087362  -0.818653  -0.542695   0.673198  -0.448043
     9  N    0.005023  -0.007579  -0.111569  -0.093988   0.033258   0.002376
    10  O    0.011400  -0.014639  -0.156120  -0.503301   0.466868   0.095095
    11  C   -0.003357  -0.016598  -0.139898  -0.109212   0.056404   0.005676
    12  C   -0.000589   0.001060   0.009046   0.015660  -0.006217  -0.002268
    13  C   -0.000026  -0.000618  -0.005441  -0.007153   0.003883   0.001329
    14  H   -0.000912   0.010665   0.166694   0.084493   0.065733  -0.037131
    15  H   -0.000470  -0.026645   0.026776   0.035011   0.245288   0.048193
    16  H    0.003574  -0.000134  -0.114949   0.021900   0.082414  -0.000652
    17  H   -0.000203  -0.000392  -0.003629   0.004535  -0.001004  -0.000505
    18  H    0.000006  -0.000069  -0.000960  -0.000881   0.001329   0.000129
    19  H   -0.000077   0.000224   0.001820   0.000305  -0.005721  -0.001117
    20  H    0.000130  -0.000256  -0.002884  -0.009349   0.009655   0.001719
    21  H   -0.000014   0.000115   0.001248   0.001577  -0.002533  -0.000264
    22  H   -0.000002   0.000003   0.000053   0.000188  -0.000401  -0.000048
    23  H   -0.000000  -0.000000   0.000003   0.000022  -0.000034  -0.000000
    24  H    0.000000  -0.000001  -0.000040  -0.000103   0.000159   0.000009
    25  H    0.120644   0.268153  -0.115587   0.007190  -0.000045   0.045149
    26  H    0.150762   0.046257  -0.008870  -0.026061  -0.074579   0.240760
    27  N   -0.596971   0.013060   0.072663   0.029048  -0.030520   0.160869
    28  O   -0.485368   0.135984  -0.024492   0.041296   0.204444   0.038659
    29  O   -0.489053   0.060524   0.175740   0.058091  -0.008660   0.115238
    30  O    0.003763   0.086648   0.273548  -0.351930  -0.026035  -0.000340
    31  C   -0.009694  -0.059976  -0.092368   0.160119  -0.013472  -0.002726
    32  O   -0.000391  -0.004494   0.000961  -0.002555  -0.004493   0.001041
    33  C    0.003373   0.034055   0.069436  -0.082404  -0.031833  -0.006435
    34  C    0.001136   0.012595   0.010512  -0.024764  -0.001879   0.000170
    35  H   -0.000008  -0.000151   0.000101  -0.000113  -0.000027   0.000001
    36  H   -0.000005  -0.000038   0.000587  -0.000475  -0.000084  -0.000005
    37  H   -0.000105  -0.000479  -0.000305   0.000478   0.000053   0.000001
    38  H    0.000004   0.000025  -0.000124   0.000023   0.000000   0.000001
    39  H   -0.000223  -0.002252  -0.000606   0.002055   0.000161   0.000031
               7          8          9         10         11         12
     1  C    0.008863  -0.188122   0.005023   0.011400  -0.003357  -0.000589
     2  C    0.032496   0.087362  -0.007579  -0.014639  -0.016598   0.001060
     3  C   -0.003209  -0.818653  -0.111569  -0.156120  -0.139898   0.009046
     4  C    0.151289  -0.542695  -0.093988  -0.503301  -0.109212   0.015660
     5  C   -0.151839   0.673198   0.033258   0.466868   0.056404  -0.006217
     6  C    0.038372  -0.448043   0.002376   0.095095   0.005676  -0.002268
     7  N    7.829659   0.155173  -0.276161  -0.075746  -0.110840   0.004770
     8  C    0.155173   5.831488   0.503378   0.582301  -0.485671   0.080017
     9  N   -0.276161   0.503378   7.709915  -0.173692   0.038294   0.000740
    10  O   -0.075746   0.582301  -0.173692   8.503246  -0.002905  -0.012028
    11  C   -0.110840  -0.485671   0.038294  -0.002905   6.631592  -0.399755
    12  C    0.004770   0.080017   0.000740  -0.012028  -0.399755   6.196483
    13  C   -0.004063  -0.111416   0.005698   0.000307   0.063755  -0.190530
    14  H   -0.014139   0.009849   0.001125   0.000021   0.000204  -0.000027
    15  H   -0.015564  -0.007894  -0.000571  -0.005441   0.000310  -0.000131
    16  H    0.105974  -0.012046   0.010519   0.003674   0.009652  -0.001041
    17  H    0.002060  -0.018658   0.164185   0.004048   0.002962  -0.003961
    18  H   -0.001653   0.005870  -0.047911   0.000768   0.412278  -0.047401
    19  H    0.001148  -0.023331  -0.049793  -0.002611   0.473242  -0.080607
    20  H   -0.000657  -0.022267   0.002096   0.003170  -0.059676   0.416450
    21  H    0.001188   0.010031   0.009975  -0.000832  -0.086352   0.426359
    22  H    0.000040  -0.000037  -0.000717  -0.000081  -0.011487  -0.061455
    23  H    0.000018  -0.002202   0.000382   0.000069   0.024463  -0.093584
    24  H   -0.000019  -0.002707  -0.001837   0.000014  -0.005579  -0.086429
    25  H    0.000771   0.002052   0.000017   0.000001   0.000016  -0.000001
    26  H   -0.000483  -0.000999   0.000004   0.000139  -0.000005  -0.000002
    27  N   -0.001908   0.000194  -0.000209   0.000064  -0.000031   0.000014
    28  O   -0.000131   0.000767  -0.000001   0.000014   0.000001  -0.000000
    29  O   -0.000275   0.000459  -0.000002  -0.000003   0.000001   0.000000
    30  O    0.021307   0.007409   0.001181  -0.000131   0.001213  -0.000498
    31  C   -0.021754  -0.007586  -0.018619  -0.000312   0.003796  -0.000567
    32  O    0.006411  -0.007541  -0.027647  -0.000327   0.015056  -0.008079
    33  C   -0.019580  -0.026480  -0.022523  -0.000580   0.017179   0.000969
    34  C    0.005898   0.000519   0.002039   0.000080  -0.003955   0.000577
    35  H    0.000185  -0.000161  -0.000187  -0.000000   0.000154  -0.000032
    36  H    0.000123  -0.000270   0.000094   0.000000  -0.000005   0.000059
    37  H    0.000027   0.000002   0.000013   0.000000  -0.000005   0.000002
    38  H    0.000005   0.000013  -0.000004   0.000000  -0.000000  -0.000000
    39  H    0.000045  -0.000071  -0.000020   0.000000   0.000001  -0.000004
              13         14         15         16         17         18
     1  C   -0.000026  -0.000912  -0.000470   0.003574  -0.000203   0.000006
     2  C   -0.000618   0.010665  -0.026645  -0.000134  -0.000392  -0.000069
     3  C   -0.005441   0.166694   0.026776  -0.114949  -0.003629  -0.000960
     4  C   -0.007153   0.084493   0.035011   0.021900   0.004535  -0.000881
     5  C    0.003883   0.065733   0.245288   0.082414  -0.001004   0.001329
     6  C    0.001329  -0.037131   0.048193  -0.000652  -0.000505   0.000129
     7  N   -0.004063  -0.014139  -0.015564   0.105974   0.002060  -0.001653
     8  C   -0.111416   0.009849  -0.007894  -0.012046  -0.018658   0.005870
     9  N    0.005698   0.001125  -0.000571   0.010519   0.164185  -0.047911
    10  O    0.000307   0.000021  -0.005441   0.003674   0.004048   0.000768
    11  C    0.063755   0.000204   0.000310   0.009652   0.002962   0.412278
    12  C   -0.190530  -0.000027  -0.000131  -0.001041  -0.003961  -0.047401
    13  C    5.881869  -0.000002   0.000010   0.000147   0.000822  -0.006600
    14  H   -0.000002   0.424851  -0.000092   0.006799   0.000002  -0.000000
    15  H    0.000010  -0.000092   0.420094  -0.000177   0.000002  -0.000000
    16  H    0.000147   0.006799  -0.000177   0.260831   0.008040  -0.000015
    17  H    0.000822   0.000002   0.000002   0.008040   0.240705  -0.003255
    18  H   -0.006600  -0.000000  -0.000000  -0.000015  -0.003255   0.477582
    19  H   -0.006464   0.000000  -0.000000   0.000013   0.001947  -0.028351
    20  H   -0.018307  -0.000000  -0.000000  -0.000002  -0.000157   0.003924
    21  H   -0.041891   0.000000  -0.000000  -0.000001   0.000080  -0.005110
    22  H    0.419207   0.000000  -0.000000   0.000000  -0.000004  -0.000274
    23  H    0.425409   0.000000   0.000000   0.000000   0.000002  -0.000090
    24  H    0.443449  -0.000000  -0.000000  -0.000000   0.000003   0.002522
    25  H   -0.000000  -0.002897   0.000010  -0.000011   0.000000  -0.000000
    26  H   -0.000000   0.000011  -0.002933   0.000002  -0.000000  -0.000000
    27  N    0.000001  -0.000300   0.000229  -0.000017   0.000000  -0.000000
    28  O   -0.000000   0.000054  -0.000125   0.000001   0.000000   0.000000
    29  O    0.000000  -0.000041   0.000052   0.000000  -0.000000  -0.000000
    30  O   -0.000250   0.001503  -0.000016   0.090371   0.002231  -0.000025
    31  C   -0.000442   0.001465   0.000096  -0.008428  -0.005250  -0.000885
    32  O    0.000565   0.000036  -0.000000   0.000017   0.065186   0.001560
    33  C    0.001474   0.000791   0.000010   0.013251   0.012304   0.000314
    34  C   -0.000073  -0.000565  -0.000001  -0.001584  -0.001631  -0.000026
    35  H    0.000001   0.000000   0.000000  -0.000026  -0.000003  -0.000000
    36  H    0.000008   0.000000   0.000000  -0.000025  -0.000005   0.000000
    37  H    0.000000   0.000009   0.000000  -0.000005   0.000000   0.000000
    38  H    0.000000   0.000000  -0.000000  -0.000000   0.000000   0.000000
    39  H   -0.000000   0.000006  -0.000000  -0.000006   0.000000  -0.000000
              19         20         21         22         23         24
     1  C   -0.000077   0.000130  -0.000014  -0.000002  -0.000000   0.000000
     2  C    0.000224  -0.000256   0.000115   0.000003  -0.000000  -0.000001
     3  C    0.001820  -0.002884   0.001248   0.000053   0.000003  -0.000040
     4  C    0.000305  -0.009349   0.001577   0.000188   0.000022  -0.000103
     5  C   -0.005721   0.009655  -0.002533  -0.000401  -0.000034   0.000159
     6  C   -0.001117   0.001719  -0.000264  -0.000048  -0.000000   0.000009
     7  N    0.001148  -0.000657   0.001188   0.000040   0.000018  -0.000019
     8  C   -0.023331  -0.022267   0.010031  -0.000037  -0.002202  -0.002707
     9  N   -0.049793   0.002096   0.009975  -0.000717   0.000382  -0.001837
    10  O   -0.002611   0.003170  -0.000832  -0.000081   0.000069   0.000014
    11  C    0.473242  -0.059676  -0.086352  -0.011487   0.024463  -0.005579
    12  C   -0.080607   0.416450   0.426359  -0.061455  -0.093584  -0.086429
    13  C   -0.006464  -0.018307  -0.041891   0.419207   0.425409   0.443449
    14  H    0.000000  -0.000000   0.000000   0.000000   0.000000  -0.000000
    15  H   -0.000000  -0.000000  -0.000000  -0.000000   0.000000  -0.000000
    16  H    0.000013  -0.000002  -0.000001   0.000000   0.000000  -0.000000
    17  H    0.001947  -0.000157   0.000080  -0.000004   0.000002   0.000003
    18  H   -0.028351   0.003924  -0.005110  -0.000274  -0.000090   0.002522
    19  H    0.479246  -0.005401   0.003967   0.002818  -0.000088  -0.000364
    20  H   -0.005401   0.493330  -0.032319  -0.004391  -0.002757   0.003708
    21  H    0.003967  -0.032319   0.495190   0.003772  -0.002651  -0.004252
    22  H    0.002818  -0.004391   0.003772   0.488049  -0.025325  -0.030863
    23  H   -0.000088  -0.002757  -0.002651  -0.025325   0.480597  -0.025544
    24  H   -0.000364   0.003708  -0.004252  -0.030863  -0.025544   0.487710
    25  H    0.000000   0.000000  -0.000000  -0.000000  -0.000000   0.000000
    26  H    0.000000  -0.000000   0.000000   0.000000  -0.000000  -0.000000
    27  N    0.000000  -0.000000   0.000000   0.000000   0.000000  -0.000000
    28  O   -0.000000   0.000000  -0.000000  -0.000000  -0.000000   0.000000
    29  O   -0.000000   0.000000  -0.000000  -0.000000  -0.000000   0.000000
    30  O    0.000002  -0.000002   0.000027   0.000000  -0.000000  -0.000000
    31  C    0.000288  -0.000118   0.000545  -0.000013   0.000026  -0.000058
    32  O   -0.000355   0.000152  -0.000504  -0.000004  -0.000003   0.000025
    33  C   -0.000025   0.000032  -0.000097  -0.000004   0.000005   0.000015
    34  C    0.000003   0.000000  -0.000001  -0.000000   0.000000   0.000000
    35  H   -0.000000   0.000000  -0.000000   0.000000  -0.000000  -0.000000
    36  H    0.000000   0.000000   0.000000  -0.000000  -0.000000   0.000000
    37  H    0.000000   0.000000   0.000000  -0.000000  -0.000000  -0.000000
    38  H   -0.000000  -0.000000  -0.000000   0.000000  -0.000000   0.000000
    39  H   -0.000000  -0.000000  -0.000000  -0.000000   0.000000   0.000000
              25         26         27         28         29         30
     1  C    0.120644   0.150762  -0.596971  -0.485368  -0.489053   0.003763
     2  C    0.268153   0.046257   0.013060   0.135984   0.060524   0.086648
     3  C   -0.115587  -0.008870   0.072663  -0.024492   0.175740   0.273548
     4  C    0.007190  -0.026061   0.029048   0.041296   0.058091  -0.351930
     5  C   -0.000045  -0.074579  -0.030520   0.204444  -0.008660  -0.026035
     6  C    0.045149   0.240760   0.160869   0.038659   0.115238  -0.000340
     7  N    0.000771  -0.000483  -0.001908  -0.000131  -0.000275   0.021307
     8  C    0.002052  -0.000999   0.000194   0.000767   0.000459   0.007409
     9  N    0.000017   0.000004  -0.000209  -0.000001  -0.000002   0.001181
    10  O    0.000001   0.000139   0.000064   0.000014  -0.000003  -0.000131
    11  C    0.000016  -0.000005  -0.000031   0.000001   0.000001   0.001213
    12  C   -0.000001  -0.000002   0.000014  -0.000000   0.000000  -0.000498
    13  C   -0.000000  -0.000000   0.000001  -0.000000   0.000000  -0.000250
    14  H   -0.002897   0.000011  -0.000300   0.000054  -0.000041   0.001503
    15  H    0.000010  -0.002933   0.000229  -0.000125   0.000052  -0.000016
    16  H   -0.000011   0.000002  -0.000017   0.000001   0.000000   0.090371
    17  H    0.000000  -0.000000   0.000000   0.000000  -0.000000   0.002231
    18  H   -0.000000  -0.000000  -0.000000   0.000000  -0.000000  -0.000025
    19  H    0.000000   0.000000   0.000000  -0.000000  -0.000000   0.000002
    20  H    0.000000  -0.000000  -0.000000   0.000000   0.000000  -0.000002
    21  H   -0.000000   0.000000   0.000000  -0.000000  -0.000000   0.000027
    22  H   -0.000000   0.000000   0.000000  -0.000000  -0.000000   0.000000
    23  H   -0.000000  -0.000000   0.000000  -0.000000  -0.000000  -0.000000
    24  H    0.000000  -0.000000  -0.000000   0.000000   0.000000  -0.000000
    25  H    0.415884  -0.000096  -0.037867  -0.002145   0.017502  -0.000008
    26  H   -0.000096   0.418158  -0.037742   0.017708  -0.002216   0.000001
    27  N   -0.037867  -0.037742   6.848283   0.388568   0.393106   0.000068
    28  O   -0.002145   0.017708   0.388568   7.910270  -0.082048   0.000000
    29  O    0.017502  -0.002216   0.393106  -0.082048   7.912082   0.000011
    30  O   -0.000008   0.000001   0.000068   0.000000   0.000011   8.647438
    31  C   -0.000029   0.000001   0.000056   0.000004   0.000015   0.162869
    32  O   -0.000000  -0.000000   0.000001  -0.000000  -0.000000  -0.157059
    33  C    0.000020  -0.000000  -0.000047  -0.000001  -0.000001  -0.032438
    34  C   -0.000026   0.000000   0.000025   0.000001  -0.000006   0.044629
    35  H   -0.000000   0.000000   0.000000   0.000000  -0.000000   0.001952
    36  H   -0.000000   0.000000   0.000000   0.000000  -0.000000   0.002485
    37  H    0.000000  -0.000000   0.000000  -0.000000  -0.000000  -0.000489
    38  H    0.000000   0.000000   0.000000   0.000000   0.000000   0.000846
    39  H    0.000000  -0.000000   0.000000  -0.000000  -0.000000  -0.000594
              31         32         33         34         35         36
     1  C   -0.009694  -0.000391   0.003373   0.001136  -0.000008  -0.000005
     2  C   -0.059976  -0.004494   0.034055   0.012595  -0.000151  -0.000038
     3  C   -0.092368   0.000961   0.069436   0.010512   0.000101   0.000587
     4  C    0.160119  -0.002555  -0.082404  -0.024764  -0.000113  -0.000475
     5  C   -0.013472  -0.004493  -0.031833  -0.001879  -0.000027  -0.000084
     6  C   -0.002726   0.001041  -0.006435   0.000170   0.000001  -0.000005
     7  N   -0.021754   0.006411  -0.019580   0.005898   0.000185   0.000123
     8  C   -0.007586  -0.007541  -0.026480   0.000519  -0.000161  -0.000270
     9  N   -0.018619  -0.027647  -0.022523   0.002039  -0.000187   0.000094
    10  O   -0.000312  -0.000327  -0.000580   0.000080  -0.000000   0.000000
    11  C    0.003796   0.015056   0.017179  -0.003955   0.000154  -0.000005
    12  C   -0.000567  -0.008079   0.000969   0.000577  -0.000032   0.000059
    13  C   -0.000442   0.000565   0.001474  -0.000073   0.000001   0.000008
    14  H    0.001465   0.000036   0.000791  -0.000565   0.000000   0.000000
    15  H    0.000096  -0.000000   0.000010  -0.000001   0.000000   0.000000
    16  H   -0.008428   0.000017   0.013251  -0.001584  -0.000026  -0.000025
    17  H   -0.005250   0.065186   0.012304  -0.001631  -0.000003  -0.000005
    18  H   -0.000885   0.001560   0.000314  -0.000026  -0.000000   0.000000
    19  H    0.000288  -0.000355  -0.000025   0.000003  -0.000000   0.000000
    20  H   -0.000118   0.000152   0.000032   0.000000   0.000000   0.000000
    21  H    0.000545  -0.000504  -0.000097  -0.000001  -0.000000   0.000000
    22  H   -0.000013  -0.000004  -0.000004  -0.000000   0.000000  -0.000000
    23  H    0.000026  -0.000003   0.000005   0.000000  -0.000000  -0.000000
    24  H   -0.000058   0.000025   0.000015   0.000000  -0.000000   0.000000
    25  H   -0.000029  -0.000000   0.000020  -0.000026  -0.000000  -0.000000
    26  H    0.000001  -0.000000  -0.000000   0.000000   0.000000   0.000000
    27  N    0.000056   0.000001  -0.000047   0.000025   0.000000   0.000000
    28  O    0.000004  -0.000000  -0.000001   0.000001   0.000000   0.000000
    29  O    0.000015  -0.000000  -0.000001  -0.000006  -0.000000  -0.000000
    30  O    0.162869  -0.157059  -0.032438   0.044629   0.001952   0.002485
    31  C    5.467647   0.482072  -0.621045  -0.080052  -0.079510  -0.066398
    32  O    0.482072   8.616710  -0.267159   0.032382  -0.000375  -0.001312
    33  C   -0.621045  -0.267159   6.965228  -0.147762   0.438450   0.428382
    34  C   -0.080052   0.032382  -0.147762   5.749973  -0.041276  -0.044221
    35  H   -0.079510  -0.000375   0.438450  -0.041276   0.468082  -0.027600
    36  H   -0.066398  -0.001312   0.428382  -0.044221  -0.027600   0.467201
    37  H   -0.006732   0.000142  -0.057980   0.414313  -0.003947   0.003490
    38  H    0.025907  -0.000268  -0.064799   0.387445  -0.001920  -0.001925
    39  H   -0.010414   0.000198  -0.054699   0.415252   0.003484  -0.003958
              37         38         39
     1  C   -0.000105   0.000004  -0.000223
     2  C   -0.000479   0.000025  -0.002252
     3  C   -0.000305  -0.000124  -0.000606
     4  C    0.000478   0.000023   0.002055
     5  C    0.000053   0.000000   0.000161
     6  C    0.000001   0.000001   0.000031
     7  N    0.000027   0.000005   0.000045
     8  C    0.000002   0.000013  -0.000071
     9  N    0.000013  -0.000004  -0.000020
    10  O    0.000000   0.000000   0.000000
    11  C   -0.000005  -0.000000   0.000001
    12  C    0.000002  -0.000000  -0.000004
    13  C    0.000000   0.000000  -0.000000
    14  H    0.000009   0.000000   0.000006
    15  H    0.000000  -0.000000  -0.000000
    16  H   -0.000005  -0.000000  -0.000006
    17  H    0.000000   0.000000   0.000000
    18  H    0.000000   0.000000  -0.000000
    19  H    0.000000  -0.000000  -0.000000
    20  H    0.000000  -0.000000  -0.000000
    21  H    0.000000  -0.000000  -0.000000
    22  H   -0.000000   0.000000  -0.000000
    23  H   -0.000000  -0.000000   0.000000
    24  H   -0.000000   0.000000   0.000000
    25  H    0.000000   0.000000   0.000000
    26  H   -0.000000   0.000000  -0.000000
    27  N    0.000000   0.000000   0.000000
    28  O   -0.000000   0.000000  -0.000000
    29  O   -0.000000   0.000000  -0.000000
    30  O   -0.000489   0.000846  -0.000594
    31  C   -0.006732   0.025907  -0.010414
    32  O    0.000142  -0.000268   0.000198
    33  C   -0.057980  -0.064799  -0.054699
    34  C    0.414313   0.387445   0.415252
    35  H   -0.003947  -0.001920   0.003484
    36  H    0.003490  -0.001925  -0.003958
    37  H    0.485717  -0.025274  -0.031035
    38  H   -0.025274   0.487580  -0.025240
    39  H   -0.031035  -0.025240   0.485975
 Mulliken charges:
               1
     1  C   -0.084384
     2  C   -0.138324
     3  C   -0.507992
     4  C    0.255908
     5  C    0.494067
     6  C   -0.837181
     7  N   -0.667804
     8  C    0.776768
     9  N   -0.657282
    10  O   -0.722532
    11  C   -0.320918
    12  C   -0.157001
    13  C   -0.854657
    14  H    0.281796
    15  H    0.283980
    16  H    0.521941
    17  H    0.529543
    18  H    0.237222
    19  H    0.239282
    20  H    0.224179
    21  H    0.222750
    22  H    0.220975
    23  H    0.221280
    24  H    0.220183
    25  H    0.281304
    26  H    0.280183
    27  N   -0.200638
    28  O   -0.143460
    29  O   -0.150517
    30  O   -0.779686
    31  C    0.801542
    32  O   -0.739949
    33  C   -0.549395
    34  C   -0.729729
    35  H    0.242924
    36  H    0.243895
    37  H    0.222108
    38  H    0.217706
    39  H    0.221913
 Sum of Mulliken charges =  -1.00000
 Mulliken charges with hydrogens summed into heavy atoms:
               1
     1  C   -0.084384
     2  C    0.142980
     3  C   -0.226196
     4  C    0.255908
     5  C    0.778048
     6  C   -0.556998
     7  N   -0.145863
     8  C    0.776768
     9  N   -0.127739
    10  O   -0.722532
    11  C    0.155586
    12  C    0.289927
    13  C   -0.192219
    27  N   -0.200638
    28  O   -0.143460
    29  O   -0.150517
    30  O   -0.779686
    31  C    0.801542
    32  O   -0.739949
    33  C   -0.062576
    34  C   -0.068001
 Electronic spatial extent (au):  <R**2>=           9793.1379
 Charge=             -1.0000 electrons
 Dipole moment (field-independent basis, Debye):
    X=              3.4304    Y=             -0.2686    Z=              0.6136  Tot=              3.4951
 Quadrupole moment (field-independent basis, Debye-Ang):
   XX=           -205.4267   YY=           -144.2075   ZZ=           -129.5096
   XY=             -9.6532   XZ=              3.5570   YZ=             -1.1030
 Traceless Quadrupole moment (field-independent basis, Debye-Ang):
   XX=            -45.7121   YY=             15.5071   ZZ=             30.2050
   XY=             -9.6532   XZ=              3.5570   YZ=             -1.1030
 Octapole moment (field-independent basis, Debye-Ang**2):
  XXX=            376.1647  YYY=             34.8766  ZZZ=              1.6765  XYY=             -5.2850
  XXY=            -17.7361  XXZ=            -15.1304  XZZ=             -2.6831  YZZ=              3.1548
  YYZ=              6.8838  XYZ=              0.2631
 Hexadecapole moment (field-independent basis, Debye-Ang**3):
 XXXX=         -11683.9230 YYYY=          -4249.4045 ZZZZ=           -258.7948 XXXY=           -272.7679
 XXXZ=             99.5471 YYYX=            114.8283 YYYZ=             -8.5164 ZZZX=             -9.0272
 ZZZY=             -1.3917 XXYY=          -2206.9207 XXZZ=          -1460.5767 YYZZ=           -743.8432
 XXYZ=              4.9512 YYXZ=             11.8960 ZZXY=              8.6359
 N-N= 1.630278672590D+03 E-N=-5.720722221181D+03  KE= 1.037538789223D+03
 D1PCM: PCM CHGder 1st derivatives, ID1Alg=3 FixD1E=F DoIter=F DoCFld=F I1PDM=0.
 Calling FoFJK, ICntrl=      2127 FMM=F ISym2X=0 I1Cent= 0 IOpClX= 0 NMat=1 NMatS=1 NMatT=0.
 ***** Axes restored to original set *****
 -------------------------------------------------------------------
 Center     Atomic                   Forces (Hartrees/Bohr)
 Number     Number              X              Y              Z
 -------------------------------------------------------------------
      1        6           0.001420714   -0.001006032    0.001030836
      2        6          -0.002404843    0.000143122   -0.001093594
      3        6           0.002429938    0.001314503    0.000501770
      4        6          -0.006464422    0.004161946   -0.004573199
      5        6           0.000127283   -0.002778502    0.001290225
      6        6          -0.001052073    0.002122591   -0.001316449
      7        7           0.005535661   -0.000550602    0.002762076
      8        6          -0.005898467   -0.018950457    0.004138737
      9        7          -0.005742256    0.002804182   -0.002040265
     10        8           0.003102854    0.009273452   -0.001774190
     11        6           0.007376113    0.000076602    0.001449302
     12        6          -0.000229488   -0.000219342    0.001271921
     13        6          -0.000485793    0.000098796    0.000545372
[...]
 .00545885,0.03383570,0.00084270,0.00032411,-0.00336551,0.01105263,-0.0
 5989133,0.06404452,-0.00137786,0.00082952,-0.00581039,-0.01147296,0.06
 531958,-0.00001345,0.00000815,-0.00000922,0.00000441,-0.00000565,0.000
 00466,-0.00001692,-0.00000922,-0.00000407,0.00005262,-0.00000806,0.000
 02946,-0.00001157,0.00001611,-0.00001203,0.00000927,0.00000248,0.00000
 219,0.00003505,0.00014355,-0.00004833,-0.00005358,-0.00000533,-0.00002
 660,0.00002179,0.00002539,-0.00000456,0.00002634,0.00003032,0.00000089
 ,-0.00001404,0.00000091,-0.00000991,0.00000379,0.00000222,0.00000338,-
 0.00000045,0.00000031,-0.00000227,0.00000973,-0.00000195,0.00000379,0.
 ,-0.00000052,-0.00000014,-0.00007517,-0.00024431,0.00007563,-0.0000219
 7,-0.00001452,0.00002156,0.00000212,-0.00000299,0.00000366,0.00000309,
 0.00000023,0.00000150,-0.00000021,-0.00000052,0.00000013,-0.00000041,-
 0.00000072,-0.00000072,0.00000024,0.00000018,0.00000027,0.00000100,-0.
 00000004,-0.00000004,0.00000082,-0.00000066,0.00000130,-0.00000019,-0.
 00000015,-0.00000022,-0.00000082,0.00000055,-0.00000071,0.00001644,-0.
 00001158,0.00001328,-0.00000196,0.00000953,-0.00000513,-0.00000830,-0.
 00000084,-0.00000352,0.00082539,0.00156551,-0.00008246,-0.00254549,-0.
 00104215,-0.00492226,0.00027117,-0.00026163,0.00179582,-0.05296703,0.0
 6202317,-0.28863273,-0.00077400,0.00030390,-0.00336379,0.06002592,-0.0
 6695589,0.31089584,0.00000618,-0.00000351,0.00000623,-0.00000176,0.000
 00111,-0.00000393,0.00001026,0.00000371,0.00000325,-0.00002239,0.00001
 097,-0.00001542,0.00000271,-0.00000517,0.00000916,-0.00000383,-0.00000
 118,-0.00000392,-0.00000008,-0.00006242,-0.00000188,-0.00001042,0.0000
 3256,-0.00002267,-0.00000054,-0.00004457,0.00001936,-0.00001166,-0.000
 03473,0.00001135,0.00001544,-0.00000267,0.00000606,-0.00000114,0.00000
 014,-0.00000179,-0.00000078,0.00000069,0.00000170,-0.00000592,-0.00000
 195,-0.00000124,-0.00000019,0.00000069,0.,0.00002069,0.00012515,0.0000
 0959,0.00005650,0.00015487,-0.00002514,-0.00000050,0.00000162,-0.00000
 004,-0.00000403,-0.00000225,-0.00000067,0.00000034,0.00000021,-0.00000
 005,0.00000080,-0.00000094,0.00000011,-0.00000005,-0.00000005,-0.00000
 005,-0.00000060,-0.00000023,-0.00000038,0.00000003,-0.00000023,0.00000
 005,0.00000018,-0.00000032,0.00000072,0.00000034,-0.00000015,0.0000002
 1,-0.00000879,0.00000394,-0.00000546,0.00000105,-0.00000327,0.00000171
 ,0.00000478,0.00000096,0.00000139,0.00061051,-0.00067661,0.00150282,0.
 00404027,-0.00390798,-0.00806761,-0.00102435,-0.00147942,0.00056022,-0
 .12669860,0.08760207,0.08524097,-0.01833570,0.01892686,0.01889688,0.00
 332413,-0.00439174,-0.00350425,0.14113314,0.00003563,-0.00002183,0.000
 03007,-0.00001150,0.00001302,-0.00001480,0.00005245,0.00003101,0.00001
 580,-0.00015516,0.00002682,-0.00009564,0.00003159,-0.00003796,0.000039
 75,-0.00002571,-0.00000852,-0.00000848,-0.00012197,-0.00049251,0.00008
 840,0.00019236,0.00001832,0.00006829,-0.00001086,0.00000054,-0.0000624
 2,-0.00009454,-0.00007807,0.00000430,0.00001847,0.00000533,0.00000510,
 -0.00000505,-0.00000473,-0.00000524,-0.00000056,0.00000102,0.00000341,
 -0.00002137,-0.00000717,-0.00001418,-0.00000017,0.00000108,-0.00000118
 ,0.00022181,0.00082526,-0.00012587,0.00004221,0.00006306,0.00009020,-0
 .00000574,0.00000068,0.00000018,-0.00000504,-0.00000130,-0.00000105,0.
 00000043,-0.00000009,0.00000051,0.00000032,0.00000191,0.00000082,0.000
 00025,0.00000007,-0.00000014,-0.00000216,-0.00000023,0.00000019,-0.000
 00014,0.00000021,-0.00000080,0.00000191,-0.00000104,0.00000031,0.00000
 286,-0.00000185,0.00000120,-0.00004555,0.00002608,-0.00003403,0.000005
 19,-0.00002230,0.00001294,0.00002361,0.00000462,0.00000944,-0.00178007
 ,-0.00554014,0.00508264,0.01907100,-0.01785547,-0.02256916,-0.00143335
 ,0.00185085,0.00332902,0.08879958,-0.14538399,-0.09786129,-0.00401601,
 0.00399458,0.00423530,-0.00498533,0.00545620,0.00480241,-0.09501535,0.
 15601941,-0.00000011,0.00000002,-0.00000161,-0.00000160,0.00000130,0.0
 0000320,0.00000079,-0.00000586,-0.00000698,0.00000841,0.00000033,0.000
 00940,-0.00000137,0.00000055,-0.00000392,0.00000107,0.00000040,0.00000
 116,0.00002592,0.00007400,0.00000393,-0.00003791,0.00001288,-0.0000231
 6,-0.00000843,-0.00005260,0.00002436,0.00000965,-0.00000793,0.00000601
 ,0.00001138,-0.00000318,0.00000435,-0.00000149,-0.00000235,-0.00000217
 ,0.00000031,-0.00000004,0.00000123,0.00000082,-0.00000043,0.00000162,0
 .00000014,0.,0.00000014,-0.00002426,-0.00011546,-0.00002470,0.00001125
 ,0.00005947,-0.00002171,0.00000016,0.00000196,-0.00000162,-0.00000275,
 -0.00000011,-0.00000094,0.00000009,0.00000048,0.00000026,0.00000052,0.
 00000091,0.00000077,-0.00000009,0.00000010,-0.00000010,-0.00000080,0.0
 0000002,0.00000039,-0.00000037,0.00000027,-0.00000083,-0.00000024,0.00
 000048,-0.00000009,-0.00000026,0.00000019,0.00000005,0.00000084,0.0000
 0094,0.00000047,-0.00000016,-0.00000047,0.00000024,-0.00000048,-0.0000
 0048,-0.00000044,0.00020516,0.00091686,-0.00166084,-0.00305084,0.00607
 216,0.00392272,-0.00092869,-0.00068045,0.00002203,0.08508203,-0.095293
 43,-0.13335980,-0.00448598,0.00516766,0.00428926,0.01672822,-0.0197024
 3,-0.01791414,-0.09283961,0.10297810,0.14297171,0.00000280,-0.00000117
 ,0.00000081,-0.00000171,0.00000003,0.00000030,0.00000538,-0.00000168,-
 0.00000416,-0.00000830,0.00000713,-0.00000254,0.00000348,-0.00000406,-
 0.00000055,-0.00000228,0.00000109,-0.00000004,0.00000253,-0.00001752,0
 .00000375,-0.00002010,0.00001334,-0.00001080,-0.00000748,-0.00005281,0
 .00000986,-0.00000017,-0.00001514,0.00000560,0.00000889,-0.00000324,0.
 00000391,-0.00000118,0.00000076,-0.00000077,0.00000011,-0.00000012,0.0
 0000051,-0.00000316,-0.00000218,0.00000412,-0.00000041,0.00000052,0.00
 000033,0.00001313,0.00002246,-0.00000243,0.00002338,0.00007449,-0.0000
 1218,-0.00000042,0.00000229,-0.00000069,-0.00000280,-0.00000140,-0.000
 00088,0.00000016,-0.00000013,0.00000011,0.00000049,-0.00000065,-0.0000
 0050,-0.00000034,-0.00000060,-0.00000013,-0.00000035,0.00000012,-0.000
 00002,-0.00000009,0.00000033,-0.00000002,0.00000075,0.00000024,0.00000
 063,-0.00000004,-0.00000011,0.00000030,-0.00000197,0.00000065,-0.00000
 031,0.00000018,-0.00000035,0.00000001,0.00000142,0.00000031,-0.0000000
 4,0.00080000,-0.00061268,0.00010148,0.00063715,0.00216204,-0.00001971,
 -0.00008616,-0.00066767,-0.00019120,-0.01856651,0.01918837,0.01989428,
 -0.13143804,0.08850216,0.08908423,0.00155083,0.00015403,-0.00019176,-0
 .00611805,-0.00166380,-0.00167447,0.14451638,-0.00000366,0.00000262,-0
 .00000508,0.00000175,-0.00000036,0.00000428,-0.00000727,-0.00000397,0.
 00000240,0.00001474,-0.00000495,0.00000401,-0.00000329,0.00000360,-0.0
 0000154,0.00000225,0.00000071,0.00000042,0.00000628,0.00003572,-0.0000
 1032,-0.00000654,-0.00000744,0.00000247,0.00000240,0.00002223,-0.00000
 244,0.00000720,0.00001299,-0.00000353,-0.00000601,0.00000054,-0.000002
 39,0.00000074,-0.00000023,0.00000090,-0.00000007,0.00000011,-0.0000007
 8,0.00000345,0.00000394,0.00000281,-0.00000014,-0.00000019,0.00000005,
 -0.00001582,-0.00005622,0.00001338,-0.00000735,-0.00003727,0.00000172,
 0.00000030,-0.00000100,0.00000030,0.00000154,0.00000064,0.00000062,-0.
 00000011,0.00000003,-0.00000009,-0.00000030,0.00000003,0.00000006,0.00
 000010,0.00000026,0.00000011,0.00000039,-0.00000002,-0.00000002,0.0000
 0006,-0.00000015,0.00000014,-0.00000032,-0.00000045,0.00000016,-0.0000
 0018,0.00000018,-0.00000022,0.00000657,-0.00000384,0.00000461,-0.00000
 102,0.00000319,-0.00000173,-0.00000322,-0.00000060,-0.00000133,-0.0010
 5452,0.00025185,0.00008989,0.00027333,-0.00073293,0.00098003,0.0001175
 7,0.00032508,-0.00023986,-0.00323844,0.00326545,0.00381607,0.09021993,
 -0.14172453,-0.09498775,0.00047084,0.00012953,0.00014974,-0.00119944,0
 .00060386,0.00015750,-0.09745522,0.15019574,0.00000038,-0.00000061,0.0
 0000131,0.00000117,0.00000079,-0.00000085,-0.00000238,0.00000490,0.000
 00625,0.00000065,-0.00000398,-0.00000624,-0.00000029,0.00000006,0.0000
 0287,-0.00000059,-0.00000217,-0.00000009,-0.00000935,-0.00001877,0.000
 00635,0.00001657,0.00000017,0.00000630,-0.00000350,0.00001251,-0.00000
 340,-0.00000601,-0.00000256,-0.00000046,0.00000056,0.00000007,-0.00000
 004,-0.00000030,-0.00000043,-0.00000040,-0.00000036,0.00000018,0.00000
 009,0.00000167,0.00000365,-0.00000677,0.00000041,-0.00000041,-0.000000
 12,0.00000791,0.00003272,-0.00001787,0.00000486,-0.00001182,0.00000054
 ,-0.00000031,-0.00000034,0.,-0.00000001,0.00000037,0.00000012,-0.00000
 004,-0.00000005,-0.00000005,-0.00000012,0.00000040,0.00000011,0.000000
 13,0.00000029,0.00000010,-0.00000008,-0.00000009,-0.00000006,0.0000000
 5,-0.00000017,0.00000008,-0.00000063,0.00000043,-0.00000163,0.00000009
 ,-0.00000015,-0.00000014,-0.00000124,0.00000508,-0.00000367,0.00000013
 ,-0.00000407,0.00000234,-0.00000023,-0.00000115,0.00000112,-0.00064618
 ,-0.00014867,0.00007659,0.00068666,-0.00055455,0.00034625,0.00001317,0
 .00025093,-0.00016492,-0.00456018,0.00522032,0.00444673,0.09034934,-0.
 09421123,-0.14413995,0.00054580,0.00046529,0.00062222,-0.00167569,-0.0
 0026412,0.00102463,-0.09700726,0.10419699,0.15090698,0.00001755,-0.000
 01069,0.00001354,-0.00000568,0.00000666,-0.00000649,0.00002295,0.00000
 494,0.00000974,-0.00005836,0.00002710,-0.00004160,0.00001262,-0.000019
 03,0.00001491,-0.00001158,-0.00000110,-0.00000520,0.00001149,-0.000114
 98,0.00005591,-0.00006744,0.00007348,-0.00007563,-0.00002199,-0.000277
 84,0.00006794,-0.00001747,-0.00009462,0.00003827,0.00005533,-0.0000134
 3,0.00001796,-0.00000575,-0.00000078,-0.00000703,-0.00000110,0.0000010
 4,0.00000512,-0.00001053,-0.00000072,-0.00000429,-0.00000017,0.0000017
 3,-0.00000061,0.00005410,0.00020551,-0.00006287,0.00009412,0.00042687,
 -0.00005319,-0.00000202,0.00000915,-0.00000330,-0.00001474,-0.00000475
 ,-0.00000473,0.00000054,-0.00000024,0.00000086,0.00000144,0.00000035,-
 0.00000003,-0.00000033,-0.00000066,-0.00000039,-0.00000291,-0.00000016
 ,-0.00000007,-0.00000011,0.00000027,-0.00000056,0.00000095,-0.00000042
 ,0.00000059,0.00000069,-0.00000052,0.00000061,-0.00002140,0.00001188,-
 0.00001529,0.00000225,-0.00000963,0.00000549,0.00001127,0.00000249,0.0
 0000401,0.00089469,-0.00087283,0.00035814,-0.00402809,0.00484021,-0.00
 220707,-0.00323100,-0.00347507,-0.00001787,-0.00794104,-0.03337544,0.0
 0665193,-0.06360373,-0.06260742,0.01200717,0.00147032,0.00044477,-0.00
 015027,0.00139592,0.00047848,0.00052517,0.00479334,0.01711898,-0.00490
 194,0.06926255,0.00001240,-0.00000821,0.00001011,-0.00000413,0.0000058
 6,-0.00000457,0.00001423,0.00000465,0.00000596,-0.00003976,0.00000959,
 -0.00002587,0.00000788,-0.00001236,0.00001090,-0.00000804,-0.00000244,
 -0.00000312,-0.00000628,-0.00009262,0.00004429,0.00000809,0.00003455,-
 0.00001547,-0.00001006,-0.00007541,0.00001799,-0.00001940,-0.00004535,
 0.00001085,0.00002108,-0.00000426,0.00000724,-0.00000302,-0.00000064,-
 0.00000341,0.00000009,0.00000029,0.00000234,-0.00000528,0.00000370,-0.
 00000503,-0.00000011,0.00000049,0.00000005,0.00003750,0.00018565,-0.00
 006654,0.00004858,0.00015151,-0.00001437,-0.00000146,0.00000243,-0.000
 00125,-0.00000577,-0.00000222,-0.00000158,0.00000029,-0.00000005,0.000
 00050,0.00000055,0.00000016,0.00000014,-0.00000030,-0.00000056,-0.0000
 0029,-0.00000162,0.00000006,0.00000029,-0.00000021,0.00000043,-0.00000
 061,0.00000035,0.00000043,-0.00000025,0.00000055,-0.00000054,0.0000004
 1,-0.00001757,0.00001085,-0.00001336,0.00000228,-0.00000899,0.00000522
 ,0.00000922,0.00000115,0.00000388,-0.00099483,-0.00073042,0.00001371,0
 .00091091,0.00188681,-0.00001214,-0.00112298,-0.00072865,-0.00009560,0
 .00096335,-0.00258962,0.00056459,-0.06438077,-0.29647616,0.04575268,-0
 .00008938,0.00020314,-0.00032169,-0.00028290,0.00045730,0.00012559,-0.
 00450717,-0.01660046,0.00387804,0.07024759,0.31952170,0.00000071,-0.00
 000009,0.00000035,-0.00000036,0.00000069,0.00000082,0.00000066,-0.0000
 0206,0.00000154,-0.00000151,0.00000247,-0.00000707,0.00000010,-0.00000
 028,0.00000233,-0.00000044,0.00000038,-0.00000067,0.00000156,0.0000037
 2,0.00001061,-0.00001784,0.00000807,-0.00001485,-0.00000415,-0.0000441
 9,0.00001240,0.00000152,-0.00000991,0.00000582,0.00000719,-0.00000200,
 0.00000261,-0.00000044,0.00000015,-0.00000063,-0.00000029,0.00000012,0
 .00000061,-0.00000096,-0.00000436,-0.00000181,0.00000004,0.00000028,-0
 .00000023,0.00000363,-0.00000590,-0.00000166,0.00000884,0.00005646,-0.
 00000816,-0.00000011,0.00000137,-0.00000037,-0.00000188,-0.00000047,-0
 .00000071,0.00000009,-0.00000008,0.00000016,0.00000021,0.00000005,-0.0
 0000002,0.00000002,-0.00000003,0.,-0.00000026,-0.00000003,-0.00000010,
 0.00000004,-0.00000001,0.00000006,0.00000037,-0.00000032,0.00000007,0.
 00000006,-0.00000002,-0.00000006,-0.00000010,-0.00000030,-0.00000024,-
 0.00000011,0.00000022,-0.00000011,0.,0.00000031,-0.00000003,0.00048599
 ,0.00004929,0.00031318,-0.00135824,0.00088080,0.00029046,-0.00044560,-
 0.00058704,0.00009744,-0.00183260,-0.00711257,0.00017578,0.01238591,0.
 04607538,-0.05758799,0.00051157,-0.00023202,0.00022960,0.00020027,0.00
 032139,0.00004223,-0.00611466,-0.01875133,0.00384982,-0.01202821,-0.05
 061945,0.05638099,0.00000034,0.00000036,0.00000148,0.00000011,0.000000
 24,0.00000111,0.00000209,-0.00000001,-0.00000225,-0.00000503,0.0000040
 7,-0.00000165,0.00000047,-0.00000139,0.00000221,-0.00000030,-0.0000004
 3,-0.00000125,-0.00000025,-0.00000902,0.00000462,-0.00001389,0.0000089
 1,-0.00001573,-0.00000944,-0.00003878,0.00000940,-0.00000135,-0.000010
 72,0.00000696,0.00000652,-0.00000315,0.00000130,-0.00000050,-0.0000006
 4,-0.00000122,-0.00000031,0.00000055,0.00000074,-0.00000098,-0.0000041
 4,-0.00000294,0.00000011,-0.00000009,-0.00000055,0.00001094,0.00001568
 ,-0.00000354,0.00001788,0.00005104,0.00000028,-0.00000008,0.00000115,0
 .00000024,-0.00000224,-0.00000071,-0.00000048,-0.00000002,-0.00000063,
 0.00000038,-0.00000020,0.00000076,-0.00000031,0.00000017,0.,0.00000001
 ,-0.00000063,-0.00000005,0.00000010,0.00000026,-0.00000010,0.00000014,
 0.00000057,0.00000017,-0.00000040,0.00000010,-0.00000017,-0.00000009,0
 .00000036,0.00000063,-0.00000055,-0.00000022,-0.00000041,0.00000026,-0
 .00000026,-0.00000007,0.00000036,0.00040455,-0.00048245,0.00042278,0.0
 0094451,0.00141873,-0.00057574,-0.00014520,-0.00032947,0.00039627,-0.0
 0731845,0.00717400,-0.03280080,-0.05945464,0.01244095,-0.05362128,-0.0
 0634212,-0.00155602,-0.00095737,0.00162611,0.00042129,0.00044798,0.003
 89917,-0.00524552,0.01718713,0.00094332,-0.00078390,0.00819896,0.06543
 852,-0.00000564,0.00000418,-0.00000440,0.00000330,-0.00000091,0.000003
 27,-0.00000417,-0.00001157,0.00000158,0.00000876,0.00000179,0.00000807
 ,-0.00000225,0.00000560,-0.00000233,0.00000319,0.00000197,-0.00000052,
 0.00001535,0.00004370,-0.00001672,-0.00001748,-0.00000890,-0.00000632,
 0.00000610,0.00001235,-0.00000205,0.00000982,0.00001463,-0.00000041,-0
 .00000592,-0.00000026,-0.00000257,0.00000097,0.00000015,0.00000092,0.0
 0000006,0.,-0.00000066,0.00000538,0.00000776,-0.00000216,0.00000002,0.
 00000014,-0.00000057,-0.00002105,-0.00007555,0.00002950,-0.00000978,-0
 .00002531,0.00000475,0.00000049,-0.00000083,0.00000052,0.00000123,0.00
 000044,0.00000046,-0.00000013,-0.00000021,0.,-0.00000039,0.00000007,-0
 .00000004,0.00000012,0.00000014,0.00000008,0.00000043,0.00000004,-0.00
 000002,0.00000007,-0.00000007,0.00000017,0.00000081,-0.00000104,0.0000
 0077,-0.00000008,0.00000028,-0.00000023,0.00000891,-0.00000782,0.00000
 814,-0.00000162,0.00000697,-0.00000398,-0.00000417,0.00000060,-0.00000
 221,-0.00039423,0.00011215,-0.00039906,0.00019352,-0.00051783,-0.00046
 907,0.00008532,0.00018915,0.00011975,-0.00079018,0.00052586,-0.0048902
 6,0.01285276,-0.06009237,0.05532225,-0.00097649,0.00052529,-0.00019622
 ,0.00025151,0.00005596,0.00029306,-0.00512267,0.00431633,-0.01884783,0
 .00697882,-0.00510180,0.02997131,-0.01307067,0.06001893,0.00000354,-0.
 00000242,-0.00000045,-0.00000539,0.00000072,0.00000438,0.00000846,-0.0
 0000688,-0.00001007,-0.00001073,0.00001213,0.00000383,0.00000372,-0.00
 000347,-0.00000316,-0.00000205,0.00000240,0.00000152,0.00000692,-0.000
 00509,-0.00000115,-0.00002087,0.00000861,-0.00001497,-0.00000374,-0.00
 004151,0.00001375,0.00000121,-0.00000905,0.00000670,0.00000646,-0.0000
 0127,0.00000142,-0.00000038,-0.00000039,-0.00000109,0.00000013,0.00000
 019,0.00000043,-0.00000563,-0.00002109,0.00000108,-0.00000006,0.000000
 32,-0.00000057,0.00000952,-0.00000764,-0.00000350,0.00000861,0.0000518
 3,-0.00000742,0.00000019,0.00000111,0.,-0.00000157,-0.00000065,-0.0000
 0047,0.00000006,-0.00000043,0.00000047,0.00000014,0.00000055,-0.000000
 18,-0.00000002,-0.00000023,-0.00000009,-0.00000062,0.00000009,0.000000
 30,0.00000015,0.00000006,0.00000002,0.00000170,-0.00000090,0.00000075,
 0.00000009,-0.00000009,0.00000003,-0.00000373,-0.00000310,-0.00000061,
 0.00000068,0.00000213,-0.00000063,0.00000267,0.00000189,0.00000080,0.0
 0127605,0.00003472,0.00073640,-0.00052575,0.00176885,-0.00041081,-0.00
 006692,-0.00063574,0.00010963,-0.00096023,0.00042412,-0.00415091,-0.05
 543222,0.05408920,-0.29770929,-0.00122568,-0.00001019,0.00133767,-0.00
 030228,-0.00006137,0.00069287,-0.00387513,0.00457972,-0.01695415,-0.00
 019071,0.00074980,-0.00379216,0.06130341,-0.06091694,0.32014964\\-0.00
 000916,-0.00000368,-0.00000152,-0.00000400,-0.00000205,0.00000157,0.00
 000200,0.00000265,-0.00000003,0.,-0.00001069,0.00000860,-0.00000661,0.
 00000319,-0.00000574,0.00000896,0.00000352,0.00000154,-0.00001644,-0.0
 0000366,-0.00001854,0.00003138,0.00003398,-0.00000368,-0.00000085,-0.0
 0000650,0.00000186,-0.00001430,-0.00002317,0.00000005,0.00000062,0.000
 00098,-0.00000488,0.00000433,0.00000065,-0.00000292,-0.00000466,0.0000
 0035,-0.00000350,-0.00000084,0.00000029,0.00000175,-0.00000145,-0.0000
 0009,-0.00000402,0.00000058,0.00000192,0.00000459,-0.00000062,0.000009
 08,-0.00000009,0.00000280,0.00000370,-0.00000324,0.00000204,0.00000037
 ,-0.00000144,0.00000119,-0.00000140,-0.00000721,-0.00000058,-0.0000002
 1,-0.00000285,0.00000142,0.00000066,-0.00000630,-0.00000104,-0.0000000
 3,-0.00000541,0.00000123,0.00000175,-0.00000517,-0.00000055,-0.0000027
 3,0.00000358,-0.00000112,-0.00000337,-0.00000231,0.00002122,-0.0000230
 3,0.00001251,-0.00001234,0.00000614,-0.00000764,-0.00001256,0.00000369
 ,-0.00000346,-0.00001035,0.00002361,-0.00000214,0.00002021,-0.00003786
 ,0.00001098,-0.00000524,0.00000471,0.00000258,-0.00000511,0.00000057,0
 .00000177,0.00000755,0.00000582,0.00000794,0.00000113,0.00000575,0.000
 00662,0.00000065,0.00000327,0.00000520,-0.00000052,-0.00000021,0.00000
 872,0.00000194,0.00000420,0.00000733,-0.00000093,-0.00000217,0.0000049
 0\\\@


 IT IS THE GODS' CUSTOM TO BRING LOW ALL THINGS OF SURPASSING GREATNESS.
     -- HERODOTUS
 IT IS THE LOFTY PINE THAT BY THE STORM IS OFTENER TOSSED;
 TOWERS FALL WITH HEAVIER CRASH WHICH HIGHER SOAR.
     -- HORACE
 THE BIGGER THEY COME, THE HARDER THEY FALL.
     -- BOB FITZSIMONS HEAVYWEIGHT CHAMPION, 1897-1899
 Job cpu time:       0 days  5 hours 58 minutes 14.6 seconds.
 File lengths (MBytes):  RWF=    926 Int=      0 D2E=      0 Chk=     26 Scr=      1
 Normal termination of Gaussian 09 at Tue Apr  9 13:45:39 2019.
WARNING: pbs_rusage is deprecated and values produced may not be accurate


=============================================================================
                                     Resource usage:
                                       CPU time:              16:20:03
   JobId:    7531255.r-man2            Elapsed time:          02:05:17
   Project:             q95            Requested time:        42:00:00
   Service Units:     16.70 
                                       Max physical memory:     1557MB
                                       Max virtual memory:      2815MB
                                       Requested memory:           0MB

                                       Number of cpus:               8

                                       Max jobfs disk use:       0.9GB
                                       Requested jobfs:         20.0GB
=============================================================================

