 Entering Gaussian System, Link 0=/apps/gaussian/g09e01/g09/g09
 AtFile(1): /home/507/hio507/Basis/6-31pGd.gbs
 Initial command:
 /apps/gaussian/g09e01/g09/l1.exe "/jobfs/local/7531265.r-man2/Gau-18775.inp" -scrdir="/jobfs/local/7531265.r-man2/"
 Entering Link 1 = /apps/gaussian/g09e01/g09/l1.exe PID=     18776.
  
 Copyright (c) 1988,1990,1992,1993,1995,1998,2003,2009,2015,
            Gaussian, Inc.  All Rights Reserved.
  
 This is part of the Gaussian(R) 09 program.  It is based on
 the Gaussian(R) 03 system (copyright 2003, Gaussian, Inc.),
 the Gaussian(R) 98 system (copyright 1998, Gaussian, Inc.),
 the Gaussian(R) 94 system (copyright 1995, Gaussian, Inc.),
 the Gaussian 92(TM) system (copyright 1992, Gaussian, Inc.),
 the Gaussian 90(TM) system (copyright 1990, Gaussian, Inc.),
 the Gaussian 88(TM) system (copyright 1988, Gaussian, Inc.),
 the Gaussian 86(TM) system (copyright 1986, Carnegie Mellon
 University), and the Gaussian 82(TM) system (copyright 1983,
 Carnegie Mellon University). Gaussian is a federally registered
 trademark of Gaussian, Inc.
  
 This software contains proprietary and confidential information,
 including trade secrets, belonging to Gaussian, Inc.
  
 This software is provided under written license and may be
 used, copied, transmitted, or stored only in accord with that
 written license.
  
 The following legend is applicable only to US Government
 contracts under FAR:
  
                    RESTRICTED RIGHTS LEGEND
  
 Use, reproduction and disclosure by the US Government is
 subject to restrictions as set forth in subparagraphs (a)
 and (c) of the Commercial Computer Software - Restricted
 Rights clause in FAR 52.227-19.
  
 Gaussian, Inc.
 340 Quinnipiac St., Bldg. 40, Wallingford CT 06492
  
  
 ---------------------------------------------------------------
 Warning -- This program may not be used in any manner that
 competes with the business of Gaussian, Inc. or will provide
 assistance to any competitor of Gaussian, Inc.  The licensee
 of this program is prohibited from giving any competitor of
 Gaussian, Inc. access to this program.  By using this program,
 the user acknowledges that Gaussian, Inc. is engaged in the
 business of creating and licensing software in the field of
 computational chemistry and represents and warrants to the
 licensee that it is not a competitor of Gaussian, Inc. and that
 it will not use this program in any manner prohibited above.
 ---------------------------------------------------------------
  

 Cite this work as:
 Gaussian 09, Revision E.01,
 M. J. Frisch, G. W. Trucks, H. B. Schlegel, G. E. Scuseria, 
 M. A. Robb, J. R. Cheeseman, G. Scalmani, V. Barone, B. Mennucci, 
 G. A. Petersson, H. Nakatsuji, M. Caricato, X. Li, H. P. Hratchian, 
 A. F. Izmaylov, J. Bloino, G. Zheng, J. L. Sonnenberg, M. Hada, 
 M. Ehara, K. Toyota, R. Fukuda, J. Hasegawa, M. Ishida, T. Nakajima, 
 Y. Honda, O. Kitao, H. Nakai, T. Vreven, J. A. Montgomery, Jr., 
 J. E. Peralta, F. Ogliaro, M. Bearpark, J. J. Heyd, E. Brothers, 
 K. N. Kudin, V. N. Staroverov, T. Keith, R. Kobayashi, J. Normand, 
 K. Raghavachari, A. Rendell, J. C. Burant, S. S. Iyengar, J. Tomasi, 
 M. Cossi, N. Rega, J. M. Millam, M. Klene, J. E. Knox, J. B. Cross, 
 V. Bakken, C. Adamo, J. Jaramillo, R. Gomperts, R. E. Stratmann, 
 O. Yazyev, A. J. Austin, R. Cammi, C. Pomelli, J. W. Ochterski, 
 R. L. Martin, K. Morokuma, V. G. Zakrzewski, G. A. Voth, 
 P. Salvador, J. J. Dannenberg, S. Dapprich, A. D. Daniels, 
 O. Farkas, J. B. Foresman, J. V. Ortiz, J. Cioslowski, 
 and D. J. Fox, Gaussian, Inc., Wallingford CT, 2013.
 
 ******************************************
 Gaussian 09:  ES64L-G09RevE.01 30-Nov-2015
                 9-Apr-2019 
 ******************************************
 %chk=4Nitro_EtO_c3.M062X_6-31pGd_opt_Pentadecane.chk
 %mem=196608000
 %nproc=8
 Will use up to    8 processors via shared memory.
 ----------------------------------------------------------------------
 # M062X/Gen 6D SCF=Tight INT(grid=ultrafine) OPT IOP(2/17=4) SCRF=(SMD
 ,Solvent=n-Pentadecane) maxdisk=2684354560
 ----------------------------------------------------------------------
 1/14=-1,18=20,19=15,26=4,38=1/1,3;
 2/9=110,12=2,17=4,18=5,40=1/2;
 3/5=7,8=2,11=2,16=1,25=1,30=1,70=32201,71=1,72=151,74=-55,75=-5/1,2,3;
 4//1;
 5/5=2,32=2,38=5,53=151/2;
 6/7=2,8=2,9=2,10=2,28=1/1;
 7//1,2,3,16;
 1/14=-1,18=20,19=15,26=4/3(2);
 2/9=110,17=4/2;
 99//99;
 2/9=110,17=4/2;
 3/5=7,6=1,8=2,11=2,16=1,25=1,30=1,70=32205,71=1,72=151,74=-55,75=-5,82=7/1,2,3;
 4/5=5,16=3,69=1/1;
 5/5=2,32=2,38=5,53=151/2;
 7//1,2,3,16;
 1/14=-1,18=20,19=15,26=4/3(-5);
 2/9=110,17=4/2;
 6/7=2,8=2,9=2,10=2,19=2,28=1/1;
 99/9=1/99;
 -------------------------------------------
 4Nitro_EtO_c3.M062X_6-31pGd_opt_Pentadecane
 -------------------------------------------
 Symbolic Z-matrix:
 Charge = -1 Multiplicity = 1
 C                    -3.75133   3.9287   -1.45054 
 C                    -3.94556   2.62437  -0.98463 
 C                    -2.93693   2.00141  -0.2802 
 C                    -1.70967   2.66595  -0.02442 
 C                    -1.5357    3.98503  -0.50525 
 C                    -2.55399   4.60282  -1.21178 
 N                    -0.77201   1.96087   0.68313 
 C                     0.50256   2.38346   1.05735 
 N                     1.18275   1.43627   1.74312 
 O                     0.95866   3.49996   0.79917 
 C                     2.53103   1.69608   2.19079 
 C                     3.57762   1.53058   1.08683 
 C                     4.98657   1.82721   1.59598 
 H                    -3.06052   0.98791   0.09343 
 H                    -0.60395   4.49755  -0.31231 
 H                    -1.05869   0.99558   0.96432 
 H                     0.77783   0.49519   1.91024 
 H                     2.74012   0.99954   3.01104 
 H                     2.58349   2.71723   2.58857 
 H                     3.3181    2.20875   0.26625 
 H                     3.51881   0.50685   0.69772 
 H                     5.05768   2.85634   1.96737 
 H                     5.73555   1.70444   0.80653 
 H                     5.25692   1.15639   2.42074 
 H                    -4.8841    2.11914  -1.18153 
 H                    -2.43083   5.61343  -1.58439 
 N                    -4.80636   4.58709  -2.18958 
 O                    -4.61496   5.73153  -2.58828 
 O                    -5.85001   3.97355  -2.38753 
 O                    -1.72681  -0.54628   1.31345 
 C                    -0.96558  -1.35945   1.90633 
 O                     0.21583  -1.13678   2.27194 
 C                    -1.52131  -2.75853   2.215 
 C                    -2.96438  -2.97578   1.77706 
 H                    -1.40697  -2.91824   3.29421 
 H                    -0.85042  -3.48194   1.7351 
 H                    -3.62858  -2.25688   2.2655 
 H                    -3.30515  -3.98926   2.02192 
 H                    -3.06771  -2.82348   0.69888 
 
 Add virtual bond connecting atoms O30        and H16        Dist= 3.24D+00.
 Add virtual bond connecting atoms O32        and H17        Dist= 3.33D+00.

 GradGradGradGradGradGradGradGradGradGradGradGradGradGradGradGradGradGrad
 Berny optimization.
 Initialization pass.
                           ----------------------------
                           !    Initial Parameters    !
                           ! (Angstroms and Degrees)  !
 --------------------------                            --------------------------
 ! Name  Definition              Value          Derivative Info.                !
 --------------------------------------------------------------------------------
 ! R1    R(1,2)                  1.3986         estimate D2E/DX2                !
 ! R2    R(1,6)                  1.3946         estimate D2E/DX2                !
 ! R3    R(1,27)                 1.4466         estimate D2E/DX2                !
 ! R4    R(2,3)                  1.379          estimate D2E/DX2                !
 ! R5    R(2,25)                 1.0839         estimate D2E/DX2                !
 ! R6    R(3,4)                  1.4189         estimate D2E/DX2                !
 ! R7    R(3,14)                 1.0872         estimate D2E/DX2                !
 ! R8    R(4,5)                  1.4147         estimate D2E/DX2                !
 ! R9    R(4,7)                  1.37           estimate D2E/DX2                !
 ! R10   R(5,6)                  1.3848         estimate D2E/DX2                !
 ! R11   R(5,15)                 1.0808         estimate D2E/DX2                !
 ! R12   R(6,26)                 1.0841         estimate D2E/DX2                !
 ! R13   R(7,8)                  1.394          estimate D2E/DX2                !
 ! R14   R(7,16)                 1.0455         estimate D2E/DX2                !
 ! R15   R(8,9)                  1.3528         estimate D2E/DX2                !
 ! R16   R(8,10)                 1.2334         estimate D2E/DX2                !
 ! R17   R(9,11)                 1.4442         estimate D2E/DX2                !
 ! R18   R(9,17)                 1.038          estimate D2E/DX2                !
 ! R19   R(11,12)                1.5302         estimate D2E/DX2                !
 ! R20   R(11,18)                1.0962         estimate D2E/DX2                !
 ! R21   R(11,19)                1.0972         estimate D2E/DX2                !
 ! R22   R(12,13)                1.5272         estimate D2E/DX2                !
 ! R23   R(12,20)                1.0957         estimate D2E/DX2                !
 ! R24   R(12,21)                1.0968         estimate D2E/DX2                !
 ! R25   R(13,22)                1.0964         estimate D2E/DX2                !
 ! R26   R(13,23)                1.0951         estimate D2E/DX2                !
 ! R27   R(13,24)                1.097          estimate D2E/DX2                !
 ! R28   R(16,30)                1.7163         estimate D2E/DX2                !
 ! R29   R(17,32)                1.7635         estimate D2E/DX2                !
 ! R30   R(27,28)                1.2269         estimate D2E/DX2                !
 ! R31   R(27,29)                1.2267         estimate D2E/DX2                !
 ! R32   R(30,31)                1.2618         estimate D2E/DX2                !
 ! R33   R(31,32)                1.2566         estimate D2E/DX2                !
 ! R34   R(31,33)                1.5367         estimate D2E/DX2                !
 ! R35   R(33,34)                1.5236         estimate D2E/DX2                !
 ! R36   R(33,35)                1.0969         estimate D2E/DX2                !
 ! R37   R(33,36)                1.0971         estimate D2E/DX2                !
 ! R38   R(34,37)                1.0939         estimate D2E/DX2                !
 ! R39   R(34,38)                1.0969         estimate D2E/DX2                !
 ! R40   R(34,39)                1.0938         estimate D2E/DX2                !
 ! A1    A(2,1,6)              120.8623         estimate D2E/DX2                !
 ! A2    A(2,1,27)             119.5605         estimate D2E/DX2                !
 ! A3    A(6,1,27)             119.5772         estimate D2E/DX2                !
 ! A4    A(1,2,3)              119.3338         estimate D2E/DX2                !
 ! A5    A(1,2,25)             119.6325         estimate D2E/DX2                !
 ! A6    A(3,2,25)             121.0337         estimate D2E/DX2                !
 ! A7    A(2,3,4)              120.8737         estimate D2E/DX2                !
 ! A8    A(2,3,14)             120.8986         estimate D2E/DX2                !
 ! A9    A(4,3,14)             118.2277         estimate D2E/DX2                !
 ! A10   A(3,4,5)              118.8028         estimate D2E/DX2                !
 ! A11   A(3,4,7)              116.362          estimate D2E/DX2                !
 ! A12   A(5,4,7)              124.8352         estimate D2E/DX2                !
 ! A13   A(4,5,6)              119.9288         estimate D2E/DX2                !
 ! A14   A(4,5,15)             119.1765         estimate D2E/DX2                !
 ! A15   A(6,5,15)             120.8947         estimate D2E/DX2                !
 ! A16   A(1,6,5)              120.1987         estimate D2E/DX2                !
 ! A17   A(1,6,26)             119.2926         estimate D2E/DX2                !
 ! A18   A(5,6,26)             120.5087         estimate D2E/DX2                !
 ! A19   A(4,7,8)              127.475          estimate D2E/DX2                !
 ! A20   A(4,7,16)             115.2393         estimate D2E/DX2                !
 ! A21   A(8,7,16)             117.2853         estimate D2E/DX2                !
 ! A22   A(7,8,9)              112.5544         estimate D2E/DX2                !
 ! A23   A(7,8,10)             123.8034         estimate D2E/DX2                !
 ! A24   A(9,8,10)             123.6409         estimate D2E/DX2                !
 ! A25   A(8,9,11)             120.038          estimate D2E/DX2                !
 ! A26   A(8,9,17)             121.3487         estimate D2E/DX2                !
 ! A27   A(11,9,17)            118.5128         estimate D2E/DX2                !
 ! A28   A(9,11,12)            113.2936         estimate D2E/DX2                !
 ! A29   A(9,11,18)            107.1997         estimate D2E/DX2                !
 ! A30   A(9,11,19)            108.9328         estimate D2E/DX2                !
 ! A31   A(12,11,18)           109.9164         estimate D2E/DX2                !
 ! A32   A(12,11,19)           109.2401         estimate D2E/DX2                !
 ! A33   A(18,11,19)           108.1183         estimate D2E/DX2                !
 ! A34   A(11,12,13)           111.6833         estimate D2E/DX2                !
 ! A35   A(11,12,20)           108.1407         estimate D2E/DX2                !
 ! A36   A(11,12,21)           108.6775         estimate D2E/DX2                !
 ! A37   A(13,12,20)           110.3628         estimate D2E/DX2                !
 ! A38   A(13,12,21)           110.429          estimate D2E/DX2                !
 ! A39   A(20,12,21)           107.4163         estimate D2E/DX2                !
 ! A40   A(12,13,22)           110.7983         estimate D2E/DX2                !
 ! A41   A(12,13,23)           111.6457         estimate D2E/DX2                !
 ! A42   A(12,13,24)           111.0539         estimate D2E/DX2                !
 ! A43   A(22,13,23)           107.7613         estimate D2E/DX2                !
 ! A44   A(22,13,24)           107.6583         estimate D2E/DX2                !
 ! A45   A(23,13,24)           107.7521         estimate D2E/DX2                !
 ! A46   A(1,27,28)            118.4738         estimate D2E/DX2                !
 ! A47   A(1,27,29)            118.3777         estimate D2E/DX2                !
 ! A48   A(28,27,29)           123.1485         estimate D2E/DX2                !
 ! A49   A(16,30,31)           116.0834         estimate D2E/DX2                !
 ! A50   A(30,31,32)           126.1358         estimate D2E/DX2                !
 ! A51   A(30,31,33)           117.5761         estimate D2E/DX2                !
 ! A52   A(32,31,33)           116.2881         estimate D2E/DX2                !
 ! A53   A(17,32,31)           113.8239         estimate D2E/DX2                !
 ! A54   A(31,33,34)           114.4936         estimate D2E/DX2                !
 ! A55   A(31,33,35)           107.0066         estimate D2E/DX2                !
 ! A56   A(31,33,36)           106.9367         estimate D2E/DX2                !
 ! A57   A(34,33,35)           111.146          estimate D2E/DX2                !
 ! A58   A(34,33,36)           111.0641         estimate D2E/DX2                !
 ! A59   A(35,33,36)           105.6999         estimate D2E/DX2                !
 ! A60   A(33,34,37)           110.6733         estimate D2E/DX2                !
 ! A61   A(33,34,38)           111.2115         estimate D2E/DX2                !
 ! A62   A(33,34,39)           110.668          estimate D2E/DX2                !
 ! A63   A(37,34,38)           108.5969         estimate D2E/DX2                !
 ! A64   A(37,34,39)           106.9355         estimate D2E/DX2                !
 ! A65   A(38,34,39)           108.6234         estimate D2E/DX2                !
 ! A66   L(7,16,30,2,-1)       172.277          estimate D2E/DX2                !
 ! A67   L(9,17,32,1,-1)       184.9243         estimate D2E/DX2                !
 ! A68   L(7,16,30,2,-2)       179.7659         estimate D2E/DX2                !
 ! A69   L(9,17,32,1,-2)       180.2309         estimate D2E/DX2                !
 ! D1    D(6,1,2,3)              0.016          estimate D2E/DX2                !
 ! D2    D(6,1,2,25)           179.9978         estimate D2E/DX2                !
 ! D3    D(27,1,2,3)          -179.9746         estimate D2E/DX2                !
 ! D4    D(27,1,2,25)            0.0072         estimate D2E/DX2                !
 ! D5    D(2,1,6,5)             -0.0187         estimate D2E/DX2                !
 ! D6    D(2,1,6,26)          -179.9832         estimate D2E/DX2                !
 ! D7    D(27,1,6,5)           179.9719         estimate D2E/DX2                !
 ! D8    D(27,1,6,26)            0.0074         estimate D2E/DX2                !
 ! D9    D(2,1,27,28)          179.9581         estimate D2E/DX2                !
 ! D10   D(2,1,27,29)           -0.0453         estimate D2E/DX2                !
 ! D11   D(6,1,27,28)           -0.0326         estimate D2E/DX2                !
 ! D12   D(6,1,27,29)          179.964          estimate D2E/DX2                !
 ! D13   D(1,2,3,4)             -0.0206         estimate D2E/DX2                !
 ! D14   D(1,2,3,14)          -179.9819         estimate D2E/DX2                !
 ! D15   D(25,2,3,4)           179.9979         estimate D2E/DX2                !
 ! D16   D(25,2,3,14)            0.0366         estimate D2E/DX2                !
 ! D17   D(2,3,4,5)              0.0274         estimate D2E/DX2                !
 ! D18   D(2,3,4,7)           -179.9781         estimate D2E/DX2                !
 ! D19   D(14,3,4,5)           179.9897         estimate D2E/DX2                !
 ! D20   D(14,3,4,7)            -0.0158         estimate D2E/DX2                !
 ! D21   D(3,4,5,6)             -0.0296         estimate D2E/DX2                !
 ! D22   D(3,4,5,15)           179.8902         estimate D2E/DX2                !
 ! D23   D(7,4,5,6)            179.9764         estimate D2E/DX2                !
 ! D24   D(7,4,5,15)            -0.1038         estimate D2E/DX2                !
 ! D25   D(3,4,7,8)            179.8051         estimate D2E/DX2                !
 ! D26   D(3,4,7,16)             0.0581         estimate D2E/DX2                !
 ! D27   D(5,4,7,8)             -0.2007         estimate D2E/DX2                !
 ! D28   D(5,4,7,16)          -179.9477         estimate D2E/DX2                !
 ! D29   D(4,5,6,1)              0.0256         estimate D2E/DX2                !
 ! D30   D(4,5,6,26)           179.9896         estimate D2E/DX2                !
 ! D31   D(15,5,6,1)          -179.8928         estimate D2E/DX2                !
 ! D32   D(15,5,6,26)            0.0713         estimate D2E/DX2                !
 ! D33   D(4,7,8,9)           -179.4954         estimate D2E/DX2                !
 ! D34   D(4,7,8,10)             0.8875         estimate D2E/DX2                !
 ! D35   D(16,7,8,9)             0.2471         estimate D2E/DX2                !
 ! D36   D(16,7,8,10)         -179.37           estimate D2E/DX2                !
 ! D37   D(4,7,30,31)          176.3422         estimate D2E/DX2                !
 ! D38   D(8,7,30,31)           -3.2789         estimate D2E/DX2                !
 ! D39   D(7,8,9,11)           178.9853         estimate D2E/DX2                !
 ! D40   D(7,8,9,17)             2.6857         estimate D2E/DX2                !
 ! D41   D(10,8,9,11)           -1.3969         estimate D2E/DX2                !
 ! D42   D(10,8,9,17)         -177.6966         estimate D2E/DX2                !
 ! D43   D(8,9,11,12)          -79.563          estimate D2E/DX2                !
 ! D44   D(8,9,11,18)          159.0034         estimate D2E/DX2                !
 ! D45   D(8,9,11,19)           42.2381         estimate D2E/DX2                !
 ! D46   D(17,9,11,12)          96.8408         estimate D2E/DX2                !
 ! D47   D(17,9,11,18)         -24.5928         estimate D2E/DX2                !
 ! D48   D(17,9,11,19)        -141.3581         estimate D2E/DX2                !
 ! D49   D(8,9,32,31)           -4.7084         estimate D2E/DX2                !
 ! D50   D(11,9,32,31)         178.7329         estimate D2E/DX2                !
 ! D51   D(9,11,12,13)         179.4287         estimate D2E/DX2                !
 ! D52   D(9,11,12,20)          57.8064         estimate D2E/DX2                !
 ! D53   D(9,11,12,21)         -58.5038         estimate D2E/DX2                !
 ! D54   D(18,11,12,13)        -60.6761         estimate D2E/DX2                !
 ! D55   D(18,11,12,20)        177.7016         estimate D2E/DX2                !
 ! D56   D(18,11,12,21)         61.3914         estimate D2E/DX2                !
 ! D57   D(19,11,12,13)         57.7997         estimate D2E/DX2                !
 ! D58   D(19,11,12,20)        -63.8226         estimate D2E/DX2                !
 ! D59   D(19,11,12,21)        179.8672         estimate D2E/DX2                !
 ! D60   D(11,12,13,22)        -60.1224         estimate D2E/DX2                !
 ! D61   D(11,12,13,23)        179.7577         estimate D2E/DX2                !
 ! D62   D(11,12,13,24)         59.4753         estimate D2E/DX2                !
 ! D63   D(20,12,13,22)         60.2069         estimate D2E/DX2                !
 ! D64   D(20,12,13,23)        -59.9129         estimate D2E/DX2                !
 ! D65   D(20,12,13,24)        179.8047         estimate D2E/DX2                !
 ! D66   D(21,12,13,22)        178.8229         estimate D2E/DX2                !
 ! D67   D(21,12,13,23)         58.7031         estimate D2E/DX2                !
 ! D68   D(21,12,13,24)        -61.5793         estimate D2E/DX2                !
 ! D69   D(16,30,31,32)          0.8875         estimate D2E/DX2                !
 ! D70   D(16,30,31,33)       -179.0095         estimate D2E/DX2                !
 ! D71   D(30,31,32,17)          1.0766         estimate D2E/DX2                !
 ! D72   D(33,31,32,17)       -179.0253         estimate D2E/DX2                !
 ! D73   D(30,31,33,34)         -1.1505         estimate D2E/DX2                !
 ! D74   D(30,31,33,35)       -124.785          estimate D2E/DX2                !
 ! D75   D(30,31,33,36)        122.3263         estimate D2E/DX2                !
 ! D76   D(32,31,33,34)        178.9424         estimate D2E/DX2                !
 ! D77   D(32,31,33,35)         55.3079         estimate D2E/DX2                !
 ! D78   D(32,31,33,36)        -57.5808         estimate D2E/DX2                !
 ! D79   D(31,33,34,37)        -59.2412         estimate D2E/DX2                !
 ! D80   D(31,33,34,38)        179.9568         estimate D2E/DX2                !
 ! D81   D(31,33,34,39)         59.1248         estimate D2E/DX2                !
 ! D82   D(35,33,34,37)         62.1466         estimate D2E/DX2                !
 ! D83   D(35,33,34,38)        -58.6554         estimate D2E/DX2                !
 ! D84   D(35,33,34,39)       -179.4875         estimate D2E/DX2                !
 ! D85   D(36,33,34,37)        179.526          estimate D2E/DX2                !
 ! D86   D(36,33,34,38)         58.724          estimate D2E/DX2                !
 ! D87   D(36,33,34,39)        -62.108          estimate D2E/DX2                !
 --------------------------------------------------------------------------------
 Trust Radius=3.00D-01 FncErr=1.00D-07 GrdErr=1.00D-06
 Number of steps in this run=    206 maximum allowed number of steps=    234.
 GradGradGradGradGradGradGradGradGradGradGradGradGradGradGradGradGradGrad

                          Input orientation:                          
 ---------------------------------------------------------------------
 Center     Atomic      Atomic             Coordinates (Angstroms)
 Number     Number       Type             X           Y           Z
 ---------------------------------------------------------------------
      1          6           0       -3.751326    3.928700   -1.450540
      2          6           0       -3.945557    2.624373   -0.984629
      3          6           0       -2.936928    2.001406   -0.280203
      4          6           0       -1.709669    2.665952   -0.024422
      5          6           0       -1.535696    3.985031   -0.505247
      6          6           0       -2.553994    4.602817   -1.211775
      7          7           0       -0.772009    1.960873    0.683129
      8          6           0        0.502556    2.383461    1.057353
      9          7           0        1.182752    1.436269    1.743122
     10          8           0        0.958657    3.499964    0.799166
     11          6           0        2.531029    1.696075    2.190789
     12          6           0        3.577621    1.530575    1.086834
     13          6           0        4.986574    1.827206    1.595981
     14          1           0       -3.060524    0.987906    0.093434
     15          1           0       -0.603947    4.497547   -0.312310
     16          1           0       -1.058693    0.995576    0.964317
     17          1           0        0.777834    0.495188    1.910244
     18          1           0        2.740122    0.999535    3.011044
     19          1           0        2.583493    2.717231    2.588571
     20          1           0        3.318097    2.208751    0.266251
     21          1           0        3.518810    0.506852    0.697719
     22          1           0        5.057685    2.856336    1.967373
     23          1           0        5.735552    1.704445    0.806534
     24          1           0        5.256917    1.156387    2.420739
     25          1           0       -4.884095    2.119137   -1.181531
     26          1           0       -2.430831    5.613430   -1.584394
     27          7           0       -4.806364    4.587090   -2.189578
     28          8           0       -4.614956    5.731527   -2.588282
     29          8           0       -5.850011    3.973551   -2.387535
     30          8           0       -1.726809   -0.546276    1.313447
     31          6           0       -0.965579   -1.359445    1.906329
     32          8           0        0.215833   -1.136776    2.271944
     33          6           0       -1.521306   -2.758525    2.215000
     34          6           0       -2.964385   -2.975778    1.777056
     35          1           0       -1.406972   -2.918239    3.294213
     36          1           0       -0.850422   -3.481940    1.735105
     37          1           0       -3.628579   -2.256884    2.265498
     38          1           0       -3.305151   -3.989263    2.021919
     39          1           0       -3.067709   -2.823484    0.698881
 ---------------------------------------------------------------------
                    Distance matrix (angstroms):
                    1          2          3          4          5
     1  C    0.000000
     2  C    1.398595   0.000000
     3  C    2.397373   1.378999   0.000000
     4  C    2.792259   2.433706   1.418876   0.000000
     5  C    2.409517   2.808671   2.439030   1.414719   0.000000
     6  C    1.394649   2.429462   2.789589   2.423663   1.384837
     7  N    4.159474   3.645965   2.369921   1.370026   2.468334
     8  C    5.174244   4.900351   3.710130   2.478705   3.026750
     9  N    6.384107   5.928893   4.624390   3.605888   4.352161
    10  O    5.237264   5.291493   4.311183   2.914419   2.856322
    11  C    7.596833   7.272632   6.008126   4.881735   5.389450
    12  C    8.118050   7.879439   6.673066   5.520815   5.891102
    13  C    9.489387   9.331559   8.144464   6.940379   7.184105
    14  H    3.392541   2.150239   1.087226   2.157437   3.415593
    15  H    3.394872   3.889364   3.416804   2.158759   1.080765
    16  H    4.656718   3.845173   2.467446   2.047323   3.365114
    17  H    6.602815   5.934993   4.567954   3.826594   4.833841
    18  H    8.403847   7.956369   6.638143   5.638407   6.289682
    19  H    7.609994   7.443445   6.262373   5.026092   5.305350
    20  H    7.475449   7.382284   6.282272   5.056872   5.225867
    21  H    8.317388   7.939204   6.698251   5.702648   6.252430
    22  H    9.509509   9.477684   8.348433   7.056952   7.131652
    23  H   10.002127   9.888296   8.745346   7.552900   7.732586
    24  H   10.189257   9.921544   8.668808   7.535974   7.918472
    25  H    2.151755   1.083922   2.148887   3.422702   3.892390
    26  H    2.144747   3.404200   3.873470   3.411923   2.148839
    27  N    1.446637   2.458688   3.718369   4.238890   3.727830
    28  O    2.300108   3.560085   4.696468   4.940832   4.107448
    29  O    2.298793   2.723117   4.100763   4.943334   4.707064
    30  O    5.635930   4.500779   3.239566   3.479740   4.886401
    31  C    6.855176   5.754017   4.467936   4.526068   5.891023
    32  O    7.433323   6.486038   5.128503   4.841652   6.083877
    33  C    7.945323   6.714924   5.557604   5.871579   7.271554
    34  C    7.662145   6.320703   5.385668   6.053821   7.463439
    35  H    8.653858   7.448050   6.270575   6.502934   7.880838
    36  H    8.572116   7.366402   6.203390   6.452195   7.825882
    37  H    7.217026   5.872859   5.009192   5.758495   7.142737
    38  H    8.657435   7.293122   6.428332   7.143175   8.550257
    39  H    7.118942   5.769226   4.924963   5.700995   7.081869
                    6          7          8          9         10
     6  C    0.000000
     7  N    3.707561   0.000000
     8  C    4.406470   1.393965   0.000000
     9  N    5.720290   2.284706   1.352819   0.000000
    10  O    4.195103   2.318938   1.233397   2.280375   0.000000
    11  C    6.773777   3.640496   2.423196   1.444215   2.768209
    12  C    7.233186   4.389466   3.191286   2.484956   3.289410
    13  C    8.511620   5.832019   4.550380   3.826688   4.433638
    14  H    3.876561   2.555720   3.946169   4.574701   4.791900
    15  H    2.150071   2.730176   2.751305   4.097379   2.161546
    16  H    4.470290   1.045492   2.091024   2.413467   3.220084
    17  H    6.141718   2.460905   2.090162   1.038037   3.208718
    18  H    7.670952   4.321854   3.277020   2.055180   3.783935
    19  H    6.662720   3.932198   2.605059   2.077914   2.540617
    20  H    6.511341   4.118762   2.929785   2.708796   2.741932
    21  H    7.569812   4.530509   3.570544   2.722839   3.939974
    22  H    8.431775   6.036262   4.669148   4.133036   4.310568
    23  H    9.010588   6.513780   5.282823   4.655867   5.103202
    24  H    9.278112   6.325696   5.095928   4.139604   5.157217
    25  H    3.405724   4.517882   5.839390   6.769530   6.321993
    26  H    1.084137   4.608094   5.100616   6.448179   4.651529
    27  N    2.455507   5.605843   6.601755   7.827088   6.584064
    28  O    2.723292   6.299858   7.119629   8.415683   6.893463
    29  O    3.555575   6.266255   7.399374   8.541655   7.532417
    30  O    5.794320   2.755855   3.690394   3.546921   4.883469
    31  C    6.913335   3.543755   4.109200   3.529586   5.342504
    32  O    7.263001   3.618784   3.734904   2.799133   4.921405
    33  C    8.185267   5.018046   5.645900   5.013072   6.879207
    34  C    8.156999   5.511235   6.423324   6.055250   7.634249
    35  H    8.842278   5.570159   6.062826   5.298518   7.281126
    36  H    8.772090   5.544097   6.057460   5.321902   7.272945
    37  H    7.765415   5.334169   6.329194   6.087788   7.505609
    38  H    9.211126   6.604035   7.486029   7.046658   8.704235
    39  H    7.685340   5.306652   6.323572   6.107565   7.497178
                   11         12         13         14         15
    11  C    0.000000
    12  C    1.530183   0.000000
    13  C    2.529959   1.527209   0.000000
    14  H    6.013806   6.733966   8.229086   0.000000
    15  H    4.893037   5.314699   6.482763   4.303136   0.000000
    16  H    3.857595   4.668688   6.134808   2.183076   3.755046
    17  H    2.143485   3.096585   4.425667   4.275109   4.782043
    18  H    1.096224   2.164715   2.781005   6.493079   5.870567
    19  H    1.097152   2.156769   2.748122   6.408682   4.663089
    20  H    2.141533   1.095734   2.167389   6.496702   4.577745
    21  H    2.149238   1.096758   2.168995   6.624516   5.826056
    22  H    2.789285   2.173380   1.096402   8.538617   6.320173
    23  H    3.490731   2.182994   1.095109   8.853976   7.017298
    24  H    2.788298   2.177005   1.096954   8.638550   7.278916
    25  H    8.156935   8.780235  10.258163   2.496123   4.973133
    26  H    7.363269   7.739939   8.914492   4.960554   2.490161
    27  N    9.021247   9.506227  10.855830   4.605890   4.603527
    28  O    9.496814   9.913263  11.177708   5.666551   4.773987
    29  O    9.817829  10.340194  11.743371   4.780221   5.665891
    30  O    4.891528   5.701021   7.126201   2.370853   5.417015
    31  C    4.652245   5.446509   6.758638   3.631176   6.273555
    32  O    3.659476   4.452063   5.657038   4.471543   6.252680
    33  C    6.022081   6.757825   7.985275   4.572306   7.738179
    34  C    7.224746   7.973799   9.290812   4.307507   8.110962
    35  H    6.165816   7.036380   8.141294   5.313867   8.285272
    36  H    6.201105   6.719608   7.891572   5.249682   8.241654
    37  H    7.319306   8.225777   9.557662   3.945784   7.836825
    38  H    8.149391   8.872178  10.137329   5.343323   9.207120
    39  H    7.348337   7.954165   9.343724   3.859185   7.790386
                   16         17         18         19         20
    16  H    0.000000
    17  H    2.125558   0.000000
    18  H    4.315102   2.305797   0.000000
    19  H    4.343710   2.942449   1.775808   0.000000
    20  H    4.595148   3.477348   3.054529   2.488246   0.000000
    21  H    4.611232   2.997216   2.490093   3.055473   1.767176
    22  H    6.471370   4.888293   3.147706   2.554772   2.517806
    23  H    6.832947   5.221058   3.785414   3.759902   2.527908
    24  H    6.483360   4.556311   2.589849   3.100257   3.083555
    25  H    4.527776   6.652347   8.772678   8.386671   8.329469
    26  H    5.450071   6.978856   8.315337   7.137580   6.933030
    27  N    6.073801   8.045835   9.842076   8.996503   8.814446
    28  O    6.906316   8.760032  10.384670   9.365012   9.137376
    29  O    6.562009   8.631236  10.572597   9.872383   9.706250
    30  O    1.716268   2.777418   5.022433   5.554739   5.842762
    31  C    2.538145   2.545421   4.529614   5.447996   5.811348
    32  O    2.807353   1.763513   3.388529   4.534251   4.983914
    33  C    3.983904   3.995694   5.737288   6.853673   7.203560
    34  C    4.479269   5.105835   7.061674   7.990486   8.284410
    35  H    4.568113   4.282550   5.712052   6.941201   7.601373
    36  H    4.548147   4.301098   5.882487   7.137920   7.205418
    37  H    4.344638   5.207358   7.191694   7.964674   8.496776
    38  H    5.568995   6.065768   7.900114   8.942834   9.239327
    39  H    4.323403   5.221990   7.327515   8.136740   8.141810
                   21         22         23         24         25
    21  H    0.000000
    22  H    3.082245   0.000000
    23  H    2.521906   1.770284   0.000000
    24  H    2.532135   1.770610   1.770626   0.000000
    25  H    8.760129  10.454570  10.812089  10.804784   0.000000
    26  H    8.165991   8.734671   9.364107   9.747193   4.288460
    27  N    9.710476  10.843210  11.332180  11.588544   2.667019
    28  O   10.210444  11.071616  11.613577  11.978149   3.885968
    29  O   10.455218  11.797932  12.230134  12.426574   2.413771
    30  O    5.385603   7.618054   7.810860   7.273072   4.826779
    31  C    5.005352   7.352295   7.449975   6.731529   6.081955
    32  O    4.011154   6.283409   6.378656   5.540150   6.966831
    33  C    6.194158   8.652809   8.635036   7.830273   6.829082
    34  C    7.438111   9.919848   9.926494   9.223823   6.196505
    35  H    6.537305   8.769151   8.864164   7.859577   7.582732
    36  H    6.006398   8.667954   8.434209   7.699595   7.493287
    37  H    7.821850  10.083902  10.271691   9.519798   5.710332
    38  H    8.278587  10.807508  10.753128   9.997289   7.075853
    39  H    7.380608   9.994571   9.900057   9.386350   5.591485
                   26         27         28         29         30
    26  H    0.000000
    27  N    2.657589   0.000000
    28  O    2.406686   1.226923   0.000000
    29  O    3.876214   1.226709   2.157809   0.000000
    30  O    6.843618   6.935869   7.935723   7.150307   0.000000
    31  C    7.934299   8.178591   9.154308   8.410457   1.261833
    32  O    8.212275   8.825547   9.702160   9.198948   2.245277
    33  C    9.238629   9.173329  10.233434   9.232652   2.397723
    34  C    9.238968   8.736363   9.879156   8.600222   2.765684
    35  H    9.881218   9.897362  10.941360   9.975952   3.106757
    36  H    9.810328   9.806215  10.851330   9.878076   3.092568
    37  H    8.842970   8.250749   9.399300   8.087261   2.729343
    38  H   10.294738   9.671823  10.838048   9.451243   3.853214
    39  H    8.763588   8.141420   9.294494   7.966608   2.713186
                   31         32         33         34         35
    31  C    0.000000
    32  O    1.256579   0.000000
    33  C    1.536729   2.377176   0.000000
    34  C    2.573804   3.706836   1.523637   0.000000
    35  H    2.133281   2.617660   1.096942   2.174997   0.000000
    36  H    2.132502   2.631519   1.097139   2.174120   1.748806
    37  H    2.833014   4.004271   2.166747   1.093864   2.535977
    38  H    3.521775   4.538339   2.175799   1.096919   2.523669
    39  H    2.832011   4.012625   2.166610   1.093768   3.082656
                   36         37         38         39
    36  H    0.000000
    37  H    3.082245   0.000000
    38  H    2.522961   1.779065   0.000000
    39  H    2.534499   1.757811   1.779283   0.000000
 Stoichiometry    C13H18N3O5(1-)
 Framework group  C1[X(C13H18N3O5)]
 Deg. of freedom   111
 Full point group                 C1      NOp   1
 Largest Abelian subgroup         C1      NOp   1
 Largest concise Abelian subgroup C1      NOp   1
                         Standard orientation:                         
 ---------------------------------------------------------------------
 Center     Atomic      Atomic             Coordinates (Angstroms)
 Number     Number       Type             X           Y           Z
 ---------------------------------------------------------------------
      1          6           0       -3.849985   -0.335367    0.055449
      2          6           0       -3.136689    0.866544    0.107300
      3          6           0       -1.761214    0.840462    0.012288
      4          6           0       -1.064797   -0.386775   -0.136381
      5          6           0       -1.807175   -1.590016   -0.186534
      6          6           0       -3.188203   -1.554321   -0.090296
      7          7           0        0.300163   -0.305264   -0.221298
      8          6           0        1.205174   -1.355643   -0.365511
      9          7           0        2.489340   -0.932161   -0.406736
     10          8           0        0.873186   -2.540255   -0.453534
     11          6           0        3.562874   -1.890205   -0.530959
     12          6           0        3.918186   -2.575535    0.790229
     13          6           0        5.046383   -3.589723    0.614263
     14          1           0       -1.181445    1.759437    0.049908
     15          1           0       -1.282969   -2.528129   -0.301451
     16          1           0        0.693268    0.661954   -0.166435
     17          1           0        2.731047    0.071016   -0.293887
     18          1           0        4.435209   -1.351125   -0.918425
     19          1           0        3.277247   -2.651363   -1.267708
     20          1           0        3.017436   -3.069527    1.171351
     21          1           0        4.204323   -1.807149    1.518643
     22          1           0        4.758626   -4.372598   -0.097355
     23          1           0        5.303061   -4.076730    1.560945
     24          1           0        5.953403   -3.107412    0.229557
     25          1           0       -3.671327    1.802562    0.220960
     26          1           0       -3.766401   -2.470637   -0.127792
     27          7           0       -5.293091   -0.313662    0.154100
     28          8           0       -5.898816   -1.379531    0.105524
     29          8           0       -5.852470    0.770513    0.282451
     30          8           0        1.120026    2.320158   -0.048895
     31          6           0        2.355677    2.575689   -0.039174
     32          8           0        3.286704    1.735923   -0.122689
     33          6           0        2.776644    4.048108    0.088505
     34          6           0        1.616256    5.032823    0.161368
     35          1           0        3.430864    4.269805   -0.763626
     36          1           0        3.413384    4.122428    0.978872
     37          1           0        0.990593    4.959235   -0.732875
     38          1           0        1.976639    6.064862    0.252202
     39          1           0        0.974334    4.810286    1.018539
 ---------------------------------------------------------------------
 Rotational constants (GHZ):      0.3375318      0.1488082      0.1049412
 General basis read from cards:  (6D, 7F)
 There are   435 symmetry adapted cartesian basis functions of A   symmetry.
 There are   435 symmetry adapted basis functions of A   symmetry.
   435 basis functions,   744 primitive gaussians,   435 cartesian basis functions
    79 alpha electrons       79 beta electrons
       nuclear repulsion energy      1630.2622221361 Hartrees.
 NAtoms=   39 NActive=   39 NUniq=   39 SFac= 1.00D+00 NAtFMM=   60 NAOKFM=F Big=F
 Integral buffers will be    131072 words long.
 Raffenetti 2 integral format.
 Two-electron integral symmetry is turned on.
 ------------------------------------------------------------------------------
 Polarizable Continuum Model (PCM)
 =================================
 Model                : PCM (using non-symmetric T matrix).
 Atomic radii         : SMD-Coulomb.
 Polarization charges : Total charges.
 Charge compensation  : None.
 Solution method      : On-the-fly selection.
 Cavity type          : VdW (van der Waals Surface) (Alpha=1.000).
 Cavity algorithm     : GePol (No added spheres)
                        Default sphere list used, NSphG=   39.
                        Lebedev-Laikov grids with approx.  5.0 points / Ang**2.
                        Smoothing algorithm: York/Karplus (Gamma=1.0000).
                        Polarization charges: spherical gaussians, with
                                              point-specific exponents (IZeta= 3).
                        Self-potential: point-specific (ISelfS= 7).
                        Self-field    : sphere-specific E.n sum rule (ISelfD= 2).
 1st derivatives      : Analytical E(r).r(x)/FMM algorithm (CHGder, D1EAlg=3).
                        Cavity 1st derivative terms included.
 Solvent              : n-Pentadecane, Eps=   2.033300 Eps(inf)=   2.049192
 ------------------------------------------------------------------------------
 ------------------------------------------------------------------------------
 Atomic radii for non-electrostatic terms: SMD-CDS.
 ------------------------------------------------------------------------------
 Nuclear repulsion after PCM non-electrostatic terms =     1630.2511260689 Hartrees.
 One-electron integrals computed using PRISM.
 NBasis=   435 RedAO= T EigKep=  1.24D-06  NBF=   435
 NBsUse=   434 1.00D-06 EigRej=  8.49D-07 NBFU=   434
 ExpMin= 4.38D-02 ExpMax= 5.48D+03 ExpMxC= 8.25D+02 IAcc=3 IRadAn=         5 AccDes= 0.00D+00
 Harris functional with IExCor= 1009 and IRadAn=       5 diagonalized for initial guess.
 HarFok:  IExCor= 1009 AccDes= 0.00D+00 IRadAn=         5 IDoV= 1 UseB2=F ITyADJ=14
 ICtDFT=  3500011 ScaDFX=  1.000000  1.000000  1.000000  1.000000
 FoFCou: FMM=F IPFlag=           0 FMFlag=      100000 FMFlg1=           0
         NFxFlg=           0 DoJE=T BraDBF=F KetDBF=T FulRan=T
         wScrn=  0.000000 ICntrl=     500 IOpCl=  0 I1Cent=   200000004 NGrid=           0
         NMat0=    1 NMatS0=      1 NMatT0=    0 NMatD0=    1 NMtDS0=    0 NMtDT0=    0
 Petite list used in FoFCou.
 Requested convergence on RMS density matrix=1.00D-08 within 128 cycles.
 Requested convergence on MAX density matrix=1.00D-06.
 Requested convergence on             energy=1.00D-06.
 No special actions if energy rises.
 Inv3:  Mode=1 IEnd=    30108672.
 Iteration    1 A*A^-1 deviation from unit magnitude is 5.55D-15 for   3168.
 Iteration    1 A*A^-1 deviation from orthogonality  is 3.16D-15 for   1045    221.
 Iteration    1 A^-1*A deviation from unit magnitude is 5.33D-15 for   3168.
 Iteration    1 A^-1*A deviation from orthogonality  is 1.26D-14 for    959    935.
 Error on total polarization charges =  0.02429
 SCF Done:  E(RM062X) =  -1046.30244571     A.U. after   16 cycles
            NFock= 16  Conv=0.42D-08     -V/T= 2.0085
 SMD-CDS (non-electrostatic) energy       (kcal/mol) =      -6.96
 (included in total energy above)

 **********************************************************************

            Population analysis using the SCF density.

 **********************************************************************

 Orbital symmetries:
       Occupied  (A) (A) (A) (A) (A) (A) (A) (A) (A) (A) (A) (A)
                 (A) (A) (A) (A) (A) (A) (A) (A) (A) (A) (A) (A)
                 (A) (A) (A) (A) (A) (A) (A) (A) (A) (A) (A) (A)
                 (A) (A) (A) (A) (A) (A) (A) (A) (A) (A) (A) (A)
                 (A) (A) (A) (A) (A) (A) (A) (A) (A) (A) (A) (A)
                 (A) (A) (A) (A) (A) (A) (A) (A) (A) (A) (A) (A)
                 (A) (A) (A) (A) (A) (A) (A)
       Virtual   (A) (A) (A) (A) (A) (A) (A) (A) (A) (A) (A) (A)
                 (A) (A) (A) (A) (A) (A) (A) (A) (A) (A) (A) (A)
                 (A) (A) (A) (A) (A) (A) (A) (A) (A) (A) (A) (A)
                 (A) (A) (A) (A) (A) (A) (A) (A) (A) (A) (A) (A)
                 (A) (A) (A) (A) (A) (A) (A) (A) (A) (A) (A) (A)
                 (A) (A) (A) (A) (A) (A) (A) (A) (A) (A) (A) (A)
                 (A) (A) (A) (A) (A) (A) (A) (A) (A) (A) (A) (A)
                 (A) (A) (A) (A) (A) (A) (A) (A) (A) (A) (A) (A)
                 (A) (A) (A) (A) (A) (A) (A) (A) (A) (A) (A) (A)
                 (A) (A) (A) (A) (A) (A) (A) (A) (A) (A) (A) (A)
                 (A) (A) (A) (A) (A) (A) (A) (A) (A) (A) (A) (A)
                 (A) (A) (A) (A) (A) (A) (A) (A) (A) (A) (A) (A)
                 (A) (A) (A) (A) (A) (A) (A) (A) (A) (A) (A) (A)
                 (A) (A) (A) (A) (A) (A) (A) (A) (A) (A) (A) (A)
                 (A) (A) (A) (A) (A) (A) (A) (A) (A) (A) (A) (A)
                 (A) (A) (A) (A) (A) (A) (A) (A) (A) (A) (A) (A)
                 (A) (A) (A) (A) (A) (A) (A) (A) (A) (A) (A) (A)
                 (A) (A) (A) (A) (A) (A) (A) (A) (A) (A) (A) (A)
                 (A) (A) (A) (A) (A) (A) (A) (A) (A) (A) (A) (A)
                 (A) (A) (A) (A) (A) (A) (A) (A) (A) (A) (A) (A)
                 (A) (A) (A) (A) (A) (A) (A) (A) (A) (A) (A) (A)
                 (A) (A) (A) (A) (A) (A) (A) (A) (A) (A) (A) (A)
                 (A) (A) (A) (A) (A) (A) (A) (A) (A) (A) (A) (A)
                 (A) (A) (A) (A) (A) (A) (A) (A) (A) (A) (A) (A)
                 (A) (A) (A) (A) (A) (A) (A) (A) (A) (A) (A) (A)
                 (A) (A) (A) (A) (A) (A) (A) (A) (A) (A) (A) (A)
                 (A) (A) (A) (A) (A) (A) (A) (A) (A) (A) (A) (A)
                 (A) (A) (A) (A) (A) (A) (A) (A) (A) (A) (A) (A)
                 (A) (A) (A) (A) (A) (A) (A) (A) (A) (A) (A) (A)
                 (A) (A) (A) (A) (A) (A) (A)
 The electronic state is 1-A.
 Alpha  occ. eigenvalues --  -19.63163 -19.63147 -19.55065 -19.53148 -19.52661
 Alpha  occ. eigenvalues --  -14.96446 -14.72873 -14.70727 -10.62043 -10.57677
 Alpha  occ. eigenvalues --  -10.56600 -10.55269 -10.52628 -10.52577 -10.52172
 Alpha  occ. eigenvalues --  -10.50896 -10.50639 -10.49323 -10.49022 -10.48176
 Alpha  occ. eigenvalues --  -10.47868  -1.31551  -1.12733  -1.11229  -1.09253
 Alpha  occ. eigenvalues --   -0.99966  -0.99404  -0.96323  -0.92974  -0.84694
 Alpha  occ. eigenvalues --   -0.82389  -0.81179  -0.80202  -0.75179  -0.71090
 Alpha  occ. eigenvalues --   -0.67130  -0.66465  -0.64562  -0.62380  -0.60170
 Alpha  occ. eigenvalues --   -0.59517  -0.57717  -0.57414  -0.56150  -0.54871
 Alpha  occ. eigenvalues --   -0.51843  -0.48626  -0.48505  -0.47247  -0.47082
 Alpha  occ. eigenvalues --   -0.47055  -0.46805  -0.46197  -0.45321  -0.43985
 Alpha  occ. eigenvalues --   -0.43557  -0.43015  -0.41866  -0.40473  -0.39705
 Alpha  occ. eigenvalues --   -0.39441  -0.38757  -0.37625  -0.36658  -0.36170
 Alpha  occ. eigenvalues --   -0.36008  -0.34445  -0.34366  -0.34098  -0.33224
 Alpha  occ. eigenvalues --   -0.32871  -0.32848  -0.28594  -0.27473  -0.26013
 Alpha  occ. eigenvalues --   -0.25389  -0.25288  -0.24759  -0.21448
 Alpha virt. eigenvalues --   -0.00392   0.06188   0.06286   0.06788   0.07237
 Alpha virt. eigenvalues --    0.07647   0.07919   0.08415   0.08602   0.09196
 Alpha virt. eigenvalues --    0.09634   0.10137   0.10351   0.10606   0.11313
 Alpha virt. eigenvalues --    0.11509   0.12422   0.12468   0.12763   0.13097
 Alpha virt. eigenvalues --    0.13571   0.14083   0.14284   0.14585   0.14628
 Alpha virt. eigenvalues --    0.15317   0.15446   0.16085   0.16249   0.16935
 Alpha virt. eigenvalues --    0.17602   0.17693   0.18323   0.18619   0.18866
 Alpha virt. eigenvalues --    0.19519   0.19788   0.20107   0.20682   0.21114
 Alpha virt. eigenvalues --    0.21192   0.22222   0.22472   0.22861   0.23307
 Alpha virt. eigenvalues --    0.23798   0.24047   0.24477   0.24782   0.25579
 Alpha virt. eigenvalues --    0.25715   0.26331   0.26710   0.27051   0.27666
 Alpha virt. eigenvalues --    0.28158   0.28306   0.28764   0.29425   0.29680
 Alpha virt. eigenvalues --    0.29827   0.30261   0.30338   0.30763   0.31223
 Alpha virt. eigenvalues --    0.31385   0.31867   0.32234   0.32421   0.32477
 Alpha virt. eigenvalues --    0.32930   0.33598   0.34169   0.34269   0.34537
 Alpha virt. eigenvalues --    0.34796   0.35244   0.35430   0.35755   0.36108
 Alpha virt. eigenvalues --    0.36579   0.37091   0.37306   0.37555   0.37640
 Alpha virt. eigenvalues --    0.38541   0.38897   0.39002   0.39349   0.39997
 Alpha virt. eigenvalues --    0.40227   0.40583   0.41094   0.41564   0.41811
 Alpha virt. eigenvalues --    0.42101   0.42850   0.43067   0.43279   0.43994
 Alpha virt. eigenvalues --    0.44132   0.44962   0.45546   0.45957   0.46636
 Alpha virt. eigenvalues --    0.46885   0.47274   0.49170   0.49931   0.50789
 Alpha virt. eigenvalues --    0.51210   0.52528   0.53250   0.53977   0.54288
 Alpha virt. eigenvalues --    0.55807   0.56994   0.57588   0.59680   0.60006
 Alpha virt. eigenvalues --    0.60553   0.61449   0.64625   0.66271   0.67368
 Alpha virt. eigenvalues --    0.70677   0.73124   0.74317   0.75052   0.75762
 Alpha virt. eigenvalues --    0.76454   0.77505   0.78142   0.79447   0.79945
 Alpha virt. eigenvalues --    0.80366   0.80488   0.81020   0.81893   0.83980
 Alpha virt. eigenvalues --    0.84377   0.84635   0.85253   0.86091   0.86987
 Alpha virt. eigenvalues --    0.87448   0.88380   0.89547   0.90699   0.91211
 Alpha virt. eigenvalues --    0.91903   0.92602   0.93428   0.95215   0.95974
 Alpha virt. eigenvalues --    0.97761   0.99768   1.00955   1.01886   1.02955
 Alpha virt. eigenvalues --    1.03340   1.04551   1.05451   1.06966   1.07387
 Alpha virt. eigenvalues --    1.07837   1.09230   1.10437   1.12207   1.12595
 Alpha virt. eigenvalues --    1.13273   1.13478   1.13963   1.15095   1.17311
 Alpha virt. eigenvalues --    1.17732   1.20060   1.20361   1.21912   1.22533
 Alpha virt. eigenvalues --    1.23225   1.23422   1.24114   1.24458   1.26895
 Alpha virt. eigenvalues --    1.27290   1.28044   1.28858   1.30573   1.31518
 Alpha virt. eigenvalues --    1.31701   1.32619   1.33066   1.33665   1.35344
 Alpha virt. eigenvalues --    1.36180   1.37725   1.38962   1.39159   1.40374
 Alpha virt. eigenvalues --    1.41423   1.41821   1.41903   1.43833   1.44251
 Alpha virt. eigenvalues --    1.45243   1.46200   1.46907   1.47144   1.48214
 Alpha virt. eigenvalues --    1.48622   1.50297   1.50523   1.51044   1.51371
 Alpha virt. eigenvalues --    1.51820   1.53721   1.54102   1.54818   1.55847
 Alpha virt. eigenvalues --    1.56343   1.57751   1.58251   1.58787   1.59499
 Alpha virt. eigenvalues --    1.60232   1.61315   1.63482   1.64162   1.65549
 Alpha virt. eigenvalues --    1.70288   1.72413   1.74129   1.75610   1.77480
 Alpha virt. eigenvalues --    1.79510   1.81433   1.83146   1.85122   1.86451
 Alpha virt. eigenvalues --    1.89240   1.89741   1.90240   1.91001   1.92384
 Alpha virt. eigenvalues --    1.93235   1.94229   1.95933   1.96463   1.97648
 Alpha virt. eigenvalues --    1.98533   1.98880   2.00487   2.00609   2.01212
 Alpha virt. eigenvalues --    2.02628   2.02910   2.03879   2.05664   2.06235
 Alpha virt. eigenvalues --    2.07108   2.07626   2.08459   2.09250   2.11498
 Alpha virt. eigenvalues --    2.11655   2.12699   2.13497   2.13798   2.15322
 Alpha virt. eigenvalues --    2.16106   2.17276   2.18581   2.20165   2.21111
 Alpha virt. eigenvalues --    2.22017   2.23335   2.25522   2.26862   2.27395
 Alpha virt. eigenvalues --    2.28982   2.31495   2.31951   2.33158   2.33631
 Alpha virt. eigenvalues --    2.35570   2.37128   2.38523   2.38733   2.41726
 Alpha virt. eigenvalues --    2.44374   2.45289   2.45796   2.47217   2.49653
 Alpha virt. eigenvalues --    2.50703   2.54451   2.55093   2.57186   2.57715
 Alpha virt. eigenvalues --    2.59877   2.60855   2.62966   2.63504   2.67546
 Alpha virt. eigenvalues --    2.68196   2.69520   2.70954   2.71979   2.76197
 Alpha virt. eigenvalues --    2.78848   2.80425   2.81742   2.83064   2.83773
 Alpha virt. eigenvalues --    2.85617   2.87529   2.89666   2.93917   2.96183
 Alpha virt. eigenvalues --    3.00967   3.03638   3.05017   3.10745   3.15141
 Alpha virt. eigenvalues --    3.17686   3.18672   3.21691   3.23708   3.28027
 Alpha virt. eigenvalues --    3.29485   3.35520   3.43907   3.51438   4.21683
 Alpha virt. eigenvalues --    4.29012   4.31723   4.35023   4.36748   4.40013
 Alpha virt. eigenvalues --    4.46680   4.48440   4.49272   4.49809   4.54260
 Alpha virt. eigenvalues --    4.54908   4.57595   4.59471   4.64912   4.68993
 Alpha virt. eigenvalues --    4.73509   4.82310   4.84713   4.85531   4.95068
          Condensed to atoms (all electrons):
               1          2          3          4          5          6
     1  C   15.183978   1.463920  -2.411055  -5.394418  -3.434960   2.160341
     2  C    1.463920  13.986816   0.340053  -3.804541  -2.000926  -4.501520
     3  C   -2.411055   0.340053  17.303643   1.777495  -8.105039  -1.515077
     4  C   -5.394418  -3.804541   1.777495  19.310447  -0.654252  -4.212935
     5  C   -3.434960  -2.000926  -8.105039  -0.654252  18.418336  -0.313006
     6  C    2.160341  -4.501520  -1.515077  -4.212935  -0.313006  14.945940
     7  N    0.017727   0.047976   0.001228   0.183550  -0.168287   0.039281
     8  C   -0.194455   0.091905  -0.894568  -0.636185   0.762156  -0.492980
     9  N    0.006819  -0.018392  -0.150421  -0.149692   0.085183   0.020406
    10  O    0.013510  -0.015947  -0.156115  -0.587008   0.521330   0.120598
    11  C   -0.004854  -0.018574  -0.141015  -0.113209   0.025674   0.001942
    12  C   -0.000143   0.000004   0.005295   0.011603   0.005853   0.000549
    13  C    0.000024  -0.000881  -0.006249  -0.007112   0.004398   0.002136
    14  H    0.000588   0.015780   0.188813   0.074176   0.052431  -0.040238
    15  H   -0.002830  -0.024729   0.015482   0.018992   0.275012   0.027217
    16  H    0.005769   0.011704  -0.096643  -0.009352   0.080937  -0.002936
    17  H   -0.000342   0.000442   0.005751   0.002514  -0.011554  -0.001242
    18  H    0.000014  -0.000107  -0.001177   0.000272   0.001952   0.000237
    19  H   -0.000159   0.000377   0.002212  -0.001868  -0.010435  -0.002154
    20  H    0.000128  -0.000208  -0.002198  -0.005803   0.007643   0.001560
    21  H   -0.000019   0.000113   0.001021   0.000226  -0.002430  -0.000288
    22  H   -0.000002   0.000003   0.000045   0.000080  -0.000362  -0.000046
    23  H   -0.000000  -0.000000   0.000003   0.000038  -0.000027   0.000000
    24  H    0.000000  -0.000001  -0.000036  -0.000071   0.000143   0.000009
    25  H    0.142830   0.245852  -0.128514   0.007162  -0.001336   0.058597
    26  H    0.176153   0.058397  -0.011107  -0.029861  -0.080024   0.213046
    27  N   -0.595617   0.018894   0.073150   0.023980  -0.031606   0.173559
    28  O   -0.568607   0.115210  -0.029545   0.052804   0.235402   0.091400
    29  O   -0.572344   0.105414   0.213603   0.073424  -0.009646   0.086808
    30  O    0.003071   0.087323   0.274716  -0.362476  -0.013563   0.001374
    31  C   -0.011519  -0.073757  -0.081204   0.171846  -0.029611  -0.002326
    32  O   -0.000467  -0.006052   0.008448  -0.007444  -0.010214   0.001439
    33  C    0.003740   0.036374   0.082062  -0.091499  -0.039668  -0.006485
    34  C    0.002359   0.021586   0.006581  -0.028584  -0.000516  -0.000511
    35  H   -0.000006  -0.000084   0.000460  -0.000534  -0.000071  -0.000000
    36  H   -0.000005  -0.000023   0.000787  -0.000705  -0.000114  -0.000005
    37  H   -0.000124  -0.000750  -0.000469   0.000914   0.000080   0.000003
    38  H    0.000003  -0.000015  -0.000067  -0.000032  -0.000004   0.000001
    39  H   -0.000167  -0.001394  -0.000677   0.001333   0.000121   0.000024
               7          8          9         10         11         12
     1  C    0.017727  -0.194455   0.006819   0.013510  -0.004854  -0.000143
     2  C    0.047976   0.091905  -0.018392  -0.015947  -0.018574   0.000004
     3  C    0.001228  -0.894568  -0.150421  -0.156115  -0.141015   0.005295
     4  C    0.183550  -0.636185  -0.149692  -0.587008  -0.113209   0.011603
     5  C   -0.168287   0.762156   0.085183   0.521330   0.025674   0.005853
     6  C    0.039281  -0.492980   0.020406   0.120598   0.001942   0.000549
     7  N    7.905822   0.098704  -0.312221  -0.062892  -0.127758   0.006063
     8  C    0.098704   6.130429   0.463788   0.628350  -0.552901   0.111629
     9  N   -0.312221   0.463788   7.828316  -0.175629   0.040115   0.008645
    10  O   -0.062892   0.628350  -0.175629   8.371268  -0.015035  -0.013779
    11  C   -0.127758  -0.552901   0.040115  -0.015035   6.795840  -0.503515
    12  C    0.006063   0.111629   0.008645  -0.013779  -0.503515   6.312939
    13  C   -0.005121  -0.124480   0.009448  -0.001284   0.094136  -0.235275
    14  H   -0.011912   0.008317   0.000872   0.000045   0.000078  -0.000020
    15  H   -0.016160   0.012486   0.000205  -0.006117   0.001254  -0.000126
    16  H    0.084981  -0.007177   0.010538   0.003341   0.010855  -0.001420
    17  H    0.003091  -0.021399   0.139922   0.003236   0.017138  -0.008490
    18  H   -0.002294   0.006590  -0.054963   0.000593   0.419182  -0.054694
    19  H    0.000381  -0.037662  -0.050827  -0.004959   0.509405  -0.090119
    20  H   -0.000024  -0.018590   0.000628   0.000649  -0.058712   0.415872
    21  H    0.000977   0.006021   0.009116  -0.000524  -0.082001   0.437538
    22  H    0.000039  -0.000243  -0.000442   0.000016  -0.011270  -0.059159
    23  H    0.000023  -0.001719   0.000245   0.000072   0.025081  -0.100077
    24  H   -0.000013  -0.002773  -0.002070  -0.000026  -0.003377  -0.092483
    25  H    0.000610   0.002113   0.000015   0.000001   0.000017  -0.000001
    26  H   -0.000497  -0.000511   0.000005   0.000146  -0.000002  -0.000002
    27  N   -0.002031   0.000118  -0.000220   0.000059  -0.000024   0.000011
    28  O   -0.000253   0.000400  -0.000005   0.000017  -0.000003  -0.000000
    29  O   -0.000281   0.000742  -0.000002  -0.000004   0.000002   0.000000
    30  O    0.021979   0.013102   0.001569   0.000042  -0.004229  -0.000458
    31  C   -0.013953  -0.010379  -0.015241  -0.000678   0.003498  -0.001496
    32  O    0.011004  -0.012549  -0.028973  -0.000125   0.021605  -0.009703
    33  C   -0.028502  -0.041607  -0.031672  -0.000963   0.031097  -0.001630
    34  C    0.005371   0.003861   0.003196   0.000073  -0.006652   0.000969
    35  H    0.000157  -0.000209  -0.000202  -0.000000   0.000145  -0.000004
    36  H    0.000142  -0.000369  -0.000044  -0.000000   0.000053   0.000048
    37  H   -0.000067  -0.000008   0.000002  -0.000000   0.000005   0.000000
    38  H    0.000026   0.000007  -0.000005   0.000000   0.000001  -0.000000
    39  H   -0.000060  -0.000000  -0.000007  -0.000000   0.000007  -0.000000
              13         14         15         16         17         18
     1  C    0.000024   0.000588  -0.002830   0.005769  -0.000342   0.000014
     2  C   -0.000881   0.015780  -0.024729   0.011704   0.000442  -0.000107
     3  C   -0.006249   0.188813   0.015482  -0.096643   0.005751  -0.001177
     4  C   -0.007112   0.074176   0.018992  -0.009352   0.002514   0.000272
     5  C    0.004398   0.052431   0.275012   0.080937  -0.011554   0.001952
     6  C    0.002136  -0.040238   0.027217  -0.002936  -0.001242   0.000237
     7  N   -0.005121  -0.011912  -0.016160   0.084981   0.003091  -0.002294
     8  C   -0.124480   0.008317   0.012486  -0.007177  -0.021399   0.006590
     9  N    0.009448   0.000872   0.000205   0.010538   0.139922  -0.054963
    10  O   -0.001284   0.000045  -0.006117   0.003341   0.003236   0.000593
    11  C    0.094136   0.000078   0.001254   0.010855   0.017138   0.419182
    12  C   -0.235275  -0.000020  -0.000126  -0.001420  -0.008490  -0.054694
    13  C    5.894442  -0.000002   0.000037   0.000121   0.001656  -0.006451
    14  H   -0.000002   0.424608  -0.000094   0.007233   0.000004  -0.000000
    15  H    0.000037  -0.000094   0.426151  -0.000193   0.000001  -0.000000
    16  H    0.000121   0.007233  -0.000193   0.271549   0.009146  -0.000017
    17  H    0.001656   0.000004   0.000001   0.009146   0.242412  -0.002707
    18  H   -0.006451  -0.000000  -0.000000  -0.000017  -0.002707   0.506623
    19  H   -0.006488   0.000000  -0.000002   0.000016   0.001706  -0.031169
    20  H   -0.018729  -0.000000  -0.000001  -0.000003  -0.000140   0.003972
    21  H   -0.053867   0.000000   0.000000   0.000000   0.000092  -0.005201
    22  H    0.416813   0.000000   0.000000   0.000000  -0.000004  -0.000291
    23  H    0.430399   0.000000   0.000000   0.000000   0.000002  -0.000108
    24  H    0.447284  -0.000000  -0.000000  -0.000000   0.000003   0.002735
    25  H   -0.000000  -0.002941   0.000010  -0.000012   0.000000  -0.000000
    26  H   -0.000000   0.000011  -0.003048   0.000002  -0.000000  -0.000000
    27  N    0.000000  -0.000300   0.000379  -0.000021   0.000000  -0.000000
    28  O   -0.000000   0.000055  -0.000137   0.000001  -0.000000   0.000000
    29  O    0.000000  -0.000050   0.000057   0.000001  -0.000000   0.000000
    30  O   -0.000472  -0.000475  -0.000007   0.101256   0.000121  -0.000076
    31  C   -0.000581   0.000591   0.000083  -0.011917  -0.004218  -0.000656
    32  O    0.000952  -0.000003   0.000001  -0.002131   0.078305   0.001523
    33  C    0.001872   0.002120   0.000008   0.021935   0.018475   0.000799
    34  C   -0.000159  -0.000442  -0.000001  -0.002813  -0.002961  -0.000032
    35  H    0.000001   0.000000   0.000000  -0.000030  -0.000006  -0.000000
    36  H    0.000011   0.000000   0.000000  -0.000030  -0.000005   0.000000
    37  H    0.000000   0.000012   0.000000  -0.000013  -0.000000   0.000000
    38  H    0.000000   0.000000  -0.000000  -0.000000   0.000000   0.000000
    39  H    0.000000   0.000019   0.000000  -0.000014  -0.000000  -0.000000
              19         20         21         22         23         24
     1  C   -0.000159   0.000128  -0.000019  -0.000002  -0.000000   0.000000
     2  C    0.000377  -0.000208   0.000113   0.000003  -0.000000  -0.000001
     3  C    0.002212  -0.002198   0.001021   0.000045   0.000003  -0.000036
     4  C   -0.001868  -0.005803   0.000226   0.000080   0.000038  -0.000071
     5  C   -0.010435   0.007643  -0.002430  -0.000362  -0.000027   0.000143
     6  C   -0.002154   0.001560  -0.000288  -0.000046   0.000000   0.000009
     7  N    0.000381  -0.000024   0.000977   0.000039   0.000023  -0.000013
     8  C   -0.037662  -0.018590   0.006021  -0.000243  -0.001719  -0.002773
     9  N   -0.050827   0.000628   0.009116  -0.000442   0.000245  -0.002070
    10  O   -0.004959   0.000649  -0.000524   0.000016   0.000072  -0.000026
    11  C    0.509405  -0.058712  -0.082001  -0.011270   0.025081  -0.003377
    12  C   -0.090119   0.415872   0.437538  -0.059159  -0.100077  -0.092483
    13  C   -0.006488  -0.018729  -0.053867   0.416813   0.430399   0.447284
    14  H    0.000000  -0.000000   0.000000   0.000000   0.000000  -0.000000
    15  H   -0.000002  -0.000001   0.000000   0.000000   0.000000  -0.000000
    16  H    0.000016  -0.000003   0.000000   0.000000   0.000000  -0.000000
    17  H    0.001706  -0.000140   0.000092  -0.000004   0.000002   0.000003
    18  H   -0.031169   0.003972  -0.005201  -0.000291  -0.000108   0.002735
    19  H    0.491975  -0.005009   0.004030   0.002951  -0.000104  -0.000362
    20  H   -0.005009   0.482145  -0.031169  -0.004316  -0.002780   0.003749
    21  H    0.004030  -0.031169   0.502323   0.003917  -0.002717  -0.004414
    22  H    0.002951  -0.004316   0.003917   0.499430  -0.026335  -0.032504
    23  H   -0.000104  -0.002780  -0.002717  -0.026335   0.499316  -0.027190
    24  H   -0.000362   0.003749  -0.004414  -0.032504  -0.027190   0.504826
    25  H    0.000000  -0.000000   0.000000  -0.000000  -0.000000   0.000000
    26  H    0.000000  -0.000000   0.000000   0.000000  -0.000000  -0.000000
    27  N    0.000000  -0.000000   0.000000   0.000000   0.000000  -0.000000
    28  O   -0.000000   0.000000  -0.000000  -0.000000  -0.000000   0.000000
    29  O   -0.000000   0.000000  -0.000000  -0.000000  -0.000000   0.000000
    30  O    0.000007  -0.000002   0.000025   0.000000  -0.000000  -0.000000
    31  C    0.000272  -0.000069   0.000566  -0.000011   0.000022  -0.000051
    32  O   -0.000355   0.000121  -0.000358  -0.000003  -0.000003   0.000021
    33  C   -0.000058   0.000031  -0.000036  -0.000004   0.000004   0.000014
    34  C    0.000004   0.000000  -0.000002  -0.000000   0.000000   0.000000
    35  H   -0.000000  -0.000000  -0.000000   0.000000  -0.000000  -0.000000
    36  H   -0.000000   0.000000   0.000000  -0.000000  -0.000000   0.000000
    37  H    0.000000   0.000000   0.000000  -0.000000  -0.000000  -0.000000
    38  H   -0.000000  -0.000000  -0.000000   0.000000  -0.000000   0.000000
    39  H   -0.000000  -0.000000  -0.000000  -0.000000   0.000000  -0.000000
              25         26         27         28         29         30
     1  C    0.142830   0.176153  -0.595617  -0.568607  -0.572344   0.003071
     2  C    0.245852   0.058397   0.018894   0.115210   0.105414   0.087323
     3  C   -0.128514  -0.011107   0.073150  -0.029545   0.213603   0.274716
     4  C    0.007162  -0.029861   0.023980   0.052804   0.073424  -0.362476
     5  C   -0.001336  -0.080024  -0.031606   0.235402  -0.009646  -0.013563
     6  C    0.058597   0.213046   0.173559   0.091400   0.086808   0.001374
     7  N    0.000610  -0.000497  -0.002031  -0.000253  -0.000281   0.021979
     8  C    0.002113  -0.000511   0.000118   0.000400   0.000742   0.013102
     9  N    0.000015   0.000005  -0.000220  -0.000005  -0.000002   0.001569
    10  O    0.000001   0.000146   0.000059   0.000017  -0.000004   0.000042
    11  C    0.000017  -0.000002  -0.000024  -0.000003   0.000002  -0.004229
    12  C   -0.000001  -0.000002   0.000011  -0.000000   0.000000  -0.000458
    13  C   -0.000000  -0.000000   0.000000  -0.000000   0.000000  -0.000472
    14  H   -0.002941   0.000011  -0.000300   0.000055  -0.000050  -0.000475
    15  H    0.000010  -0.003048   0.000379  -0.000137   0.000057  -0.000007
    16  H   -0.000012   0.000002  -0.000021   0.000001   0.000001   0.101256
    17  H    0.000000  -0.000000   0.000000  -0.000000  -0.000000   0.000121
    18  H   -0.000000  -0.000000  -0.000000   0.000000   0.000000  -0.000076
    19  H    0.000000   0.000000   0.000000  -0.000000  -0.000000   0.000007
    20  H   -0.000000  -0.000000  -0.000000   0.000000   0.000000  -0.000002
    21  H    0.000000   0.000000   0.000000  -0.000000  -0.000000   0.000025
    22  H   -0.000000   0.000000   0.000000  -0.000000  -0.000000   0.000000
    23  H   -0.000000  -0.000000   0.000000  -0.000000  -0.000000  -0.000000
    24  H    0.000000  -0.000000  -0.000000   0.000000   0.000000  -0.000000
    25  H    0.445117  -0.000113  -0.038012  -0.002242   0.016885   0.000007
    26  H   -0.000113   0.448821  -0.038016   0.017115  -0.002323   0.000001
    27  N   -0.038012  -0.038016   6.989429   0.370544   0.376299   0.000074
    28  O   -0.002242   0.017115   0.370544   7.879620  -0.082379  -0.000000
    29  O    0.016885  -0.002323   0.376299  -0.082379   7.880101   0.000011
    30  O    0.000007   0.000001   0.000074  -0.000000   0.000011   8.557597
    31  C   -0.000021   0.000001   0.000053   0.000006   0.000011   0.201992
    32  O    0.000000  -0.000000   0.000001  -0.000000   0.000000  -0.169722
    33  C    0.000023  -0.000000  -0.000042  -0.000001  -0.000003  -0.078641
    34  C   -0.000028   0.000000   0.000023   0.000002  -0.000008   0.057430
    35  H   -0.000000   0.000000   0.000000   0.000000  -0.000000   0.001465
    36  H   -0.000000   0.000000   0.000000   0.000000  -0.000000   0.001646
    37  H   -0.000000  -0.000000   0.000000  -0.000000  -0.000000  -0.004025
    38  H    0.000000   0.000000  -0.000000  -0.000000   0.000000   0.001740
    39  H   -0.000000  -0.000000   0.000000  -0.000000  -0.000000  -0.004105
              31         32         33         34         35         36
     1  C   -0.011519  -0.000467   0.003740   0.002359  -0.000006  -0.000005
     2  C   -0.073757  -0.006052   0.036374   0.021586  -0.000084  -0.000023
     3  C   -0.081204   0.008448   0.082062   0.006581   0.000460   0.000787
     4  C    0.171846  -0.007444  -0.091499  -0.028584  -0.000534  -0.000705
     5  C   -0.029611  -0.010214  -0.039668  -0.000516  -0.000071  -0.000114
     6  C   -0.002326   0.001439  -0.006485  -0.000511  -0.000000  -0.000005
     7  N   -0.013953   0.011004  -0.028502   0.005371   0.000157   0.000142
     8  C   -0.010379  -0.012549  -0.041607   0.003861  -0.000209  -0.000369
     9  N   -0.015241  -0.028973  -0.031672   0.003196  -0.000202  -0.000044
    10  O   -0.000678  -0.000125  -0.000963   0.000073  -0.000000  -0.000000
    11  C    0.003498   0.021605   0.031097  -0.006652   0.000145   0.000053
    12  C   -0.001496  -0.009703  -0.001630   0.000969  -0.000004   0.000048
    13  C   -0.000581   0.000952   0.001872  -0.000159   0.000001   0.000011
    14  H    0.000591  -0.000003   0.002120  -0.000442   0.000000   0.000000
    15  H    0.000083   0.000001   0.000008  -0.000001   0.000000   0.000000
    16  H   -0.011917  -0.002131   0.021935  -0.002813  -0.000030  -0.000030
    17  H   -0.004218   0.078305   0.018475  -0.002961  -0.000006  -0.000005
    18  H   -0.000656   0.001523   0.000799  -0.000032  -0.000000   0.000000
    19  H    0.000272  -0.000355  -0.000058   0.000004  -0.000000  -0.000000
    20  H   -0.000069   0.000121   0.000031   0.000000  -0.000000   0.000000
    21  H    0.000566  -0.000358  -0.000036  -0.000002  -0.000000   0.000000
    22  H   -0.000011  -0.000003  -0.000004  -0.000000   0.000000  -0.000000
    23  H    0.000022  -0.000003   0.000004   0.000000  -0.000000  -0.000000
    24  H   -0.000051   0.000021   0.000014   0.000000  -0.000000   0.000000
    25  H   -0.000021   0.000000   0.000023  -0.000028  -0.000000  -0.000000
    26  H    0.000001  -0.000000  -0.000000   0.000000   0.000000   0.000000
    27  N    0.000053   0.000001  -0.000042   0.000023   0.000000   0.000000
    28  O    0.000006  -0.000000  -0.000001   0.000002   0.000000   0.000000
    29  O    0.000011   0.000000  -0.000003  -0.000008  -0.000000  -0.000000
    30  O    0.201992  -0.169722  -0.078641   0.057430   0.001465   0.001646
    31  C    5.721251   0.562814  -0.965703   0.001552  -0.081461  -0.074127
    32  O    0.562814   8.483062  -0.309755   0.036120  -0.001551  -0.001995
    33  C   -0.965703  -0.309755   7.546025  -0.333566   0.446108   0.441416
    34  C    0.001552   0.036120  -0.333566   5.823822  -0.045554  -0.048113
    35  H   -0.081461  -0.001551   0.446108  -0.045554   0.495159  -0.029390
    36  H   -0.074127  -0.001995   0.441416  -0.048113  -0.029390   0.494804
    37  H   -0.003073   0.000138  -0.060338   0.418879  -0.003913   0.003651
    38  H    0.027203  -0.000167  -0.068923   0.383622  -0.002024  -0.002027
    39  H   -0.003756   0.000129  -0.061619   0.421494   0.003649  -0.003902
              37         38         39
     1  C   -0.000124   0.000003  -0.000167
     2  C   -0.000750  -0.000015  -0.001394
     3  C   -0.000469  -0.000067  -0.000677
     4  C    0.000914  -0.000032   0.001333
     5  C    0.000080  -0.000004   0.000121
     6  C    0.000003   0.000001   0.000024
     7  N   -0.000067   0.000026  -0.000060
     8  C   -0.000008   0.000007  -0.000000
     9  N    0.000002  -0.000005  -0.000007
    10  O   -0.000000   0.000000  -0.000000
    11  C    0.000005   0.000001   0.000007
    12  C    0.000000  -0.000000  -0.000000
    13  C    0.000000   0.000000   0.000000
    14  H    0.000012   0.000000   0.000019
    15  H    0.000000  -0.000000   0.000000
    16  H   -0.000013  -0.000000  -0.000014
    17  H   -0.000000   0.000000  -0.000000
    18  H    0.000000   0.000000  -0.000000
    19  H    0.000000  -0.000000  -0.000000
    20  H    0.000000  -0.000000  -0.000000
    21  H    0.000000  -0.000000  -0.000000
    22  H   -0.000000   0.000000  -0.000000
    23  H   -0.000000  -0.000000   0.000000
    24  H   -0.000000   0.000000  -0.000000
    25  H   -0.000000   0.000000  -0.000000
    26  H   -0.000000   0.000000  -0.000000
    27  N    0.000000  -0.000000   0.000000
    28  O   -0.000000  -0.000000  -0.000000
    29  O   -0.000000   0.000000  -0.000000
    30  O   -0.004025   0.001740  -0.004105
    31  C   -0.003073   0.027203  -0.003756
    32  O    0.000138  -0.000167   0.000129
    33  C   -0.060338  -0.068923  -0.061619
    34  C    0.418879   0.383622   0.421494
    35  H   -0.003913  -0.002024   0.003649
    36  H    0.003651  -0.002027  -0.003902
    37  H    0.488639  -0.028762  -0.027959
    38  H   -0.028762   0.531381  -0.028735
    39  H   -0.027959  -0.028735   0.488058
 Mulliken charges:
               1
     1  C    0.011119
     2  C   -0.180243
     3  C   -0.569670
     4  C    0.386724
     5  C    0.440999
     6  C   -0.854719
     7  N   -0.676806
     8  C    0.710048
     9  N   -0.638005
    10  O   -0.622261
    11  C   -0.354001
    12  C   -0.144428
    13  C   -0.836581
    14  H    0.280726
    15  H    0.276070
    16  H    0.515340
    17  H    0.529052
    18  H    0.215452
    19  H    0.228397
    20  H    0.231254
    21  H    0.217062
    22  H    0.211697
    23  H    0.205853
    24  H    0.206587
    25  H    0.253981
    26  H    0.251805
    27  N   -0.320682
    28  O   -0.079400
    29  O   -0.086320
    30  O   -0.688297
    31  C    0.694046
    32  O   -0.644112
    33  C   -0.511390
    34  C   -0.717004
    35  H    0.217896
    36  H    0.218296
    37  H    0.217177
    38  H    0.186778
    39  H    0.217560
 Sum of Mulliken charges =  -1.00000
 Mulliken charges with hydrogens summed into heavy atoms:
               1
     1  C    0.011119
     2  C    0.073739
     3  C   -0.288944
     4  C    0.386724
     5  C    0.717069
     6  C   -0.602914
     7  N   -0.161467
     8  C    0.710048
     9  N   -0.108953
    10  O   -0.622261
    11  C    0.089848
    12  C    0.303888
    13  C   -0.212443
    27  N   -0.320682
    28  O   -0.079400
    29  O   -0.086320
    30  O   -0.688297
    31  C    0.694046
    32  O   -0.644112
    33  C   -0.075197
    34  C   -0.095488
 Electronic spatial extent (au):  <R**2>=           9800.4185
 Charge=             -1.0000 electrons
 Dipole moment (field-independent basis, Debye):
    X=              2.9642    Y=             -0.9606    Z=              0.4901  Tot=              3.1542
 Quadrupole moment (field-independent basis, Debye-Ang):
   XX=           -207.9135   YY=           -150.7773   ZZ=           -130.2457
   XY=             -9.8504   XZ=              3.0945   YZ=             -1.1341
 Traceless Quadrupole moment (field-independent basis, Debye-Ang):
   XX=            -44.9347   YY=             12.2015   ZZ=             32.7332
   XY=             -9.8504   XZ=              3.0945   YZ=             -1.1341
 Octapole moment (field-independent basis, Debye-Ang**2):
  XXX=            325.3014  YYY=             -0.7103  ZZZ=              1.1912  XYY=            -26.5236
  XXY=             -9.6072  XXZ=            -15.0679  XZZ=             -4.4749  YZZ=              2.5395
  YYZ=              3.9301  XYZ=              0.6857
 Hexadecapole moment (field-independent basis, Debye-Ang**3):
 XXXX=         -11638.6775 YYYY=          -4521.5410 ZZZZ=           -262.8481 XXXY=           -202.2173
 XXXZ=             82.0267 YYYX=             49.4782 YYYZ=            -12.0298 ZZZX=            -10.7657
 ZZZY=             -1.0290 XXYY=          -2317.8765 XXZZ=          -1475.8617 YYZZ=           -756.3144
 XXYZ=              8.0316 YYXZ=              2.5368 ZZXY=              9.6967
 N-N= 1.630251126069D+03 E-N=-5.719979021061D+03  KE= 1.037496833931D+03
 D1PCM: PCM CHGder 1st derivatives, ID1Alg=3 FixD1E=F DoIter=F DoCFld=F I1PDM=0.
 Calling FoFJK, ICntrl=      2127 FMM=F ISym2X=0 I1Cent= 0 IOpClX= 0 NMat=1 NMatS=1 NMatT=0.
 ***** Axes restored to original set *****
 -------------------------------------------------------------------
 Center     Atomic                   Forces (Hartrees/Bohr)
 Number     Number              X              Y              Z
 -------------------------------------------------------------------
      1        6           0.000628995   -0.000409766    0.000444507
      2        6          -0.000506020    0.000115380   -0.000294421
      3        6           0.000560264    0.000506637    0.000083090
      4        6          -0.001341449    0.000668525   -0.000831198
      5        6          -0.000252305   -0.000595059    0.000188664
      6        6          -0.000388043    0.000395655   -0.000377250
      7        7           0.001166353    0.000007011    0.000450298
      8        6          -0.000608780   -0.002420593    0.000877403
      9        7          -0.001401011    0.000935603   -0.001050707
     10        8          -0.000165770    0.000457010   -0.000079835
     11        6           0.002022345   -0.000001178    0.000534363
     12        6           0.000288973   -0.000017400    0.000483786
     13        6          -0.000792347   -0.000089141    0.000072774
     14        1          -0.000443322    0.000223573   -0.000293222
     15        1          -0.000383849    0.000280374   -0.000274283
     16        1           0.000175560    0.000489557   -0.000152003
     17        1           0.000073384    0.000918357   -0.000362415
[...]
 .00004335,0.00000890,0.00001369,0.00045656,-0.00715781,-0.00161002,0.0
 0072703,-0.00157628,0.03453734,0.00110814,0.00022492,-0.00378894,-0.00
 035065,-0.04851843,0.03737827,-0.00054522,0.00020241,-0.00648779,0.000
 31707,0.05274461,-0.00003537,0.00003205,-0.00002956,0.00002000,-0.0000
 1216,0.00002134,-0.00005061,-0.00003877,0.00000163,0.00009247,-0.00002
 089,0.00004717,-0.00001632,0.00003396,-0.00001858,0.00001585,0.0000130
 0,0.00000337,0.00014919,0.00033854,-0.00007111,-0.00022732,-0.00000677
 ,-0.00011914,0.00007865,-0.00001199,0.00004894,0.00008542,0.00006376,0
 .00002524,-0.00004699,0.00000228,-0.00004434,0.00001266,-0.00000263,0.
 00000714,-0.00000210,0.00000398,-0.00000778,0.00003360,-0.00003729,0.0
 0000862,0.00000044,0.00000014,-0.00000378,-0.00021205,-0.00050956,0.00
 013637,-0.00004046,0.00001956,0.00002111,0.00001004,-0.00001098,0.0000
 1191,0.00000658,0.00000585,0.00000212,-0.00000348,-0.00000537,0.000005
 50,-0.00000451,0.00000468,-0.00000486,0.00000197,0.00000171,0.00000121
 ,0.00000194,-0.00000013,0.00000117,0.00000465,-0.00000358,0.00000587,0
 .00000580,-0.00000774,-0.00000115,-0.00000103,0.00000119,-0.00000312,0
 .00005933,-0.00005823,0.00004641,-0.00001119,0.00005068,-0.00002346,-0
 .00002804,0.00000828,-0.00001121,0.00117558,0.00223555,0.00045954,-0.0
 0299000,-0.00120341,-0.00837710,0.00060577,-0.00018491,0.00279054,-0.0
 1149774,0.03409913,-0.30788864,-0.00018234,0.00082212,-0.00831339,0.01
 563820,-0.03696015,0.33333123,0.00002715,-0.00001251,0.00001699,-0.000
 01013,0.00000594,-0.00001229,0.00004782,-0.00001262,0.00000785,-0.0000
 9038,0.00006028,-0.00005636,0.00001597,-0.00002092,0.00001867,-0.00001
 738,0.00000719,-0.00001258,0.00008496,-0.00007669,0.00000115,-0.000094
 44,0.00006863,-0.00006235,0.00003689,-0.00006220,0.00002697,0.00000767
 ,-0.00004667,0.00001958,0.00001035,0.00000486,0.00000488,0.00000005,0.
 00000605,0.00000208,0.00000102,-0.00000101,0.00000034,-0.00003485,-0.0
 0000938,0.00001469,-0.00000396,0.00000554,-0.00000126,-0.00001121,0.00
 012928,0.00005755,0.00004326,0.00014156,-0.00002290,0.00000417,0.00000
 182,0.00000452,-0.00000243,-0.00000590,0.00000052,-0.00000035,0.000000
 62,0.00000059,0.00000421,-0.00000492,-0.00000190,-0.00000115,-0.000002
 17,-0.00000116,-0.00000048,0.00000042,0.00000009,0.00000012,0.00000036
 ,0.00000008,0.00000277,-0.00000667,0.00001132,0.00000038,0.00000074,0.
 00000120,-0.00003465,-0.00001088,-0.00000622,0.00000516,0.00000885,-0.
 00000406,0.00002389,0.00001363,-0.00000026,0.00054782,-0.00061725,0.00
 161076,0.00524263,-0.00655012,-0.00679134,-0.00083592,-0.00100732,0.00
 075411,-0.15080121,0.11013258,0.06775819,-0.01976492,0.02017067,0.0130
 4922,0.00052930,-0.00102644,-0.00023188,0.16819575,0.00008351,-0.00006
 358,0.00006469,-0.00004836,0.00002664,-0.00002701,0.00013068,0.0000650
 0,0.00002793,-0.00026004,0.00009073,-0.00015412,0.00004174,-0.00007319
 ,0.00006137,-0.00004491,-0.00001408,-0.00001254,-0.00021812,-0.0007753
 0,0.00012328,0.00036765,0.00001523,0.00010417,-0.00008271,0.00002521,-
 0.00008501,-0.00016798,-0.00011911,0.00001334,0.00008047,0.00000923,0.
 00001940,-0.00001095,-0.00003007,-0.00001824,-0.00000595,0.00000639,0.
 00001318,-0.00007040,0.00003376,-0.00005804,-0.00000084,0.00000041,-0.
 00000465,0.00038048,0.00122887,-0.00007945,0.00003380,0.00008261,0.000
 12531,-0.00000886,0.00000208,-0.00000644,-0.00001330,-0.00000281,0.000
 00136,0.00000346,0.00000187,-0.00000134,0.00000002,0.00001177,0.000004
 85,0.00000319,0.00000494,0.00000086,-0.00000969,-0.00000300,0.00000140
 ,-0.00000091,-0.00000143,-0.00000606,0.00000270,-0.00000151,-0.0000031
 6,0.00000503,-0.00000402,0.00000092,-0.00011991,0.00006948,-0.00008543
 ,0.00001893,-0.00006402,0.00003727,0.00006170,0.00000734,0.00002729,-0
 .00280073,-0.00506002,0.00487960,0.02320455,-0.01912196,-0.01629564,-0
 .00285783,0.00235496,0.00270461,0.11135588,-0.16432059,-0.07579325,-0.
 00549159,0.00493966,0.00328456,-0.00342775,0.00321433,0.00191140,-0.11
 943596,0.17641742,0.00001409,-0.00001047,0.00000898,-0.00000851,0.0000
 1031,-0.00000657,0.00001100,-0.00000248,-0.00000215,-0.00001178,0.0000
 1526,-0.00000836,0.00000307,-0.00001045,0.00000198,-0.00000725,0.00000
 087,-0.00000315,0.00004182,0.00009141,0.00003011,-0.00003678,0.0000559
 2,-0.00003470,-0.00003333,-0.00007898,0.00004781,0.00000029,-0.0000369
 4,0.00000911,0.00004364,-0.00000610,0.00002246,-0.00000509,-0.00000276
 ,-0.00000442,0.00000077,-0.00000268,0.00000735,-0.00000551,-0.00000145
 ,0.00000621,-0.00000014,0.00000135,-0.00000044,-0.00002876,-0.00015098
 ,-0.00006786,0.00004980,0.00010636,-0.00007372,0.00000339,0.00000309,-
 0.00000769,-0.00000545,-0.00000224,-0.00000287,0.00000023,0.00000491,-
 0.00000116,0.00000480,-0.00000171,0.00000684,-0.00000106,0.00000111,-0
 .00000180,-0.00000334,-0.00000050,0.00000101,-0.00000264,0.00000064,-0
 .00000635,-0.00000225,0.00000114,0.00000120,-0.00000023,0.00000034,0.0
 0000047,-0.00002441,0.00002139,-0.00001861,0.00000431,-0.00001680,0.00
 000865,0.00001230,-0.00000201,0.00000480,0.00048851,0.00129970,-0.0018
 7329,-0.00434886,0.00755063,0.00373987,-0.00113702,-0.00103950,-0.0005
 7211,0.06745184,-0.07289633,-0.08884805,-0.00792220,0.00854217,0.00492
 773,0.02073003,-0.02311106,-0.01389367,-0.07370265,0.07908993,0.095597
 48,-0.00001950,0.00002143,-0.00001479,0.00002230,-0.00001045,0.0000039
 1,-0.00001458,-0.00002958,-0.00001190,0.00002327,0.00000315,0.00000645
 ,-0.00000172,0.00000825,-0.00000510,0.00000607,0.00000682,-0.00000291,
 0.00006472,0.00009846,-0.00003551,-0.00015051,0.00001453,-0.00004084,0
 .00003835,-0.00009183,0.00001444,0.00004777,0.00000566,0.00000353,-0.0
 0002293,-0.00000208,-0.00000411,0.00000324,0.00001293,0.00000713,0.000
 00262,-0.00000195,-0.00000551,-0.00000614,-0.00003264,0.00005743,-0.00
 000272,0.00000338,0.00000175,-0.00005819,-0.00018169,0.00007914,0.0000
 0280,0.00008646,-0.00000979,0.00000209,0.00000345,0.00000579,0.0000006
 6,-0.00000381,-0.00000018,-0.00000098,-0.00000180,0.00000077,0.0000014
 5,-0.00000609,-0.00000488,-0.00000171,-0.00000378,-0.00000052,0.000003
 20,0.00000150,-0.00000059,0.00000073,0.00000128,0.00000326,0.00000226,
 0.00000049,0.00000641,-0.00000125,0.00000111,0.00000087,0.00004234,-0.
 00002389,0.00003370,-0.00000836,0.00002361,-0.00001612,-0.00002131,-0.
 00000140,-0.00001304,0.00202803,-0.00088855,0.00015056,-0.00116736,0.0
 0292726,-0.00080850,0.00076790,-0.00080948,0.00025429,-0.02055638,0.02
 059460,0.01401533,-0.15535205,0.11198113,0.07270576,0.00135999,0.00020
 802,-0.00019655,-0.00552344,-0.00185153,-0.00276307,0.17049723,-0.0000
 4471,0.00003407,-0.00003188,0.00003054,-0.00001517,0.00001789,-0.00005
 055,-0.00003425,-0.00000477,0.00008985,-0.00004109,0.00004295,-0.00001
 384,0.00003244,-0.00001619,0.00002082,0.00000418,0.00000693,-0.0000053
 3,0.00016349,-0.00005633,-0.00002449,-0.00005747,0.00001301,0.00002528
 ,0.00008187,-0.00001566,0.00003060,0.00006669,-0.00001320,-0.00003088,
 -0.00000137,-0.00001199,0.00000349,-0.00000343,0.00000174,-0.00000029,
 0.00000026,-0.00000264,0.00001830,-0.00000948,0.00002984,0.00000192,-0
 .00000146,0.00000059,-0.00007255,-0.00025034,0.00005721,-0.00005306,-0
 .00012859,0.00002012,0.00000021,-0.00000528,-0.00000114,0.00000592,0.0
 0000666,0.00000045,-0.00000081,0.00000054,0.00000021,-0.00000258,0.000
 00261,0.00000202,0.00000070,0.00000269,0.00000126,0.00000288,-0.000000
 52,-0.00000070,0.,-0.00000113,0.00000062,0.00000269,0.00000021,-0.0000
 0125,-0.00000055,0.00000062,-0.00000138,0.00008043,-0.00002674,0.00004
 457,-0.00001547,0.00002654,-0.00001658,-0.00004576,-0.00000856,-0.0000
 1388,-0.00049323,0.00019469,-0.00025594,-0.00058264,-0.00039038,0.0007
 1655,0.00039828,0.00032838,-0.00006645,-0.00370615,0.00439342,0.002933
 64,0.11399817,-0.16491897,-0.07583637,0.00054134,0.00021615,0.00029801
 ,-0.00161371,0.00046760,0.00006830,-0.12362513,0.17582206,-0.00000532,
 -0.00001060,-0.00000065,0.00000092,0.00000352,0.00000948,-0.00003749,0
 .00005776,-0.00002073,0.00007196,-0.00005876,0.00005739,-0.00001982,-0
 .00000032,-0.00001004,0.00000836,-0.00002043,0.00001458,-0.00011971,-0
 .00006070,-0.00002211,0.00015130,0.00001203,0.00005468,-0.00005903,0.0
 0002968,-0.00003551,-0.00005215,-0.00002717,-0.00000706,0.00002774,0.0
 0000230,0.00001275,-0.00000533,-0.00000498,-0.00000596,-0.00000144,0.0
 0000091,0.00000419,0.00006295,0.00006340,-0.00004783,0.00000308,-0.000
 00776,0.00000311,0.00004846,0.00013249,-0.00004867,0.00002674,0.000006
 46,0.00000349,-0.00000509,0.00000340,-0.00000240,-0.00000438,-0.000002
 61,0.00000094,0.00000160,-0.00000066,-0.00000179,0.00000055,0.00000248
 ,-0.00000042,0.00000044,0.00000036,0.00000032,-0.00000324,-0.00000074,
 0.00000018,-0.00000038,0.00000064,-0.00000157,-0.00001018,0.00002020,-
 0.00002308,-0.00000088,-0.00000235,-0.00000040,-0.00000994,0.00006237,
 -0.00003426,0.00000417,-0.00005503,0.00002656,-0.00000378,-0.00002380,
 0.00001303,-0.00116894,-0.00002388,0.00018691,0.00103392,-0.00092111,0
 .00074174,-0.00018330,0.00025691,-0.00037031,-0.00827471,0.00871387,0.
 00517718,0.07359643,-0.07500371,-0.09750841,0.00051153,0.00064272,0.00
 059105,-0.00271968,-0.00046515,0.00019994,-0.07711575,0.08332705,0.101
 32831,0.00007259,-0.00004462,0.00005180,-0.00002764,0.00002734,-0.0000
 2617,0.00009924,0.00000739,0.00003384,-0.00020099,0.00012305,-0.000138
 61,0.00003663,-0.00006860,0.00004506,-0.00004495,0.00000448,-0.0000218
 4,0.00012181,-0.00021882,0.00013876,-0.00019163,0.00019974,-0.00016786
 ,-0.00007578,-0.00047608,0.00016837,-0.00001750,-0.00019670,0.00007499
 ,0.00011047,-0.00001096,0.00003430,-0.00000846,0.00000163,-0.00000780,
 -0.00000132,0.00000017,0.00000986,-0.00005659,0.00000204,-0.00000965,-
 0.00000662,0.00000892,-0.00000649,0.00008125,0.00032907,-0.00009108,0.
 00022592,0.00069633,-0.00017287,0.00000762,0.00001816,0.00000474,-0.00
 002394,-0.00001921,-0.00000222,0.00000042,-0.00000322,0.00000138,0.000
 00850,-0.00000272,-0.00000585,-0.00000121,-0.00000360,-0.00000293,-0.0
 0001109,-0.00000015,0.00000320,0.00000136,0.00000133,-0.00000316,0.000
 00443,-0.00000453,0.00000538,0.00000176,-0.00000104,0.00000126,-0.0000
 9287,0.00004527,-0.00005954,0.00001286,-0.00003767,0.00002141,0.000050
 45,0.00001145,0.00001716,0.00128559,-0.00077127,0.00056113,-0.00381114
 ,0.00481230,-0.00369249,-0.00292170,-0.00336322,0.00009258,-0.00869404
 ,-0.03134895,0.00867721,-0.07163149,-0.07206855,0.01848589,0.00126136,
 0.00043059,-0.00021192,0.00100375,0.00052750,0.00077978,0.00718266,0.0
 1880622,-0.00658417,0.07705298,0.00009575,-0.00007393,0.00007233,-0.00
 005214,0.00004255,-0.00003712,0.00010315,0.00005908,0.00002229,-0.0001
 8846,0.00008767,-0.00011860,0.00002936,-0.00007911,0.00004579,-0.00004
 988,-0.00001231,-0.00001578,0.00001133,-0.00034856,0.00015457,0.000051
 14,0.00018449,-0.00006023,-0.00009212,-0.00024649,0.00006930,-0.000083
 33,-0.00019040,0.00004470,0.00010128,0.00000001,0.00003297,-0.00001068
 ,0.00000234,-0.00000733,-0.00000064,0.00000033,0.00000968,-0.00002891,
 0.00006221,-0.00005168,-0.00000394,0.00000286,-0.00000312,0.00015557,0
 .00057920,-0.00017360,0.00019138,0.00042537,-0.00008660,0.00000051,0.0
 0001255,0.00000225,-0.00001876,-0.00001774,-0.00000076,0.00000200,-0.0
 0000190,-0.00000015,0.00000762,-0.00000364,-0.00000443,-0.00000127,-0.
 00000498,-0.00000343,-0.00001145,0.00000032,0.00000364,0.00000058,0.00
 000216,-0.00000386,-0.00000667,0.00000680,-0.00000699,0.00000136,-0.00
 000253,0.00000156,-0.00016489,0.00009694,-0.00011384,0.00002975,-0.000
 08584,0.00004909,0.00008765,0.00000494,0.00003689,-0.00159908,-0.00072
 141,-0.00015108,0.00142218,0.00134954,0.00027616,-0.00168599,-0.000866
 32,-0.00033906,0.00100149,-0.00319215,0.00124619,-0.07257302,-0.276917
 09,0.05513518,-0.00016443,0.00002319,-0.00048797,-0.00044030,0.0005012
 6,0.00004436,-0.00683851,-0.01865083,0.00567549,0.08085711,0.30069515,
 -0.00000529,0.00000899,-0.00000843,0.00000560,-0.00000233,0.00001006,-
 0.00000374,-0.00001479,0.00002088,-0.00001286,0.00001773,-0.00001663,0
 .00000450,0.00000156,0.00000174,-0.00000024,0.00000718,-0.00000266,0.0
 0004325,0.00004677,0.00001248,-0.00009936,0.00001082,-0.00005151,0.000
 00305,-0.00010295,0.00004683,0.00002464,-0.00000853,0.00001543,0.00000
 634,-0.00000504,0.00000347,0.00000072,0.00000174,-0.00000047,-0.000000
 27,-0.00000044,0.00000072,0.00000436,-0.00004089,-0.00002111,-0.000001
 11,0.00000260,-0.00000204,-0.00002044,-0.00008864,0.00001331,0.0000217
 0,0.00012697,-0.00004006,0.00000271,0.00000326,0.00000136,-0.00000250,
 -0.00000158,-0.00000086,-0.00000059,-0.00000122,0.00000042,0.00000007,
 -0.00000011,-0.00000125,0.,-0.00000023,0.00000010,0.00000029,0.0000002
 0,-0.00000055,0.00000028,0.00000026,0.00000066,0.00000655,-0.00000635,
 0.00000121,0.00000031,0.00000050,-0.00000019,0.00002545,-0.00001947,0.
 00001841,-0.00000623,0.00001794,-0.00001025,-0.00001315,0.00000350,-0.
 00000639,0.00087151,0.00018390,0.00091476,-0.00236844,0.00170510,-0.00
 101030,-0.00058200,-0.00105228,0.00019303,-0.00352742,-0.01219442,0.00
 204681,0.01866701,0.05536963,-0.06368265,0.00062562,-0.00022276,0.0002
 6837,0.00053949,0.00044239,0.00015931,-0.00572512,-0.01335794,0.002990
 05,-0.01830289,-0.06185816,0.06318581,-0.00002937,0.00001847,-0.000021
 05,0.00002550,-0.00000920,0.00001668,-0.00004772,0.00000554,-0.0000196
 9,0.00007967,-0.00004153,0.00005611,-0.00001735,0.00001425,-0.00001247
 ,0.00001445,-0.00000613,0.00000913,-0.00003261,0.00008162,-0.00003640,
 -0.00001778,-0.00000639,-0.00002299,-0.00001927,-0.00001898,0.00002442
 ,0.00000649,0.00000778,0.00000749,-0.00000027,0.00000105,-0.00001031,0
 .00000250,-0.00000769,-0.00000224,-0.00000250,0.00000320,0.00000038,0.
 00004555,0.00000549,0.00000333,0.00000164,-0.00000385,0.00000014,-0.00
 002455,-0.00011681,0.00002602,0.00001300,0.00003364,-0.00001947,0.0000
 0250,-0.00000142,0.00000285,-0.00000124,0.00000119,0.00000149,-0.00000
 070,-0.00000318,0.00000160,-0.00000274,0.00000547,-0.00000241,0.000001
 57,0.00000159,0.00000115,-0.00000135,-0.00000084,0.00000045,0.00000191
 ,-0.00000127,0.00000133,-0.00000556,0.00001442,-0.00000603,-0.00000121
 ,-0.00000084,-0.00000084,0.00004860,0.00001218,0.00001498,-0.00000852,
 -0.00000824,0.00000047,-0.00003073,-0.00001805,-0.00000619,0.00032263,
 -0.00027961,0.00098916,0.00006007,0.00113788,-0.00114140,0.00025124,-0
 .00013425,0.00056460,-0.00152352,0.00369326,-0.03336050,-0.04726097,0.
 00212024,-0.01052876,-0.00605183,-0.00158094,-0.00200825,0.00139181,0.
 00062702,0.00041063,0.00080947,-0.00367589,0.02083455,-0.00080267,-0.0
 0013475,0.00981821,0.05280385,-0.00003749,0.00003856,-0.00003692,0.000
 02521,-0.00001249,0.00002590,-0.00003426,-0.00006085,0.00002871,0.0000
 2864,0.00000803,0.00002184,0.00000192,0.00002765,-0.00001355,0.0000131
 4,0.00001820,-0.00000106,0.00008275,0.00019113,-0.00004650,-0.00014198
 ,-0.00005930,-0.00004277,0.00006237,0.00003229,0.00001985,0.00006563,0
 .00007635,-0.00000014,-0.00004752,-0.00000432,-0.00001848,0.00000710,0
 .00000364,0.00000556,0.00000071,-0.00000073,-0.00000510,0.00001640,-0.
 00008157,-0.00001264,0.,0.00000345,-0.00000277,-0.00009760,-0.00032731
 ,0.00008507,-0.00005786,-0.00008945,0.00000810,0.00000379,-0.00000557,
 0.00000221,0.00000790,0.00000646,-0.00000030,-0.00000201,-0.00000075,0
 .00000138,-0.00000345,0.00000020,0.00000038,0.00000030,0.00000110,0.00
 000098,0.00000545,0.00000055,-0.00000139,0.00000054,-0.00000080,0.0000
 0277,0.00001269,-0.00001467,0.00000613,-0.00000003,0.00000202,-0.00000
 107,0.00008677,-0.00006844,0.00006567,-0.00001819,0.00006275,-0.000033
 95,-0.00004321,0.00000789,-0.00002091,0.00058666,-0.00035155,0.0006412
 2,-0.00084957,0.00046344,-0.00134445,0.00057271,-0.00005238,0.00029749
 ,0.00021437,0.00030188,-0.00524041,0.00209499,-0.05194454,0.03364200,-
 0.00115753,0.00032212,-0.00038332,0.00020462,0.00007786,0.00046424,-0.
 00159933,0.00269988,-0.02232427,0.00172982,-0.00272374,0.03102709,-0.0
 0173444,0.05145300,0.00002214,-0.00000472,0.00000973,-0.00001299,0.000
 00818,0.00000081,0.00003023,-0.00001377,0.00004426,-0.00008455,0.00005
 877,-0.00006804,0.00001805,-0.00001621,0.00001683,-0.00001681,0.000014
 37,-0.00001130,0.00009731,-0.00000034,0.00006485,-0.00014955,0.0000307
 4,-0.00009594,0.00001462,-0.00011153,0.00008797,0.00003018,-0.00001999
 ,0.00003315,0.00000165,-0.00000102,-0.00001570,0.00000464,-0.00000030,
 0.00000172,-0.00000114,0.00000201,-0.00000179,-0.00002003,-0.00008194,
 -0.00002304,-0.00000217,0.00000499,-0.00000709,0.00000689,-0.00003862,
 -0.00001748,0.00003646,0.00012282,-0.00005328,0.00000762,-0.00000172,0
 .00000646,-0.00000092,-0.00000004,0.00000027,-0.00000166,-0.00000464,0
 .00000369,-0.00000097,0.00000271,-0.00000398,0.00000088,0.00000007,-0.
 00000034,-0.00000208,0.00000028,0.00000166,0.00000284,-0.00000175,0.00
 000255,0.00001271,-0.00001762,0.00000168,0.00000151,0.00000023,-0.0000
 0157,-0.00001672,-0.00003457,0.00000098,0.00000035,0.00002884,-0.00000
 886,0.00001410,0.00002208,0.00000399,0.00165510,-0.00018530,0.00139663
 ,-0.00087226,0.00253668,-0.00129920,0.00027469,-0.00080400,0.00047269,
 -0.00062599,0.00049769,-0.00982197,-0.01197912,0.03205165,-0.31760935,
 -0.00230853,-0.00010657,0.00097502,-0.00027396,0.00015641,0.00064568,-
 0.00057578,0.00212135,-0.01327469,0.00029941,0.00060136,-0.00504987,0.
 01441385,-0.03681660,0.34359288\\-0.00000246,-0.00000080,-0.00000023,-
 0.00000047,-0.00000137,0.00000174,-0.00000102,-0.00000022,0.00000158,-
 0.00000213,-0.00000058,-0.00000153,-0.00000028,-0.00000085,-0.00000134
 ,0.00000056,-0.00000028,0.00000066,-0.00000045,-0.00000143,0.00000277,
 0.00000074,0.00000364,-0.00000381,0.00000229,-0.00000118,0.00000232,-0
 .00000104,-0.00000314,-0.00000074,-0.00000057,-0.00000020,-0.00000244,
 0.00000082,0.00000038,-0.00000293,-0.00000053,0.00000054,-0.00000300,-
 0.00000004,-0.00000020,0.00000159,-0.00000066,-0.00000043,-0.00000120,
 0.00000230,0.00000404,-0.00000123,0.00000333,0.00000590,-0.00000135,0.
 00000181,0.00000100,-0.00000161,0.00000097,0.00000060,-0.00000223,-0.0
 0000008,-0.00000061,-0.00000274,-0.00000016,-0.00000006,-0.00000176,0.
 00000086,0.00000043,-0.00000398,0.00000030,-0.00000012,-0.00000373,0.0
 0000108,0.00000073,-0.00000328,-0.00000115,-0.00000043,0.00000192,-0.0
 0000152,-0.00000151,-0.00000118,0.00000110,-0.00000412,0.00000325,-0.0
 0000423,-0.00000041,-0.00000122,-0.00000254,0.00000052,0.00000088,-0.0
 0000458,-0.00000276,0.00000084,0.00000538,0.00000123,0.00000450,-0.000
 00203,-0.00000276,-0.00000178,0.00000046,-0.00000119,0.00000067,0.0000
 0147,0.00000171,0.00000428,0.00000094,0.00000233,0.00000311,0.00000043
 ,0.00000086,0.00000306,0.00000078,0.00000037,0.00000343,0.00000063,0.0
 0000053,0.00000372,-0.00000032,-0.00000018,0.00000297\\\@


 We're simply so accustomed to the marvels of everyday thought
 that we never wonder about it.
 -- Marvin Minsky in "Why people think computers are smart"
 Job cpu time:       0 days  5 hours 57 minutes 39.0 seconds.
 File lengths (MBytes):  RWF=    953 Int=      0 D2E=      0 Chk=     26 Scr=      1
 Normal termination of Gaussian 09 at Tue Apr  9 14:02:58 2019.
WARNING: pbs_rusage is deprecated and values produced may not be accurate


=============================================================================
                                     Resource usage:
                                       CPU time:              15:11:58
   JobId:    7531265.r-man2            Elapsed time:          01:56:10
   Project:             q95            Requested time:        42:00:00
   Service Units:     15.49 
                                       Max physical memory:     1559MB
                                       Max virtual memory:      2826MB
                                       Requested memory:           0MB

                                       Number of cpus:               8

                                       Max jobfs disk use:       0.9GB
                                       Requested jobfs:         20.0GB
=============================================================================

