 Entering Gaussian System, Link 0=/apps/gaussian/g09e01/g09/g09
 AtFile(1): /home/507/hio507/Basis/6-31pGd.gbs
 Initial command:
 /apps/gaussian/g09e01/g09/l1.exe "/jobfs/local/8355190.r-man2/Gau-4079.inp" -scrdir="/jobfs/local/8355190.r-man2/"
 Entering Link 1 = /apps/gaussian/g09e01/g09/l1.exe PID=      4080.
  
 Copyright (c) 1988,1990,1992,1993,1995,1998,2003,2009,2015,
            Gaussian, Inc.  All Rights Reserved.
  
 This is part of the Gaussian(R) 09 program.  It is based on
 the Gaussian(R) 03 system (copyright 2003, Gaussian, Inc.),
 the Gaussian(R) 98 system (copyright 1998, Gaussian, Inc.),
 the Gaussian(R) 94 system (copyright 1995, Gaussian, Inc.),
 the Gaussian 92(TM) system (copyright 1992, Gaussian, Inc.),
 the Gaussian 90(TM) system (copyright 1990, Gaussian, Inc.),
 the Gaussian 88(TM) system (copyright 1988, Gaussian, Inc.),
 the Gaussian 86(TM) system (copyright 1986, Carnegie Mellon
 University), and the Gaussian 82(TM) system (copyright 1983,
 Carnegie Mellon University). Gaussian is a federally registered
 trademark of Gaussian, Inc.
  
 This software contains proprietary and confidential information,
 including trade secrets, belonging to Gaussian, Inc.
  
 This software is provided under written license and may be
 used, copied, transmitted, or stored only in accord with that
 written license.
  
 The following legend is applicable only to US Government
 contracts under FAR:
  
                    RESTRICTED RIGHTS LEGEND
  
 Use, reproduction and disclosure by the US Government is
 subject to restrictions as set forth in subparagraphs (a)
 and (c) of the Commercial Computer Software - Restricted
 Rights clause in FAR 52.227-19.
  
 Gaussian, Inc.
 340 Quinnipiac St., Bldg. 40, Wallingford CT 06492
  
  
 ---------------------------------------------------------------
 Warning -- This program may not be used in any manner that
 competes with the business of Gaussian, Inc. or will provide
 assistance to any competitor of Gaussian, Inc.  The licensee
 of this program is prohibited from giving any competitor of
 Gaussian, Inc. access to this program.  By using this program,
 the user acknowledges that Gaussian, Inc. is engaged in the
 business of creating and licensing software in the field of
 computational chemistry and represents and warrants to the
 licensee that it is not a competitor of Gaussian, Inc. and that
 it will not use this program in any manner prohibited above.
 ---------------------------------------------------------------
  

 Cite this work as:
 Gaussian 09, Revision E.01,
 M. J. Frisch, G. W. Trucks, H. B. Schlegel, G. E. Scuseria, 
 M. A. Robb, J. R. Cheeseman, G. Scalmani, V. Barone, B. Mennucci, 
 G. A. Petersson, H. Nakatsuji, M. Caricato, X. Li, H. P. Hratchian, 
 A. F. Izmaylov, J. Bloino, G. Zheng, J. L. Sonnenberg, M. Hada, 
 M. Ehara, K. Toyota, R. Fukuda, J. Hasegawa, M. Ishida, T. Nakajima, 
 Y. Honda, O. Kitao, H. Nakai, T. Vreven, J. A. Montgomery, Jr., 
 J. E. Peralta, F. Ogliaro, M. Bearpark, J. J. Heyd, E. Brothers, 
 K. N. Kudin, V. N. Staroverov, T. Keith, R. Kobayashi, J. Normand, 
 K. Raghavachari, A. Rendell, J. C. Burant, S. S. Iyengar, J. Tomasi, 
 M. Cossi, N. Rega, J. M. Millam, M. Klene, J. E. Knox, J. B. Cross, 
 V. Bakken, C. Adamo, J. Jaramillo, R. Gomperts, R. E. Stratmann, 
 O. Yazyev, A. J. Austin, R. Cammi, C. Pomelli, J. W. Ochterski, 
 R. L. Martin, K. Morokuma, V. G. Zakrzewski, G. A. Voth, 
 P. Salvador, J. J. Dannenberg, S. Dapprich, A. D. Daniels, 
 O. Farkas, J. B. Foresman, J. V. Ortiz, J. Cioslowski, 
 and D. J. Fox, Gaussian, Inc., Wallingford CT, 2013.
 
 ******************************************
 Gaussian 09:  ES64L-G09RevE.01 30-Nov-2015
                12-Jul-2018 
 ******************************************
 %chk=aryl_urea_Cl_CF3.M062X.SMD.h2o.opt.chk
 %mem=196608000
 %nproc=4
 Will use up to    4 processors via shared memory.
 ----------------------------------------------------------------------
 # M062X/Gen 6D SCF=Tight INT(grid=ultrafine) OPT IOP(2/17=4) Freq=Nora
 man SCRF=(SMD,Solvent=h2o) maxdisk=2147483648
 ----------------------------------------------------------------------
 1/14=-1,18=20,19=15,26=4,38=1/1,3;
 2/9=110,12=2,17=4,18=5,40=1/2;
 3/5=7,8=2,11=2,16=1,25=1,30=1,70=32201,71=1,72=1,74=-55,75=-5/1,2,3;
 4//1;
 5/5=2,32=2,38=5,53=1/2;
 6/7=2,8=2,9=2,10=2,28=1/1;
 7//1,2,3,16;
 1/14=-1,18=20,19=15,26=4/3(2);
 2/9=110,17=4/2;
 99//99;
 2/9=110,17=4/2;
 3/5=7,6=1,8=2,11=2,16=1,25=1,30=1,70=32205,71=1,72=1,74=-55,75=-5,82=7/1,2,3;
 4/5=5,16=3,69=1/1;
 5/5=2,32=2,38=5,53=1/2;
 7//1,2,3,16;
 1/14=-1,18=20,19=15,26=4/3(-5);
 2/9=110,17=4/2;
 6/7=2,8=2,9=2,10=2,19=2,28=1/1;
 99/9=1/99;
 ----------------------------------
 aryl_urea_Cl_CF3.M062X.SMD.h2o.opt
 ----------------------------------
 Symbolic Z-matrix:
 Charge =  0 Multiplicity = 1
 C                    -4.27224   3.07376  -0.71609 
 C                    -4.18195   1.70417  -0.47274 
 C                    -2.97894   1.14791  -0.03458 
 C                    -1.83707   1.94516   0.17122 
 C                    -1.94518   3.33533  -0.08057 
 C                    -3.15533   3.90122  -0.52232 
 H                    -5.21493   3.4836   -1.0553 
 N                    -0.63867   1.28743   0.62411 
 C                     0.44158   1.8421    1.25687 
 N                     1.49135   1.04763   1.61089 
 O                     0.48491   3.03509   1.51126 
 C                     2.66346   1.58031   2.28386 
 C                     3.68677   0.47372   2.56402 
 C                     4.92033   1.02776   3.27094 
 H                    -2.93479   0.08099   0.14737 
 H                    -1.1224    4.01338   0.05133 
 H                    -0.58965   0.27143   0.44909 
 H                     1.45289   0.03894   1.39492 
 H                     2.35383   2.04412   3.24649 
 H                     3.13268   2.35803   1.64149 
 H                     4.00007   0.00711   1.60468 
 H                     3.22279  -0.30613   3.20649 
 H                     5.4148    1.79626   2.63926 
 H                     5.64175   0.20516   3.46015 
 H                     4.63617   1.48249   4.24386 
 Cl                   -5.58357   0.67726  -0.71772 
 C                    -3.23529   5.60513  -0.81563 
 F                    -2.46667   6.27026   0.12235 
 F                    -4.53277   6.08169  -0.73814 
 F                    -2.74204   5.87847  -2.07856 
 

 GradGradGradGradGradGradGradGradGradGradGradGradGradGradGradGradGradGrad
 Berny optimization.
 Initialization pass.
                           ----------------------------
                           !    Initial Parameters    !
                           ! (Angstroms and Degrees)  !
 --------------------------                            --------------------------
 ! Name  Definition              Value          Derivative Info.                !
 --------------------------------------------------------------------------------
 ! R1    R(1,2)                  1.394          estimate D2E/DX2                !
 ! R2    R(1,6)                  1.4035         estimate D2E/DX2                !
 ! R3    R(1,7)                  1.0824         estimate D2E/DX2                !
 ! R4    R(2,3)                  1.3959         estimate D2E/DX2                !
 ! R5    R(2,26)                 1.7547         estimate D2E/DX2                !
 ! R6    R(3,4)                  1.4078         estimate D2E/DX2                !
 ! R7    R(3,15)                 1.0832         estimate D2E/DX2                !
 ! R8    R(4,5)                  1.4169         estimate D2E/DX2                !
 ! R9    R(4,8)                  1.4401         estimate D2E/DX2                !
 ! R10   R(5,6)                  1.4071         estimate D2E/DX2                !
 ! R11   R(5,16)                 1.0743         estimate D2E/DX2                !
 ! R12   R(6,27)                 1.7308         estimate D2E/DX2                !
 ! R13   R(8,9)                  1.3693         estimate D2E/DX2                !
 ! R14   R(8,17)                 1.0321         estimate D2E/DX2                !
 ! R15   R(9,10)                 1.3633         estimate D2E/DX2                !
 ! R16   R(9,11)                 1.2206         estimate D2E/DX2                !
 ! R17   R(10,12)                1.4527         estimate D2E/DX2                !
 ! R18   R(10,18)                1.0323         estimate D2E/DX2                !
 ! R19   R(12,13)                1.533          estimate D2E/DX2                !
 ! R20   R(12,19)                1.1125         estimate D2E/DX2                !
 ! R21   R(12,20)                1.1125         estimate D2E/DX2                !
 ! R22   R(13,14)                1.5259         estimate D2E/DX2                !
 ! R23   R(13,21)                1.1119         estimate D2E/DX2                !
 ! R24   R(13,22)                1.1119         estimate D2E/DX2                !
 ! R25   R(14,23)                1.1109         estimate D2E/DX2                !
 ! R26   R(14,24)                1.1104         estimate D2E/DX2                !
 ! R27   R(14,25)                1.1109         estimate D2E/DX2                !
 ! R28   R(27,28)                1.3831         estimate D2E/DX2                !
 ! R29   R(27,29)                1.3844         estimate D2E/DX2                !
 ! R30   R(27,30)                1.3831         estimate D2E/DX2                !
 ! A1    A(2,1,6)              120.2399         estimate D2E/DX2                !
 ! A2    A(2,1,7)              118.8892         estimate D2E/DX2                !
 ! A3    A(6,1,7)              120.8709         estimate D2E/DX2                !
 ! A4    A(1,2,3)              120.1411         estimate D2E/DX2                !
 ! A5    A(1,2,26)             119.9258         estimate D2E/DX2                !
 ! A6    A(3,2,26)             119.9331         estimate D2E/DX2                !
 ! A7    A(2,3,4)              121.2807         estimate D2E/DX2                !
 ! A8    A(2,3,15)             118.7073         estimate D2E/DX2                !
 ! A9    A(4,3,15)             120.012          estimate D2E/DX2                !
 ! A10   A(3,4,5)              117.8892         estimate D2E/DX2                !
 ! A11   A(3,4,8)              117.536          estimate D2E/DX2                !
 ! A12   A(5,4,8)              124.5749         estimate D2E/DX2                !
 ! A13   A(4,5,6)              121.064          estimate D2E/DX2                !
 ! A14   A(4,5,16)             122.6147         estimate D2E/DX2                !
 ! A15   A(6,5,16)             116.3212         estimate D2E/DX2                !
 ! A16   A(1,6,5)              119.385          estimate D2E/DX2                !
 ! A17   A(1,6,27)             121.3493         estimate D2E/DX2                !
 ! A18   A(5,6,27)             119.2657         estimate D2E/DX2                !
 ! A19   A(4,8,9)              128.0841         estimate D2E/DX2                !
 ! A20   A(4,8,17)             115.8352         estimate D2E/DX2                !
 ! A21   A(9,8,17)             116.0807         estimate D2E/DX2                !
 ! A22   A(8,9,10)             119.434          estimate D2E/DX2                !
 ! A23   A(8,9,11)             121.348          estimate D2E/DX2                !
 ! A24   A(10,9,11)            119.2179         estimate D2E/DX2                !
 ! A25   A(9,10,12)            121.8632         estimate D2E/DX2                !
 ! A26   A(9,10,18)            119.1064         estimate D2E/DX2                !
 ! A27   A(12,10,18)           119.0304         estimate D2E/DX2                !
 ! A28   A(10,12,13)           111.0107         estimate D2E/DX2                !
 ! A29   A(10,12,19)           109.2171         estimate D2E/DX2                !
 ! A30   A(10,12,20)           109.2169         estimate D2E/DX2                !
 ! A31   A(13,12,19)           109.1831         estimate D2E/DX2                !
 ! A32   A(13,12,20)           109.1838         estimate D2E/DX2                !
 ! A33   A(19,12,20)           108.9998         estimate D2E/DX2                !
 ! A34   A(12,13,14)           111.2351         estimate D2E/DX2                !
 ! A35   A(12,13,21)           109.4716         estimate D2E/DX2                !
 ! A36   A(12,13,22)           109.4714         estimate D2E/DX2                !
 ! A37   A(14,13,21)           108.924          estimate D2E/DX2                !
 ! A38   A(14,13,22)           108.9247         estimate D2E/DX2                !
 ! A39   A(21,13,22)           108.7724         estimate D2E/DX2                !
 ! A40   A(13,14,23)           110.3393         estimate D2E/DX2                !
 ! A41   A(13,14,24)           109.5842         estimate D2E/DX2                !
 ! A42   A(13,14,25)           110.3392         estimate D2E/DX2                !
 ! A43   A(23,14,24)           108.6748         estimate D2E/DX2                !
 ! A44   A(23,14,25)           109.1885         estimate D2E/DX2                !
 ! A45   A(24,14,25)           108.6752         estimate D2E/DX2                !
 ! A46   A(6,27,28)            109.4401         estimate D2E/DX2                !
 ! A47   A(6,27,29)            111.8819         estimate D2E/DX2                !
 ! A48   A(6,27,30)            109.4398         estimate D2E/DX2                !
 ! A49   A(28,27,29)           108.5014         estimate D2E/DX2                !
 ! A50   A(28,27,30)           109.0274         estimate D2E/DX2                !
 ! A51   A(29,27,30)           108.5004         estimate D2E/DX2                !
 ! D1    D(6,1,2,3)              0.0009         estimate D2E/DX2                !
 ! D2    D(6,1,2,26)           179.9999         estimate D2E/DX2                !
 ! D3    D(7,1,2,3)           -179.9996         estimate D2E/DX2                !
 ! D4    D(7,1,2,26)            -0.0006         estimate D2E/DX2                !
 ! D5    D(2,1,6,5)             -0.0003         estimate D2E/DX2                !
 ! D6    D(2,1,6,27)          -179.9991         estimate D2E/DX2                !
 ! D7    D(7,1,6,5)           -179.9998         estimate D2E/DX2                !
 ! D8    D(7,1,6,27)             0.0014         estimate D2E/DX2                !
 ! D9    D(1,2,3,4)             -0.0018         estimate D2E/DX2                !
 ! D10   D(1,2,3,15)          -179.9998         estimate D2E/DX2                !
 ! D11   D(26,2,3,4)           179.9992         estimate D2E/DX2                !
 ! D12   D(26,2,3,15)            0.0011         estimate D2E/DX2                !
 ! D13   D(2,3,4,5)              0.002          estimate D2E/DX2                !
 ! D14   D(2,3,4,8)           -179.9994         estimate D2E/DX2                !
 ! D15   D(15,3,4,5)          -180.0            estimate D2E/DX2                !
 ! D16   D(15,3,4,8)            -0.0013         estimate D2E/DX2                !
 ! D17   D(3,4,5,6)             -0.0014         estimate D2E/DX2                !
 ! D18   D(3,4,5,16)           179.9983         estimate D2E/DX2                !
 ! D19   D(8,4,5,6)           -179.9999         estimate D2E/DX2                !
 ! D20   D(8,4,5,16)            -0.0002         estimate D2E/DX2                !
 ! D21   D(3,4,8,9)           -159.0247         estimate D2E/DX2                !
 ! D22   D(3,4,8,17)            20.9768         estimate D2E/DX2                !
 ! D23   D(5,4,8,9)             20.9739         estimate D2E/DX2                !
 ! D24   D(5,4,8,17)          -159.0246         estimate D2E/DX2                !
 ! D25   D(4,5,6,1)              0.0005         estimate D2E/DX2                !
 ! D26   D(4,5,6,27)           179.9994         estimate D2E/DX2                !
 ! D27   D(16,5,6,1)          -179.9992         estimate D2E/DX2                !
 ! D28   D(16,5,6,27)           -0.0003         estimate D2E/DX2                !
 ! D29   D(1,6,27,28)          143.3681         estimate D2E/DX2                !
 ! D30   D(1,6,27,29)           23.0771         estimate D2E/DX2                !
 ! D31   D(1,6,27,30)          -97.2125         estimate D2E/DX2                !
 ! D32   D(5,6,27,28)          -36.6307         estimate D2E/DX2                !
 ! D33   D(5,6,27,29)         -156.9217         estimate D2E/DX2                !
 ! D34   D(5,6,27,30)           82.7887         estimate D2E/DX2                !
 ! D35   D(4,8,9,10)           179.9995         estimate D2E/DX2                !
 ! D36   D(4,8,9,11)            -0.0023         estimate D2E/DX2                !
 ! D37   D(17,8,9,10)           -0.002          estimate D2E/DX2                !
 ! D38   D(17,8,9,11)          179.9962         estimate D2E/DX2                !
 ! D39   D(8,9,10,12)          179.9972         estimate D2E/DX2                !
 ! D40   D(8,9,10,18)           -0.0021         estimate D2E/DX2                !
 ! D41   D(11,9,10,12)          -0.001          estimate D2E/DX2                !
 ! D42   D(11,9,10,18)         179.9997         estimate D2E/DX2                !
 ! D43   D(9,10,12,13)         179.999          estimate D2E/DX2                !
 ! D44   D(9,10,12,19)          59.5587         estimate D2E/DX2                !
 ! D45   D(9,10,12,20)         -59.5601         estimate D2E/DX2                !
 ! D46   D(18,10,12,13)         -0.0017         estimate D2E/DX2                !
 ! D47   D(18,10,12,19)       -120.442          estimate D2E/DX2                !
 ! D48   D(18,10,12,20)        120.4392         estimate D2E/DX2                !
 ! D49   D(10,12,13,14)        179.9983         estimate D2E/DX2                !
 ! D50   D(10,12,13,21)         59.5718         estimate D2E/DX2                !
 ! D51   D(10,12,13,22)        -59.5745         estimate D2E/DX2                !
 ! D52   D(19,12,13,14)        -59.5412         estimate D2E/DX2                !
 ! D53   D(19,12,13,21)       -179.9677         estimate D2E/DX2                !
 ! D54   D(19,12,13,22)         60.8859         estimate D2E/DX2                !
 ! D55   D(20,12,13,14)         59.5377         estimate D2E/DX2                !
 ! D56   D(20,12,13,21)        -60.8888         estimate D2E/DX2                !
 ! D57   D(20,12,13,22)        179.9649         estimate D2E/DX2                !
 ! D58   D(12,13,14,23)        -60.3742         estimate D2E/DX2                !
 ! D59   D(12,13,14,24)        179.9997         estimate D2E/DX2                !
 ! D60   D(12,13,14,25)         60.3732         estimate D2E/DX2                !
 ! D61   D(21,13,14,23)         60.3749         estimate D2E/DX2                !
 ! D62   D(21,13,14,24)        -59.2512         estimate D2E/DX2                !
 ! D63   D(21,13,14,25)       -178.8778         estimate D2E/DX2                !
 ! D64   D(22,13,14,23)        178.8766         estimate D2E/DX2                !
 ! D65   D(22,13,14,24)         59.2505         estimate D2E/DX2                !
 ! D66   D(22,13,14,25)        -60.376          estimate D2E/DX2                !
 --------------------------------------------------------------------------------
 Trust Radius=3.00D-01 FncErr=1.00D-07 GrdErr=1.00D-06
 Number of steps in this run=    157 maximum allowed number of steps=    180.
 GradGradGradGradGradGradGradGradGradGradGradGradGradGradGradGradGradGrad

                          Input orientation:                          
 ---------------------------------------------------------------------
 Center     Atomic      Atomic             Coordinates (Angstroms)
 Number     Number       Type             X           Y           Z
 ---------------------------------------------------------------------
      1          6           0       -4.272240    3.073760   -0.716090
      2          6           0       -4.181950    1.704170   -0.472740
      3          6           0       -2.978940    1.147910   -0.034580
      4          6           0       -1.837070    1.945160    0.171220
      5          6           0       -1.945180    3.335330   -0.080570
      6          6           0       -3.155330    3.901220   -0.522320
      7          1           0       -5.214930    3.483600   -1.055300
      8          7           0       -0.638670    1.287430    0.624110
      9          6           0        0.441580    1.842100    1.256870
     10          7           0        1.491350    1.047630    1.610890
     11          8           0        0.484910    3.035090    1.511260
     12          6           0        2.663460    1.580310    2.283860
     13          6           0        3.686770    0.473720    2.564020
     14          6           0        4.920330    1.027760    3.270940
     15          1           0       -2.934790    0.080990    0.147370
     16          1           0       -1.122400    4.013380    0.051330
     17          1           0       -0.589650    0.271430    0.449090
     18          1           0        1.452890    0.038940    1.394920
     19          1           0        2.353830    2.044120    3.246490
     20          1           0        3.132680    2.358030    1.641490
     21          1           0        4.000070    0.007110    1.604680
     22          1           0        3.222790   -0.306130    3.206490
     23          1           0        5.414800    1.796260    2.639260
     24          1           0        5.641750    0.205160    3.460150
     25          1           0        4.636170    1.482490    4.243860
     26         17           0       -5.583570    0.677260   -0.717720
     27          6           0       -3.235290    5.605130   -0.815630
     28          9           0       -2.466670    6.270260    0.122350
     29          9           0       -4.532770    6.081690   -0.738140
     30          9           0       -2.742040    5.878470   -2.078560
 ---------------------------------------------------------------------
                    Distance matrix (angstroms):
                    1          2          3          4          5
     1  C    0.000000
     2  C    1.393969   0.000000
     3  C    2.417846   1.395938   0.000000
     4  C    2.826855   2.443609   1.407774   0.000000
     5  C    2.426420   2.796001   2.419831   1.416919   0.000000
     6  C    1.403469   2.425579   2.801735   2.458654   1.407067
     7  H    1.082449   2.138409   3.390718   3.909103   3.415164
     8  N    4.264967   3.732504   2.435201   1.440097   2.529315
     9  C    5.256392   4.938381   3.721518   2.526164   3.116906
    10  N    6.537508   6.079383   4.764569   3.735852   4.461429
    11  O    5.252910   5.242822   4.236665   2.894002   2.920514
    12  C    7.702858   7.380638   6.115457   4.985091   5.469021
    13  C    8.992506   8.523654   7.186024   6.197051   6.848469
    14  C   10.226723   9.865301   8.563841   7.490817   7.980772
    15  H    3.389839   2.138845   1.083224   2.163490   3.409107
    16  H    3.375398   3.868843   3.415412   2.191497   1.074298
    17  H    4.772019   3.975819   2.590533   2.105859   3.391974
    18  H    6.814955   6.165433   4.786899   3.994365   4.958844
    19  H    7.788903   7.527593   6.325113   5.199108   5.587310
    20  H    7.804056   7.642075   6.451783   5.199093   5.450254
    21  H    9.122578   8.610525   7.259144   6.315303   7.018769
    22  H    9.109652   8.509302   7.147043   6.315327   7.125511
    23  H   10.330979  10.089135   8.833156   7.661789   7.995969
    24  H   11.133600  10.687363   9.349771   8.353287   8.938466
    25  H   10.319545  10.002735   8.741104   7.661808   8.089986
    26  Cl   2.731813   1.754736   2.733549   4.053893   4.550734
    27  C    2.737336   4.028800   4.532391   4.040331   2.712322
    28  F    3.765724   4.913807   5.150293   4.370958   2.987799
    29  F    3.019272   4.399567   5.220304   5.020420   3.830211
    30  F    3.473361   4.698593   5.158699   4.620758   3.330842
                    6          7          8          9         10
     6  C    0.000000
     7  H    2.168047   0.000000
     8  N    3.805230   5.346563   0.000000
     9  C    4.510350   6.327461   1.369301   0.000000
    10  N    5.855356   7.616870   2.359708   1.363279   0.000000
    11  O    4.258753   6.267102   2.259155   1.220581   2.229988
    12  C    6.864371   8.765930   3.707373   2.461705   1.452749
    13  C    8.251520  10.069713   4.809865   3.756643   2.461239
    14  C    9.373467  11.290305   6.162436   4.977834   3.809733
    15  H    3.884750   4.268865   2.637223   3.966406   4.760987
    16  H    2.115292   4.272482   2.827167   2.934930   4.249658
    17  H    4.549915   5.828760   1.032129   2.045226   2.506557
    18  H    6.310999   7.894877   2.554897   2.072002   1.032268
    19  H    6.928463   8.824037   4.050248   2.766966   2.100488
    20  H    6.826608   8.844330   4.050226   2.766972   2.100488
    21  H    8.419499  10.201848   4.911074   4.018832   2.715952
    22  H    8.502131  10.184303   4.911109   4.018836   2.715969
    23  H    9.374091  11.379282   6.400331   5.161978   4.124494
    24  H   10.339707  12.206759   6.975536   5.880118   4.621184
    25  H    9.448502  11.363525   6.400357   5.161978   4.124503
    26  Cl   4.040848   2.850509   5.159927   6.446572   7.457486
    27  C    1.730819   2.911581   5.240021   5.654646   6.999995
    28  F    2.549942   4.087208   5.331223   5.417901   6.719936
    29  F    2.588121   2.704811   6.324924   6.833619   8.194494
    30  F    2.549943   3.591330   5.727673   6.128035   7.407472
                   11         12         13         14         15
    11  O    0.000000
    12  C    2.731186   0.000000
    13  C    4.233300   1.533034   0.000000
    14  C    5.176756   2.524500   1.525899   0.000000
    15  H    4.720302   6.176808   7.059709   8.506231   0.000000
    16  H    2.381574   5.023620   6.478497   7.469565   4.331013
    17  H    3.149714   3.957559   4.775104   6.236566   2.372126
    18  H    3.150783   2.152096   2.558525   4.064524   4.561785
    19  H    2.736038   1.112496   2.169943   2.760527   6.436453
    20  H    2.736066   1.112499   2.169954   2.760510   6.650677
    21  H    4.640446   2.173194   1.111852   2.159867   7.086712
    22  H    4.640425   2.173189   1.111850   2.159875   6.886499
    23  H    5.206813   2.782591   2.177352   1.110906   8.880727
    24  H    6.196747   3.484954   2.167284   1.110368   9.194943
    25  H    5.206787   2.782580   2.177347   1.110900   8.721518
    26  Cl   6.881436   8.822612   9.836181  11.241182   2.849553
    27  C    5.085215   7.784681   9.255718  10.206199   5.615496
    28  F    4.594260   7.279148   8.799230   9.589848   6.206998
    29  F    6.286389   9.010030  10.484008  11.444476   6.272644
    30  F    5.602216   8.168495   9.596586  10.528934   6.213106
                   16         17         18         19         20
    16  H    0.000000
    17  H    3.800556   0.000000
    18  H    4.922756   2.262878   0.000000
    19  H    5.115780   4.430796   2.874152   0.000000
    20  H    4.834718   4.430740   2.874138   1.811401   0.000000
    21  H    6.686015   4.740336   2.556000   3.091125   2.506102
    22  H    6.891580   4.740414   2.556053   2.506066   3.091131
    23  H    7.372109   6.570797   4.509245   3.130447   2.553273
    24  H    8.477990   6.921071   4.673259   3.773307   3.773302
    25  H    7.559354   6.570855   4.509276   2.553282   3.130396
    26  Cl   5.623448   5.144451   7.374447   8.976947   9.184981
    27  C    2.783809   6.086648   7.605790   7.773022   7.558580
    28  F    2.627853   6.294118   7.470725   7.131461   6.997575
    29  F    4.065931   7.121575   8.768860   8.922136   8.848017
    30  F    3.261629   6.516187   7.985149   8.308206   7.793883
                   21         22         23         24         25
    21  H    0.000000
    22  H    1.807783   0.000000
    23  H    2.504571   3.089774   0.000000
    24  H    2.485378   2.485383   1.804707   0.000000
    25  H    3.089764   2.504584   1.810927   1.804706   0.000000
    26  Cl   9.883764   9.691154  11.553598  11.986880  11.388975
    27  C    9.462883   9.634689  10.063191  11.235827  10.225189
    28  F    9.123764   9.226634   9.405800  10.661746   9.505784
    29  F   10.733065  10.794122  11.345743  12.477183  11.403615
    30  F    9.669290  10.087627  10.269192  11.539137  10.664690
                   26         27         28         29         30
    26  Cl   0.000000
    27  C    5.459662   0.000000
    28  F    6.457742   1.383106   0.000000
    29  F    5.505675   1.384402   2.246057   0.000000
    30  F    6.081017   1.383113   2.252406   2.246049   0.000000
 Stoichiometry    C11H12ClF3N2O
 Framework group  C1[X(C11H12ClF3N2O)]
 Deg. of freedom    84
 Full point group                 C1      NOp   1
 Largest Abelian subgroup         C1      NOp   1
 Largest concise Abelian subgroup C1      NOp   1
                         Standard orientation:                         
 ---------------------------------------------------------------------
 Center     Atomic      Atomic             Coordinates (Angstroms)
 Number     Number       Type             X           Y           Z
 ---------------------------------------------------------------------
      1          6           0       -2.977320    0.559146   -0.049283
      2          6           0       -2.384329    1.820582   -0.032317
      3          6           0       -0.997864    1.941955    0.075505
      4          6           0       -0.169852    0.807284    0.169027
      5          6           0       -0.787921   -0.467589    0.150376
      6          6           0       -2.184940   -0.595650    0.041859
      7          1           0       -4.054172    0.488606   -0.133606
      8          7           0        1.249443    1.025901    0.277140
      9          6           0        2.262995    0.150437   -0.007919
     10          7           0        3.556838    0.545981    0.159543
     11          8           0        2.032445   -0.978880   -0.409551
     12          6           0        4.672572   -0.339296   -0.126643
     13          6           0        6.010759    0.356710    0.147268
     14          6           0        7.186489   -0.568843   -0.151690
     15          1           0       -0.561643    2.933400    0.086458
     16          1           0       -0.229425   -1.382877    0.217046
     17          1           0        1.536599    1.959272    0.611281
     18          1           0        3.749846    1.501437    0.499293
     19          1           0        4.631989   -0.645878   -1.195290
     20          1           0        4.594252   -1.245825    0.513456
     21          1           0        6.056663    0.664746    1.214611
     22          1           0        6.094330    1.263449   -0.490737
     23          1           0        7.137092   -1.475095    0.488919
     24          1           0        8.139735   -0.038476    0.055561
     25          1           0        7.174823   -0.875365   -1.219401
     26         17           0       -3.382918    3.258921   -0.146772
     27          6           0       -2.890877   -2.175856    0.023531
     28          9           0       -2.064669   -3.041106   -0.670518
     29          9           0       -4.136199   -2.177647   -0.581233
     30          9           0       -3.032720   -2.631744    1.321625
 ---------------------------------------------------------------------
 Rotational constants (GHZ):      0.4793339      0.1511018      0.1181277
 General basis read from cards:  (6D, 7F)
 There are   370 symmetry adapted cartesian basis functions of A   symmetry.
 There are   370 symmetry adapted basis functions of A   symmetry.
   370 basis functions,   648 primitive gaussians,   370 cartesian basis functions
    72 alpha electrons       72 beta electrons
       nuclear repulsion energy      1384.4284072387 Hartrees.
 NAtoms=   30 NActive=   30 NUniq=   30 SFac= 1.00D+00 NAtFMM=   60 NAOKFM=F Big=F
 Integral buffers will be    131072 words long.
 Raffenetti 2 integral format.
 Two-electron integral symmetry is turned on.
 ------------------------------------------------------------------------------
 Polarizable Continuum Model (PCM)
 =================================
 Model                : PCM (using non-symmetric T matrix).
 Atomic radii         : SMD-Coulomb.
 Polarization charges : Total charges.
 Charge compensation  : None.
 Solution method      : On-the-fly selection.
 Cavity type          : VdW (van der Waals Surface) (Alpha=1.000).
 Cavity algorithm     : GePol (No added spheres)
                        Default sphere list used, NSphG=   30.
                        Lebedev-Laikov grids with approx.  5.0 points / Ang**2.
                        Smoothing algorithm: York/Karplus (Gamma=1.0000).
                        Polarization charges: spherical gaussians, with
                                              point-specific exponents (IZeta= 3).
                        Self-potential: point-specific (ISelfS= 7).
                        Self-field    : sphere-specific E.n sum rule (ISelfD= 2).
 1st derivatives      : Analytical E(r).r(x)/FMM algorithm (CHGder, D1EAlg=3).
                        Cavity 1st derivative terms included.
 Solvent              : Water, Eps=  78.355300 Eps(inf)=   1.777849
 ------------------------------------------------------------------------------
 ------------------------------------------------------------------------------
 Atomic radii for non-electrostatic terms: SMD-CDS.
 ------------------------------------------------------------------------------
 Nuclear repulsion after PCM non-electrostatic terms =     1384.4400888172 Hartrees.
 One-electron integrals computed using PRISM.
 NBasis=   370 RedAO= T EigKep=  1.22D-06  NBF=   370
 NBsUse=   370 1.00D-06 EigRej= -1.00D+00 NBFU=   370
 ExpMin= 4.38D-02 ExpMax= 2.52D+04 ExpMxC= 3.78D+03 IAcc=3 IRadAn=         5 AccDes= 0.00D+00
 Harris functional with IExCor= 1009 and IRadAn=       5 diagonalized for initial guess.
 HarFok:  IExCor= 1009 AccDes= 0.00D+00 IRadAn=         5 IDoV= 1 UseB2=F ITyADJ=14
 ICtDFT=  3500011 ScaDFX=  1.000000  1.000000  1.000000  1.000000
 FoFCou: FMM=F IPFlag=           0 FMFlag=      100000 FMFlg1=           0
         NFxFlg=           0 DoJE=T BraDBF=F KetDBF=T FulRan=T
         wScrn=  0.000000 ICntrl=     500 IOpCl=  0 I1Cent=   200000004 NGrid=           0
         NMat0=    1 NMatS0=      1 NMatT0=    0 NMatD0=    1 NMtDS0=    0 NMtDT0=    0
 Petite list used in FoFCou.
 Requested convergence on RMS density matrix=1.00D-08 within 128 cycles.
 Requested convergence on MAX density matrix=1.00D-06.
 Requested convergence on             energy=1.00D-06.
 No special actions if energy rises.
 Inv3:  Mode=1 IEnd=    18885243.
 Iteration    1 A*A^-1 deviation from unit magnitude is 6.66D-15 for   2492.
 Iteration    1 A*A^-1 deviation from orthogonality  is 4.23D-15 for   2079   1967.
 Iteration    1 A^-1*A deviation from unit magnitude is 7.11D-15 for   2492.
 Iteration    1 A^-1*A deviation from orthogonality  is 1.34D-09 for   1743   1730.
 Iteration    2 A*A^-1 deviation from unit magnitude is 4.00D-15 for   1323.
 Iteration    2 A*A^-1 deviation from orthogonality  is 2.89D-15 for   1494    352.
 Iteration    2 A^-1*A deviation from unit magnitude is 1.22D-15 for    687.
 Iteration    2 A^-1*A deviation from orthogonality  is 7.37D-16 for   2494   2279.
 Error on total polarization charges =  0.04416
 SCF Done:  E(RM062X) =  -1370.51825154     A.U. after   15 cycles
            NFock= 15  Conv=0.68D-08     -V/T= 2.0071
 SMD-CDS (non-electrostatic) energy       (kcal/mol) =       7.33
 (included in total energy above)

 **********************************************************************

            Population analysis using the SCF density.

 **********************************************************************

 Orbital symmetries:
       Occupied  (A) (A) (A) (A) (A) (A) (A) (A) (A) (A) (A) (A)
                 (A) (A) (A) (A) (A) (A) (A) (A) (A) (A) (A) (A)
                 (A) (A) (A) (A) (A) (A) (A) (A) (A) (A) (A) (A)
                 (A) (A) (A) (A) (A) (A) (A) (A) (A) (A) (A) (A)
                 (A) (A) (A) (A) (A) (A) (A) (A) (A) (A) (A) (A)
                 (A) (A) (A) (A) (A) (A) (A) (A) (A) (A) (A) (A)
       Virtual   (A) (A) (A) (A) (A) (A) (A) (A) (A) (A) (A) (A)
                 (A) (A) (A) (A) (A) (A) (A) (A) (A) (A) (A) (A)
                 (A) (A) (A) (A) (A) (A) (A) (A) (A) (A) (A) (A)
                 (A) (A) (A) (A) (A) (A) (A) (A) (A) (A) (A) (A)
                 (A) (A) (A) (A) (A) (A) (A) (A) (A) (A) (A) (A)
                 (A) (A) (A) (A) (A) (A) (A) (A) (A) (A) (A) (A)
                 (A) (A) (A) (A) (A) (A) (A) (A) (A) (A) (A) (A)
                 (A) (A) (A) (A) (A) (A) (A) (A) (A) (A) (A) (A)
                 (A) (A) (A) (A) (A) (A) (A) (A) (A) (A) (A) (A)
                 (A) (A) (A) (A) (A) (A) (A) (A) (A) (A) (A) (A)
                 (A) (A) (A) (A) (A) (A) (A) (A) (A) (A) (A) (A)
                 (A) (A) (A) (A) (A) (A) (A) (A) (A) (A) (A) (A)
                 (A) (A) (A) (A) (A) (A) (A) (A) (A) (A) (A) (A)
                 (A) (A) (A) (A) (A) (A) (A) (A) (A) (A) (A) (A)
                 (A) (A) (A) (A) (A) (A) (A) (A) (A) (A) (A) (A)
                 (A) (A) (A) (A) (A) (A) (A) (A) (A) (A) (A) (A)
                 (A) (A) (A) (A) (A) (A) (A) (A) (A) (A) (A) (A)
                 (A) (A) (A) (A) (A) (A) (A) (A) (A) (A) (A) (A)
                 (A) (A) (A) (A) (A) (A) (A) (A) (A) (A) (A) (A)
                 (A) (A) (A) (A) (A) (A) (A) (A) (A) (A) (A) (A)
                 (A) (A) (A) (A) (A) (A) (A) (A) (A) (A) (A) (A)
                 (A) (A) (A) (A) (A) (A) (A) (A) (A) (A) (A) (A)
                 (A) (A) (A) (A) (A) (A) (A) (A) (A) (A) (A) (A)
                 (A) (A) (A) (A) (A) (A) (A) (A) (A) (A) (A) (A)
                 (A) (A) (A) (A) (A) (A) (A) (A) (A) (A)
 The electronic state is 1-A.
 Alpha  occ. eigenvalues -- -102.68570 -25.31947 -25.31853 -25.31720 -19.61917
 Alpha  occ. eigenvalues --  -14.80997 -14.78667 -10.84572 -10.69226 -10.63597
 Alpha  occ. eigenvalues --  -10.63477 -10.61725 -10.58138 -10.58101 -10.58077
 Alpha  occ. eigenvalues --  -10.57990 -10.54574 -10.53456  -9.83197  -7.55605
 Alpha  occ. eigenvalues --   -7.54937  -7.54920  -1.45393  -1.37795  -1.37717
 Alpha  occ. eigenvalues --   -1.19181  -1.05676  -1.02763  -1.00335  -0.94809
 Alpha  occ. eigenvalues --   -0.88337  -0.86784  -0.84488  -0.81616  -0.77687
 Alpha  occ. eigenvalues --   -0.72317  -0.71939  -0.68933  -0.68886  -0.67565
 Alpha  occ. eigenvalues --   -0.66225  -0.65512  -0.63130  -0.59742  -0.58441
 Alpha  occ. eigenvalues --   -0.57711  -0.57485  -0.55957  -0.55252  -0.54408
 Alpha  occ. eigenvalues --   -0.53970  -0.53360  -0.52679  -0.52184  -0.51571
 Alpha  occ. eigenvalues --   -0.50673  -0.48391  -0.48203  -0.46155  -0.45724
 Alpha  occ. eigenvalues --   -0.44797  -0.43005  -0.42092  -0.41688  -0.39488
 Alpha  occ. eigenvalues --   -0.39207  -0.39141  -0.37954  -0.35947  -0.32524
 Alpha  occ. eigenvalues --   -0.31925  -0.28740
 Alpha virt. eigenvalues --   -0.01003  -0.00060   0.01164   0.02439   0.02571
 Alpha virt. eigenvalues --    0.03652   0.03949   0.04014   0.04536   0.05146
 Alpha virt. eigenvalues --    0.05416   0.05848   0.05909   0.06856   0.07413
 Alpha virt. eigenvalues --    0.07857   0.08100   0.08292   0.09022   0.09462
 Alpha virt. eigenvalues --    0.09770   0.10184   0.10647   0.10896   0.11771
 Alpha virt. eigenvalues --    0.12149   0.12239   0.12550   0.12742   0.13372
 Alpha virt. eigenvalues --    0.13879   0.14381   0.14465   0.14947   0.15614
 Alpha virt. eigenvalues --    0.16305   0.16736   0.17485   0.18058   0.18278
 Alpha virt. eigenvalues --    0.18425   0.18946   0.19861   0.19939   0.20151
 Alpha virt. eigenvalues --    0.20888   0.21119   0.21527   0.21799   0.22224
 Alpha virt. eigenvalues --    0.22755   0.23134   0.23699   0.24004   0.24554
 Alpha virt. eigenvalues --    0.25046   0.25293   0.25354   0.26029   0.26479
 Alpha virt. eigenvalues --    0.27257   0.27917   0.28220   0.28848   0.29142
 Alpha virt. eigenvalues --    0.29296   0.29658   0.30036   0.30586   0.30854
 Alpha virt. eigenvalues --    0.31314   0.31661   0.32233   0.32318   0.32861
 Alpha virt. eigenvalues --    0.33519   0.33979   0.34287   0.34436   0.35586
 Alpha virt. eigenvalues --    0.35760   0.36594   0.36947   0.37680   0.37854
 Alpha virt. eigenvalues --    0.37990   0.38641   0.38992   0.39505   0.40537
 Alpha virt. eigenvalues --    0.41560   0.41716   0.42808   0.43033   0.44742
 Alpha virt. eigenvalues --    0.45926   0.46423   0.47711   0.48881   0.49178
 Alpha virt. eigenvalues --    0.50711   0.51747   0.54277   0.57172   0.58445
 Alpha virt. eigenvalues --    0.60095   0.64552   0.66242   0.66838   0.69192
 Alpha virt. eigenvalues --    0.70360   0.70871   0.71531   0.72680   0.73274
 Alpha virt. eigenvalues --    0.74419   0.74625   0.76390   0.77249   0.77498
 Alpha virt. eigenvalues --    0.78767   0.79778   0.80037   0.80784   0.80963
 Alpha virt. eigenvalues --    0.81491   0.83116   0.83837   0.85292   0.86939
 Alpha virt. eigenvalues --    0.88225   0.89497   0.90234   0.91357   0.93315
 Alpha virt. eigenvalues --    0.93441   0.94438   0.96758   0.98016   0.98401
 Alpha virt. eigenvalues --    0.99654   0.99873   1.00815   1.01760   1.03375
 Alpha virt. eigenvalues --    1.04567   1.05087   1.05805   1.06245   1.06908
 Alpha virt. eigenvalues --    1.10543   1.11287   1.11619   1.12929   1.13404
 Alpha virt. eigenvalues --    1.15275   1.16175   1.16304   1.18674   1.19576
 Alpha virt. eigenvalues --    1.19913   1.21800   1.22044   1.23204   1.24639
 Alpha virt. eigenvalues --    1.27183   1.29275   1.31233   1.31437   1.33661
 Alpha virt. eigenvalues --    1.36094   1.36883   1.38537   1.39568   1.41048
 Alpha virt. eigenvalues --    1.41906   1.43898   1.46122   1.46203   1.48042
 Alpha virt. eigenvalues --    1.49479   1.50972   1.51245   1.52007   1.54467
 Alpha virt. eigenvalues --    1.55481   1.57199   1.57451   1.60119   1.60725
 Alpha virt. eigenvalues --    1.61399   1.64681   1.65260   1.68942   1.69634
 Alpha virt. eigenvalues --    1.71395   1.73405   1.74241   1.74884   1.76081
 Alpha virt. eigenvalues --    1.76656   1.77503   1.78963   1.82581   1.84700
 Alpha virt. eigenvalues --    1.85830   1.86540   1.87258   1.88220   1.88731
 Alpha virt. eigenvalues --    1.89028   1.89835   1.90257   1.90845   1.92580
 Alpha virt. eigenvalues --    1.94178   1.94754   1.96332   1.98524   1.99396
 Alpha virt. eigenvalues --    2.01618   2.02443   2.02855   2.03426   2.04151
 Alpha virt. eigenvalues --    2.04246   2.05026   2.06500   2.08501   2.09798
 Alpha virt. eigenvalues --    2.11182   2.13257   2.14815   2.16645   2.19005
 Alpha virt. eigenvalues --    2.19995   2.20550   2.20677   2.20994   2.22284
 Alpha virt. eigenvalues --    2.23597   2.27547   2.28454   2.30027   2.32196
 Alpha virt. eigenvalues --    2.35534   2.36428   2.37968   2.39660   2.40437
 Alpha virt. eigenvalues --    2.41627   2.42483   2.44104   2.50015   2.56551
 Alpha virt. eigenvalues --    2.59451   2.61158   2.63229   2.65758   2.66731
 Alpha virt. eigenvalues --    2.69752   2.72041   2.72428   2.73413   2.73793
 Alpha virt. eigenvalues --    2.77770   2.78437   2.80468   2.82963   2.86085
 Alpha virt. eigenvalues --    2.93269   2.96909   3.04578   3.11174   3.15747
 Alpha virt. eigenvalues --    3.19980   3.21347   3.25937   3.30706   3.37796
 Alpha virt. eigenvalues --    4.14918   4.24369   4.26235   4.28489   4.32665
 Alpha virt. eigenvalues --    4.36189   4.39221   4.41941   4.45233   4.47963
 Alpha virt. eigenvalues --    4.48651   4.55331   4.58038   4.64514   4.75151
 Alpha virt. eigenvalues --    5.50576   5.83088   6.37875
          Condensed to atoms (all electrons):
               1          2          3          4          5          6
     1  C   23.294645  -1.808873  -3.088039  -0.773590 -11.015179  -0.753517
     2  C   -1.808873   8.779856  -1.511992   0.865038  -0.275836  -0.173401
     3  C   -3.088039  -1.511992  16.561015  -0.950171  -4.709984   0.868570
     4  C   -0.773590   0.865038  -0.950171  12.870151  -1.787463  -2.017833
     5  C  -11.015179  -0.275836  -4.709984  -1.787463  32.236299  -9.970137
     6  C   -0.753517  -0.173401   0.868570  -2.017833  -9.970137  19.555212
     7  H    0.184045  -0.003146   0.049180  -0.001030   0.056279   0.036272
     8  N    0.035923   0.019665   0.065339   0.046469  -0.081488   0.001271
     9  C    0.279000   0.011557  -0.880623  -0.958163   1.136666  -1.075545
    10  N   -0.006029   0.013164  -0.043646  -0.084885   0.018940  -0.060014
    11  O   -0.023938   0.018770  -0.124886  -0.149609   0.300237  -0.068007
    12  C    0.017011   0.009106  -0.060650  -0.387943   0.037572  -0.105439
    13  C    0.000097  -0.000074  -0.002566   0.009029   0.004858   0.005032
    14  C    0.000067   0.000100  -0.001022  -0.008219   0.000437  -0.001160
    15  H    0.053247  -0.021338   0.283112  -0.066934   0.067064  -0.007371
    16  H    0.087260  -0.017576   0.048980  -0.012199  -0.008898   0.211929
    17  H    0.002024   0.026791  -0.090497   0.011834   0.040543  -0.001168
    18  H   -0.000008  -0.000214  -0.001043   0.013561   0.002097   0.001124
    19  H    0.000022  -0.000038  -0.001950  -0.009732   0.006042   0.000893
    20  H    0.000002  -0.000009   0.000602   0.004027  -0.002874  -0.000496
    21  H    0.000002  -0.000020  -0.000138  -0.000799   0.000794   0.000098
    22  H    0.000002   0.000018   0.000327  -0.000301  -0.000852  -0.000101
    23  H   -0.000000   0.000000   0.000009   0.000038  -0.000061  -0.000005
    24  H    0.000000  -0.000000  -0.000001  -0.000025   0.000003   0.000000
    25  H    0.000000  -0.000000  -0.000003   0.000009   0.000010   0.000000
    26  Cl  -0.176288  -0.118565   0.018326   0.023039   0.013157   0.068589
    27  C    0.758985  -0.335255   0.395607  -0.723521  -0.712128   0.157252
    28  F   -0.041384   0.023443  -0.003277   0.077043  -0.131584   0.051764
    29  F   -0.107512   0.062951   0.002380   0.024546   0.007884   0.008240
    30  F   -0.104141   0.022036   0.001455   0.032244  -0.206747   0.262597
               7          8          9         10         11         12
     1  C    0.184045   0.035923   0.279000  -0.006029  -0.023938   0.017011
     2  C   -0.003146   0.019665   0.011557   0.013164   0.018770   0.009106
     3  C    0.049180   0.065339  -0.880623  -0.043646  -0.124886  -0.060650
     4  C   -0.001030   0.046469  -0.958163  -0.084885  -0.149609  -0.387943
     5  C    0.056279  -0.081488   1.136666   0.018940   0.300237   0.037572
     6  C    0.036272   0.001271  -1.075545  -0.060014  -0.068007  -0.105439
     7  H    0.412687   0.000030   0.000313  -0.000002   0.000003   0.000000
     8  N    0.000030   7.661116   0.201775  -0.320999  -0.140304  -0.095410
     9  C    0.000313   0.201775   6.148093   0.419847   0.627805  -0.558694
    10  N   -0.000002  -0.320999   0.419847   7.535354  -0.194725   0.305002
    11  O    0.000003  -0.140304   0.627805  -0.194725   8.551541  -0.062806
    12  C    0.000000  -0.095410  -0.558694   0.305002  -0.062806   6.746692
    13  C    0.000000   0.004440   0.116964  -0.073539   0.014407  -0.318430
    14  C    0.000000  -0.002972  -0.056923  -0.000320  -0.003087   0.022201
    15  H   -0.000110  -0.007522  -0.002398   0.000564  -0.000060  -0.000138
    16  H   -0.000107  -0.008065  -0.010354  -0.001027  -0.003554   0.000642
    17  H   -0.000000   0.243323  -0.014181   0.015310   0.007375   0.001683
    18  H    0.000000   0.019445   0.016741   0.250109   0.008570  -0.058934
    19  H    0.000000   0.001523  -0.023578  -0.054146   0.004418   0.421106
    20  H   -0.000000  -0.002276  -0.021314  -0.054196   0.003672   0.424570
    21  H   -0.000000   0.000636   0.005756   0.006704  -0.000147  -0.092001
    22  H   -0.000000  -0.000590  -0.015760   0.006208  -0.000206  -0.061136
    23  H   -0.000000   0.000021   0.000146   0.000516  -0.000048  -0.009917
    24  H   -0.000000   0.000010  -0.001304   0.000534   0.000006   0.026968
    25  H   -0.000000   0.000020   0.001113   0.000488  -0.000047  -0.008037
    26  Cl   0.001637  -0.001851  -0.012039  -0.000103  -0.000130  -0.000352
    27  C   -0.020936   0.001755  -0.062400   0.000544  -0.004572  -0.004573
    28  F    0.000152  -0.000530   0.000878  -0.000008  -0.000305   0.000135
    29  F    0.003856   0.000031   0.000745  -0.000001  -0.000006   0.000010
    30  F    0.000022  -0.000165  -0.004413  -0.000012   0.000107  -0.000085
              13         14         15         16         17         18
     1  C    0.000097   0.000067   0.053247   0.087260   0.002024  -0.000008
     2  C   -0.000074   0.000100  -0.021338  -0.017576   0.026791  -0.000214
     3  C   -0.002566  -0.001022   0.283112   0.048980  -0.090497  -0.001043
     4  C    0.009029  -0.008219  -0.066934  -0.012199   0.011834   0.013561
     5  C    0.004858   0.000437   0.067064  -0.008898   0.040543   0.002097
     6  C    0.005032  -0.001160  -0.007371   0.211929  -0.001168   0.001124
     7  H    0.000000   0.000000  -0.000110  -0.000107  -0.000000   0.000000
     8  N    0.004440  -0.002972  -0.007522  -0.008065   0.243323   0.019445
     9  C    0.116964  -0.056923  -0.002398  -0.010354  -0.014181   0.016741
    10  N   -0.073539  -0.000320   0.000564  -0.001027   0.015310   0.250109
    11  O    0.014407  -0.003087  -0.000060  -0.003554   0.007375   0.008570
    12  C   -0.318430   0.022201  -0.000138   0.000642   0.001683  -0.058934
    13  C    6.089054  -0.044840   0.000009   0.000098   0.000545  -0.000684
    14  C   -0.044840   5.657112   0.000000   0.000001  -0.000014  -0.003409
    15  H    0.000009   0.000000   0.415562  -0.000079   0.003312   0.000003
    16  H    0.000098   0.000001  -0.000079   0.419150  -0.000103   0.000001
    17  H    0.000545  -0.000014   0.003312  -0.000103   0.254758   0.001978
    18  H   -0.000684  -0.003409   0.000003   0.000001   0.001978   0.265443
    19  H   -0.036901   0.002305   0.000000   0.000000   0.000008   0.002086
    20  H   -0.045333   0.003197  -0.000000  -0.000001   0.000000   0.002021
    21  H    0.436223  -0.041846  -0.000000  -0.000000   0.000001   0.000702
    22  H    0.419373  -0.031923   0.000000  -0.000000   0.000001   0.000483
    23  H   -0.061116   0.414324  -0.000000   0.000000   0.000000   0.000000
    24  H   -0.085753   0.410654  -0.000000  -0.000000  -0.000000  -0.000003
    25  H   -0.063301   0.413757  -0.000000   0.000000  -0.000000   0.000001
    26  Cl  -0.000000  -0.000001   0.001233   0.000219  -0.000292   0.000003
    27  C    0.000178  -0.000022   0.002399   0.007617   0.000040   0.000002
    28  F    0.000004   0.000000  -0.000000   0.002987  -0.000000   0.000000
    29  F   -0.000000   0.000000  -0.000001   0.000188  -0.000000  -0.000000
    30  F    0.000001  -0.000000   0.000000  -0.000160  -0.000000  -0.000000
              19         20         21         22         23         24
     1  C    0.000022   0.000002   0.000002   0.000002  -0.000000   0.000000
     2  C   -0.000038  -0.000009  -0.000020   0.000018   0.000000  -0.000000
     3  C   -0.001950   0.000602  -0.000138   0.000327   0.000009  -0.000001
     4  C   -0.009732   0.004027  -0.000799  -0.000301   0.000038  -0.000025
     5  C    0.006042  -0.002874   0.000794  -0.000852  -0.000061   0.000003
     6  C    0.000893  -0.000496   0.000098  -0.000101  -0.000005   0.000000
     7  H    0.000000  -0.000000  -0.000000  -0.000000  -0.000000  -0.000000
     8  N    0.001523  -0.002276   0.000636  -0.000590   0.000021   0.000010
     9  C   -0.023578  -0.021314   0.005756  -0.015760   0.000146  -0.001304
    10  N   -0.054146  -0.054196   0.006704   0.006208   0.000516   0.000534
    11  O    0.004418   0.003672  -0.000147  -0.000206  -0.000048   0.000006
    12  C    0.421106   0.424570  -0.092001  -0.061136  -0.009917   0.026968
    13  C   -0.036901  -0.045333   0.436223   0.419373  -0.061116  -0.085753
    14  C    0.002305   0.003197  -0.041846  -0.031923   0.414324   0.410654
    15  H    0.000000  -0.000000  -0.000000   0.000000  -0.000000  -0.000000
    16  H    0.000000  -0.000001  -0.000000  -0.000000   0.000000  -0.000000
    17  H    0.000008   0.000000   0.000001   0.000001   0.000000  -0.000000
    18  H    0.002086   0.002021   0.000702   0.000483   0.000000  -0.000003
    19  H    0.492802  -0.038318   0.003628  -0.005260  -0.000322  -0.000056
    20  H   -0.038318   0.494641  -0.005339   0.003669   0.002600  -0.000054
    21  H    0.003628  -0.005339   0.488845  -0.030521  -0.004566  -0.003004
    22  H   -0.005260   0.003669  -0.030521   0.489290   0.003768  -0.002987
    23  H   -0.000322   0.002600  -0.004566   0.003768   0.486872  -0.023798
    24  H   -0.000056  -0.000054  -0.003004  -0.002987  -0.023798   0.480851
    25  H    0.002627  -0.000335   0.003771  -0.004569  -0.028344  -0.023791
    26  Cl  -0.000000   0.000000   0.000000  -0.000000   0.000000   0.000000
    27  C   -0.000011   0.000005   0.000000  -0.000000  -0.000000  -0.000000
    28  F    0.000000  -0.000000   0.000000  -0.000000  -0.000000   0.000000
    29  F    0.000000  -0.000000   0.000000  -0.000000  -0.000000  -0.000000
    30  F    0.000000   0.000000   0.000000  -0.000000  -0.000000   0.000000
              25         26         27         28         29         30
     1  C    0.000000  -0.176288   0.758985  -0.041384  -0.107512  -0.104141
     2  C   -0.000000  -0.118565  -0.335255   0.023443   0.062951   0.022036
     3  C   -0.000003   0.018326   0.395607  -0.003277   0.002380   0.001455
     4  C    0.000009   0.023039  -0.723521   0.077043   0.024546   0.032244
     5  C    0.000010   0.013157  -0.712128  -0.131584   0.007884  -0.206747
     6  C    0.000000   0.068589   0.157252   0.051764   0.008240   0.262597
     7  H   -0.000000   0.001637  -0.020936   0.000152   0.003856   0.000022
     8  N    0.000020  -0.001851   0.001755  -0.000530   0.000031  -0.000165
     9  C    0.001113  -0.012039  -0.062400   0.000878   0.000745  -0.004413
    10  N    0.000488  -0.000103   0.000544  -0.000008  -0.000001  -0.000012
    11  O   -0.000047  -0.000130  -0.004572  -0.000305  -0.000006   0.000107
    12  C   -0.008037  -0.000352  -0.004573   0.000135   0.000010  -0.000085
    13  C   -0.063301  -0.000000   0.000178   0.000004  -0.000000   0.000001
    14  C    0.413757  -0.000001  -0.000022   0.000000   0.000000  -0.000000
    15  H   -0.000000   0.001233   0.002399  -0.000000  -0.000001   0.000000
    16  H    0.000000   0.000219   0.007617   0.002987   0.000188  -0.000160
    17  H   -0.000000  -0.000292   0.000040  -0.000000  -0.000000  -0.000000
    18  H    0.000001   0.000003   0.000002   0.000000  -0.000000  -0.000000
    19  H    0.002627  -0.000000  -0.000011   0.000000   0.000000   0.000000
    20  H   -0.000335   0.000000   0.000005  -0.000000  -0.000000   0.000000
    21  H    0.003771   0.000000   0.000000   0.000000   0.000000   0.000000
    22  H   -0.004569  -0.000000  -0.000000  -0.000000  -0.000000  -0.000000
    23  H   -0.028344   0.000000  -0.000000  -0.000000  -0.000000  -0.000000
    24  H   -0.023791   0.000000  -0.000000   0.000000  -0.000000   0.000000
    25  H    0.486653  -0.000000   0.000000   0.000000  -0.000000   0.000000
    26  Cl  -0.000000  16.980629  -0.002840  -0.000057  -0.000594  -0.000126
    27  C    0.000000  -0.002840   4.931804   0.156142   0.133198   0.141365
    28  F    0.000000  -0.000057   0.156142   9.230258  -0.032717  -0.037946
    29  F   -0.000000  -0.000594   0.133198  -0.032717   9.241642  -0.039013
    30  F    0.000000  -0.000126   0.141365  -0.037946  -0.039013   9.202156
 Mulliken charges:
               1
     1  C   -0.813831
     2  C    0.413843
     3  C   -0.824412
     4  C   -0.044612
     5  C    0.974349
     6  C   -0.994649
     7  H    0.280854
     8  N   -0.640622
     9  C    0.730289
    10  N   -0.679631
    11  O   -0.760474
    12  C   -0.188151
    13  C   -0.367776
    14  C   -0.728397
    15  H    0.279446
    16  H    0.283050
    17  H    0.496728
    18  H    0.479925
    19  H    0.232849
    20  H    0.231539
    21  H    0.231224
    22  H    0.231070
    23  H    0.219883
    24  H    0.221750
    25  H    0.219978
    26  Cl   0.206406
    27  C    1.179364
    28  F   -0.294997
    29  F   -0.305823
    30  F   -0.269175
 Sum of Mulliken charges =  -0.00000
 Mulliken charges with hydrogens summed into heavy atoms:
               1
     1  C   -0.532977
     2  C    0.413843
     3  C   -0.544967
     4  C   -0.044612
     5  C    1.257400
     6  C   -0.994649
     8  N   -0.143894
     9  C    0.730289
    10  N   -0.199706
    11  O   -0.760474
    12  C    0.276237
    13  C    0.094518
    14  C   -0.066785
    26  Cl   0.206406
    27  C    1.179364
    28  F   -0.294997
    29  F   -0.305823
    30  F   -0.269175
 Electronic spatial extent (au):  <R**2>=           8490.0461
 Charge=             -0.0000 electrons
 Dipole moment (field-independent basis, Debye):
    X=              5.6843    Y=              6.9729    Z=              2.2913  Tot=              9.2835
 Quadrupole moment (field-independent basis, Debye-Ang):
   XX=            -94.4181   YY=           -113.7049   ZZ=           -115.8115
   XY=             11.4880   XZ=              5.2108   YZ=              1.2337
 Traceless Quadrupole moment (field-independent basis, Debye-Ang):
   XX=             13.5600   YY=             -5.7267   ZZ=             -7.8333
   XY=             11.4880   XZ=              5.2108   YZ=              1.2337
 Octapole moment (field-independent basis, Debye-Ang**2):
  XXX=             97.6348  YYY=             -3.7207  ZZZ=             -2.0544  XYY=             22.7101
  XXY=             31.2454  XXZ=             12.6460  XZZ=             -6.5797  YZZ=            -10.8887
  YYZ=              9.3243  XYZ=              1.6479
 Hexadecapole moment (field-independent basis, Debye-Ang**3):
 XXXX=          -7805.7486 YYYY=          -2192.5879 ZZZZ=           -235.6427 XXXY=            219.5089
 XXXZ=             51.4602 YYYX=            150.8105 YYYZ=              7.7711 ZZZX=              3.2251
 ZZZY=              4.1281 XXYY=          -1831.0500 XXZZ=          -1461.6069 YYZZ=           -419.3181
 XXYZ=              7.0727 YYXZ=             23.9153 ZZXY=             37.8624
 N-N= 1.384440088817D+03 E-N=-5.993143564461D+03  KE= 1.360843659620D+03
 D1PCM: PCM CHGder 1st derivatives, ID1Alg=3 FixD1E=F DoIter=F DoCFld=F I1PDM=0.
 Calling FoFJK, ICntrl=      2127 FMM=F ISym2X=0 I1Cent= 0 IOpClX= 0 NMat=1 NMatS=1 NMatT=0.
 ***** Axes restored to original set *****
 -------------------------------------------------------------------
 Center     Atomic                   Forces (Hartrees/Bohr)
 Number     Number              X              Y              Z
 -------------------------------------------------------------------
      1        6          -0.006625147    0.015638457   -0.004367221
      2        6           0.015603845    0.006801637    0.001683498
      3        6          -0.000482729   -0.003564023   -0.000352771
      4        6           0.005910516    0.004590303    0.004219388
      5        6          -0.005153064    0.007728909   -0.002704546
      6        6          -0.002915057    0.033095017   -0.002963829
      7        1          -0.002188422    0.002701081   -0.000736088
      8        7          -0.017480339   -0.017148162   -0.014993505
      9        6           0.013410202   -0.008310137    0.003087020
     10        7          -0.017413116   -0.026650913   -0.013701186
     11        8          -0.002589378    0.036843018    0.006904337
     12        6           0.005817709    0.005905783    0.004140902
     13        6          -0.004208033   -0.004921398   -0.003008590
     14        6           0.004476658    0.001272607    0.002422070
     15        1           0.002178489   -0.002442443    0.001514258
     16        1           0.009420171   -0.001090967    0.002670381
     17        1          -0.004959959    0.012427656    0.002143320
     18        1           0.002015938    0.013935444    0.003738825
     19        1           0.003752213   -0.001823923   -0.009707325
     20        1          -0.004738454   -0.005227058    0.007804551
     21        1          -0.005043000    0.002252001    0.008404308
     22        1           0.002851583    0.005460939   -0.007950715
     23        1          -0.003221636   -0.006330532    0.007456301
     24        1          -0.005348049    0.009459412   -0.000750461
     25        1           0.004565298   -0.003176011   -0.008662565
     26       17           0.006503624    0.004680522    0.001252000
     27        6           0.002002728   -0.052539742    0.009753268
     28        9          -0.024408165   -0.015463050   -0.032902648
     29        9           0.043673582   -0.013341166   -0.003834390
     30        9          -0.015408006   -0.000763260    0.039441411
 -------------------------------------------------------------------
 Cartesian Forces:  Max     0.052539742 RMS     0.013234504

 GradGradGradGradGradGradGradGradGradGradGradGradGradGradGradGradGradGrad
 Berny optimization.
 FormGI is forming the generalized inverse of G from B-inverse, IUseBI=4.
 Internal  Forces:  Max     0.083211682 RMS     0.011877388
 Search for a local minimum.
 Step number   1 out of a maximum of  157
 All quantities printed in internal units (Hartrees-Bohrs-Radians)
 Mixed Optimization -- RFO/linear search
 Second derivative matrix not updated -- first step.
 ITU=  0
     Eigenvalues ---    0.00230   0.00329   0.00423   0.00994   0.01161
     Eigenvalues ---    0.01296   0.01468   0.01631   0.01689   0.01920
     Eigenvalues ---    0.01944   0.02029   0.02060   0.02098   0.02102
     Eigenvalues ---    0.02124   0.02137   0.02156   0.02178   0.03755
     Eigenvalues ---    0.04435   0.04933   0.05553   0.05673   0.05783
     Eigenvalues ---    0.08033   0.09179   0.10768   0.11201   0.11975
     Eigenvalues ---    0.12669   0.16000   0.16000   0.16000   0.16000
     Eigenvalues ---    0.16000   0.16000   0.16000   0.16000   0.16605
     Eigenvalues ---    0.21964   0.22000   0.22000   0.22004   0.23452
     Eigenvalues ---    0.23477   0.23501   0.25000   0.25000   0.25000
     Eigenvalues ---    0.25000   0.25000   0.25000   0.25000   0.25000
     Eigenvalues ---    0.29145   0.29805   0.30033   0.32337   0.32337
     Eigenvalues ---    0.32405   0.32405   0.32504   0.32505   0.32561
     Eigenvalues ---    0.35608   0.35700   0.36692   0.37887   0.39572
     Eigenvalues ---    0.40626   0.41157   0.42437   0.42458   0.43936
     Eigenvalues ---    0.44749   0.45525   0.46257   0.48306   0.48538
     Eigenvalues ---    0.48539   0.51111   0.52290   0.95126
 RFO step:  Lambda=-6.09328817D-02 EMin= 2.30000000D-03
 Linear search not attempted -- first point.
 Maximum step size (   0.300) exceeded in Quadratic search.
    -- Step size scaled by   0.657
 Iteration  1 RMS(Cart)=  0.06081674 RMS(Int)=  0.00338173
 Iteration  2 RMS(Cart)=  0.00630824 RMS(Int)=  0.00003753
 Iteration  3 RMS(Cart)=  0.00000506 RMS(Int)=  0.00003747
 Iteration  4 RMS(Cart)=  0.00000000 RMS(Int)=  0.00003747
 Variable       Old X    -DE/DX   Delta X   Delta X   Delta X     New X
                                 (Linear)    (Quad)   (Total)
    R1        2.63422  -0.00540   0.00000  -0.00629  -0.00630   2.62792
    R2        2.65217  -0.01672   0.00000  -0.02151  -0.02146   2.63071
    R3        2.04553   0.00316   0.00000   0.00496   0.00496   2.05050
    R4        2.63794  -0.00720   0.00000  -0.00854  -0.00859   2.62935
    R5        3.31597  -0.00811   0.00000  -0.01474  -0.01474   3.30123
    R6        2.66031  -0.00934   0.00000  -0.01210  -0.01215   2.64815
    R7        2.04700   0.00275   0.00000   0.00433   0.00433   2.05132
    R8        2.67759  -0.01898   0.00000  -0.02590  -0.02590   2.65169
    R9        2.72139  -0.03376   0.00000  -0.04856  -0.04856   2.67283
   R10        2.65897  -0.01682   0.00000  -0.02236  -0.02230   2.63667
   R11        2.03013   0.00685   0.00000   0.01052   0.01052   2.04065
   R12        3.27077  -0.08321   0.00000  -0.24077  -0.24077   3.03001
   R13        2.58760   0.00318   0.00000   0.00365   0.00365   2.59126
   R14        1.95044  -0.01283   0.00000  -0.01736  -0.01736   1.93308
   R15        2.57622  -0.00952   0.00000  -0.01070  -0.01070   2.56552
   R16        2.30656   0.03736   0.00000   0.02424   0.02424   2.33080
   R17        2.74530   0.00024   0.00000   0.00036   0.00036   2.74566
   R18        1.95070  -0.01447   0.00000  -0.01959  -0.01959   1.93112
   R19        2.89702  -0.00724   0.00000  -0.01350  -0.01350   2.88352
   R20        2.10231  -0.01020   0.00000  -0.01744  -0.01744   2.08488
   R21        2.10232  -0.01016   0.00000  -0.01736  -0.01736   2.08496
   R22        2.88353   0.00104   0.00000   0.00191   0.00191   2.88544
   R23        2.10110  -0.00962   0.00000  -0.01641  -0.01641   2.08468
   R24        2.10109  -0.00961   0.00000  -0.01640  -0.01640   2.08470
   R25        2.09931  -0.01005   0.00000  -0.01711  -0.01711   2.08220
   R26        2.09829  -0.01061   0.00000  -0.01803  -0.01803   2.08026
   R27        2.09930  -0.01005   0.00000  -0.01710  -0.01710   2.08219
   R28        2.61369  -0.04332   0.00000  -0.05207  -0.05207   2.56162
   R29        2.61614  -0.04574   0.00000  -0.05522  -0.05522   2.56092
   R30        2.61371  -0.04165   0.00000  -0.05007  -0.05007   2.56363
    A1        2.09858  -0.01497   0.00000  -0.03292  -0.03287   2.06571
    A2        2.07501   0.00912   0.00000   0.02132   0.02129   2.09630
    A3        2.10960   0.00585   0.00000   0.01160   0.01158   2.12117
    A4        2.09686   0.00620   0.00000   0.01589   0.01583   2.11269
    A5        2.09310  -0.00294   0.00000  -0.00760  -0.00757   2.08552
    A6        2.09323  -0.00326   0.00000  -0.00829  -0.00826   2.08496
    A7        2.11675  -0.00749   0.00000  -0.01515  -0.01525   2.10149
    A8        2.07183   0.00608   0.00000   0.01453   0.01458   2.08642
    A9        2.09460   0.00140   0.00000   0.00062   0.00067   2.09528
   A10        2.05755   0.00887   0.00000   0.01927   0.01922   2.07677
   A11        2.05139  -0.00268   0.00000  -0.00593  -0.00591   2.04548
   A12        2.17424  -0.00619   0.00000  -0.01334  -0.01332   2.16092
   A13        2.11297  -0.01146   0.00000  -0.02720  -0.02715   2.08582
   A14        2.14003  -0.00145   0.00000  -0.00774  -0.00777   2.13226
   A15        2.03019   0.01291   0.00000   0.03495   0.03492   2.06511
   A16        2.08366   0.01885   0.00000   0.04011   0.04021   2.12387
   A17        2.11794  -0.01087   0.00000  -0.02312  -0.02317   2.09477
   A18        2.08158  -0.00797   0.00000  -0.01699  -0.01705   2.06453
   A19        2.23549  -0.00776   0.00000  -0.01814  -0.01814   2.21735
   A20        2.02171   0.00005   0.00000  -0.00232  -0.00233   2.01938
   A21        2.02599   0.00771   0.00000   0.02046   0.02046   2.04645
   A22        2.08452  -0.02595   0.00000  -0.05481  -0.05482   2.02970
   A23        2.11792   0.00843   0.00000   0.01782   0.01781   2.13573
   A24        2.08075   0.01752   0.00000   0.03700   0.03699   2.11774
   A25        2.12691  -0.00318   0.00000  -0.00744  -0.00744   2.11947
   A26        2.07880   0.00320   0.00000   0.00851   0.00851   2.08731
   A27        2.07747  -0.00002   0.00000  -0.00107  -0.00107   2.07640
   A28        1.93750  -0.00428   0.00000  -0.00895  -0.00894   1.92856
   A29        1.90620   0.00154   0.00000   0.00408   0.00409   1.91029
   A30        1.90619   0.00155   0.00000   0.00422   0.00423   1.91042
   A31        1.90560   0.00171   0.00000   0.00460   0.00461   1.91021
   A32        1.90562   0.00177   0.00000   0.00489   0.00489   1.91051
   A33        1.90240  -0.00229   0.00000  -0.00892  -0.00893   1.89348
   A34        1.94142  -0.00186   0.00000  -0.00319  -0.00318   1.93824
   A35        1.91064  -0.00010   0.00000  -0.00182  -0.00182   1.90882
   A36        1.91064  -0.00015   0.00000  -0.00208  -0.00208   1.90856
   A37        1.90108   0.00186   0.00000   0.00730   0.00730   1.90838
   A38        1.90109   0.00187   0.00000   0.00729   0.00728   1.90838
   A39        1.89844  -0.00161   0.00000  -0.00757  -0.00761   1.89083
   A40        1.92578   0.00209   0.00000   0.00600   0.00598   1.93177
   A41        1.91260   0.00284   0.00000   0.00888   0.00884   1.92145
   A42        1.92578   0.00204   0.00000   0.00586   0.00583   1.93162
   A43        1.89673  -0.00229   0.00000  -0.00639  -0.00642   1.89031
   A44        1.90570  -0.00256   0.00000  -0.00843  -0.00844   1.89725
   A45        1.89674  -0.00227   0.00000  -0.00634  -0.00637   1.89037
   A46        1.91009   0.00880   0.00000   0.01881   0.01867   1.92876
   A47        1.95271   0.00103   0.00000   0.00202   0.00198   1.95468
   A48        1.91009   0.01129   0.00000   0.02376   0.02362   1.93370
   A49        1.89371  -0.00513   0.00000  -0.01069  -0.01073   1.88297
   A50        1.90289  -0.00972   0.00000  -0.02022  -0.02045   1.88244
   A51        1.89369  -0.00688   0.00000  -0.01497  -0.01501   1.87868
    D1        0.00002   0.00039   0.00000   0.00310   0.00310   0.00312
    D2        3.14159  -0.00004   0.00000  -0.00035  -0.00036   3.14123
    D3       -3.14159   0.00031   0.00000   0.00246   0.00247  -3.13911
    D4       -0.00001  -0.00012   0.00000  -0.00099  -0.00099  -0.00100
    D5       -0.00000  -0.00008   0.00000  -0.00050  -0.00046  -0.00046
    D6       -3.14158  -0.00044   0.00000  -0.00373  -0.00373   3.13788
    D7       -3.14159   0.00000   0.00000   0.00016   0.00018  -3.14141
    D8        0.00002  -0.00036   0.00000  -0.00307  -0.00309  -0.00307
    D9       -0.00003  -0.00039   0.00000  -0.00309  -0.00311  -0.00314
   D10       -3.14159  -0.00036   0.00000  -0.00282  -0.00284   3.13875
   D11        3.14158   0.00005   0.00000   0.00036   0.00035  -3.14125
   D12        0.00002   0.00008   0.00000   0.00063   0.00062   0.00064
   D13        0.00003   0.00006   0.00000   0.00045   0.00041   0.00044
   D14       -3.14158   0.00057   0.00000   0.00472   0.00472  -3.13686
   D15       -3.14159   0.00003   0.00000   0.00018   0.00014  -3.14145
   D16       -0.00002   0.00054   0.00000   0.00445   0.00445   0.00443
   D17       -0.00002   0.00025   0.00000   0.00218   0.00217   0.00215
   D18        3.14156   0.00033   0.00000   0.00282   0.00283  -3.13880
   D19       -3.14159  -0.00029   0.00000  -0.00242  -0.00244   3.13916
   D20       -0.00000  -0.00021   0.00000  -0.00177  -0.00179  -0.00179
   D21       -2.77550  -0.00056   0.00000  -0.00514  -0.00514  -2.78064
   D22        0.36611  -0.00129   0.00000  -0.01130  -0.01126   0.35485
   D23        0.36606  -0.00002   0.00000  -0.00056  -0.00060   0.36546
   D24       -2.77550  -0.00075   0.00000  -0.00672  -0.00673  -2.78223
   D25        0.00001  -0.00025   0.00000  -0.00217  -0.00218  -0.00217
   D26        3.14158   0.00011   0.00000   0.00099   0.00104  -3.14056
   D27       -3.14158  -0.00032   0.00000  -0.00277  -0.00280   3.13880
   D28       -0.00001   0.00003   0.00000   0.00039   0.00041   0.00041
   D29        2.50225   0.00011   0.00000   0.00120   0.00110   2.50334
   D30        0.40277  -0.00002   0.00000   0.00070   0.00067   0.40344
   D31       -1.69668   0.00038   0.00000   0.00224   0.00229  -1.69439
   D32       -0.63933  -0.00025   0.00000  -0.00202  -0.00207  -0.64139
   D33       -2.73880  -0.00038   0.00000  -0.00253  -0.00249  -2.74129
   D34        1.44494   0.00002   0.00000  -0.00098  -0.00088   1.44406
   D35        3.14158  -0.00041   0.00000  -0.00343  -0.00343   3.13815
   D36       -0.00004   0.00022   0.00000   0.00160   0.00157   0.00153
   D37       -0.00004   0.00032   0.00000   0.00274   0.00277   0.00274
   D38        3.14153   0.00095   0.00000   0.00777   0.00777  -3.13389
   D39        3.14154   0.00042   0.00000   0.00340   0.00341  -3.13823
   D40       -0.00004   0.00031   0.00000   0.00244   0.00245   0.00242
   D41       -0.00002  -0.00019   0.00000  -0.00152  -0.00153  -0.00155
   D42        3.14159  -0.00031   0.00000  -0.00248  -0.00249   3.13910
   D43        3.14157  -0.00011   0.00000  -0.00093  -0.00092   3.14065
   D44        1.03950  -0.00055   0.00000  -0.00366  -0.00365   1.03584
   D45       -1.03952   0.00040   0.00000   0.00225   0.00224  -1.03727
   D46       -0.00003  -0.00000   0.00000   0.00003   0.00003  -0.00000
   D47       -2.10211  -0.00044   0.00000  -0.00270  -0.00270  -2.10481
   D48        2.10206   0.00051   0.00000   0.00320   0.00320   2.10526
   D49        3.14156   0.00003   0.00000   0.00023   0.00023  -3.14139
   D50        1.03972  -0.00104   0.00000  -0.00565  -0.00565   1.03408
   D51       -1.03977   0.00107   0.00000   0.00593   0.00593  -1.03384
   D52       -1.03919   0.00036   0.00000   0.00266   0.00266  -1.03653
   D53       -3.14103  -0.00070   0.00000  -0.00322  -0.00322   3.13894
   D54        1.06266   0.00141   0.00000   0.00836   0.00835   1.07101
   D55        1.03913  -0.00035   0.00000  -0.00254  -0.00254   1.03659
   D56       -1.06271  -0.00142   0.00000  -0.00843  -0.00842  -1.07113
   D57        3.14098   0.00069   0.00000   0.00315   0.00315  -3.13905
   D58       -1.05373   0.00023   0.00000   0.00126   0.00127  -1.05246
   D59        3.14159  -0.00003   0.00000  -0.00016  -0.00016   3.14143
   D60        1.05371  -0.00027   0.00000  -0.00155  -0.00156   1.05215
   D61        1.05374   0.00015   0.00000   0.00178   0.00178   1.05552
   D62       -1.03413  -0.00010   0.00000   0.00036   0.00035  -1.03378
   D63       -3.12201  -0.00035   0.00000  -0.00103  -0.00104  -3.12305
   D64        3.12199   0.00036   0.00000   0.00108   0.00109   3.12308
   D65        1.03412   0.00011   0.00000  -0.00035  -0.00034   1.03378
   D66       -1.05376  -0.00014   0.00000  -0.00174  -0.00174  -1.05550
         Item               Value     Threshold  Converged?
 Maximum Force            0.083212     0.000450     NO 
 RMS     Force            0.011877     0.000300     NO 
 Maximum Displacement     0.292672     0.001800     NO 
 RMS     Displacement     0.065506     0.001200     NO 
 Predicted change in Energy=-2.964159D-02
 GradGradGradGradGradGradGradGradGradGradGradGradGradGradGradGradGradGrad

                          Input orientation:                          
 ---------------------------------------------------------------------
 Center     Atomic      Atomic             Coordinates (Angstroms)
 Number     Number       Type             X           Y           Z
 ---------------------------------------------------------------------
      1          6           0       -4.245464    3.085380   -0.714319
      2          6           0       -4.135798    1.721315   -0.466995
      3          6           0       -2.939821    1.166498   -0.022262
      4          6           0       -1.814942    1.976729    0.182515
      5          6           0       -1.914253    3.353966   -0.067213
      6          6           0       -3.125583    3.886601   -0.509644
      7          1           0       -5.186244    3.502247   -1.058621
      8          7           0       -0.633177    1.341119    0.629693
      9          6           0        0.433529    1.929202    1.259437
     10          7           0        1.459015    1.107122    1.599555
     11          8           0        0.467679    3.135873    1.512561
     12          6           0        2.642614    1.611444    2.274674
     13          6           0        3.630936    0.479055    2.537854
     14          6           0        4.880325    0.995355    3.247723
     15          1           0       -2.882267    0.098928    0.165684
     16          1           0       -1.079529    4.024990    0.070887
     17          1           0       -0.581987    0.332893    0.464541
     18          1           0        1.401754    0.110973    1.378891
     19          1           0        2.350140    2.073803    3.232737
     20          1           0        3.123771    2.380970    1.647287
     21          1           0        3.920373    0.015935    1.579354
     22          1           0        3.147188   -0.290455    3.163023
     23          1           0        5.392145    1.753044    2.632884
     24          1           0        5.581562    0.166523    3.429732
     25          1           0        4.617969    1.446269    4.218248
     26         17           0       -5.522867    0.688335   -0.713524
     27          6           0       -3.205953    5.463740   -0.787318
     28          9           0       -2.466254    6.144405    0.122108
     29          9           0       -4.477770    5.926815   -0.719848
     30          9           0       -2.725201    5.760708   -2.020645
 ---------------------------------------------------------------------
                    Distance matrix (angstroms):
                    1          2          3          4          5
     1  C    0.000000
     2  C    1.390637   0.000000
     3  C    2.421932   1.391391   0.000000
     4  C    2.817952   2.423526   1.401343   0.000000
     5  C    2.434220   2.785792   2.416366   1.403213   0.000000
     6  C    1.392113   2.389732   2.769659   2.417535   1.395265
     7  H    1.085076   2.150623   3.402379   3.902987   3.422105
     8  N    4.230535   3.689936   2.403361   1.414403   2.485636
     9  C    5.208208   4.889022   3.688355   2.493520   3.049924
    10  N    6.465957   5.995816   4.688665   3.671922   4.382393
    11  O    5.212989   5.206882   4.224356   2.884960   2.866505
    12  C    7.651940   7.312708   6.052890   4.937648   5.411641
    13  C    8.911074   8.419887   7.085311   6.119496   6.767615
    14  C   10.165923   9.778376   8.478017   7.428673   7.919479
    15  H    3.398766   2.145638   1.085514   2.160001   3.403904
    16  H    3.394489   3.864844   3.411795   2.179143   1.079866
    17  H    4.731486   3.927474   2.547795   2.074105   3.344335
    18  H    6.717120   6.055162   4.682589   3.906341   4.858408
    19  H    7.752711   7.475270   6.277095   5.163447   5.541980
    20  H    7.770392   7.589907   6.405427   5.167190   5.409984
    21  H    9.020162   8.485150   7.138013   6.220105   6.920730
    22  H    9.004517   8.382489   7.022850   6.216613   7.023846
    23  H   10.288945  10.019579   8.764445   7.615540   7.952165
    24  H   11.057274  10.584373   9.248253   8.278256   8.864291
    25  H   10.275083   9.932552   8.670662   7.612546   8.042040
    26  Cl   2.716171   1.746935   2.716359   4.026357   4.532703
    27  C    2.596633   3.869491   4.372919   3.877464   2.576467
    28  F    3.636320   4.764257   5.002466   4.218693   2.850806
    29  F    2.850920   4.226951   5.050993   4.848514   3.690136
    30  F    3.342913   4.551957   5.014616   4.472246   3.204051
                    6          7          8          9         10
     6  C    0.000000
     7  H    2.166894   0.000000
     8  N    3.740275   5.315195   0.000000
     9  C    4.430388   6.279309   1.371234   0.000000
    10  N    5.761316   7.547318   2.317899   1.357615   0.000000
    11  O    4.190995   6.221902   2.283087   1.233407   2.259679
    12  C    6.797122   8.716480   3.675574   2.451883   1.452939
    13  C    8.157767   9.990846   4.750463   3.736401   2.447879
    14  C    9.304390  11.232316   6.113292   4.959773   3.799251
    15  H    3.855092   4.288335   2.610890   3.942169   4.681791
    16  H    2.131315   4.291172   2.777528   2.845053   4.158725
    17  H    4.477472   5.793446   1.022944   2.052153   2.460361
    18  H    6.190211   7.800252   2.493091   2.063417   1.021902
    19  H    6.875696   8.789386   4.026518   2.754673   2.096631
    20  H    6.780391   8.811105   4.028828   2.755345   2.096755
    21  H    8.306110  10.101672   4.836609   3.990115   2.692467
    22  H    8.383551  10.082309   4.834351   3.989293   2.692132
[...]
 014472,0.00003919,-0.00038805,0.00008653,0.00055254,0.00034530,0.00013
 172,0.00033000,-0.00029852,0.00039788,-0.01409752,0.01717387,-0.005851
 81,0.04831007,-0.06221806,0.06889418,-0.00000130,0.00000054,-0.0000009
 4,0.00000097,0.00000047,0.00000096,-0.00000173,-0.00000135,-0.00000005
 ,0.00001402,-0.00000222,0.00000128,-0.00000092,0.00000245,-0.00000200,
 -0.00000053,-0.00000031,0.00000258,0.00000014,-0.00000003,-0.00000026,
 -0.00000035,-0.00001715,-0.00001420,0.00006682,0.00001690,0.00014770,-
 0.00001827,-0.00006515,0.00024252,-0.00001456,0.00005901,-0.00001681,0
 .00139720,-0.00105676,-0.00047404,0.00402164,-0.01766161,-0.02540283,-
 0.05361836,0.02356594,0.03286274,0.00000030,0.00000017,-0.00000026,0.0
 0000078,-0.00000089,-0.00000035,0.00000093,0.00000117,-0.00000031,0.00
 012244,0.00008532,0.00000075,-0.00009698,0.00028958,0.00035347,-0.0000
 0577,0.00014709,-0.00001506,-0.00511490,-0.00176364,-0.00253096,0.0014
 3732,0.00044481,0.00065933,-0.00282219,0.00997184,0.01127497,-0.002916
 84,0.00941381,0.01561270,0.05755028,-0.00000336,0.00000160,-0.00000194
 ,0.00000287,-0.00000062,0.00000251,-0.00000936,0.00000142,-0.00000255,
 0.00002218,-0.00002073,-0.00000205,-0.00000462,0.00000669,-0.00000210,
 -0.00000013,0.00000032,0.00000272,-0.00000009,-0.00000016,-0.00000015,
 -0.00006583,0.00001689,-0.00003434,0.00005569,-0.00007004,0.00003998,-
 0.00002731,0.00020992,0.00022929,-0.00006945,0.00006027,-0.00002535,0.
 00053375,0.00033564,0.00063383,0.00150100,-0.00716106,-0.00863071,0.02
 280693,-0.14031935,-0.12517540,0.00000040,-0.00000005,-0.00000040,0.00
 000103,-0.00000186,-0.00000032,0.00000265,0.00000426,0.00000366,0.0001
 0618,-0.00002396,0.00003129,-0.00013021,0.00041136,-0.00006114,-0.0001
 0797,-0.00003995,-0.00001005,-0.00240844,0.00025463,-0.00066853,0.0003
 9889,0.00005661,0.00025546,-0.00204449,0.01173435,0.01441766,0.0028715
 7,-0.01376775,-0.02033510,-0.02342944,0.14831329,-0.00000325,0.0000011
 7,-0.00000154,0.00000220,-0.00000040,0.00000167,-0.00000765,0.00000100
 ,-0.00000318,0.00002221,-0.00001833,0.00000398,-0.00000415,0.00000581,
 -0.00000441,0.00000039,0.00000049,0.00000252,0.00000002,-0.00000008,-0
 .00000026,-0.00005359,0.00001205,-0.00002598,0.00005850,-0.00008787,0.
 00005046,-0.00011411,0.00028087,0.00016568,-0.00003950,0.00008086,-0.0
 0001077,0.00062012,-0.00036222,0.00018749,0.00142088,-0.00597054,-0.00
 916829,0.03168134,-0.12538571,-0.22167132,0.00000058,-0.00000010,-0.00
 000045,0.00000060,-0.00000162,-0.00000069,0.00000233,0.00000313,0.0000
 0173,0.00011850,0.00000180,0.00003966,-0.00032889,0.00029235,-0.000165
 11,-0.00005657,0.00001669,-0.00003337,-0.00249242,-0.00072695,0.000532
 47,-0.00016972,0.00030776,0.00074897,0.00283797,-0.01350194,-0.0171000
 5,-0.00079358,0.00571790,0.00873093,-0.03270060,0.13933529,0.23772063,
 -0.00922862,-0.01064818,-0.00379197,-0.11240933,-0.05988663,-0.0263344
 4,-0.03350961,-0.02825103,-0.01064706,0.00198142,0.00582322,-0.0021328
 1,-0.00127700,-0.00198110,0.00012970,0.00240006,-0.00146480,-0.0005467
 5,0.00031666,0.00125542,0.00086348,-0.00307689,-0.00166036,-0.00116841
 ,0.00161957,0.00148209,0.00094290,-0.00087038,0.00012294,-0.00044017,-
 0.00058240,-0.00059988,-0.00034275,0.00015724,0.00017685,0.00007473,-0
 .00003801,-0.00008202,-0.00001414,-0.00001037,0.00004083,-0.00000513,0
 .00034808,-0.00041259,0.00122923,0.00020257,-0.00010116,0.00033060,0.0
 0005426,-0.00023773,-0.00003018,0.00000794,-0.00009377,0.00001751,-0.0
 0004415,-0.00001599,-0.00002594,-0.00005791,-0.00001854,-0.00001379,0.
 00000010,0.00000637,0.00000334,0.00000291,0.00000657,-0.00000277,-0.00
 000156,-0.00000198,0.00000062,-0.00001740,-0.00000302,-0.00000704,-0.0
 0000021,-0.00000230,-0.00000148,0.15466080,-0.03597704,-0.02584280,-0.
 00994475,-0.06027477,-0.08720200,-0.01565447,-0.00358395,0.00121496,-0
 .00107622,0.00182958,-0.00036784,0.00136089,-0.00222693,0.00027756,-0.
 00100638,0.00520812,-0.00451568,0.00311253,-0.00029710,0.00058121,-0.0
 0044468,-0.00128222,-0.00002779,-0.00052757,0.00110192,0.00055960,0.00
 050700,-0.00047888,0.00016857,-0.00025390,-0.00042964,-0.00024394,-0.0
 0022277,0.00009683,0.00008708,0.00005605,-0.00001746,-0.00004243,-0.00
 000591,-0.00000558,0.00002110,-0.00000264,0.00138099,0.00107122,0.0000
 2796,0.00015422,0.00009754,-0.00001347,-0.00002687,-0.00012149,-0.0000
 1783,-0.00000283,-0.00005242,0.00000954,-0.00002645,-0.00000891,-0.000
 01459,-0.00003502,-0.00001149,-0.00000916,-0.00000009,0.00000354,0.000
 00160,0.00000108,0.00000352,-0.00000168,-0.00000065,-0.00000101,0.0000
 0015,-0.00000941,-0.00000145,-0.00000389,-0.00000020,-0.00000124,-0.00
 000082,0.09638312,0.11450484,-0.00079702,-0.00057490,0.00402158,-0.026
 29603,-0.01551649,-0.03136512,-0.01364516,-0.01023344,0.00019116,-0.00
 164557,0.00290136,0.00464583,0.00020964,-0.00093734,-0.00090473,-0.001
 39098,0.00057714,0.00411341,0.00104473,0.00015388,-0.00207235,-0.00100
 095,-0.00060554,-0.00032144,0.00054133,0.00049582,0.00011668,-0.000260
 98,0.00002283,-0.00015088,-0.00018024,-0.00019278,-0.00005582,0.000043
 55,0.00005777,0.00003807,-0.00001281,-0.00002404,-0.00000367,-0.000001
 71,0.00001152,-0.00000171,0.00099946,-0.00063062,-0.00247565,0.0002963
 9,-0.00012576,-0.00049129,0.00001416,-0.00007709,0.00001612,0.00000318
 ,-0.00002322,0.00000318,-0.00000975,-0.00000669,-0.00000684,-0.0000193
 1,-0.00000533,-0.00000570,-0.00000057,0.00000227,0.00000104,0.00000159
 ,0.00000148,-0.00000074,-0.00000055,-0.00000069,0.00000018,-0.00000532
 ,-0.00000068,-0.00000217,-0.00000011,-0.00000077,-0.00000043,0.0422732
 6,0.02463068,0.02452687,0.00929747,-0.02086434,0.00476308,-0.00178664,
 -0.00444804,-0.00270030,-0.00335412,-0.00052229,-0.00088011,-0.0033237
 5,0.00429446,-0.00384219,0.00258086,0.02670703,-0.00203833,-0.08961685
 ,0.00842168,-0.00977826,-0.00216908,-0.00060309,0.00082678,0.00006850,
 0.00104248,-0.00020417,0.00023487,0.00050716,0.00011135,-0.00004137,-0
 .00012345,0.00000390,0.00022953,-0.00041959,0.00016458,-0.00000030,0.0
 0001275,-0.00001119,-0.00000476,-0.00000310,-0.00000510,0.00000072,-0.
 00000029,0.00000024,-0.00016345,-0.00000138,0.00009406,-0.00182387,0.0
 0092049,0.00049393,-0.00024853,0.00007437,-0.00012431,0.00002630,-0.00
 000797,-0.00000824,0.00000033,0.00000048,-0.00000217,-0.00000578,-0.00
 000252,0.00000335,0.00000107,0.00000074,0.,0.00000075,-0.00000259,0.00
 000298,-0.00000209,0.00000008,0.00000097,0.00000102,-0.00000147,0.0000
 0041,0.00000013,0.00000128,-0.00000059,-0.00073703,-0.00152678,-0.0001
 2217,0.52737560,-0.00644181,-0.01739583,-0.00015275,-0.00491859,-0.001
 63785,-0.00083152,-0.00147541,0.00413171,-0.00123426,0.00486026,0.0007
 0356,0.00248985,0.01199076,-0.01032703,0.00569985,0.00424360,-0.224081
 86,0.02044670,0.00150272,0.00037252,0.00009665,-0.00530287,0.00163245,
 -0.00227402,0.00449894,0.00209584,0.00199769,-0.00181646,0.00070551,-0
 .00091300,-0.00182452,-0.00103208,-0.00101773,0.00037280,0.00029871,0.
 00022336,-0.00006034,-0.00015287,-0.00001809,-0.00001694,0.00007407,-0
 .00000875,-0.00000193,0.00001462,-0.00005236,-0.00014719,0.00010502,-0
 .00042843,-0.00038884,-0.00032515,-0.00014269,-0.00000677,-0.00019746,
 0.00002871,-0.00009961,-0.00003381,-0.00006030,-0.00014499,-0.00004199
 ,-0.00003517,0.00000082,0.00001236,0.00000374,0.00000520,0.00001304,-0
 .00000314,-0.00000497,-0.00000347,0.00000207,-0.00003359,-0.00000592,-
 0.00001391,-0.00000127,-0.00000452,-0.00000513,0.00250411,0.00264910,0
 .00064682,-0.01365658,0.61019390,0.00303689,-0.00558132,0.00440593,-0.
 00271239,-0.00044107,0.00592490,-0.00066692,-0.00079541,-0.00103320,-0
 .00404445,0.00211359,0.00423293,-0.00047715,0.01116248,-0.00231734,-0.
 00894277,0.02235338,-0.07192050,0.00045752,-0.00075814,-0.00368880,0.0
 0058949,0.00035531,0.00049036,-0.00043394,-0.00004381,-0.00014948,0.00
 020251,-0.00011062,0.00008403,0.00026654,-0.00001869,0.00015937,-0.000
 04378,-0.00002626,-0.00001099,0.00000228,0.00001703,0.00000673,0.00000
 196,-0.00000681,0.00000095,0.00010114,-0.00004341,-0.00037103,0.000689
 63,-0.00005668,-0.00305628,-0.00008136,0.00006217,-0.00005644,-0.00000
 549,0.00001400,0.00000988,0.00001078,-0.00000023,-0.00000055,0.0000184
 3,0.00000786,0.00000330,0.00000207,-0.00000520,-0.00000153,-0.00000121
 ,0.00000103,-0.00000167,0.00000178,0.00000148,-0.00000033,0.00000413,-
 0.00000019,0.00000205,-0.00000088,-0.00000097,-0.00000203,-0.00060930,
 -0.00087947,-0.00003618,0.02110888,-0.02165709,0.48646777,-0.00060212,
 0.00085325,0.00019347,0.00026290,0.00036861,0.00047468,0.00036349,-0.0
 0011239,0.00003495,-0.00015612,-0.00065192,0.00082910,-0.00069702,-0.0
 0022353,-0.00039646,0.01033413,-0.00205020,-0.00261858,0.00020650,0.00
 011456,-0.00021938,-0.00001889,0.00000006,0.00002082,-0.00004274,-0.00
 006720,-0.00001496,0.00001765,0.00000716,0.00000730,0.00001243,0.00003
 554,-0.00000031,-0.00000667,-0.00000697,-0.00000053,0.00000179,0.00000
 181,0.00000009,-0.00000002,-0.00000060,-0.00000021,0.00004587,0.000002
 08,-0.00005953,0.00027214,0.00031901,-0.00019047,0.00001003,-0.0000093
 7,-0.00000466,-0.00000060,0.00000345,-0.00000193,0.00000062,0.00000090
 ,0.00000099,0.00000243,0.00000073,-0.00000045,-0.00000048,0.00000030,0
 .00000007,0.00000029,-0.00000001,0.00000005,0.00000043,-0.00000008,-0.
 00000020,0.00000003,0.00000045,0.,0.00000007,-0.00000015,0.00000041,0.
 00003961,0.00004837,-0.00005198,-0.06958984,-0.01233582,-0.01950709,0.
 08320196,0.00502935,-0.00306053,0.00030219,0.00015186,-0.00054109,0.00
 242801,-0.00058817,-0.00137938,-0.00030376,-0.00179445,0.00165280,0.00
 019566,-0.00212841,-0.00144263,-0.00032999,-0.00843192,-0.02850420,-0.
 04090130,0.00025439,0.00010345,-0.00091235,0.00154108,-0.00043898,0.00
 063924,-0.00135157,-0.00065137,-0.00061855,0.00054322,-0.00019754,0.00
 027883,0.00050565,0.00033440,0.00030076,-0.00011010,-0.00009027,-0.000
 06778,0.00001810,0.00004636,0.00000597,0.00000540,-0.00002261,0.000002
 55,0.00004580,-0.00002431,-0.00003115,0.00042417,-0.00078225,-0.000609
 70,0.00011125,0.00010718,0.00000285,-0.00000006,0.00005801,-0.00001131
 ,0.00003117,0.00000987,0.00001952,0.00004242,0.00001262,0.00000988,-0.
 00000064,-0.00000331,-0.00000066,-0.00000168,-0.00000409,0.00000088,0.
 00000132,0.00000076,-0.00000061,0.00001006,0.00000189,0.00000411,0.000
 00036,0.00000155,0.00000194,-0.00097457,-0.00115789,-0.00008247,-0.010
 13313,-0.14517617,-0.08715091,0.02003093,0.14981745,0.00205562,-0.0022
 4368,0.00034264,-0.00019806,0.00024822,0.00044088,0.00030465,-0.000339
 85,0.00004923,-0.00059598,-0.00018472,0.00036062,-0.00193233,0.0006735
 1,0.00050661,-0.00388296,-0.01212426,-0.00827974,0.00026172,0.00020100
 ,-0.00017456,0.00069343,-0.00022822,0.00028900,-0.00058318,-0.00033836
 ,-0.00026655,0.00022582,-0.00007505,0.00012517,0.00019727,0.00018235,0
 .00013244,-0.00004270,-0.00003939,-0.00003363,0.00000857,0.00001873,0.
 00000231,0.00000210,-0.00000891,0.00000074,0.00006969,-0.00001412,-0.0
 0001903,0.00041576,0.00002004,-0.00041249,0.00007022,0.00004430,-0.000
 00985,0.00000226,0.00002768,-0.00000918,0.00001329,0.00000497,0.000010
 22,0.00001713,0.00000420,0.00000457,-0.00000079,0.00000008,0.00000035,
 -0.00000079,-0.00000257,0.00000079,0.00000022,-0.00000028,-0.00000010,
 0.00000391,0.00000111,0.00000157,0.00000059,0.00000078,0.00000159,-0.0
 0044538,-0.00058941,-0.00005289,-0.01737034,-0.09484007,-0.18566833,0.
 03556807,0.13556074,0.31587958,-0.00229587,-0.00328372,-0.00018590,0.0
 0013951,-0.00005791,0.00003681,0.00017366,0.00029564,-0.00000564,-0.00
 080449,-0.00073049,-0.00003763,0.00256878,0.00469591,-0.00019233,-0.01
 865285,0.00794382,-0.01157990,0.00147153,-0.00071936,0.00057611,-0.000
 62362,0.00075171,-0.00027413,0.00079323,0.00025414,0.00035984,-0.00033
 252,0.00014083,-0.00016443,-0.00035035,-0.00010722,-0.00020942,0.00006
 785,0.00005370,0.00003890,-0.00000995,-0.00002839,-0.00000333,-0.00000
 411,0.00001450,-0.00000149,0.00009835,0.00002430,0.00005379,0.00053736
 ,-0.00024455,0.00019669,-0.00018340,-0.00004012,-0.00007223,0.00000037
 ,-0.00003890,0.00000519,-0.00001776,-0.00000691,-0.00000914,-0.0000241
 7,-0.00000748,-0.00000778,-0.00000051,0.00000276,0.00000114,0.00000094
 ,0.00000311,-0.00000142,-0.00000008,-0.00000075,-0.00000008,-0.0000068
 6,-0.00000047,-0.00000283,-0.00000012,-0.00000111,-0.00000033,0.000416
 66,0.00045473,0.00009380,-0.21471196,0.07674155,-0.06753263,-0.0245648
 7,-0.00893129,-0.04526236,0.34234829,0.00027357,-0.00251634,0.00031429
 ,0.00125750,0.00142891,0.00031947,0.00067634,-0.00078786,0.00038125,0.
 00092400,0.00029830,0.00019177,-0.00342926,-0.00779365,-0.00009505,0.0
 4049322,-0.01018940,0.01811274,0.00079216,-0.00271539,0.00071090,0.001
 42277,-0.00116280,0.00066503,-0.00141915,-0.00066221,-0.00062770,0.000
 56175,-0.00020642,0.00028017,0.00050161,0.00034549,0.00028685,-0.00011
 261,-0.00009059,-0.00006877,0.00001812,0.00004718,0.00000593,0.0000054
 3,-0.00002303,0.00000285,0.00002221,-0.00006685,0.00000665,-0.00029698
 ,0.00032062,-0.00014110,0.00027904,0.00008098,0.00011326,-0.00000396,0
 .00006418,-0.00000877,0.00003067,0.00001069,0.00001781,0.00004405,0.00
 001315,0.00001137,0.00000010,-0.00000410,-0.00000149,-0.00000171,-0.00
 000410,0.00000127,0.00000130,0.00000110,-0.00000049,0.00001051,0.00000
 160,0.00000434,0.00000028,0.00000143,0.00000128,-0.00058607,-0.0005817
 2,-0.00015189,0.06160445,-0.11091429,0.02971859,-0.01695768,0.01491801
 ,-0.01157682,-0.07821152,0.10535323,-0.00068406,-0.00107855,-0.0007630
 2,-0.00013767,-0.00018605,0.00009460,-0.00002739,0.00021665,0.00001310
 ,-0.00029555,-0.00039180,-0.00037901,0.00088964,0.00300307,0.00136708,
 -0.01548306,0.00531847,0.00174791,0.00042073,0.00013576,0.00033590,-0.
 00039597,0.00040348,-0.00031751,0.00047891,0.00017933,0.00022016,-0.00
 019781,0.00008157,-0.00010439,-0.00020461,-0.00008132,-0.00011160,0.00
 003744,0.00003249,0.00003012,-0.00000659,-0.00001669,-0.00000142,-0.00
 000162,0.00000859,-0.00000230,0.00005489,0.00000964,-0.00003108,0.0002
 0370,-0.00011517,0.00018415,-0.00008353,-0.00002675,-0.00007738,0.0000
 0215,-0.00002342,-0.00000004,-0.00001004,-0.00000330,-0.00000509,-0.00
 001563,-0.00000554,-0.00000418,-0.00000018,0.00000203,0.00000082,0.000
 00053,0.00000129,-0.00000058,-0.00000052,-0.00000066,0.00000009,-0.000
 00397,-0.00000043,-0.00000169,-0.00000002,-0.00000040,0.00000010,0.000
 22597,0.00024862,0.00007506,-0.06568873,0.03564532,-0.09630341,-0.0543
 0246,-0.00396368,-0.04692295,0.11339714,-0.03427206,0.12621239,0.00123
 062,-0.00107394,0.00094685,0.00061919,0.00016867,-0.00064017,0.0002756
 1,-0.00037724,0.00034255,0.00002155,-0.00058115,-0.00097628,-0.0013750
 9,0.00010939,-0.00136691,-0.00525682,-0.00913382,0.01295738,0.00008379
 ,0.00032551,0.00038288,0.00059174,-0.00021251,0.00025617,-0.00051960,-
 0.00030049,-0.00024000,0.00021438,-0.00006615,0.00009731,0.00020084,0.
 00015447,0.00008714,-0.00004587,-0.00003774,-0.00001986,0.00000779,0.0
 0001796,0.00000337,0.00000191,-0.00000813,0.00000069,0.00002750,0.0000
 0813,0.00010007,0.00008067,0.00044798,0.00036319,0.00003793,0.00003385
 ,0.00005566,-0.00000456,0.00002083,0.00000303,0.00001133,0.00000291,0.
 00000631,0.00001832,0.00000642,0.00000253,-0.00000010,-0.00000225,-0.0
 0000050,-0.00000055,-0.00000013,-0.00000081,0.00000152,0.00000049,-0.0
 0000046,0.00000344,0.00000119,0.00000144,-0.00000002,-0.00000016,0.000
 00038,-0.00034701,-0.00045707,-0.00007987,-0.15223776,-0.05804225,0.07
 856533,0.00090700,0.00569950,0.03040455,-0.08603304,-0.00790014,0.0218
 2830,0.24148532,0.00344837,-0.00221467,0.00337298,0.00152336,-0.001056
 34,-0.00139046,-0.00079539,-0.00121006,0.00009043,-0.00105241,0.001519
 57,-0.00148830,-0.00154219,-0.00163738,-0.00038151,-0.03307220,-0.0175
 5841,0.02801278,-0.00036790,0.00026984,0.00070108,0.00137109,-0.000418
 27,0.00064430,-0.00122044,-0.00057142,-0.00053567,0.00049350,-0.000190
 76,0.00024642,0.00047160,0.00027748,0.00024702,-0.00010249,-0.00008049
 ,-0.00005986,0.00001700,0.00004168,0.00000500,0.00000416,-0.00001997,0
 .00000255,0.00000770,-0.00001679,0.00004040,-0.00014143,-0.00064335,0.
 00070276,0.00007406,0.00010261,0.00006068,0.00000006,0.00005433,-0.000
 00630,0.00002690,0.00000873,0.00001565,0.00003977,0.00001176,0.0000093
 6,-0.00000015,-0.00000377,-0.00000127,-0.00000168,-0.00000306,0.000000
 41,0.00000173,0.00000107,-0.00000073,0.00000921,0.00000159,0.00000381,
 0.00000029,0.00000107,0.00000130,-0.00077979,-0.00105973,-0.00031184,-
 0.05127083,-0.11167210,0.05176934,0.01062872,0.01641229,-0.01438200,0.
 00103349,0.01483390,-0.00512048,0.07119589,0.10482065,-0.00208400,0.00
 263657,-0.00235669,0.00000695,0.00022753,0.00049675,0.00012909,0.00041
 397,-0.00008357,0.00067599,-0.00058394,0.00038221,0.00062759,-0.000152
 46,0.00125990,0.01784612,0.01094508,-0.00384878,0.00000936,-0.00012095
 ,-0.00012284,-0.00081687,0.00024328,-0.00037219,0.00066910,0.00030881,
 0.00026819,-0.00026673,0.00010131,-0.00012652,-0.00025316,-0.00016175,
 -0.00011333,0.00005471,0.00004212,0.00002736,-0.00000857,-0.00002172,-
 0.00000294,-0.00000260,0.00001102,-0.00000161,-0.00003614,0.00001830,-
 0.00000481,-0.00007556,0.00028976,-0.00040123,-0.00004481,-0.00006346,
 -0.00003711,0.00000016,-0.00002837,-0.00000233,-0.00001434,-0.00000355
 ,-0.00000757,-0.00002298,-0.00000697,-0.00000449,-0.00000021,0.0000028
 4,0.00000114,0.00000057,0.00000077,0.00000018,-0.00000126,-0.00000095,
 0.00000036,-0.00000478,-0.00000087,-0.00000204,0.00000008,-0.00000021,
 0.,0.00046813,0.00071460,0.00019844,0.07520168,0.05640764,-0.13717011,
 0.04023922,-0.00476891,-0.07629901,0.01078358,-0.00420167,0.01474418,-
 0.14308031,-0.06224783,0.20357846\\-0.00000230,-0.00000567,-0.00000019
 ,0.00000064,-0.00000359,0.00000186,0.00000055,-0.00000358,0.00000166,-
 0.00000046,-0.00000257,0.00000045,-0.00000200,-0.00000092,-0.00000115,
 -0.00000037,-0.00000415,-0.00000096,-0.00000127,-0.00000609,-0.0000000
 2,0.00000054,-0.00000080,0.00000214,-0.00000018,0.00000300,-0.00000164
 ,0.00000095,0.00000108,0.00000206,-0.00000018,-0.00000029,-0.00000094,
 0.00000070,0.00000339,-0.00000004,0.00000220,0.00000481,0.00000102,0.0
 0000112,0.00000603,-0.00000005,0.00000125,-0.00000289,0.00000311,-0.00
 000129,-0.00000180,-0.00000185,0.00000162,-0.00000070,0.00000176,0.000
 00199,0.00000168,0.00000163,0.00000028,0.00000473,-0.00000095,0.000000
 12,0.00000278,-0.00000106,0.00000173,0.00000348,0.00000163,0.00000221,
 0.00000527,0.00000169,0.00000089,0.00000567,-0.00000089,0.00000232,0.0
 0000707,0.00000072,0.00000134,0.00000714,-0.00000057,0.00000030,-0.000
 00634,0.00000311,-0.00000311,-0.00000503,-0.00000204,-0.00000239,-0.00
 000233,-0.00000353,-0.00000326,-0.00000507,-0.00000367,-0.00000396,-0.
 00000432,-0.00000330\\\@


 THE REAL VOYAGE OF DISCOVERY CONSISTS NOT IN SEEKING NEW LANDSCAPES 
 BUT IN HAVING NEW EYES.
                                                    -- MARCEL PROUST
 Job cpu time:       0 days  2 hours 52 minutes 11.3 seconds.
 File lengths (MBytes):  RWF=    561 Int=      0 D2E=      0 Chk=     20 Scr=      1
 Normal termination of Gaussian 09 at Thu Jul 12 22:10:32 2018.
WARNING: pbs_rusage is deprecated and values produced may not be accurate


=============================================================================
                                     Resource usage:
                                       CPU time:              16:07:22
   JobId:    8355190.r-man2            Elapsed time:          04:03:26
   Project:             q95            Requested time:        36:00:00
   Service Units:     16.23 
                                       Max physical memory:      675MB
                                       Max virtual memory:      1594MB
                                       Requested memory:           0MB

                                       Number of cpus:               4

                                       Max jobfs disk use:       0.5GB
                                       Requested jobfs:         16.0GB
=============================================================================

