 Entering Gaussian System, Link 0=/apps/gaussian/g09e01/g09/g09
 AtFile(1): /home/507/hio507/Basis/6-31pGd.gbs
 Initial command:
 /apps/gaussian/g09e01/g09/l1.exe "/jobfs/local/6207878.r-man2/Gau-2833.inp" -scrdir="/jobfs/local/6207878.r-man2/"
 Entering Link 1 = /apps/gaussian/g09e01/g09/l1.exe PID=      2834.
  
 Copyright (c) 1988,1990,1992,1993,1995,1998,2003,2009,2015,
            Gaussian, Inc.  All Rights Reserved.
  
 This is part of the Gaussian(R) 09 program.  It is based on
 the Gaussian(R) 03 system (copyright 2003, Gaussian, Inc.),
 the Gaussian(R) 98 system (copyright 1998, Gaussian, Inc.),
 the Gaussian(R) 94 system (copyright 1995, Gaussian, Inc.),
 the Gaussian 92(TM) system (copyright 1992, Gaussian, Inc.),
 the Gaussian 90(TM) system (copyright 1990, Gaussian, Inc.),
 the Gaussian 88(TM) system (copyright 1988, Gaussian, Inc.),
 the Gaussian 86(TM) system (copyright 1986, Carnegie Mellon
 University), and the Gaussian 82(TM) system (copyright 1983,
 Carnegie Mellon University). Gaussian is a federally registered
 trademark of Gaussian, Inc.
  
 This software contains proprietary and confidential information,
 including trade secrets, belonging to Gaussian, Inc.
  
 This software is provided under written license and may be
 used, copied, transmitted, or stored only in accord with that
 written license.
  
 The following legend is applicable only to US Government
 contracts under FAR:
  
                    RESTRICTED RIGHTS LEGEND
  
 Use, reproduction and disclosure by the US Government is
 subject to restrictions as set forth in subparagraphs (a)
 and (c) of the Commercial Computer Software - Restricted
 Rights clause in FAR 52.227-19.
  
 Gaussian, Inc.
 340 Quinnipiac St., Bldg. 40, Wallingford CT 06492
  
  
 ---------------------------------------------------------------
 Warning -- This program may not be used in any manner that
 competes with the business of Gaussian, Inc. or will provide
 assistance to any competitor of Gaussian, Inc.  The licensee
 of this program is prohibited from giving any competitor of
 Gaussian, Inc. access to this program.  By using this program,
 the user acknowledges that Gaussian, Inc. is engaged in the
 business of creating and licensing software in the field of
 computational chemistry and represents and warrants to the
 licensee that it is not a competitor of Gaussian, Inc. and that
 it will not use this program in any manner prohibited above.
 ---------------------------------------------------------------
  

 Cite this work as:
 Gaussian 09, Revision E.01,
 M. J. Frisch, G. W. Trucks, H. B. Schlegel, G. E. Scuseria, 
 M. A. Robb, J. R. Cheeseman, G. Scalmani, V. Barone, B. Mennucci, 
 G. A. Petersson, H. Nakatsuji, M. Caricato, X. Li, H. P. Hratchian, 
 A. F. Izmaylov, J. Bloino, G. Zheng, J. L. Sonnenberg, M. Hada, 
 M. Ehara, K. Toyota, R. Fukuda, J. Hasegawa, M. Ishida, T. Nakajima, 
 Y. Honda, O. Kitao, H. Nakai, T. Vreven, J. A. Montgomery, Jr., 
 J. E. Peralta, F. Ogliaro, M. Bearpark, J. J. Heyd, E. Brothers, 
 K. N. Kudin, V. N. Staroverov, T. Keith, R. Kobayashi, J. Normand, 
 K. Raghavachari, A. Rendell, J. C. Burant, S. S. Iyengar, J. Tomasi, 
 M. Cossi, N. Rega, J. M. Millam, M. Klene, J. E. Knox, J. B. Cross, 
 V. Bakken, C. Adamo, J. Jaramillo, R. Gomperts, R. E. Stratmann, 
 O. Yazyev, A. J. Austin, R. Cammi, C. Pomelli, J. W. Ochterski, 
 R. L. Martin, K. Morokuma, V. G. Zakrzewski, G. A. Voth, 
 P. Salvador, J. J. Dannenberg, S. Dapprich, A. D. Daniels, 
 O. Farkas, J. B. Foresman, J. V. Ortiz, J. Cioslowski, 
 and D. J. Fox, Gaussian, Inc., Wallingford CT, 2013.
 
 ******************************************
 Gaussian 09:  ES64L-G09RevE.01 30-Nov-2015
                27-Feb-2019 
 ******************************************
 %chk=3TFM4Chloro.M062X_6-31pGd_opt.chk
 %mem=196608000
 %nproc=4
 Will use up to    4 processors via shared memory.
 ----------------------------------------------------------------------
 # M062X/Gen 6D SCF=Tight INT(grid=ultrafine) OPT=CalcFC IOP(2/17=4) ma
 xdisk=2147483648
 ----------------------------------------------------------------------
 1/10=4,14=-1,18=20,19=15,26=4,38=1/1,3;
 2/9=110,12=2,17=4,18=5,40=1/2;
 3/5=7,8=2,11=2,16=1,25=1,30=1,71=2,74=-55,75=-5,140=1/1,2,3;
 4//1;
 5/5=2,32=2,38=5/2;
 8/6=4,10=90,11=11/1;
 11/6=1,8=1,9=11,15=111,16=1/1,2,10;
 10/6=1,13=1/2;
 6/7=2,8=2,9=2,10=2,28=1/1;
 7/10=1,18=20,25=1/1,2,3,16;
 1/10=4,14=-1,18=20,19=15,26=4/3(2);
 2/9=110,17=4/2;
 99//99;
 2/9=110,17=4/2;
 3/5=7,6=1,8=2,11=2,16=1,25=1,30=1,71=1,74=-55,75=-5,82=7/1,2,3;
 4/5=5,16=3,69=1/1;
 5/5=2,32=2,38=5/2;
 7//1,2,3,16;
 1/14=-1,18=20,19=15,26=4/3(-5);
 2/9=110,17=4/2;
 6/7=2,8=2,9=2,10=2,19=2,28=1/1;
 99/9=1/99;
 -----------------------------
 3TFM4Chloro.M062X_6-31pGd_opt
 -----------------------------
 Symbolic Z-matrix:
 Charge =  0 Multiplicity = 1
 C                    -1.97352   2.15591  -0.08665 
 C                    -0.61057   1.47905   0.02572 
 C                     0.52777   2.49435  -0.12759 
 N                     1.82295   1.84516  -0.01995 
 C                     2.98899   2.5429   -0.1301 
 O                     2.94608   3.74708  -0.3245 
 N                     4.18252   1.88041  -0.01988 
 C                     5.51424   2.42235  -0.10987 
 C                     5.81465   3.78466  -0.35717 
 C                     6.58885   1.53178   0.05767 
 C                     7.90925   1.96903  -0.01485 
 C                     8.19863   3.31099  -0.2583 
 C                     7.14968   4.23819  -0.43342 
 H                    -2.77633   1.39719   0.02635 
 H                    -2.08202   2.64337  -1.07898 
 H                    -2.09175   2.92044   0.71058 
 H                    -0.5258    0.70533  -0.76829 
 H                    -0.53467   0.98327   1.01798 
 H                     0.43864   3.26762   0.66725 
 H                     0.44619   2.98614  -1.12213 
 H                     1.86066   0.82654   0.14315 
 H                     4.122     0.86408   0.14975 
 H                     5.04149   4.51331  -0.49616 
 H                     6.40354   0.48178   0.24796 
 H                     8.71312   1.25604   0.1194 
 Cl                    9.89316   3.78785  -0.33698 
 C                     7.45655   5.6986   -0.70029 
 F                     6.30689   6.45616  -0.84519 
 F                     8.19576   5.81192  -1.86392 
 F                     8.18515   6.21972   0.35364 
 

 GradGradGradGradGradGradGradGradGradGradGradGradGradGradGradGradGradGrad
 Berny optimization.
 Initialization pass.
                           ----------------------------
                           !    Initial Parameters    !
                           ! (Angstroms and Degrees)  !
 --------------------------                            --------------------------
 ! Name  Definition              Value          Derivative Info.                !
 --------------------------------------------------------------------------------
 ! R1    R(1,2)                  1.5259         calculate D2E/DX2 analytically  !
 ! R2    R(1,14)                 1.1104         calculate D2E/DX2 analytically  !
 ! R3    R(1,15)                 1.1109         calculate D2E/DX2 analytically  !
 ! R4    R(1,16)                 1.1109         calculate D2E/DX2 analytically  !
 ! R5    R(2,3)                  1.533          calculate D2E/DX2 analytically  !
 ! R6    R(2,17)                 1.1119         calculate D2E/DX2 analytically  !
 ! R7    R(2,18)                 1.1118         calculate D2E/DX2 analytically  !
 ! R8    R(3,4)                  1.4528         calculate D2E/DX2 analytically  !
 ! R9    R(3,19)                 1.1125         calculate D2E/DX2 analytically  !
 ! R10   R(3,20)                 1.1125         calculate D2E/DX2 analytically  !
 ! R11   R(4,5)                  1.3633         calculate D2E/DX2 analytically  !
 ! R12   R(4,21)                 1.0323         calculate D2E/DX2 analytically  !
 ! R13   R(5,6)                  1.2205         calculate D2E/DX2 analytically  !
 ! R14   R(5,7)                  1.3695         calculate D2E/DX2 analytically  !
 ! R15   R(7,8)                  1.4406         calculate D2E/DX2 analytically  !
 ! R16   R(7,22)                 1.0322         calculate D2E/DX2 analytically  !
 ! R17   R(8,9)                  1.4168         calculate D2E/DX2 analytically  !
 ! R18   R(8,10)                 1.4057         calculate D2E/DX2 analytically  !
 ! R19   R(9,13)                 1.412          calculate D2E/DX2 analytically  !
 ! R20   R(9,23)                 1.0715         calculate D2E/DX2 analytically  !
 ! R21   R(10,11)                1.3928         calculate D2E/DX2 analytically  !
 ! R22   R(10,24)                1.0831         calculate D2E/DX2 analytically  !
 ! R23   R(11,12)                1.3942         calculate D2E/DX2 analytically  !
 ! R24   R(11,25)                1.0829         calculate D2E/DX2 analytically  !
 ! R25   R(12,13)                1.4109         calculate D2E/DX2 analytically  !
 ! R26   R(12,26)                1.7621         calculate D2E/DX2 analytically  !
 ! R27   R(13,27)                1.516          calculate D2E/DX2 analytically  !
 ! R28   R(27,28)                1.3844         calculate D2E/DX2 analytically  !
 ! R29   R(27,29)                1.3832         calculate D2E/DX2 analytically  !
 ! R30   R(27,30)                1.3832         calculate D2E/DX2 analytically  !
 ! A1    A(2,1,14)             109.5849         calculate D2E/DX2 analytically  !
 ! A2    A(2,1,15)             110.3442         calculate D2E/DX2 analytically  !
 ! A3    A(2,1,16)             110.334          calculate D2E/DX2 analytically  !
 ! A4    A(14,1,15)            108.6702         calculate D2E/DX2 analytically  !
 ! A5    A(14,1,16)            108.6797         calculate D2E/DX2 analytically  !
 ! A6    A(15,1,16)            109.1882         calculate D2E/DX2 analytically  !
 ! A7    A(1,2,3)              111.2296         calculate D2E/DX2 analytically  !
 ! A8    A(1,2,17)             108.9159         calculate D2E/DX2 analytically  !
 ! A9    A(1,2,18)             108.9352         calculate D2E/DX2 analytically  !
 ! A10   A(3,2,17)             109.441          calculate D2E/DX2 analytically  !
 ! A11   A(3,2,18)             109.5048         calculate D2E/DX2 analytically  !
 ! A12   A(17,2,18)            108.773          calculate D2E/DX2 analytically  !
 ! A13   A(2,3,4)              111.0166         calculate D2E/DX2 analytically  !
 ! A14   A(2,3,19)             109.2322         calculate D2E/DX2 analytically  !
 ! A15   A(2,3,20)             109.1307         calculate D2E/DX2 analytically  !
 ! A16   A(4,3,19)             109.2138         calculate D2E/DX2 analytically  !
 ! A17   A(4,3,20)             109.2177         calculate D2E/DX2 analytically  !
 ! A18   A(19,3,20)            109.0003         calculate D2E/DX2 analytically  !
 ! A19   A(3,4,5)              121.8591         calculate D2E/DX2 analytically  !
 ! A20   A(3,4,21)             119.0272         calculate D2E/DX2 analytically  !
 ! A21   A(5,4,21)             119.1137         calculate D2E/DX2 analytically  !
 ! A22   A(4,5,6)              119.1923         calculate D2E/DX2 analytically  !
 ! A23   A(4,5,7)              119.427          calculate D2E/DX2 analytically  !
 ! A24   A(6,5,7)              121.3807         calculate D2E/DX2 analytically  !
 ! A25   A(5,7,8)              128.2165         calculate D2E/DX2 analytically  !
 ! A26   A(5,7,22)             116.0049         calculate D2E/DX2 analytically  !
 ! A27   A(8,7,22)             115.7785         calculate D2E/DX2 analytically  !
 ! A28   A(7,8,9)              124.6559         calculate D2E/DX2 analytically  !
 ! A29   A(7,8,10)             117.4464         calculate D2E/DX2 analytically  !
 ! A30   A(9,8,10)             117.8976         calculate D2E/DX2 analytically  !
 ! A31   A(8,9,13)             121.2478         calculate D2E/DX2 analytically  !
 ! A32   A(8,9,23)             121.5702         calculate D2E/DX2 analytically  !
 ! A33   A(13,9,23)            117.1819         calculate D2E/DX2 analytically  !
 ! A34   A(8,10,11)            121.3076         calculate D2E/DX2 analytically  !
 ! A35   A(8,10,24)            120.2876         calculate D2E/DX2 analytically  !
 ! A36   A(11,10,24)           118.4048         calculate D2E/DX2 analytically  !
 ! A37   A(10,11,12)           120.5323         calculate D2E/DX2 analytically  !
 ! A38   A(10,11,25)           119.3805         calculate D2E/DX2 analytically  !
 ! A39   A(12,11,25)           120.0872         calculate D2E/DX2 analytically  !
 ! A40   A(11,12,13)           119.993          calculate D2E/DX2 analytically  !
 ! A41   A(11,12,26)           117.896          calculate D2E/DX2 analytically  !
 ! A42   A(13,12,26)           122.1111         calculate D2E/DX2 analytically  !
 ! A43   A(9,13,12)            119.0217         calculate D2E/DX2 analytically  !
 ! A44   A(9,13,27)            120.6846         calculate D2E/DX2 analytically  !
 ! A45   A(12,13,27)           120.2937         calculate D2E/DX2 analytically  !
 ! A46   A(13,27,28)           112.1773         calculate D2E/DX2 analytically  !
 ! A47   A(13,27,29)           109.5841         calculate D2E/DX2 analytically  !
 ! A48   A(13,27,30)           109.5992         calculate D2E/DX2 analytically  !
 ! A49   A(28,27,29)           108.1142         calculate D2E/DX2 analytically  !
 ! A50   A(28,27,30)           108.1209         calculate D2E/DX2 analytically  !
 ! A51   A(29,27,30)           109.1854         calculate D2E/DX2 analytically  !
 ! D1    D(14,1,2,3)           179.9028         calculate D2E/DX2 analytically  !
 ! D2    D(14,1,2,17)           59.2007         calculate D2E/DX2 analytically  !
 ! D3    D(14,1,2,18)          -59.303          calculate D2E/DX2 analytically  !
 ! D4    D(15,1,2,3)            60.2789         calculate D2E/DX2 analytically  !
 ! D5    D(15,1,2,17)          -60.4232         calculate D2E/DX2 analytically  !
 ! D6    D(15,1,2,18)         -178.9269         calculate D2E/DX2 analytically  !
 ! D7    D(16,1,2,3)           -60.4678         calculate D2E/DX2 analytically  !
 ! D8    D(16,1,2,17)          178.8301         calculate D2E/DX2 analytically  !
 ! D9    D(16,1,2,18)           60.3263         calculate D2E/DX2 analytically  !
 ! D10   D(1,2,3,4)           -179.9967         calculate D2E/DX2 analytically  !
 ! D11   D(1,2,3,19)            59.5113         calculate D2E/DX2 analytically  !
 ! D12   D(1,2,3,20)           -59.5659         calculate D2E/DX2 analytically  !
 ! D13   D(17,2,3,4)           -59.604          calculate D2E/DX2 analytically  !
 ! D14   D(17,2,3,19)          179.904          calculate D2E/DX2 analytically  !
 ! D15   D(17,2,3,20)           60.8268         calculate D2E/DX2 analytically  !
 ! D16   D(18,2,3,4)            59.5446         calculate D2E/DX2 analytically  !
 ! D17   D(18,2,3,19)          -60.9474         calculate D2E/DX2 analytically  !
 ! D18   D(18,2,3,20)          179.9754         calculate D2E/DX2 analytically  !
 ! D19   D(2,3,4,5)            179.6766         calculate D2E/DX2 analytically  !
 ! D20   D(2,3,4,21)            -0.231          calculate D2E/DX2 analytically  !
 ! D21   D(19,3,4,5)           -59.8205         calculate D2E/DX2 analytically  !
 ! D22   D(19,3,4,21)          120.2719         calculate D2E/DX2 analytically  !
 ! D23   D(20,3,4,5)            59.2973         calculate D2E/DX2 analytically  !
 ! D24   D(20,3,4,21)         -120.6103         calculate D2E/DX2 analytically  !
 ! D25   D(3,4,5,6)              0.008          calculate D2E/DX2 analytically  !
 ! D26   D(3,4,5,7)            179.9691         calculate D2E/DX2 analytically  !
 ! D27   D(21,4,5,6)           179.9155         calculate D2E/DX2 analytically  !
 ! D28   D(21,4,5,7)            -0.1234         calculate D2E/DX2 analytically  !
 ! D29   D(4,5,7,8)            179.7262         calculate D2E/DX2 analytically  !
 ! D30   D(4,5,7,22)            -0.3154         calculate D2E/DX2 analytically  !
 ! D31   D(6,5,7,8)             -0.3136         calculate D2E/DX2 analytically  !
 ! D32   D(6,5,7,22)           179.6447         calculate D2E/DX2 analytically  !
 ! D33   D(5,7,8,9)             -1.0116         calculate D2E/DX2 analytically  !
 ! D34   D(5,7,8,10)           179.1204         calculate D2E/DX2 analytically  !
 ! D35   D(22,7,8,9)           179.03           calculate D2E/DX2 analytically  !
 ! D36   D(22,7,8,10)           -0.8381         calculate D2E/DX2 analytically  !
 ! D37   D(7,8,9,13)          -179.8848         calculate D2E/DX2 analytically  !
 ! D38   D(7,8,9,23)            -0.0158         calculate D2E/DX2 analytically  !
 ! D39   D(10,8,9,13)           -0.0173         calculate D2E/DX2 analytically  !
 ! D40   D(10,8,9,23)          179.8517         calculate D2E/DX2 analytically  !
 ! D41   D(7,8,10,11)          179.9339         calculate D2E/DX2 analytically  !
 ! D42   D(7,8,10,24)           -0.0908         calculate D2E/DX2 analytically  !
 ! D43   D(9,8,10,11)            0.0567         calculate D2E/DX2 analytically  !
 ! D44   D(9,8,10,24)         -179.9681         calculate D2E/DX2 analytically  !
 ! D45   D(8,9,13,12)           -0.029          calculate D2E/DX2 analytically  !
 ! D46   D(8,9,13,27)          179.9271         calculate D2E/DX2 analytically  !
 ! D47   D(23,9,13,12)        -179.9036         calculate D2E/DX2 analytically  !
 ! D48   D(23,9,13,27)           0.0525         calculate D2E/DX2 analytically  !
 ! D49   D(8,10,11,12)          -0.0493         calculate D2E/DX2 analytically  !
 ! D50   D(8,10,11,25)         179.9752         calculate D2E/DX2 analytically  !
 ! D51   D(24,10,11,12)        179.975          calculate D2E/DX2 analytically  !
 ! D52   D(24,10,11,25)         -0.0005         calculate D2E/DX2 analytically  !
 ! D53   D(10,11,12,13)          0.0008         calculate D2E/DX2 analytically  !
 ! D54   D(10,11,12,26)       -179.9637         calculate D2E/DX2 analytically  !
 ! D55   D(25,11,12,13)        179.9761         calculate D2E/DX2 analytically  !
 ! D56   D(25,11,12,26)          0.0116         calculate D2E/DX2 analytically  !
 ! D57   D(11,12,13,9)           0.0375         calculate D2E/DX2 analytically  !
 ! D58   D(11,12,13,27)       -179.9187         calculate D2E/DX2 analytically  !
 ! D59   D(26,12,13,9)        -179.9996         calculate D2E/DX2 analytically  !
 ! D60   D(26,12,13,27)          0.0442         calculate D2E/DX2 analytically  !
 ! D61   D(9,13,27,28)           0.0233         calculate D2E/DX2 analytically  !
 ! D62   D(9,13,27,29)        -120.0687         calculate D2E/DX2 analytically  !
 ! D63   D(9,13,27,30)         120.1339         calculate D2E/DX2 analytically  !
 ! D64   D(12,13,27,28)        179.9788         calculate D2E/DX2 analytically  !
 ! D65   D(12,13,27,29)         59.8868         calculate D2E/DX2 analytically  !
 ! D66   D(12,13,27,30)        -59.9106         calculate D2E/DX2 analytically  !
 --------------------------------------------------------------------------------
 Trust Radius=3.00D-01 FncErr=1.00D-07 GrdErr=1.00D-06
 Number of steps in this run=    157 maximum allowed number of steps=    180.
 GradGradGradGradGradGradGradGradGradGradGradGradGradGradGradGradGradGrad

                          Input orientation:                          
 ---------------------------------------------------------------------
 Center     Atomic      Atomic             Coordinates (Angstroms)
 Number     Number       Type             X           Y           Z
 ---------------------------------------------------------------------
      1          6           0       -1.973520    2.155910   -0.086650
      2          6           0       -0.610570    1.479050    0.025720
      3          6           0        0.527770    2.494350   -0.127590
      4          7           0        1.822950    1.845160   -0.019950
      5          6           0        2.988990    2.542900   -0.130100
      6          8           0        2.946080    3.747080   -0.324500
      7          7           0        4.182520    1.880410   -0.019880
      8          6           0        5.514240    2.422350   -0.109870
      9          6           0        5.814650    3.784660   -0.357170
     10          6           0        6.588850    1.531780    0.057670
     11          6           0        7.909250    1.969030   -0.014850
     12          6           0        8.198630    3.310990   -0.258300
     13          6           0        7.149680    4.238190   -0.433420
     14          1           0       -2.776330    1.397190    0.026350
     15          1           0       -2.082020    2.643370   -1.078980
     16          1           0       -2.091750    2.920440    0.710580
     17          1           0       -0.525800    0.705330   -0.768290
     18          1           0       -0.534670    0.983270    1.017980
     19          1           0        0.438640    3.267620    0.667250
     20          1           0        0.446190    2.986140   -1.122130
     21          1           0        1.860660    0.826540    0.143150
     22          1           0        4.122000    0.864080    0.149750
     23          1           0        5.041490    4.513310   -0.496160
     24          1           0        6.403540    0.481780    0.247960
     25          1           0        8.713120    1.256040    0.119400
     26         17           0        9.893160    3.787850   -0.336980
     27          6           0        7.456550    5.698600   -0.700290
     28          9           0        6.306890    6.456160   -0.845190
     29          9           0        8.195760    5.811920   -1.863920
     30          9           0        8.185150    6.219720    0.353640
 ---------------------------------------------------------------------
                    Distance matrix (angstroms):
                    1          2          3          4          5
     1  C    0.000000
     2  C    1.525909   0.000000
     3  C    2.524415   1.533022   0.000000
     4  N    3.809751   2.461329   1.452765   0.000000
     5  C    4.977766   3.756713   2.461700   1.363313   0.000000
     6  O    5.175989   4.232774   2.730628   2.229680   1.220525
     7  N    6.162563   4.810081   3.707522   2.359833   1.369509
     8  C    7.492535   6.198508   4.987021   3.737226   2.528207
     9  C    7.961256   6.837097   5.446899   4.450735   3.094816
    10  C    8.586300   7.199684   6.139833   4.776823   3.743877
    11  C    9.884798   8.533994   7.401008   6.087563   4.954954
    12  C   10.238960   9.002148   7.715315   6.546355   5.267518
    13  C    9.364236   8.248948   6.854502   5.854195   4.503038
    14  H    1.110373   2.167307   3.484901   4.621277   5.880140
    15  H    1.110904   2.177422   2.781790   4.124012   5.160001
    16  H    1.110883   2.177276   2.783158   4.124897   5.163642
    17  H    2.159794   1.111882   2.172809   2.715852   4.017175
    18  H    2.159996   1.111818   2.173585   2.716344   4.020785
    19  H    2.760938   2.170573   1.112502   2.100464   2.768623
    20  H    2.759800   2.169244   1.112485   2.100501   2.765216
    21  H    4.064599   2.558620   2.152089   1.032284   2.072121
    22  H    6.235389   4.773970   3.956411   2.505384   2.044618
    23  H    7.411842   6.436216   4.958398   4.207707   2.868671
    24  H    8.549258   7.088136   6.222230   4.786688   4.006282
    25  H   10.726439   9.326827   8.282172   6.916713   5.872301
    26  Cl  11.980984  10.760597   9.456612   8.306795   7.018566
    27  C   10.092246   9.132914   7.655272   6.859250   5.499332
    28  F    9.361235   8.566292   7.043374   6.484448   5.180098
    29  F   10.951683   9.994796   8.533416   7.729691   6.387729
    30  F   10.950205   9.997308   8.529093   7.730067   6.383815
                    6          7          8          9         10
     6  O    0.000000
     7  N    2.259654   0.000000
     8  C    2.897658   1.440582   0.000000
     9  C    2.869002   2.530569   1.416789   0.000000
    10  C    4.280582   2.432690   1.405692   2.418046   0.000000
    11  C    5.281136   3.727787   2.439385   2.793035   1.392804
    12  C    5.271038   4.269958   2.831548   2.432591   2.420086
    13  C    4.233593   3.812372   2.465081   1.412023   2.807197
    14  H    6.196052   6.975760   8.354823   8.924799   9.366199
    15  H    5.202807   6.399083   7.661018   8.011301   8.815418
    16  H    5.209074   6.401695   7.666310   8.024844   8.815185
    17  H    4.637148   4.910113   6.313775   7.060637   7.209957
    18  H    4.642900   4.912626   6.319202   7.074792   7.208855
    19  H    2.738742   4.051313   5.203856   5.497113   6.419487
    20  H    2.732159   4.049414   5.198813   5.481164   6.421788
    21  H    3.150617   2.555045   3.994906   4.963349   4.781260
    22  H    3.149506   1.032165   2.105692   3.413476   2.557274
    23  H    2.237704   2.810131   2.178262   1.071459   3.404493
    24  H    4.789982   2.638339   2.164419   3.409104   1.083074
    25  H    6.297704   4.575541   3.412576   3.875844   2.142981
    26  Cl   6.947211   6.029120   4.592506   4.078561   4.020456
    27  C    4.928893   5.075510   3.854216   2.544943   4.323170
    28  F    4.348020   5.111905   4.176196   2.759959   5.014397
    29  F    5.847437   5.912981   4.664378   3.471277   4.959261
    30  F    5.832810   5.915249   4.665685   3.471893   4.961104
                   11         12         13         14         15
    11  C    0.000000
    12  C    1.394226   0.000000
    13  C    2.429246   1.410909   0.000000
    14  H   10.700949  11.144209  10.334812   0.000000
    15  H   10.070381  10.334941   9.390659   1.804657   0.000000
    16  H   10.072310  10.343267   9.404745   1.804747   1.810908
    17  H    8.562399   9.119497   8.456136   2.484956   2.504865
    18  H    8.563775   9.127853   8.470555   2.485900   3.089897
    19  H    7.613252   7.815112   6.869610   3.774294   3.129334
    20  H    7.613005   7.807180   6.854103   3.772056   2.551705
    21  H    6.157572   6.819349   6.320247   4.673431   4.509900
    22  H    3.948578   4.772084   4.570728   6.919999   6.570047
    23  H    3.863815   3.386692   2.126991   8.432172   7.387879
    24  H    2.132638   3.388669   3.889938   9.228060   8.856521
    25  H    1.082860   2.151785   3.412209  11.490694  10.949696
    26  Cl   2.710678   1.762106   2.781868  12.898187  12.052607
    27  C    3.818960   2.539039   1.515977  11.123937  10.023081
    28  F    4.836461   3.716882   2.408161  10.433487   9.217691
    29  F    4.274219   2.971982   2.370072  11.977050  10.783719
    30  F    4.275543   2.972434   2.370258  11.979898  10.966196
                   16         17         18         19         20
    16  H    0.000000
    17  H    3.089655   0.000000
    18  H    2.504320   1.807786   0.000000
    19  H    2.554464   3.091318   2.507708   0.000000
    20  H    3.131179   2.504408   3.090897   1.811400   0.000000
    21  H    4.508652   2.557461   2.554897   2.873272   2.874984
    22  H    6.569158   4.740258   4.738418   4.428538   4.430846
    23  H    7.407872   6.750517   6.771068   4.908309   4.882711
    24  H    8.850482   7.007032   6.998799   6.596722   6.605981
    25  H   10.948285   9.297791   9.295347   8.533089   8.536789
    26  Cl  12.061834  10.873945  10.883071   9.521926   9.513382
    27  C   10.043842   9.415693   9.436439   7.551880   7.528648
    28  F    9.244398   8.931048   8.957169   6.847673   6.816564
    29  F   10.991887  10.165789  10.384682   8.547116   8.281976
    30  F   10.799413  10.370529  10.192989   8.295882   8.516187
                   21         22         23         24         25
    21  H    0.000000
    22  H    2.261661   0.000000
    23  H    4.911076   3.818317   0.000000
    24  H    4.557149   2.315432   4.319969   0.000000
    25  H    6.865948   4.607921   4.946675   2.439296   0.000000
    26  Cl   8.574435   6.487806   4.908190   4.842489   2.830343
    27  C    7.467419   5.934170   2.697980   5.405850   4.689051
    28  F    7.241436   6.085640   2.344723   6.074334   5.810475
    29  F    8.307577   6.717999   3.675129   6.006870   4.995724
    30  F    8.314437   6.725596   3.676492   6.009098   4.997173
                   26         27         28         29         30
    26  Cl   0.000000
    27  C    3.117696   0.000000
    28  F    4.498832   1.384417   0.000000
    29  F    3.051159   1.383224   2.240689   0.000000
    30  F    3.050942   1.383182   2.240749   2.254770   0.000000
 Stoichiometry    C11H12ClF3N2O
 Framework group  C1[X(C11H12ClF3N2O)]
 Deg. of freedom    84
 Full point group                 C1      NOp   1
 Largest Abelian subgroup         C1      NOp   1
 Largest concise Abelian subgroup C1      NOp   1
                         Standard orientation:                         
 ---------------------------------------------------------------------
 Center     Atomic      Atomic             Coordinates (Angstroms)
 Number     Number       Type             X           Y           Z
 ---------------------------------------------------------------------
      1          6           0        7.289264    0.807057    0.001815
      2          6           0        6.182092   -0.242872    0.016532
      3          6           0        4.796046    0.411595   -0.010018
      4          7           0        3.745668   -0.591915    0.004191
      5          6           0        2.425471   -0.251986   -0.008071
      6          8           0        2.114800    0.928100   -0.031799
      7          7           0        1.476331   -1.239154    0.005637
      8          6           0        0.042763   -1.097226    0.001887
      9          6           0       -0.644157    0.141899    0.003129
     10          6           0       -0.724894   -2.274795   -0.000502
     11          6           0       -2.117014   -2.231221   -0.002799
     12          6           0       -2.787400   -1.008745   -0.001750
     13          6           0       -2.055094    0.197231    0.001646
     14          1           0        8.279139    0.304452    0.023355
     15          1           0        7.206596    1.467999    0.890877
     16          1           0        7.223645    1.424366   -0.919425
     17          1           0        6.282518   -0.859743    0.936133
     18          1           0        6.298337   -0.902238   -0.871085
     19          1           0        4.699962    1.029156   -0.930370
     20          1           0        4.686263    1.069232    0.880535
     21          1           0        4.007048   -1.590330    0.025590
     22          1           0        1.831432   -2.208207    0.019877
     23          1           0       -0.117727    1.075109    0.007315
     24          1           0       -0.239733   -3.243129   -0.000995
     25          1           0       -2.677530   -3.157720   -0.005014
     26         17           0       -4.549314   -1.034689   -0.003817
     27          6           0       -2.777036    1.530265    0.004661
     28          9           0       -1.898607    2.600294    0.008258
     29          9           0       -3.573306    1.623746    1.131835
     30          9           0       -3.571893    1.629986   -1.122925
 ---------------------------------------------------------------------
 Rotational constants (GHZ):      0.8635534      0.1371228      0.1213605
 General basis read from cards:  (6D, 7F)
 There are   370 symmetry adapted cartesian basis functions of A   symmetry.
 There are   370 symmetry adapted basis functions of A   symmetry.
   370 basis functions,   648 primitive gaussians,   370 cartesian basis functions
    72 alpha electrons       72 beta electrons
       nuclear repulsion energy      1427.9536518124 Hartrees.
 NAtoms=   30 NActive=   30 NUniq=   30 SFac= 1.00D+00 NAtFMM=   60 NAOKFM=F Big=F
 Integral buffers will be    131072 words long.
 Raffenetti 2 integral format.
 Two-electron integral symmetry is turned on.
 One-electron integrals computed using PRISM.
 NBasis=   370 RedAO= T EigKep=  1.50D-06  NBF=   370
 NBsUse=   369 1.00D-06 EigRej=  3.58D-07 NBFU=   369
 ExpMin= 4.38D-02 ExpMax= 2.52D+04 ExpMxC= 3.78D+03 IAcc=3 IRadAn=         5 AccDes= 0.00D+00
 Harris functional with IExCor= 1009 and IRadAn=       5 diagonalized for initial guess.
 HarFok:  IExCor= 1009 AccDes= 0.00D+00 IRadAn=         5 IDoV= 1 UseB2=F ITyADJ=14
 ICtDFT=  3500011 ScaDFX=  1.000000  1.000000  1.000000  1.000000
 FoFCou: FMM=F IPFlag=           0 FMFlag=      100000 FMFlg1=           0
         NFxFlg=           0 DoJE=T BraDBF=F KetDBF=T FulRan=T
         wScrn=  0.000000 ICntrl=     500 IOpCl=  0 I1Cent=   200000004 NGrid=           0
         NMat0=    1 NMatS0=      1 NMatT0=    0 NMatD0=    1 NMtDS0=    0 NMtDT0=    0
 Petite list used in FoFCou.
 Requested convergence on RMS density matrix=1.00D-08 within 128 cycles.
 Requested convergence on MAX density matrix=1.00D-06.
 Requested convergence on             energy=1.00D-06.
 No special actions if energy rises.
 SCF Done:  E(RM062X) =  -1370.51872207     A.U. after   15 cycles
            NFock= 15  Conv=0.76D-08     -V/T= 2.0069
 DoSCS=F DFT=T ScalE2(SS,OS)=  1.000000  1.000000
 Range of M.O.s used for correlation:     1   369
 NBasis=   370 NAE=    72 NBE=    72 NFC=     0 NFV=     0
 NROrb=    369 NOA=    72 NOB=    72 NVA=   297 NVB=   297

 **** Warning!!: The largest alpha MO coefficient is  0.15278449D+03

 Symmetrizing basis deriv contribution to polar:
 IMax=3 JMax=2 DiffMx= 0.00D+00
 G2DrvN: will do    31 centers at a time, making    1 passes.
 Calling FoFCou, ICntrl=  3107 FMM=F I1Cent=   0 AccDes= 0.00D+00.
 End of G2Drv F.D. properties file   721 does not exist.
 End of G2Drv F.D. properties file   722 does not exist.
 End of G2Drv F.D. properties file   788 does not exist.
          IDoAtm=111111111111111111111111111111
          Differentiating once with respect to nuclear coordinates.
          There are    93 degrees of freedom in the 1st order CPHF.  IDoFFX=6 NUNeed=     0.
     87 vectors produced by pass  0 Test12= 2.30D-14 1.08D-09 XBig12= 3.39D-01 1.42D-01.
 AX will form    87 AO Fock derivatives at one time.
     87 vectors produced by pass  1 Test12= 2.30D-14 1.08D-09 XBig12= 2.87D-02 4.02D-02.
     87 vectors produced by pass  2 Test12= 2.30D-14 1.08D-09 XBig12= 6.05D-04 3.17D-03.
     87 vectors produced by pass  3 Test12= 2.30D-14 1.08D-09 XBig12= 4.59D-06 3.09D-04.
     87 vectors produced by pass  4 Test12= 2.30D-14 1.08D-09 XBig12= 3.54D-08 2.06D-05.
     87 vectors produced by pass  5 Test12= 2.30D-14 1.08D-09 XBig12= 1.74D-10 1.21D-06.
     67 vectors produced by pass  6 Test12= 2.30D-14 1.08D-09 XBig12= 6.88D-13 8.53D-08.
     29 vectors produced by pass  7 Test12= 2.30D-14 1.08D-09 XBig12= 3.07D-15 5.45D-09.
     19 vectors produced by pass  8 Test12= 2.30D-14 1.08D-09 XBig12= 3.59D-15 6.83D-09.
     19 vectors produced by pass  9 Test12= 2.30D-14 1.08D-09 XBig12= 1.33D-14 9.90D-09.
     11 vectors produced by pass 10 Test12= 2.30D-14 1.08D-09 XBig12= 2.81D-15 4.69D-09.
     11 vectors produced by pass 11 Test12= 2.30D-14 1.08D-09 XBig12= 1.25D-14 8.59D-09.
     11 vectors produced by pass 12 Test12= 2.30D-14 1.08D-09 XBig12= 4.35D-15 6.00D-09.
     11 vectors produced by pass 13 Test12= 2.30D-14 1.08D-09 XBig12= 7.68D-15 8.10D-09.
     11 vectors produced by pass 14 Test12= 2.30D-14 1.08D-09 XBig12= 4.15D-15 5.96D-09.
     11 vectors produced by pass 15 Test12= 2.30D-14 1.08D-09 XBig12= 6.34D-15 6.97D-09.
     10 vectors produced by pass 16 Test12= 2.30D-14 1.08D-09 XBig12= 5.16D-15 5.37D-09.
     10 vectors produced by pass 17 Test12= 2.30D-14 1.08D-09 XBig12= 5.41D-15 6.32D-09.
      9 vectors produced by pass 18 Test12= 2.30D-14 1.08D-09 XBig12= 2.67D-15 3.86D-09.
      9 vectors produced by pass 19 Test12= 2.30D-14 1.08D-09 XBig12= 7.37D-15 8.16D-09.
      6 vectors produced by pass 20 Test12= 2.30D-14 1.08D-09 XBig12= 1.44D-15 2.92D-09.
      6 vectors produced by pass 21 Test12= 2.30D-14 1.08D-09 XBig12= 8.18D-15 6.68D-09.
      6 vectors produced by pass 22 Test12= 2.30D-14 1.08D-09 XBig12= 5.29D-15 5.88D-09.
      6 vectors produced by pass 23 Test12= 2.30D-14 1.08D-09 XBig12= 4.25D-15 5.30D-09.
      6 vectors produced by pass 24 Test12= 2.30D-14 1.08D-09 XBig12= 2.96D-15 4.08D-09.
      6 vectors produced by pass 25 Test12= 2.30D-14 1.08D-09 XBig12= 5.45D-15 4.91D-09.
      6 vectors produced by pass 26 Test12= 2.30D-14 1.08D-09 XBig12= 2.60D-15 3.59D-09.
      6 vectors produced by pass 27 Test12= 2.30D-14 1.08D-09 XBig12= 4.13D-15 5.17D-09.
      6 vectors produced by pass 28 Test12= 2.30D-14 1.08D-09 XBig12= 5.75D-15 6.70D-09.
      4 vectors produced by pass 29 Test12= 2.30D-14 1.08D-09 XBig12= 1.47D-15 2.68D-09.
      4 vectors produced by pass 30 Test12= 2.30D-14 1.08D-09 XBig12= 4.69D-15 5.03D-09.
      4 vectors produced by pass 31 Test12= 2.30D-14 1.08D-09 XBig12= 1.58D-15 2.84D-09.
      4 vectors produced by pass 32 Test12= 2.30D-14 1.08D-09 XBig12= 2.00D-15 3.10D-09.
      4 vectors produced by pass 33 Test12= 2.30D-14 1.08D-09 XBig12= 4.94D-15 5.50D-09.
      3 vectors produced by pass 34 Test12= 2.30D-14 1.08D-09 XBig12= 8.77D-16 2.10D-09.
      3 vectors produced by pass 35 Test12= 2.30D-14 1.08D-09 XBig12= 3.36D-15 4.12D-09.
      3 vectors produced by pass 36 Test12= 2.30D-14 1.08D-09 XBig12= 3.28D-15 4.00D-09.
      3 vectors produced by pass 37 Test12= 2.30D-14 1.08D-09 XBig12= 3.25D-15 3.89D-09.
      3 vectors produced by pass 38 Test12= 2.30D-14 1.08D-09 XBig12= 5.90D-15 5.81D-09.
      3 vectors produced by pass 39 Test12= 2.30D-14 1.08D-09 XBig12= 1.04D-15 2.49D-09.
      3 vectors produced by pass 40 Test12= 2.30D-14 1.08D-09 XBig12= 2.56D-15 3.89D-09.
      3 vectors produced by pass 41 Test12= 2.30D-14 1.08D-09 XBig12= 7.04D-15 6.03D-09.
      3 vectors produced by pass 42 Test12= 2.30D-14 1.08D-09 XBig12= 1.84D-15 2.97D-09.
      3 vectors produced by pass 43 Test12= 2.30D-14 1.08D-09 XBig12= 4.49D-15 4.93D-09.
      3 vectors produced by pass 44 Test12= 2.30D-14 1.08D-09 XBig12= 2.28D-15 3.52D-09.
      3 vectors produced by pass 45 Test12= 2.30D-14 1.08D-09 XBig12= 2.75D-15 4.88D-09.
      3 vectors produced by pass 46 Test12= 2.30D-14 1.08D-09 XBig12= 2.17D-15 4.08D-09.
      3 vectors produced by pass 47 Test12= 2.30D-14 1.08D-09 XBig12= 3.67D-15 4.02D-09.
      3 vectors produced by pass 48 Test12= 2.30D-14 1.08D-09 XBig12= 4.84D-15 5.13D-09.
      3 vectors produced by pass 49 Test12= 2.30D-14 1.08D-09 XBig12= 2.43D-15 3.45D-09.
      3 vectors produced by pass 50 Test12= 2.30D-14 1.08D-09 XBig12= 2.35D-15 3.04D-09.
      3 vectors produced by pass 51 Test12= 2.30D-14 1.08D-09 XBig12= 2.26D-15 3.24D-09.
      3 vectors produced by pass 52 Test12= 2.30D-14 1.08D-09 XBig12= 8.49D-15 7.46D-09.
      3 vectors produced by pass 53 Test12= 2.30D-14 1.08D-09 XBig12= 2.46D-15 3.80D-09.
      3 vectors produced by pass 54 Test12= 2.30D-14 1.08D-09 XBig12= 1.21D-15 2.67D-09.
      3 vectors produced by pass 55 Test12= 2.30D-14 1.08D-09 XBig12= 1.14D-15 3.26D-09.
      3 vectors produced by pass 56 Test12= 2.30D-14 1.08D-09 XBig12= 2.28D-15 3.71D-09.
      3 vectors produced by pass 57 Test12= 2.30D-14 1.08D-09 XBig12= 1.46D-15 2.85D-09.
      3 vectors produced by pass 58 Test12= 2.30D-14 1.08D-09 XBig12= 9.34D-16 2.72D-09.
      3 vectors produced by pass 59 Test12= 2.30D-14 1.08D-09 XBig12= 1.58D-15 3.10D-09.
      3 vectors produced by pass 60 Test12= 2.30D-14 1.08D-09 XBig12= 1.95D-15 2.81D-09.
      3 vectors produced by pass 61 Test12= 2.30D-14 1.08D-09 XBig12= 2.98D-15 3.43D-09.
      3 vectors produced by pass 62 Test12= 2.30D-14 1.08D-09 XBig12= 2.71D-15 3.79D-09.
      3 vectors produced by pass 63 Test12= 2.30D-14 1.08D-09 XBig12= 1.02D-15 2.22D-09.
      3 vectors produced by pass 64 Test12= 2.30D-14 1.08D-09 XBig12= 1.82D-15 2.64D-09.
      3 vectors produced by pass 65 Test12= 2.30D-14 1.08D-09 XBig12= 4.35D-15 4.54D-09.
      3 vectors produced by pass 66 Test12= 2.30D-14 1.08D-09 XBig12= 4.44D-15 4.94D-09.
      3 vectors produced by pass 67 Test12= 2.30D-14 1.08D-09 XBig12= 9.37D-16 2.65D-09.
      3 vectors produced by pass 68 Test12= 2.30D-14 1.08D-09 XBig12= 3.50D-15 4.25D-09.
      3 vectors produced by pass 69 Test12= 2.30D-14 1.08D-09 XBig12= 1.69D-15 3.04D-09.
      3 vectors produced by pass 70 Test12= 2.30D-14 1.08D-09 XBig12= 1.93D-15 2.52D-09.
      3 vectors produced by pass 71 Test12= 2.30D-14 1.08D-09 XBig12= 2.37D-15 3.59D-09.
      3 vectors produced by pass 72 Test12= 2.30D-14 1.08D-09 XBig12= 1.74D-15 3.01D-09.
      3 vectors produced by pass 73 Test12= 2.30D-14 1.08D-09 XBig12= 2.72D-15 3.35D-09.
      2 vectors produced by pass 74 Test12= 2.30D-14 1.08D-09 XBig12= 8.01D-16 1.76D-09.
 InvSVY:  IOpt=1 It=  1 EMax= 6.66D-16
 Solved reduced A of dimension   956 with    93 vectors.
 End of Minotr F.D. properties file   721 does not exist.
 End of Minotr F.D. properties file   722 does not exist.
 End of Minotr F.D. properties file   788 does not exist.

 **********************************************************************

            Population analysis using the SCF density.

 **********************************************************************

 Orbital symmetries:
       Occupied  (A) (A) (A) (A) (A) (A) (A) (A) (A) (A) (A) (A)
                 (A) (A) (A) (A) (A) (A) (A) (A) (A) (A) (A) (A)
                 (A) (A) (A) (A) (A) (A) (A) (A) (A) (A) (A) (A)
                 (A) (A) (A) (A) (A) (A) (A) (A) (A) (A) (A) (A)
                 (A) (A) (A) (A) (A) (A) (A) (A) (A) (A) (A) (A)
                 (A) (A) (A) (A) (A) (A) (A) (A) (A) (A) (A) (A)
       Virtual   (A) (A) (A) (A) (A) (A) (A) (A) (A) (A) (A) (A)
                 (A) (A) (A) (A) (A) (A) (A) (A) (A) (A) (A) (A)
                 (A) (A) (A) (A) (A) (A) (A) (A) (A) (A) (A) (A)
                 (A) (A) (A) (A) (A) (A) (A) (A) (A) (A) (A) (A)
                 (A) (A) (A) (A) (A) (A) (A) (A) (A) (A) (A) (A)
                 (A) (A) (A) (A) (A) (A) (A) (A) (A) (A) (A) (A)
                 (A) (A) (A) (A) (A) (A) (A) (A) (A) (A) (A) (A)
                 (A) (A) (A) (A) (A) (A) (A) (A) (A) (A) (A) (A)
                 (A) (A) (A) (A) (A) (A) (A) (A) (A) (A) (A) (A)
                 (A) (A) (A) (A) (A) (A) (A) (A) (A) (A) (A) (A)
                 (A) (A) (A) (A) (A) (A) (A) (A) (A) (A) (A) (A)
                 (A) (A) (A) (A) (A) (A) (A) (A) (A) (A) (A) (A)
                 (A) (A) (A) (A) (A) (A) (A) (A) (A) (A) (A) (A)
                 (A) (A) (A) (A) (A) (A) (A) (A) (A) (A) (A) (A)
                 (A) (A) (A) (A) (A) (A) (A) (A) (A) (A) (A) (A)
                 (A) (A) (A) (A) (A) (A) (A) (A) (A) (A) (A) (A)
                 (A) (A) (A) (A) (A) (A) (A) (A) (A) (A) (A) (A)
                 (A) (A) (A) (A) (A) (A) (A) (A) (A) (A) (A) (A)
                 (A) (A) (A) (A) (A) (A) (A) (A) (A) (A) (A) (A)
                 (A) (A) (A) (A) (A) (A) (A) (A) (A) (A) (A) (A)
                 (A) (A) (A) (A) (A) (A) (A) (A) (A) (A) (A) (A)
                 (A) (A) (A) (A) (A) (A) (A) (A) (A) (A) (A) (A)
                 (A) (A) (A) (A) (A) (A) (A) (A) (A) (A) (A) (A)
                 (A) (A) (A) (A) (A) (A) (A) (A) (A) (A) (A) (A)
                 (A) (A) (A) (A) (A) (A) (A) (A) (A)
 The electronic state is 1-A.
 Alpha  occ. eigenvalues -- -102.67903 -25.30227 -25.29795 -25.29794 -19.61251
 Alpha  occ. eigenvalues --  -14.82673 -14.80350 -10.82419 -10.69442 -10.63927
 Alpha  occ. eigenvalues --  -10.63915 -10.60726 -10.59849 -10.59055 -10.58893
 Alpha  occ. eigenvalues --  -10.58468 -10.57079 -10.55774  -9.82508  -7.54927
 Alpha  occ. eigenvalues --   -7.54238  -7.54221  -1.43954  -1.36172  -1.36033
 Alpha  occ. eigenvalues --   -1.18952  -1.06642  -1.04166  -1.00921  -0.94662
 Alpha  occ. eigenvalues --   -0.90445  -0.89653  -0.85116  -0.81150  -0.78871
 Alpha  occ. eigenvalues --   -0.73875  -0.72280  -0.69728  -0.69053  -0.67511
 Alpha  occ. eigenvalues --   -0.67408  -0.65894  -0.64538  -0.59967  -0.57679
 Alpha  occ. eigenvalues --   -0.57289  -0.56445  -0.56287  -0.55129  -0.54972
 Alpha  occ. eigenvalues --   -0.53560  -0.52953  -0.52799  -0.51550  -0.50899
 Alpha  occ. eigenvalues --   -0.50532  -0.49121  -0.48857  -0.47926  -0.46948
 Alpha  occ. eigenvalues --   -0.45701  -0.44655  -0.43937  -0.42689  -0.41630
 Alpha  occ. eigenvalues --   -0.41304  -0.38312  -0.37185  -0.35013  -0.33946
 Alpha  occ. eigenvalues --   -0.32977  -0.28731
 Alpha virt. eigenvalues --   -0.01865  -0.01525  -0.00339   0.01302   0.02182
 Alpha virt. eigenvalues --    0.02647   0.03138   0.03484   0.04061   0.04867
 Alpha virt. eigenvalues --    0.05615   0.05640   0.05764   0.06743   0.07159
 Alpha virt. eigenvalues --    0.07213   0.07794   0.07948   0.08399   0.08585
 Alpha virt. eigenvalues --    0.09252   0.09338   0.09932   0.10436   0.11432
 Alpha virt. eigenvalues --    0.11885   0.12168   0.12487   0.13133   0.13495
 Alpha virt. eigenvalues --    0.13825   0.14383   0.14746   0.14845   0.15870
 Alpha virt. eigenvalues --    0.16220   0.16484   0.17492   0.17866   0.17969
 Alpha virt. eigenvalues --    0.18754   0.19004   0.19198   0.20097   0.20609
 Alpha virt. eigenvalues --    0.21140   0.21363   0.21451   0.21827   0.22394
 Alpha virt. eigenvalues --    0.22756   0.22954   0.23374   0.23845   0.24451
 Alpha virt. eigenvalues --    0.24477   0.24605   0.25158   0.25453   0.26374
 Alpha virt. eigenvalues --    0.26500   0.27237   0.27623   0.28022   0.28513
 Alpha virt. eigenvalues --    0.28973   0.29892   0.30152   0.30649   0.30705
 Alpha virt. eigenvalues --    0.31328   0.31570   0.31713   0.32443   0.33246
 Alpha virt. eigenvalues --    0.33689   0.34573   0.34714   0.35177   0.36216
 Alpha virt. eigenvalues --    0.36281   0.37310   0.37502   0.38190   0.38913
 Alpha virt. eigenvalues --    0.39608   0.39731   0.41282   0.41710   0.41938
 Alpha virt. eigenvalues --    0.42822   0.43969   0.44586   0.45369   0.45822
 Alpha virt. eigenvalues --    0.47673   0.48295   0.49437   0.51670   0.52354
 Alpha virt. eigenvalues --    0.53086   0.56648   0.57164   0.60404   0.61212
 Alpha virt. eigenvalues --    0.67078   0.67256   0.67610   0.67973   0.69089
 Alpha virt. eigenvalues --    0.69720   0.72598   0.72951   0.73186   0.73778
 Alpha virt. eigenvalues --    0.74556   0.75033   0.75372   0.75664   0.77466
 Alpha virt. eigenvalues --    0.78046   0.78594   0.80661   0.80831   0.81895
 Alpha virt. eigenvalues --    0.83152   0.83204   0.85515   0.86262   0.87051
 Alpha virt. eigenvalues --    0.87763   0.88084   0.90031   0.91711   0.94084
 Alpha virt. eigenvalues --    0.96328   0.96885   0.97905   0.98330   0.98492
 Alpha virt. eigenvalues --    1.00329   1.01560   1.02248   1.02584   1.03388
 Alpha virt. eigenvalues --    1.03755   1.04375   1.06517   1.07273   1.09301
 Alpha virt. eigenvalues --    1.09474   1.10573   1.11562   1.13046   1.14493
 Alpha virt. eigenvalues --    1.15638   1.15855   1.16783   1.17983   1.20653
 Alpha virt. eigenvalues --    1.21352   1.22421   1.25404   1.26107   1.27123
 Alpha virt. eigenvalues --    1.30403   1.30712   1.31858   1.35272   1.36227
 Alpha virt. eigenvalues --    1.37393   1.38486   1.40587   1.42740   1.43740
 Alpha virt. eigenvalues --    1.44121   1.45362   1.46462   1.48180   1.48516
 Alpha virt. eigenvalues --    1.50602   1.50974   1.54139   1.56015   1.56195
 Alpha virt. eigenvalues --    1.57483   1.58847   1.60414   1.65902   1.67101
 Alpha virt. eigenvalues --    1.67699   1.69700   1.70217   1.74337   1.74474
 Alpha virt. eigenvalues --    1.75900   1.76652   1.76892   1.79175   1.79333
 Alpha virt. eigenvalues --    1.81675   1.83086   1.85079   1.86042   1.86190
 Alpha virt. eigenvalues --    1.86241   1.87422   1.87675   1.88819   1.89312
 Alpha virt. eigenvalues --    1.90792   1.91198   1.92564   1.92666   1.93945
 Alpha virt. eigenvalues --    1.96057   1.97489   1.98046   2.01105   2.01864
 Alpha virt. eigenvalues --    2.02847   2.03497   2.03699   2.04431   2.06266
 Alpha virt. eigenvalues --    2.06704   2.08316   2.08910   2.09112   2.13014
 Alpha virt. eigenvalues --    2.13395   2.13920   2.16060   2.18614   2.19284
 Alpha virt. eigenvalues --    2.19861   2.21226   2.22988   2.25635   2.25924
 Alpha virt. eigenvalues --    2.27722   2.29518   2.29600   2.34388   2.36175
 Alpha virt. eigenvalues --    2.37234   2.38319   2.38542   2.40721   2.40932
 Alpha virt. eigenvalues --    2.46479   2.49309   2.49828   2.55119   2.58991
 Alpha virt. eigenvalues --    2.63441   2.63653   2.64383   2.66856   2.69937
 Alpha virt. eigenvalues --    2.73174   2.73799   2.77136   2.77465   2.78103
 Alpha virt. eigenvalues --    2.79622   2.80743   2.84829   2.90174   2.96748
 Alpha virt. eigenvalues --    3.00608   3.08764   3.11524   3.14328   3.25726
 Alpha virt. eigenvalues --    3.27519   3.28338   3.32087   3.39697   4.13713
 Alpha virt. eigenvalues --    4.23966   4.24964   4.30803   4.34590   4.37363
 Alpha virt. eigenvalues --    4.40209   4.42888   4.46168   4.48576   4.49778
 Alpha virt. eigenvalues --    4.57146   4.60458   4.68641   4.77618   5.52663
 Alpha virt. eigenvalues --    6.09855   6.87218
          Condensed to atoms (all electrons):
               1          2          3          4          5          6
     1  C    5.542305   0.019902  -0.033077  -0.004597  -0.018883  -0.001800
     2  C    0.019902   6.130046  -0.378932  -0.086677   0.118806   0.018859
     3  C   -0.033077  -0.378932   6.578725   0.358482  -0.479411  -0.072964
     4  N   -0.004597  -0.086677   0.358482   7.746580   0.337940  -0.201955
     5  C   -0.018883   0.118806  -0.479411   0.337940   6.054370   0.687136
     6  O   -0.001800   0.018859  -0.072964  -0.201955   0.687136   8.275618
     7  N   -0.001111   0.019268  -0.133862  -0.441182   0.016795  -0.068810
     8  C   -0.004955   0.011717  -0.330856  -0.212684  -0.998960  -0.510682
     9  C    0.001290  -0.000782   0.072594   0.082194   0.830890   0.485539
    10  C   -0.001581   0.004405  -0.104404  -0.119898  -1.526478  -0.124088
    11  C   -0.000022  -0.000637   0.005032   0.007426   0.042354   0.009238
    12  C   -0.000016   0.000234  -0.009767  -0.008416  -0.052458  -0.016341
    13  C    0.000219  -0.000633   0.011319   0.037352   0.301425   0.088668
    14  H    0.409416  -0.084320   0.027648   0.000554  -0.002134   0.000009
    15  H    0.415695  -0.064402  -0.008439   0.000549   0.001204  -0.000061
    16  H    0.414414  -0.064281  -0.007955   0.000581   0.001855  -0.000061
    17  H   -0.031677   0.416787  -0.082590   0.007221   0.001776  -0.000236
    18  H   -0.029799   0.414474  -0.078349   0.007144  -0.001758  -0.000231
    19  H    0.004789  -0.055064   0.422349  -0.057748  -0.004837   0.000733
    20  H    0.005143  -0.055583   0.425391  -0.058008  -0.007131   0.000667
    21  H   -0.001720   0.002112  -0.091077   0.227021   0.042891   0.008614
    22  H   -0.000093  -0.000057   0.005080   0.025843  -0.005144   0.007270
    23  H    0.000005  -0.000020   0.002406   0.000294   0.014860   0.000903
    24  H    0.000000   0.000006  -0.000063   0.001392  -0.001389   0.000027
    25  H    0.000000   0.000000   0.000018   0.000007   0.001924   0.000001
    26  Cl  -0.000001   0.000005  -0.000140   0.000061  -0.007890   0.000076
    27  C   -0.000049   0.000199  -0.006858   0.006390  -0.111096   0.010427
    28  F    0.000000   0.000007   0.000261  -0.000021   0.005979  -0.000672
    29  F    0.000000  -0.000001   0.000026   0.000002   0.002357  -0.000007
    30  F    0.000000  -0.000001   0.000032   0.000003   0.002701  -0.000009
               7          8          9         10         11         12
     1  C   -0.001111  -0.004955   0.001290  -0.001581  -0.000022  -0.000016
     2  C    0.019268   0.011717  -0.000782   0.004405  -0.000637   0.000234
     3  C   -0.133862  -0.330856   0.072594  -0.104404   0.005032  -0.009767
     4  N   -0.441182  -0.212684   0.082194  -0.119898   0.007426  -0.008416
     5  C    0.016795  -0.998960   0.830890  -1.526478   0.042354  -0.052458
     6  O   -0.068810  -0.510682   0.485539  -0.124088   0.009238  -0.016341
     7  N    7.875319   0.012848  -0.355739   0.367095   0.032013   0.023750
     8  C    0.012848  16.780942  -3.294659   0.719484  -0.109080  -1.611907
     9  C   -0.355739  -3.294659  13.283947  -6.302204   0.064226  -2.353334
    10  C    0.367095   0.719484  -6.302204  16.452272  -1.018711   0.114131
    11  C    0.032013  -0.109080   0.064226  -1.018711   9.066558  -1.202578
    12  C    0.023750  -1.611907  -2.353334   0.114131  -1.202578  16.053197
    13  C    0.039242  -3.388650   2.544170  -1.963707  -0.946985  -3.975462
    14  H    0.000011  -0.000041   0.000004  -0.000001   0.000000  -0.000000
    15  H    0.000015   0.000043  -0.000032   0.000001   0.000000   0.000000
    16  H    0.000018   0.000048  -0.000024   0.000000   0.000000   0.000000
    17  H    0.000198  -0.000166  -0.000070   0.000055   0.000001   0.000001
    18  H    0.000090  -0.000247  -0.000180   0.000063   0.000003   0.000000
    19  H    0.000553  -0.004546   0.003857  -0.001115  -0.000006   0.000025
    20  H    0.000623  -0.004952   0.003821  -0.000981  -0.000010   0.000034
    21  H    0.035714   0.019243   0.002041  -0.000844  -0.000026   0.000255
    22  H    0.224850  -0.034096   0.074447  -0.104091   0.036052  -0.007223
    23  H   -0.015269   0.061645   0.339747   0.053860  -0.033736  -0.068393
    24  H   -0.012109   0.106262   0.068598   0.148067   0.009636  -0.051740
    25  H    0.000298  -0.015931  -0.010542  -0.030144   0.193452   0.058926
    26  Cl  -0.000799   0.009430   0.018236   0.129560  -0.069808  -0.282887
    27  C    0.004050  -1.210682  -0.204204   0.372287   0.061572  -0.478716
    28  F   -0.000934   0.123095   0.073606   0.001947   0.012321  -0.033656
    29  F    0.000254   0.034762   0.048419  -0.017281  -0.000055  -0.267321
    30  F    0.000272   0.035118   0.049176  -0.019032   0.001705  -0.268458
              13         14         15         16         17         18
     1  C    0.000219   0.409416   0.415695   0.414414  -0.031677  -0.029799
     2  C   -0.000633  -0.084320  -0.064402  -0.064281   0.416787   0.414474
     3  C    0.011319   0.027648  -0.008439  -0.007955  -0.082590  -0.078349
     4  N    0.037352   0.000554   0.000549   0.000581   0.007221   0.007144
     5  C    0.301425  -0.002134   0.001204   0.001855   0.001776  -0.001758
     6  O    0.088668   0.000009  -0.000061  -0.000061  -0.000236  -0.000231
     7  N    0.039242   0.000011   0.000015   0.000018   0.000198   0.000090
     8  C   -3.388650  -0.000041   0.000043   0.000048  -0.000166  -0.000247
     9  C    2.544170   0.000004  -0.000032  -0.000024  -0.000070  -0.000180
    10  C   -1.963707  -0.000001   0.000001   0.000000   0.000055   0.000063
    11  C   -0.946985   0.000000   0.000000   0.000000   0.000001   0.000003
    12  C   -3.975462  -0.000000   0.000000   0.000000   0.000001   0.000000
    13  C   15.761311  -0.000000   0.000001   0.000001   0.000001  -0.000002
    14  H   -0.000000   0.490694  -0.024049  -0.024034  -0.003082  -0.003063
    15  H    0.000001  -0.024049   0.492264  -0.027757  -0.004850   0.003960
    16  H    0.000001  -0.024034  -0.027757   0.492185   0.003958  -0.004865
    17  H    0.000001  -0.003082  -0.004850   0.003958   0.511934  -0.034091
    18  H   -0.000002  -0.003063   0.003960  -0.004865  -0.034091   0.512274
    19  H    0.000262  -0.000060  -0.000333   0.002709   0.003904  -0.005380
    20  H    0.000285  -0.000060   0.002727  -0.000327  -0.005416   0.003912
    21  H   -0.000876  -0.000003   0.000001   0.000001   0.001018   0.001020
    22  H    0.011024  -0.000000  -0.000000  -0.000000   0.000002   0.000002
    23  H   -0.065134  -0.000000  -0.000000  -0.000000  -0.000000  -0.000000
    24  H    0.016343   0.000000  -0.000000  -0.000000   0.000000   0.000000
    25  H    0.115974  -0.000000   0.000000   0.000000   0.000000   0.000000
    26  Cl  -0.055437  -0.000000  -0.000000  -0.000000  -0.000000  -0.000000
    27  C   -1.794420  -0.000000  -0.000000  -0.000000  -0.000000  -0.000000
    28  F   -0.234504   0.000000  -0.000000   0.000000  -0.000000  -0.000000
    29  F    0.295733  -0.000000  -0.000000   0.000000   0.000000  -0.000000
    30  F    0.297204  -0.000000   0.000000  -0.000000  -0.000000   0.000000
              19         20         21         22         23         24
     1  C    0.004789   0.005143  -0.001720  -0.000093   0.000005   0.000000
     2  C   -0.055064  -0.055583   0.002112  -0.000057  -0.000020   0.000006
     3  C    0.422349   0.425391  -0.091077   0.005080   0.002406  -0.000063
     4  N   -0.057748  -0.058008   0.227021   0.025843   0.000294   0.001392
     5  C   -0.004837  -0.007131   0.042891  -0.005144   0.014860  -0.001389
     6  O    0.000733   0.000667   0.008614   0.007270   0.000903   0.000027
     7  N    0.000553   0.000623   0.035714   0.224850  -0.015269  -0.012109
     8  C   -0.004546  -0.004952   0.019243  -0.034096   0.061645   0.106262
     9  C    0.003857   0.003821   0.002041   0.074447   0.339747   0.068598
    10  C   -0.001115  -0.000981  -0.000844  -0.104091   0.053860   0.148067
    11  C   -0.000006  -0.000010  -0.000026   0.036052  -0.033736   0.009636
    12  C    0.000025   0.000034   0.000255  -0.007223  -0.068393  -0.051740
    13  C    0.000262   0.000285  -0.000876   0.011024  -0.065134   0.016343
    14  H   -0.000060  -0.000060  -0.000003  -0.000000  -0.000000   0.000000
    15  H   -0.000333   0.002727   0.000001  -0.000000  -0.000000  -0.000000
    16  H    0.002709  -0.000327   0.000001  -0.000000  -0.000000  -0.000000
    17  H    0.003904  -0.005416   0.001018   0.000002  -0.000000   0.000000
    18  H   -0.005380   0.003912   0.001020   0.000002  -0.000000   0.000000
    19  H    0.493459  -0.034976   0.002796   0.000005  -0.000001   0.000000
    20  H   -0.034976   0.493212   0.002799   0.000005  -0.000001   0.000000
    21  H    0.002796   0.002799   0.347376   0.002586  -0.000001   0.000005
    22  H    0.000005   0.000005   0.002586   0.348811  -0.000131   0.006573
    23  H   -0.000001  -0.000001  -0.000001  -0.000131   0.396737  -0.000109
    24  H    0.000000   0.000000   0.000005   0.006573  -0.000109   0.500392
    25  H   -0.000000  -0.000000  -0.000000  -0.000010   0.000010  -0.004263
    26  Cl  -0.000000  -0.000000   0.000000   0.000036   0.000628   0.000750
    27  C   -0.000013  -0.000017  -0.000066   0.001416  -0.002648   0.006037
    28  F    0.000000   0.000000   0.000000  -0.000001   0.008744  -0.000002
    29  F   -0.000000   0.000000  -0.000000  -0.000000  -0.000028   0.000002
    30  F    0.000000  -0.000000  -0.000000  -0.000000  -0.000031   0.000002
              25         26         27         28         29         30
     1  C    0.000000  -0.000001  -0.000049   0.000000   0.000000   0.000000
     2  C    0.000000   0.000005   0.000199   0.000007  -0.000001  -0.000001
     3  C    0.000018  -0.000140  -0.006858   0.000261   0.000026   0.000032
     4  N    0.000007   0.000061   0.006390  -0.000021   0.000002   0.000003
     5  C    0.001924  -0.007890  -0.111096   0.005979   0.002357   0.002701
     6  O    0.000001   0.000076   0.010427  -0.000672  -0.000007  -0.000009
     7  N    0.000298  -0.000799   0.004050  -0.000934   0.000254   0.000272
     8  C   -0.015931   0.009430  -1.210682   0.123095   0.034762   0.035118
     9  C   -0.010542   0.018236  -0.204204   0.073606   0.048419   0.049176
    10  C   -0.030144   0.129560   0.372287   0.001947  -0.017281  -0.019032
    11  C    0.193452  -0.069808   0.061572   0.012321  -0.000055   0.001705
    12  C    0.058926  -0.282887  -0.478716  -0.033656  -0.267321  -0.268458
    13  C    0.115974  -0.055437  -1.794420  -0.234504   0.295733   0.297204
    14  H   -0.000000  -0.000000  -0.000000   0.000000  -0.000000  -0.000000
    15  H    0.000000  -0.000000  -0.000000  -0.000000  -0.000000   0.000000
    16  H    0.000000  -0.000000  -0.000000   0.000000   0.000000  -0.000000
    17  H    0.000000  -0.000000  -0.000000  -0.000000   0.000000  -0.000000
    18  H    0.000000  -0.000000  -0.000000  -0.000000  -0.000000   0.000000
    19  H   -0.000000  -0.000000  -0.000013   0.000000  -0.000000   0.000000
    20  H   -0.000000  -0.000000  -0.000017   0.000000   0.000000  -0.000000
    21  H   -0.000000   0.000000  -0.000066   0.000000  -0.000000  -0.000000
    22  H   -0.000010   0.000036   0.001416  -0.000001  -0.000000  -0.000000
    23  H    0.000010   0.000628  -0.002648   0.008744  -0.000028  -0.000031
    24  H   -0.004263   0.000750   0.006037  -0.000002   0.000002   0.000002
    25  H    0.455132  -0.004906   0.003257   0.000012   0.000008   0.000008
    26  Cl  -0.004906  16.974275  -0.000071   0.000249   0.003090   0.002929
    27  C    0.003257  -0.000071   7.800489   0.173476   0.036166   0.034666
    28  F    0.000012   0.000249   0.173476   9.267822  -0.036528  -0.036608
    29  F    0.000008   0.003090   0.036166  -0.036528   9.213191  -0.051074
    30  F    0.000008   0.002929   0.034666  -0.036608  -0.051074   9.212926
 Mulliken charges:
               1
     1  C   -0.683798
     2  C   -0.365437
     3  C   -0.090615
     4  N   -0.655850
     5  C    0.752309
     6  O   -0.595869
     7  N   -0.623461
     8  C   -0.181543
     9  C    0.474968
    10  C   -1.028666
    11  C   -0.159932
    12  C    0.438120
    13  C   -1.094723
    14  H    0.212514
    15  H    0.213463
    16  H    0.213534
    17  H    0.215321
    18  H    0.215024
    19  H    0.228638
    20  H    0.228844
    21  H    0.399121
    22  H    0.406843
    23  H    0.305660
    24  H    0.205583
    25  H    0.236770
    26  Cl   0.282612
    27  C    1.298408
    28  F   -0.324593
    29  F   -0.261713
    30  F   -0.261529
 Sum of Mulliken charges =  -0.00000
 Mulliken charges with hydrogens summed into heavy atoms:
               1
     1  C   -0.044286
     2  C    0.064907
     3  C    0.366866
     4  N   -0.256729
     5  C    0.752309
     6  O   -0.595869
     7  N   -0.216619
     8  C   -0.181543
     9  C    0.780628
    10  C   -0.823083
    11  C    0.076838
    12  C    0.438120
    13  C   -1.094723
    26  Cl   0.282612
    27  C    1.298408
    28  F   -0.324593
    29  F   -0.261713
    30  F   -0.261529
 APT charges:
               1
     1  C   -2.618110
     2  C   -0.753613
     3  C   -0.041481
     4  N   -0.248822
     5  C    0.477690
     6  O   -0.706863
     7  N   -0.989354
     8  C   -1.358299
     9  C   -0.291408
    10  C   -0.531527
    11  C   -0.591329
    12  C    1.770046
    13  C   -0.836319
    14  H    1.171774
    15  H    0.352435
    16  H    0.362084
    17  H    0.487683
    18  H    0.496572
    19  H    0.366923
    20  H    0.360245
    21  H    0.773162
    22  H    0.775562
    23  H    0.414841
    24  H    0.624875
    25  H    0.872741
    26  Cl  -0.027486
    27  C    0.036631
    28  F   -0.281908
    29  F   -0.033358
    30  F   -0.033386
 Sum of APT charges =  -0.00000
 APT charges with hydrogens summed into heavy atoms:
               1
     1  C   -0.731817
     2  C    0.230642
     3  C    0.685686
     4  N    0.524340
     5  C    0.477690
     6  O   -0.706863
     7  N   -0.213792
     8  C   -1.358299
     9  C    0.123432
    10  C    0.093347
    11  C    0.281413
    12  C    1.770046
    13  C   -0.836319
    26  Cl  -0.027486
    27  C    0.036631
    28  F   -0.281908
    29  F   -0.033358
    30  F   -0.033386
 Electronic spatial extent (au):  <R**2>=           8323.6355
 Charge=             -0.0000 electrons
 Dipole moment (field-independent basis, Debye):
    X=              6.0139    Y=             -5.9647    Z=              0.0820  Tot=              8.4706
 Quadrupole moment (field-independent basis, Debye-Ang):
   XX=           -101.0673   YY=           -104.6438   ZZ=           -115.6576
   XY=             -4.0962   XZ=              0.2307   YZ=              0.0017
 Traceless Quadrupole moment (field-independent basis, Debye-Ang):
   XX=              6.0556   YY=              2.4791   ZZ=             -8.5347
   XY=             -4.0962   XZ=              0.2307   YZ=              0.0017
 Octapole moment (field-independent basis, Debye-Ang**2):
  XXX=            115.8140  YYY=            -10.4226  ZZZ=             -0.0703  XYY=             -5.2973
  XXY=            -21.7423  XXZ=              0.5031  XZZ=             -9.9655  YZZ=             16.9576
  YYZ=              0.3358  XYZ=             -0.0791
 Hexadecapole moment (field-independent basis, Debye-Ang**3):
 XXXX=          -8663.8061 YYYY=          -1208.4382 ZZZZ=           -216.2229 XXXY=           -125.3468
 XXXZ=              2.0819 YYYX=           -102.3165 YYYZ=             -0.0589 ZZZX=             -0.7510
 ZZZY=             -0.0222 XXYY=          -1731.6881 XXZZ=          -1600.1848 YYZZ=           -266.3953
 XXYZ=             -0.3169 YYXZ=              1.0921 ZZXY=            -23.8853
 N-N= 1.427953651812D+03 E-N=-6.080494340426D+03  KE= 1.361194525848D+03
  Exact polarizability:   0.000   0.000   0.000   0.000   0.000   0.000
 Approx polarizability: 238.583   0.121 202.454   0.162  -0.253 132.754
 Calling FoFJK, ICntrl=    100147 FMM=F ISym2X=0 I1Cent= 0 IOpClX= 0 NMat=1 NMatS=1 NMatT=0.
 ***** Axes restored to original set *****
 -------------------------------------------------------------------
 Center     Atomic                   Forces (Hartrees/Bohr)
 Number     Number              X              Y              Z
 -------------------------------------------------------------------
      1        6          -0.006152160    0.001140673   -0.000176193
      2        6           0.005445010   -0.005235343    0.000768316
      3        6          -0.005629835    0.006538613   -0.001084200
      4        7           0.011264499   -0.037456156    0.006014179
      5        6          -0.011606697    0.028563674   -0.004591001
      6        8           0.002510858    0.011858708   -0.002016128
      7        7           0.022770324   -0.025800332    0.004119233
      8        6          -0.010151997    0.002013638   -0.000442078
      9        6           0.011332264   -0.003179409    0.000479408
     10        6          -0.002847479    0.007071312   -0.001216408
     11        6          -0.005703219    0.004054672   -0.000854880
     12        6           0.002180307    0.006383118   -0.001152636
     13        6          -0.004351520   -0.017347823    0.003171302
     14        1           0.005908374    0.009539219   -0.001426199
     15        1          -0.000880926   -0.003406738    0.010202469
     16        1          -0.000797581   -0.006325164   -0.008710785
     17        1           0.000803101    0.004525348    0.008152446
     18        1           0.000882435    0.001847185   -0.009064744
     19        1           0.001728050   -0.004809539   -0.009772601
     20        1           0.001771228   -0.001523037    0.010803161
     21        1          -0.004536167    0.016824271   -0.002714723
     22        1           0.006406399    0.016182820   -0.002684056
     23        1          -0.009253786    0.001778647   -0.000227433
     24        1          -0.001461960   -0.002717608    0.000517498
     25        1           0.001915319    0.000509648   -0.000079313
     26       17          -0.010490681   -0.002825361    0.000479960
     27        6          -0.000153053    0.008224470   -0.001500899
     28        9           0.036915168   -0.018523838    0.003588608
     29        9          -0.019051364    0.007098591    0.032597497
     30        9          -0.018764912   -0.005004258   -0.033179800
 -------------------------------------------------------------------
 Cartesian Forces:  Max     0.037456156 RMS     0.011134378
 FormGI is forming the generalized inverse of G from B-inverse, IUseBI=4.
 GSVD:  received Info=                   1 from GESDD.

 GradGradGradGradGradGradGradGradGradGradGradGradGradGradGradGradGradGrad
 Berny optimization.
 Internal  Forces:  Max     0.041166161 RMS     0.008561380
 Search for a local minimum.
 Step number   1 out of a maximum of  157
 All quantities printed in internal units (Hartrees-Bohrs-Radians)
 Mixed Optimization -- RFO/linear search
 Second derivative matrix not updated -- analytic derivatives used.
 ITU=  0
     Eigenvalues ---   -0.00115   0.00034   0.00123   0.00214   0.00278
     Eigenvalues ---    0.00340   0.00466   0.00475   0.01362   0.01529
     Eigenvalues ---    0.01752   0.01831   0.02169   0.02229   0.02353
     Eigenvalues ---    0.02553   0.02689   0.03049   0.03696   0.04004
     Eigenvalues ---    0.04531   0.04633   0.04666   0.05070   0.05830
     Eigenvalues ---    0.06864   0.08103   0.10287   0.11135   0.11397
     Eigenvalues ---    0.11478   0.11620   0.12105   0.12486   0.12923
     Eigenvalues ---    0.13458   0.13484   0.13914   0.15870   0.16350
     Eigenvalues ---    0.16370   0.17398   0.18071   0.18413   0.18482
     Eigenvalues ---    0.19136   0.21484   0.21773   0.23093   0.23960
     Eigenvalues ---    0.24056   0.24883   0.25370   0.27020   0.29623
     Eigenvalues ---    0.30460   0.30644   0.30914   0.31007   0.31016
     Eigenvalues ---    0.31180   0.31509   0.31641   0.32028   0.32086
     Eigenvalues ---    0.32779   0.33138   0.36891   0.37439   0.37725
     Eigenvalues ---    0.37877   0.38829   0.40802   0.41084   0.41498
     Eigenvalues ---    0.42456   0.43275   0.44576   0.46557   0.47550
     Eigenvalues ---    0.49756   0.50189   0.56015   0.88264
 RFO step:  Lambda=-2.68373152D-02 EMin=-1.15348298D-03
 Linear search not attempted -- first point.
 Iteration  1 RMS(Cart)=  0.07149329 RMS(Int)=  0.01988999
 Iteration  2 RMS(Cart)=  0.02589876 RMS(Int)=  0.00337556
 Iteration  3 RMS(Cart)=  0.00135495 RMS(Int)=  0.00332645
 Iteration  4 RMS(Cart)=  0.00000792 RMS(Int)=  0.00332645
 Iteration  5 RMS(Cart)=  0.00000007 RMS(Int)=  0.00332645
 Variable       Old X    -DE/DX   Delta X   Delta X   Delta X     New X
                                 (Linear)    (Quad)   (Total)
    R1        2.88355   0.00214   0.00000   0.00362   0.00362   2.88717
    R2        2.09830  -0.01093   0.00000  -0.03103  -0.03103   2.06728
    R3        2.09930  -0.01052   0.00000  -0.02943  -0.02943   2.06988
    R4        2.09926  -0.01052   0.00000  -0.02951  -0.02951   2.06975
    R5        2.89699  -0.00527   0.00000  -0.01668  -0.01668   2.88031
    R6        2.10115  -0.00891   0.00000  -0.02409  -0.02409   2.07706
    R7        2.10103  -0.00885   0.00000  -0.02687  -0.02687   2.07416
    R8        2.74533  -0.00170   0.00000   0.00444   0.00444   2.74977
    R9        2.10232  -0.01046   0.00000  -0.03319  -0.03319   2.06914
   R10        2.10229  -0.01046   0.00000  -0.02644  -0.02644   2.07585
   R11        2.57629   0.00125   0.00000   0.00265   0.00265   2.57894
   R12        1.95073  -0.01720   0.00000  -0.04208  -0.04208   1.90866
   R13        2.30646   0.01193   0.00000  -0.00007  -0.00007   2.30639
   R14        2.58800   0.01035   0.00000   0.03316   0.03316   2.62116
   R15        2.72230  -0.03245   0.00000  -0.08049  -0.08049   2.64182
   R16        1.95051  -0.01675   0.00000  -0.04046  -0.04046   1.91005
   R17        2.67734  -0.01905   0.00000  -0.03217  -0.03216   2.64518
   R18        2.65637  -0.00884   0.00000  -0.01039  -0.01042   2.64596
   R19        2.66834  -0.01688   0.00000  -0.03483  -0.03480   2.63354
   R20        2.02476   0.00792   0.00000   0.01607   0.01607   2.04083
   R21        2.63202  -0.00543   0.00000  -0.01081  -0.01085   2.62117
   R22        2.04671   0.00297   0.00000   0.00789   0.00789   2.05461
   R23        2.63470  -0.00665   0.00000  -0.00697  -0.00698   2.62772
   R24        2.04631   0.00108   0.00000   0.00328   0.00328   2.04959
   R25        2.66623  -0.01198   0.00000  -0.02767  -0.02764   2.63859
   R26        3.32990  -0.01087   0.00000  -0.04198  -0.04198   3.28792
   R27        2.86478  -0.00838   0.00000  -0.00989  -0.00989   2.85489
   R28        2.61617  -0.04117   0.00000  -0.09085  -0.09085   2.52532
   R29        2.61391  -0.03702   0.00000  -0.08210  -0.08210   2.53181
   R30        2.61384  -0.03705   0.00000  -0.08259  -0.08259   2.53125
    A1        1.91262   0.00344   0.00000   0.02170   0.02155   1.93416
    A2        1.92587   0.00214   0.00000   0.01016   0.01007   1.93594
    A3        1.92569   0.00218   0.00000   0.00870   0.00863   1.93433
    A4        1.89665  -0.00256   0.00000  -0.01164  -0.01180   1.88485
    A5        1.89682  -0.00258   0.00000  -0.01208  -0.01221   1.88461
    A6        1.90569  -0.00279   0.00000  -0.01762  -0.01762   1.88808
    A7        1.94132  -0.00085   0.00000   0.00160   0.00159   1.94291
    A8        1.90094   0.00133   0.00000   0.00622   0.00622   1.90717
    A9        1.90128   0.00130   0.00000   0.01352   0.01352   1.91480
   A10        1.91011  -0.00011   0.00000  -0.00002  -0.00005   1.91005
   A11        1.91122  -0.00014   0.00000  -0.00426  -0.00431   1.90691
   A12        1.89845  -0.00154   0.00000  -0.01747  -0.01751   1.88094
   A13        1.93760  -0.00419   0.00000  -0.01174  -0.01175   1.92585
   A14        1.90646   0.00259   0.00000   0.01566   0.01555   1.92201
   A15        1.90469   0.00276   0.00000   0.02010   0.02004   1.92473
   A16        1.90614   0.00084   0.00000  -0.01624  -0.01616   1.88998
   A17        1.90621   0.00074   0.00000   0.01567   0.01567   1.92187
   A18        1.90241  -0.00274   0.00000  -0.02383  -0.02389   1.87852
   A19        2.12684  -0.00648   0.00000  -0.02834  -0.05028   2.07656
   A20        2.07742  -0.00057   0.00000  -0.00535  -0.02699   2.05043
   A21        2.07893   0.00706   0.00000   0.03315   0.00897   2.08789
   A22        2.08030   0.01576   0.00000   0.04951   0.04947   2.12976
   A23        2.08439  -0.02477   0.00000  -0.08703  -0.08707   1.99732
   A24        2.11849   0.00900   0.00000   0.03752   0.03748   2.15597
   A25        2.23780  -0.00818   0.00000  -0.01200  -0.01470   2.22310
   A26        2.02467   0.00939   0.00000   0.02308   0.02027   2.04494
   A27        2.02072  -0.00121   0.00000  -0.01116  -0.01379   2.00692
   A28        2.17566  -0.00741   0.00000  -0.01599  -0.01599   2.15966
   A29        2.04983   0.00034   0.00000   0.00022   0.00022   2.05005
   A30        2.05770   0.00707   0.00000   0.01575   0.01572   2.07342
   A31        2.11617  -0.00528   0.00000  -0.02073  -0.02068   2.09549
   A32        2.12180  -0.00254   0.00000  -0.02257  -0.02259   2.09921
   A33        2.04521   0.00782   0.00000   0.04330   0.04328   2.08849
   A34        2.11722  -0.00346   0.00000  -0.00550  -0.00556   2.11166
   A35        2.09941   0.00074   0.00000  -0.00503  -0.00500   2.09441
   A36        2.06655   0.00272   0.00000   0.01053   0.01056   2.07712
   A37        2.10369  -0.00322   0.00000  -0.00711  -0.00716   2.09653
   A38        2.08358   0.00332   0.00000   0.01536   0.01538   2.09897
   A39        2.09592  -0.00010   0.00000  -0.00825  -0.00823   2.08769
   A40        2.09427  -0.00206   0.00000  -0.01007  -0.01005   2.08423
   A41        2.05767   0.00123   0.00000   0.01044   0.01043   2.06810
   A42        2.13124   0.00082   0.00000  -0.00037  -0.00038   2.13086
   A43        2.07732   0.00694   0.00000   0.02766   0.02772   2.10504
   A44        2.10634  -0.00914   0.00000  -0.03519  -0.03522   2.07112
   A45        2.09952   0.00219   0.00000   0.00753   0.00750   2.10702
   A46        1.95786   0.00260   0.00000  -0.00404  -0.00405   1.95381
   A47        1.91260   0.01474   0.00000   0.03849   0.03807   1.95067
   A48        1.91287   0.01473   0.00000   0.03880   0.03838   1.95124
   A49        1.88695  -0.00992   0.00000  -0.02082  -0.02083   1.86612
   A50        1.88706  -0.00993   0.00000  -0.02045  -0.02047   1.86660
   A51        1.90564  -0.01340   0.00000  -0.03475  -0.03552   1.87012
    D1        3.13990   0.00002   0.00000  -0.00091  -0.00091   3.13899
    D2        1.03325  -0.00017   0.00000  -0.00597  -0.00597   1.02728
    D3       -1.03503   0.00017   0.00000   0.00368   0.00370  -1.03133
    D4        1.05207  -0.00031   0.00000  -0.00649  -0.00655   1.04552
    D5       -1.05458  -0.00051   0.00000  -0.01156  -0.01160  -1.06619
    D6       -3.12286  -0.00017   0.00000  -0.00190  -0.00193  -3.12480
    D7       -1.05536   0.00035   0.00000   0.00323   0.00325  -1.05211
    D8        3.12117   0.00016   0.00000  -0.00183  -0.00180   3.11937
    D9        1.05289   0.00050   0.00000   0.00782   0.00787   1.06076
   D10       -3.14154  -0.00001   0.00000  -0.01636  -0.01640   3.12525
   D11        1.03867  -0.00010   0.00000   0.00103   0.00109   1.03976
   D12       -1.03962   0.00006   0.00000   0.00877   0.00874  -1.03088
   D13       -1.04029   0.00103   0.00000  -0.00759  -0.00764  -1.04793
   D14        3.13992   0.00094   0.00000   0.00981   0.00985  -3.13342
   D15        1.06163   0.00110   0.00000   0.01755   0.01751   1.07914
   D16        1.03925  -0.00100   0.00000  -0.03147  -0.03148   1.00777
   D17       -1.06373  -0.00109   0.00000  -0.01407  -0.01399  -1.07772
   D18        3.14116  -0.00093   0.00000  -0.00633  -0.00633   3.13483
   D19        3.13595   0.00006   0.00000  -0.05294  -0.04975   3.08620
   D20       -0.00403   0.00005   0.00000   0.34157   0.33828   0.33425
   D21       -1.04406   0.00119   0.00000  -0.05145  -0.04814  -1.09220
   D22        2.09914   0.00117   0.00000   0.34307   0.33989   2.43903
   D23        1.03493  -0.00121   0.00000  -0.08071  -0.07749   0.95745
   D24       -2.10505  -0.00122   0.00000   0.31380   0.31054  -1.79450
   D25        0.00014  -0.00003   0.00000   0.14225   0.14308   0.14322
   D26        3.14105  -0.00001   0.00000   0.12625   0.12704  -3.01509
   D27        3.14012  -0.00003   0.00000  -0.25263  -0.25342   2.88670
   D28       -0.00215  -0.00000   0.00000  -0.26863  -0.26946  -0.27162
   D29        3.13681   0.00005   0.00000   0.05412   0.05462  -3.09175
   D30       -0.00551   0.00003   0.00000  -0.08928  -0.08982  -0.09532
   D31       -0.00547   0.00008   0.00000   0.03776   0.03830   0.03283
   D32        3.13539   0.00006   0.00000  -0.10563  -0.10613   3.02926
   D33       -0.01765   0.00006   0.00000  -0.06700  -0.06628  -0.08394
   D34        3.12624   0.00003   0.00000  -0.05866  -0.05801   3.06823
   D35        3.12466   0.00008   0.00000   0.07611   0.07546  -3.08306
   D36       -0.01463   0.00004   0.00000   0.08444   0.08373   0.06910
   D37       -3.13958  -0.00003   0.00000   0.00857   0.00856  -3.13103
   D38       -0.00028   0.00007   0.00000   0.01231   0.01224   0.01197
   D39       -0.00030   0.00000   0.00000   0.00018   0.00017  -0.00014
   D40        3.13900   0.00010   0.00000   0.00392   0.00385  -3.14033
   D41        3.14044  -0.00002   0.00000  -0.00754  -0.00762   3.13282
   D42       -0.00159  -0.00000   0.00000  -0.00601  -0.00608  -0.00767
   D43        0.00099  -0.00003   0.00000   0.00026   0.00027   0.00125
   D44       -3.14104  -0.00002   0.00000   0.00179   0.00181  -3.13923
   D45       -0.00051   0.00002   0.00000  -0.00041  -0.00040  -0.00091
   D46        3.14032   0.00003   0.00000   0.00040   0.00041   3.14073
   D47       -3.13991  -0.00006   0.00000  -0.00391  -0.00398   3.13929
   D48        0.00092  -0.00005   0.00000  -0.00310  -0.00317  -0.00225
   D49       -0.00086   0.00004   0.00000  -0.00046  -0.00047  -0.00133
   D50        3.14116   0.00001   0.00000  -0.00044  -0.00043   3.14073
   D51        3.14116   0.00003   0.00000  -0.00196  -0.00199   3.13916
   D52       -0.00001  -0.00000   0.00000  -0.00194  -0.00196  -0.00197
   D53        0.00001  -0.00001   0.00000   0.00025   0.00025   0.00027
   D54       -3.14096  -0.00003   0.00000  -0.00008  -0.00009  -3.14104
   D55        3.14118   0.00002   0.00000   0.00023   0.00022   3.14140
   D56        0.00020  -0.00000   0.00000  -0.00010  -0.00011   0.00009
[...]
 0097,-0.00000101,-0.00000721,-0.00000514,0.00000268,0.00000308,-0.0000
 0635,-0.00000643,-0.00001009,-0.00000304,0.00001099,0.00000243,-0.0000
 0994,-0.00003799,0.00003877,0.00002532,-0.00039456,0.00023745,0.000844
 44,0.00009583,0.00013085,-0.00029694,-0.00931979,-0.05704695,0.0341011
 6,-0.00000542,-0.00001606,0.00000409,-0.00001362,0.00003309,-0.0000088
 9,0.00005108,-0.00007699,0.00000578,-0.00031741,0.00006193,0.00003942,
 0.00028114,-0.00064753,-0.00002878,-0.00003347,0.00021079,-0.00001419,
 -0.00121038,0.00133914,-0.00016202,-0.00320048,-0.00310799,0.00024963,
 -0.00030225,-0.00087764,0.00020656,-0.01607721,0.01982535,-0.00429210,
 -0.21950413,0.14501468,-0.03215266,0.00691700,-0.00675877,0.00134999,0
 .00047940,-0.00177622,0.00017556,-0.00000953,0.00000013,0.00000027,0.0
 0000114,0.00000174,-0.00000059,0.00000145,0.00000188,-0.00000040,0.000
 00043,-0.00000349,-0.00000174,0.00000157,-0.00000101,0.00000243,-0.000
 00198,0.00000488,-0.00000167,-0.00001631,0.00000819,-0.00000630,0.0000
 1419,0.00002982,-0.00000945,0.00001331,0.00006885,-0.00000774,0.000009
 57,0.00007872,0.00000059,0.00089102,-0.00004493,0.00015596,0.23032461,
 -0.00000176,-0.00000289,0.00000095,-0.00000516,0.00000796,-0.00000025,
 -0.00000317,-0.00002199,0.00000560,-0.00006113,0.00005232,-0.00000422,
 -0.00013358,-0.00015250,-0.00004267,0.00002624,0.00001698,-0.00000597,
 -0.00023363,0.00061892,-0.00002388,-0.00291736,0.00026920,0.00118561,-
 0.00107833,-0.00034125,-0.00014205,-0.00893330,0.01089560,-0.00164427,
 0.14237268,-0.18399349,0.03136612,0.02342494,-0.01529812,0.00411152,-0
 .00263613,-0.00487027,0.00186265,-0.00000128,0.00000057,0.00000006,0.0
 0000008,0.00000002,-0.00000010,0.00000030,-0.00000042,-0.00000009,0.00
 000028,-0.00000090,-0.00000136,0.00000024,0.00000031,0.00000056,0.0000
 0010,0.,0.00000070,-0.00000046,0.00000067,-0.00000151,0.00000359,0.000
 00472,0.00000168,0.00001354,0.00000214,0.00000822,0.00005446,0.0000033
 2,-0.00008198,0.00030081,0.00053583,-0.00090598,-0.15209272,0.19190602
 ,0.00000040,0.00000017,0.00000009,0.00000133,0.00000157,0.00000512,-0.
 00000094,-0.00000018,0.00000466,0.00001030,-0.00000127,-0.00003866,-0.
 00000626,0.00006614,-0.00009227,-0.00002355,-0.00002544,0.00002772,0.0
 0005356,-0.00004948,0.00020056,0.00026424,0.00116412,0.00698285,0.0002
 2242,-0.00016587,-0.00094407,0.00107394,-0.00080701,0.00377087,-0.0316
 7122,0.03151189,-0.04362198,-0.00421987,0.00319563,0.00264985,0.000321
 19,0.00186998,0.00516006,0.00000018,0.00000013,0.00000053,-0.00000068,
 0.00000085,-0.00000118,0.00000038,-0.00000110,-0.00000029,-0.00000009,
 -0.00000197,-0.00000108,0.00000021,0.00000069,-0.00000194,0.00000017,-
 0.00000177,-0.00000032,-0.00000036,0.00000197,-0.00000231,0.00000030,0
 .00000036,0.00001354,-0.00000671,0.00001189,0.00002032,-0.00001516,-0.
 00008605,-0.00047237,0.00010071,-0.00091086,-0.00421452,0.03413761,-0.
 03520709,0.03297764,-0.00001477,-0.00009286,0.00002303,-0.00003009,0.0
 0015296,-0.00005305,0.00056028,-0.00033099,-0.00004370,-0.00185749,-0.
 00059509,0.00032242,0.00396677,-0.00157488,0.00027401,-0.00115592,0.00
 088981,-0.00000515,-0.00523726,-0.00024055,-0.00013978,0.00228793,0.00
 201465,-0.00018349,-0.00115958,0.00411158,-0.00097957,0.00290330,-0.00
 185286,0.00038052,-0.02795684,-0.01080662,0.00105730,-0.17267768,-0.03
 823278,0.00323508,-0.03436839,-0.01097107,0.00093013,-0.00007076,-0.00
 001162,0.00000538,0.00000640,0.00001864,-0.00001269,0.00001017,0.00002
 261,0.00000124,-0.00000133,-0.00001824,0.00000409,0.00001461,-0.000008
 08,0.00000235,-0.00001429,0.00003041,-0.00001661,-0.00014222,0.0000707
 6,-0.00005494,0.00005733,0.00019033,-0.00010533,-0.00007034,0.00017202
 ,-0.00004776,-0.00085160,-0.00123719,0.00010083,-0.00103078,-0.0003236
 4,0.00002311,0.00115538,0.00054322,0.00000282,0.23791219,-0.00000340,-
 0.00002358,0.00000520,-0.00001166,0.00003920,-0.00001246,0.00014226,-0
 .00008980,-0.00000245,-0.00047869,-0.00007171,0.00009070,0.00108781,-0
 .00081738,0.00003383,-0.00010234,0.00048512,-0.00007025,-0.00153975,0.
 00013509,-0.00015354,-0.00029473,0.00242644,-0.00050031,-0.00050776,-0
 .00387803,0.00141223,0.00339459,-0.00358605,0.00161423,-0.03736266,-0.
 00875158,0.00137701,-0.03828961,-0.05070192,0.00439719,0.01238855,0.00
 894557,-0.00071953,-0.00001707,-0.00000226,0.00000115,0.00000080,0.000
 00435,-0.00000401,0.00000184,0.00000602,0.00000141,0.00000091,-0.00000
 234,0.00000246,0.00000492,-0.00000139,-0.00000135,-0.00000990,0.000006
 82,-0.00000149,-0.00003823,0.00001710,-0.00001823,0.00002987,0.0000510
 9,-0.00001530,0.00008538,0.00004014,0.00000124,0.00041130,0.00027358,0
 .00006549,-0.00120392,-0.00032319,0.00003827,-0.00095764,0.00069790,-0
 .00067297,0.05789031,0.06061232,-0.00000019,0.00000079,-0.00000004,0.0
 0000033,-0.00000111,-0.00000021,-0.00001228,0.00001364,0.00001489,0.00
 004450,0.00000569,0.00005666,-0.00011363,0.00012773,-0.00015365,-0.000
 08547,-0.00009976,-0.00000481,0.00016199,-0.00011580,-0.00054790,0.000
 17290,-0.00052589,-0.00057077,-0.00012909,0.00154658,0.00384495,-0.000
 68166,0.00155217,0.00458907,0.00602502,0.00205280,0.00384014,0.0031520
 8,0.00448058,-0.02267192,-0.00325876,-0.00145370,0.00307214,0.00000083
 ,0.00000020,-0.00000018,-0.00000016,-0.00000021,0.00000062,0.00000016,
 -0.00000014,-0.00000021,-0.00000070,-0.00000035,-0.00000018,0.00000026
 ,0.00000027,0.00000017,-0.00000312,-0.00000552,-0.00000337,0.00000716,
 -0.00000136,-0.00000212,0.00000784,-0.00000140,0.00000976,-0.00002064,
 0.00002359,0.00002577,-0.00007449,-0.00001624,0.00043276,0.00019957,0.
 00006949,0.00006755,0.00029305,-0.00063182,-0.00268029,-0.00484747,-0.
 00738586,0.01384682,0.00001518,0.00005801,-0.00001664,-0.00004136,-0.0
 0009345,0.00002880,-0.00032766,0.00008777,0.00005472,0.00090314,0.0011
 6444,-0.00029168,-0.00014625,-0.00419366,0.00012479,0.00097036,0.00292
 618,-0.00035929,-0.00076872,-0.00052220,0.00033046,-0.00664491,-0.0022
 4376,-0.00012622,0.00076375,-0.02780548,0.00520553,-0.00276928,0.00135
 168,-0.00025749,-0.00462719,0.00554204,-0.00131474,0.02143591,0.025927
 49,-0.00418641,-0.09707212,-0.01870934,0.00260799,0.00006432,0.0000304
 3,-0.00000972,-0.00001893,-0.00002615,-0.00000400,-0.00002241,-0.00001
 745,0.00002055,0.00001538,0.00004388,0.00001296,0.00000411,0.00001740,
 -0.00002397,-0.00006026,-0.00003560,0.00005664,0.00001844,-0.00006361,
 -0.00002127,0.00007411,-0.00006817,0.00015149,-0.00034701,-0.00012699,
 -0.00005744,-0.00337394,-0.00209559,0.00046333,-0.00031215,0.00018396,
 -0.00003116,0.00051188,0.00176816,-0.00033138,-0.00602472,-0.00185662,
 0.00026443,0.56901116,0.00001046,0.00016941,-0.00003165,0.00009649,-0.
 00023878,0.00009638,-0.00101904,0.00069858,-0.00000883,0.00300538,0.00
 030695,-0.00034988,-0.00709731,0.00407890,-0.00025141,0.00249344,-0.00
 278191,0.00006743,0.00675021,-0.00021615,-0.00008631,-0.00368392,0.000
 55801,0.00110178,-0.01473333,-0.00657408,0.00131850,0.00187116,0.00234
 281,-0.00056020,0.00120474,0.00068037,0.00083694,0.01332642,-0.0172679
 4,0.00351187,-0.02471871,-0.20802576,0.02529682,0.00010731,0.00000140,
 -0.00000362,0.00000178,-0.00001988,0.00004108,-0.00000166,-0.00004625,
 -0.00003070,-0.00000616,-0.00000963,-0.00003711,-0.00003269,0.00000784
 ,0.00002463,0.00005696,-0.00004146,-0.00001535,0.00025824,-0.00010448,
 0.00013966,-0.00021226,-0.00026657,0.00006257,0.00005003,-0.00002182,0
 .00006376,0.00158277,0.00130264,-0.00075225,0.00016034,0.00012116,-0.0
 0008859,-0.00022197,0.00069516,-0.00000900,-0.00612484,-0.00300154,-0.
 00017611,0.00333509,0.62074466,-0.00000080,-0.00002105,0.00002464,-0.0
 0002233,0.00004541,-0.00000466,0.00020895,-0.00012282,0.00014538,-0.00
 059573,-0.00006844,-0.00007054,0.00123383,-0.00044639,0.00034250,-0.00
 040567,0.00029516,-0.00048922,-0.00117222,0.00000049,-0.00006853,0.000
 28534,0.00110833,0.00716993,0.00269798,0.00066266,0.00190972,-0.000370
 95,-0.00058627,-0.00079345,-0.00052734,0.00102011,0.00500575,-0.001836
 50,0.00387493,-0.00102168,0.00373143,0.02538899,-0.07246236,-0.0000172
 3,0.00000174,0.00000256,-0.00000804,0.00000917,-0.00002438,0.00000502,
 -0.00000786,0.00000048,-0.00000077,-0.00002400,-0.00000268,0.00001414,
 0.00002206,-0.00002677,0.00000966,-0.00000188,-0.00000235,-0.00007928,
 0.00002871,-0.00006964,0.00003337,0.00001805,0.00007799,0.00000267,-0.
 00000053,-0.00001656,-0.00043923,-0.00080137,-0.00308088,-0.00002266,-
 0.00011555,-0.00053665,0.00003452,0.00004386,0.00067024,0.00107446,-0.
 00007628,-0.00303296,0.00122015,-0.01614902,0.53498858,-0.00000600,-0.
 00000228,0.00000277,0.00003296,0.00000841,0.00000023,-0.00000467,0.000
 06050,-0.00002813,0.00001724,-0.00046914,0.00008078,-0.00093138,0.0025
 2738,-0.00012496,-0.00005958,-0.00168173,0.00018004,0.00155423,-0.0003
 0784,-0.00003444,0.00099719,-0.00055500,0.00014759,-0.00470484,-0.0034
 4116,0.00049449,0.00014863,-0.00031777,0.00003679,-0.00041756,0.000066
 60,-0.00001695,0.00140858,0.00081486,-0.00015348,-0.00901820,0.0098334
 3,-0.00221254,-0.00001366,-0.00001363,0.00000379,0.00000933,0.00000883
 ,0.00000870,0.00000995,0.00000161,-0.00001399,-0.00000815,-0.00002108,
 -0.00001115,-0.00000730,-0.00000792,0.00001574,0.00003567,0.00001139,-
 0.00002954,0.00003141,0.00001447,0.00003271,-0.00006024,-0.00000567,-0
 .00005793,-0.00001684,0.00000357,0.00002644,0.00230325,-0.00165694,0.0
 0035782,0.00023526,-0.00010014,0.00003321,0.00008884,0.00022761,-0.000
 03228,0.00114266,0.00040350,-0.00004590,-0.20885310,0.10818586,-0.0234
 7512,0.33169988,-0.00000084,-0.00005105,0.00000865,-0.00004117,0.00007
 013,-0.00002952,0.00031322,-0.00023691,0.00001514,-0.00093958,0.000043
 38,0.00008239,0.00254725,-0.00201423,0.00014466,-0.00087811,0.00144703
 ,-0.00007515,-0.00275922,0.00033226,-0.00003533,0.00268788,0.00105179,
 -0.00004646,0.00051188,-0.00292054,0.00054092,-0.00024493,-0.00035440,
 0.00008184,0.00266881,-0.00131210,0.00024518,-0.00793747,-0.00649323,0
 .00125327,0.04213131,-0.02745896,0.00765926,-0.00002747,0.00000526,-0.
 00000041,-0.00000431,0.00000250,-0.00001624,-0.00000319,0.00001296,0.0
 0001503,0.00000420,0.00001006,0.00001490,0.00001255,0.00000108,-0.0000
 1348,-0.00002954,0.00000689,0.00001616,-0.00008988,0.00002629,-0.00005
 632,0.00007939,0.00008294,-0.00000526,0.00001210,0.00004459,-0.0000280
 1,0.00011315,-0.00494758,0.00078270,-0.00006028,-0.00014256,0.00000854
 ,-0.00021388,-0.00078994,0.00010003,0.00042415,0.00056788,-0.00004907,
 0.09821020,-0.16547994,0.01971097,-0.14863915,0.17768203,-0.00000033,0
 .00000795,-0.00000673,0.00000956,-0.00001437,0.00000513,-0.00006928,0.
 00004685,-0.00003634,0.00019168,0.00000462,0.00000136,-0.00046713,0.00
 031012,-0.00007266,0.00016538,-0.00021815,0.00016586,0.00051896,-0.000
 03628,0.00009044,-0.00046347,-0.00019486,0.00003697,-0.00023060,0.0005
 3609,0.00029567,0.00003832,0.00007171,0.00005470,-0.00048606,0.0001522
 8,-0.00053644,0.00145476,0.00151205,0.00135463,-0.00821664,0.00686758,
 0.00693599,0.00000474,-0.00000144,0.00000012,0.00000274,-0.00000155,0.
 00000702,-0.00000054,0.00000070,-0.00000169,-0.00000045,0.00000357,-0.
 00000092,-0.00000419,-0.00000561,0.00000737,0.00000107,0.00000066,-0.0
 0000178,0.00002538,-0.00000628,0.00002223,-0.00001070,-0.00000787,-0.0
 0001826,-0.00000676,-0.00000875,-0.00001090,0.00006070,0.00076942,-0.0
 0053090,0.00001919,0.00001736,-0.00002867,0.00004895,0.00011108,-0.000
 23928,-0.00005268,-0.00005143,0.00024987,-0.02146119,0.01990810,-0.077
 24814,0.03370942,-0.02165459,0.08525888,-0.00000482,-0.00002970,0.0000
 1073,0.00000123,0.00004800,-0.00001371,0.00018092,-0.00008668,0.000004
 81,-0.00051358,-0.00031539,0.00008210,0.00066781,0.00075481,0.00001344
 ,-0.00043260,-0.00053195,-0.00000275,-0.00010127,-0.00023468,-0.000040
 81,0.00053491,-0.00032512,-0.00098775,0.00109985,-0.00098529,0.0004321
 7,-0.00003960,-0.00050695,0.00020927,0.00063392,-0.00058026,-0.0007646
 4,-0.00610497,-0.00186443,0.00057021,-0.00378236,-0.00827039,0.0201167
 2,-0.00002681,-0.00000823,0.00000330,0.00000397,0.00000993,-0.00000484
 ,0.00000696,0.00000659,-0.00000396,-0.00000344,-0.00001488,-0.00000196
 ,0.00000283,-0.00000242,0.00000132,0.00001404,0.00001269,-0.00001524,-
 0.00003149,0.00002890,-0.00001199,0.00000432,0.00003957,-0.00002250,-0
 .00002620,-0.00000485,0.00005207,0.00060973,0.00069610,0.00058919,0.00
 007619,-0.00002902,0.00012250,-0.00002394,-0.00032271,0.00006004,0.001
 44105,0.00317060,-0.00161106,-0.13493756,-0.02778470,0.09657376,-0.059
 84553,0.01498299,0.04464508,0.18246014,-0.00000365,-0.00004636,0.00001
 086,-0.00002264,0.00006762,-0.00002487,0.00028113,-0.00018299,0.000010
 16,-0.00082201,-0.00013724,0.00008905,0.00181556,-0.00079576,0.0000848
 1,-0.00064547,0.00053730,-0.00004879,-0.00151389,-0.00013789,-0.000077
 93,0.00053028,-0.00084872,-0.00155798,0.00284566,-0.00281273,0.0017902
 6,-0.00104510,-0.00045240,0.00027828,0.00012957,0.00059087,-0.00085828
 ,-0.00276370,0.00006117,-0.00033992,-0.02395231,-0.00504860,0.03175749
 ,-0.00003127,-0.00000231,0.00000172,0.00000018,0.00000721,-0.00001165,
 0.00000239,0.00001176,0.00000614,0.00000052,-0.00000226,0.00000787,0.0
 0000862,-0.00000141,-0.00000648,-0.00000952,0.00001283,-0.00000026,-0.
 00006860,0.00003134,-0.00003731,0.00005230,0.00006928,-0.00001390,-0.0
 0005280,-0.00000904,-0.00000264,0.00004607,0.00000805,0.00085545,-0.00
 003494,-0.00004090,0.00005363,0.00005240,-0.00008384,0.00002443,0.0024
 4100,-0.00120216,0.00171718,-0.02716933,-0.09108200,0.04112110,0.02491
 040,0.01077705,-0.02019111,0.01833527,0.07780433,0.00000444,0.00003648
 ,-0.00001779,0.00001131,-0.00006083,0.00001696,-0.00024119,0.00013550,
 -0.00004569,0.00070712,0.00027860,-0.00004925,-0.00121950,-0.00019668,
 -0.00015224,0.00056153,0.00016464,0.00014866,0.00079222,0.00043250,0.0
 0013967,0.00012866,0.00032823,0.00065891,-0.00163389,0.00361937,-0.001
 38881,0.00038101,0.00024109,-0.00015367,-0.00041962,0.00024957,0.00044
 336,0.00351322,-0.00015323,0.00077476,0.01883187,0.00801847,-0.0151597
 2,0.00002931,0.00000513,-0.00000308,-0.00000009,-0.00001116,0.00001267
 ,-0.00000658,-0.00000458,0.00000189,0.00000208,0.00001826,0.00000087,-
 0.00000707,-0.00000430,0.00000775,-0.00000937,-0.00001179,0.00001264,0
 .00005975,-0.00003570,0.00003543,-0.00001829,-0.00004987,-0.00000495,0
 .00010074,0.00001227,-0.00004983,-0.00046912,-0.00040824,-0.00060932,-
 0.00003067,0.00006589,-0.00007086,-0.00004294,0.00015699,-0.00012146,-
 0.00263176,0.00053805,-0.00061304,0.09441830,0.04328296,-0.21338081,0.
 03316555,-0.01223595,-0.00102251,-0.15447933,-0.03163602,0.31155596,-0
 .00000494,-0.00002989,0.00000437,0.00000188,0.00004416,-0.00001657,0.0
 0016277,-0.00008127,-0.00002436,-0.00046874,-0.00028502,0.00010801,0.0
 0063966,0.00065231,-0.00005274,-0.00040106,-0.00044538,0.00013208,-0.0
 0009086,-0.00015004,0.00008619,0.00048467,0.00003042,0.00103285,0.0010
 7812,-0.00094670,-0.00000543,-0.00002633,-0.00054931,-0.00002711,0.000
 57359,-0.00022901,0.00093910,-0.00595842,-0.00200843,-0.00018415,-0.00
 222394,-0.01443241,-0.01565789,-0.00002571,-0.00000835,0.00000260,0.00
 000565,0.00000783,-0.00000028,0.00000549,0.00001011,-0.00000236,-0.000
 00288,-0.00000787,0.00000077,0.00000126,-0.00000764,0.00000647,0.00000
 867,0.00001453,-0.00001296,-0.00002236,0.00002385,-0.00000107,0.000008
 48,0.00004189,-0.00004664,-0.00002081,-0.00001860,-0.00003859,0.000595
 07,0.00043551,-0.00075381,0.00008151,-0.00006750,-0.00010302,-0.000025
 86,-0.00031550,0.00005869,0.00120600,0.00366132,0.00055449,-0.12744016
 ,-0.05686009,-0.07815142,-0.05576803,-0.00283006,-0.04942589,0.0181363
 2,0.00668390,0.00850233,0.16949097,-0.00000529,-0.00005857,0.00000850,
 -0.00002415,0.00008205,-0.00003318,0.00033539,-0.00021919,-0.00002044,
 -0.00100178,-0.00019877,0.00015379,0.00214822,-0.00080990,0.00000128,-
 0.00079842,0.00054894,0.00008949,-0.00174243,-0.00014896,0.00025374,0.
 00035734,-0.00023787,0.00192950,0.00335773,-0.00452007,-0.00047207,-0.
 00108240,-0.00061558,-0.00017278,0.00022663,0.00079131,0.00076713,-0.0
 0394432,0.00028061,0.00030138,-0.02741207,-0.01985556,-0.03153803,-0.0
 0003991,-0.00000439,0.00000207,0.00000277,0.00000850,-0.00000932,0.000
 00266,0.00001785,0.00000713,-0.00000005,0.00000037,0.00001056,0.000008
 84,-0.00000737,-0.00000182,-0.00001193,0.00001907,-0.00000268,-0.00007
 566,0.00003832,-0.00003316,0.00006348,0.00008855,-0.00004019,-0.000085
 42,-0.00001997,-0.00004842,0.00022171,-0.00020954,-0.00102354,-0.00001
 614,-0.00008801,-0.00006648,0.00006525,-0.00015202,-0.00000980,0.00344
 884,-0.00185570,-0.00112636,-0.05561934,-0.13652972,-0.07493027,0.0101
 4102,0.02003734,0.01207214,0.00381220,0.01290780,-0.01277565,0.0676672
 4,0.13071048,-0.00000443,-0.00002354,-0.00000242,0.00000026,0.00002958
 ,-0.00001680,0.00010736,-0.00006220,-0.00005378,-0.00034776,-0.0001781
 5,0.00011123,0.00056328,0.00022033,-0.00010434,-0.00030233,-0.00015988
 ,0.00023191,-0.00026866,-0.00025312,0.00017616,-0.00027255,0.00004692,
 0.00007989,0.00059363,-0.00249145,0.00025108,0.00002303,-0.00010773,-0
 .00002792,0.00037085,-0.00037930,0.00033792,-0.00265170,0.00018295,0.0
 0036897,-0.00902958,-0.00708201,-0.00175461,-0.00001790,-0.00000518,0.
 00000102,0.00000554,0.00000328,0.00000462,0.00000163,0.00001104,0.0000
 0025,-0.00000161,0.00000243,0.00000425,-0.00000031,-0.00001136,0.00000
 990,-0.00000233,0.00001293,-0.00000788,-0.00001045,0.00001505,0.000009
 49,0.00001180,0.00003642,-0.00005207,-0.00008209,-0.00002178,-0.000047
 93,0.00048017,0.00026476,-0.00040868,0.00004892,-0.00006453,-0.0000310
 8,0.00002505,-0.00016233,-0.00005202,0.00173721,0.00010700,0.00023046,
 -0.07646756,-0.07720247,-0.17800549,-0.04205968,0.00356614,-0.01473102
 ,-0.00552614,-0.02300128,-0.08096653,0.13307638,0.10670748,0.27444544\
 \0.00000059,-0.00000180,-0.00000149,-0.00000054,0.00000002,-0.00000147
 ,-0.00000034,-0.00000215,-0.00000045,0.00000099,0.00000109,0.00000031,
 -0.00000102,-0.00000031,-0.00000179,-0.00000055,-0.00000005,-0.0000003
 0,-0.00000139,0.00000017,0.00000137,0.00000005,0.00000040,0.00000087,0
 .00000028,0.00000196,-0.00000036,0.00000050,0.00000106,0.00000248,-0.0
 0000042,0.00000101,0.00000247,0.00000029,0.00000136,0.00000135,0.00000
 013,-0.00000071,0.00000028,-0.00000002,-0.00000094,-0.00000128,0.00000
 017,-0.00000199,-0.00000221,-0.00000062,-0.00000040,-0.00000288,0.0000
 0119,-0.00000148,0.00000123,0.00000005,-0.00000056,-0.00000051,-0.0000
 0019,0.00000017,-0.00000207,0.00000159,-0.00000167,-0.00000132,0.00000
 017,-0.00000070,0.00000074,0.00000130,-0.00000006,0.00000188,-0.000000
 81,-0.00000040,-0.00000058,0.00000027,0.00000081,0.00000317,0.00000042
 ,0.00000165,0.00000348,-0.00000011,0.00000140,0.00000185,-0.00000049,0
 .00000048,-0.00000088,-0.00000025,-0.00000004,-0.00000187,-0.00000004,
 -0.00000007,-0.00000082,-0.00000119,0.00000175,-0.00000124\\\@


 At the touch of love, everyone becomves a poet.
                                -- Plato
 Job cpu time:       0 days  2 hours 49 minutes 13.3 seconds.
 File lengths (MBytes):  RWF=    454 Int=      0 D2E=      0 Chk=     11 Scr=      1
 Normal termination of Gaussian 09 at Wed Feb 27 12:12:07 2019.
WARNING: pbs_rusage is deprecated and values produced may not be accurate


=============================================================================
                                     Resource usage:
                                       CPU time:              09:25:21
   JobId:    6207878.r-man2            Elapsed time:          02:22:41
   Project:             q95            Requested time:        36:00:00
   Service Units:      9.51 
                                       Max physical memory:      732MB
                                       Max virtual memory:      1892MB
                                       Requested memory:           0MB

                                       Number of cpus:               4

                                       Max jobfs disk use:       0.8GB
                                       Requested jobfs:         16.0GB
=============================================================================

