 Entering Gaussian System, Link 0=/apps/gaussian/g09e01/g09/g09
 AtFile(1): /home/507/hio507/Basis/6-31pGd.gbs
 Initial command:
 /apps/gaussian/g09e01/g09/l1.exe "/jobfs/local/6246829.r-man2/Gau-40048.inp" -scrdir="/jobfs/local/6246829.r-man2/"
 Entering Link 1 = /apps/gaussian/g09e01/g09/l1.exe PID=     40049.
  
 Copyright (c) 1988,1990,1992,1993,1995,1998,2003,2009,2015,
            Gaussian, Inc.  All Rights Reserved.
  
 This is part of the Gaussian(R) 09 program.  It is based on
 the Gaussian(R) 03 system (copyright 2003, Gaussian, Inc.),
 the Gaussian(R) 98 system (copyright 1998, Gaussian, Inc.),
 the Gaussian(R) 94 system (copyright 1995, Gaussian, Inc.),
 the Gaussian 92(TM) system (copyright 1992, Gaussian, Inc.),
 the Gaussian 90(TM) system (copyright 1990, Gaussian, Inc.),
 the Gaussian 88(TM) system (copyright 1988, Gaussian, Inc.),
 the Gaussian 86(TM) system (copyright 1986, Carnegie Mellon
 University), and the Gaussian 82(TM) system (copyright 1983,
 Carnegie Mellon University). Gaussian is a federally registered
 trademark of Gaussian, Inc.
  
 This software contains proprietary and confidential information,
 including trade secrets, belonging to Gaussian, Inc.
  
 This software is provided under written license and may be
 used, copied, transmitted, or stored only in accord with that
 written license.
  
 The following legend is applicable only to US Government
 contracts under FAR:
  
                    RESTRICTED RIGHTS LEGEND
  
 Use, reproduction and disclosure by the US Government is
 subject to restrictions as set forth in subparagraphs (a)
 and (c) of the Commercial Computer Software - Restricted
 Rights clause in FAR 52.227-19.
  
 Gaussian, Inc.
 340 Quinnipiac St., Bldg. 40, Wallingford CT 06492
  
  
 ---------------------------------------------------------------
 Warning -- This program may not be used in any manner that
 competes with the business of Gaussian, Inc. or will provide
 assistance to any competitor of Gaussian, Inc.  The licensee
 of this program is prohibited from giving any competitor of
 Gaussian, Inc. access to this program.  By using this program,
 the user acknowledges that Gaussian, Inc. is engaged in the
 business of creating and licensing software in the field of
 computational chemistry and represents and warrants to the
 licensee that it is not a competitor of Gaussian, Inc. and that
 it will not use this program in any manner prohibited above.
 ---------------------------------------------------------------
  

 Cite this work as:
 Gaussian 09, Revision E.01,
 M. J. Frisch, G. W. Trucks, H. B. Schlegel, G. E. Scuseria, 
 M. A. Robb, J. R. Cheeseman, G. Scalmani, V. Barone, B. Mennucci, 
 G. A. Petersson, H. Nakatsuji, M. Caricato, X. Li, H. P. Hratchian, 
 A. F. Izmaylov, J. Bloino, G. Zheng, J. L. Sonnenberg, M. Hada, 
 M. Ehara, K. Toyota, R. Fukuda, J. Hasegawa, M. Ishida, T. Nakajima, 
 Y. Honda, O. Kitao, H. Nakai, T. Vreven, J. A. Montgomery, Jr., 
 J. E. Peralta, F. Ogliaro, M. Bearpark, J. J. Heyd, E. Brothers, 
 K. N. Kudin, V. N. Staroverov, T. Keith, R. Kobayashi, J. Normand, 
 K. Raghavachari, A. Rendell, J. C. Burant, S. S. Iyengar, J. Tomasi, 
 M. Cossi, N. Rega, J. M. Millam, M. Klene, J. E. Knox, J. B. Cross, 
 V. Bakken, C. Adamo, J. Jaramillo, R. Gomperts, R. E. Stratmann, 
 O. Yazyev, A. J. Austin, R. Cammi, C. Pomelli, J. W. Ochterski, 
 R. L. Martin, K. Morokuma, V. G. Zakrzewski, G. A. Voth, 
 P. Salvador, J. J. Dannenberg, S. Dapprich, A. D. Daniels, 
 O. Farkas, J. B. Foresman, J. V. Ortiz, J. Cioslowski, 
 and D. J. Fox, Gaussian, Inc., Wallingford CT, 2013.
 
 ******************************************
 Gaussian 09:  ES64L-G09RevE.01 30-Nov-2015
                28-Feb-2019 
 ******************************************
 %chk=3TFM4Chloro_EtO.M062X_6-31pGd_bsse.chk
 %mem=196608000
 %nproc=4
 Will use up to    4 processors via shared memory.
 ----------------------------------------------------------------------
 # M062X/Gen 6D SCF=Tight INT(grid=ultrafine) Counterpoise=2 maxdisk=67
 1088640
 ----------------------------------------------------------------------
 1/38=1,62=2/1;
 2/12=2,17=6,18=5,40=1/2;
 1/38=1,53=2,62=2,63=1/22;
 3/5=7,8=2,11=2,16=1,25=1,30=1,74=-55,75=-5/1,2,3;
 4//1;
 5/5=2,32=2,38=5/2;
 6/7=2,8=2,9=2,10=2,28=1/1;
 1/53=2,62=2,63=1/22;
 3/5=7,6=11,8=2,11=2,16=1,25=1,30=1,74=-55,75=-5,82=7/1,2,3;
 4//1;
 5/5=2,32=2,38=5/2;
 6/7=2,8=2,9=2,10=2,28=1/1;
 1/53=2,62=2,63=1/22(-4);
 99/5=1,9=1/99;
 ----------------------------------
 3TFM4Chloro_EtO.M062X_6-31pGd_bsse
 ----------------------------------
 Symbolic Z-matrix:
 Charge = -1 Multiplicity = 1 in supermolecule
 Charge =  0 Multiplicity = 1 in fragment      1.
 Charge = -1 Multiplicity = 1 in fragment      2.
 C(Fragment=1)        -1.93505   2.21801  -0.13059 
 C(Fragment=1)        -0.52675   1.63251  -0.20432 
 C(Fragment=1)         0.54091   2.70611  -0.02044 
 N(Fragment=1)         1.8536    2.10344  -0.04255 
 C(Fragment=1)         2.96042   2.87297  -0.17885 
 O(Fragment=1)         2.92464   4.09115  -0.3719 
 N(Fragment=1)         4.13515   2.13905  -0.08893 
 C(Fragment=1)         5.42644   2.6124   -0.18927 
 C(Fragment=1)         5.77399   3.95627  -0.4172 
 C(Fragment=1)         6.46176   1.6661   -0.05201 
 C(Fragment=1)         7.79028   2.04911  -0.1403 
 C(Fragment=1)         8.12804   3.38011  -0.36669 
 C(Fragment=1)         7.11494   4.33014  -0.50341 
 H(Fragment=1)        -2.69744   1.44517  -0.27376 
 H(Fragment=1)        -2.08463   2.98448  -0.90057 
 H(Fragment=1)        -2.11451   2.68836   0.84341 
 H(Fragment=1)        -0.36814   1.13999  -1.17134 
 H(Fragment=1)        -0.39262   0.85635   0.55859 
 H(Fragment=1)         0.37075   3.24306   0.92728 
 H(Fragment=1)         0.4793    3.45566  -0.81855 
 H(Fragment=1)         1.93715   1.10574   0.22568 
 H(Fragment=1)         4.99026   4.69341  -0.52366 
 H(Fragment=1)         6.19452   0.62689   0.12648 
 H(Fragment=1)         8.57995   1.312    -0.03325 
 Cl(Fragment=1)        9.82382   3.80512  -0.47047 
 C(Fragment=1)         7.4477    5.77769  -0.74658 
 F(Fragment=1)         6.35179   6.54733  -0.8438 
 F(Fragment=1)         8.14341   5.96039  -1.88869 
 F(Fragment=1)         8.19705   6.30563   0.24396 
 H(Fragment=1)         4.05472   1.11523   0.08502 
 O(Fragment=2)         1.95743  -0.61488   0.70093 
 O(Fragment=2)         4.18377  -0.59256   0.40627 
 C(Fragment=2)         3.09115  -1.1574    0.68508 
 C(Fragment=2)         3.13306  -2.65272   1.04113 
 C(Fragment=2)         4.52636  -3.26896   1.01719 
 H(Fragment=2)         2.46197  -3.16745   0.34234 
 H(Fragment=2)         2.67086  -2.75991   2.03026 
 H(Fragment=2)         4.97735  -3.16436   0.02615 
 H(Fragment=2)         4.4943   -4.33429   1.27701 
 H(Fragment=2)         5.1868   -2.75732   1.72337 
 
                          Input orientation:                          
 ---------------------------------------------------------------------
 Center     Atomic      Atomic             Coordinates (Angstroms)
 Number     Number       Type             X           Y           Z
 ---------------------------------------------------------------------
      1          6           0       -1.935047    2.218010   -0.130590
      2          6           0       -0.526746    1.632511   -0.204319
      3          6           0        0.540914    2.706107   -0.020445
      4          7           0        1.853596    2.103444   -0.042552
      5          6           0        2.960420    2.872970   -0.178848
      6          8           0        2.924641    4.091150   -0.371901
      7          7           0        4.135154    2.139050   -0.088928
      8          6           0        5.426443    2.612403   -0.189268
      9          6           0        5.773986    3.956273   -0.417204
     10          6           0        6.461761    1.666099   -0.052007
     11          6           0        7.790282    2.049112   -0.140295
     12          6           0        8.128035    3.380112   -0.366686
     13          6           0        7.114937    4.330136   -0.503413
     14          1           0       -2.697440    1.445171   -0.273765
     15          1           0       -2.084633    2.984477   -0.900566
     16          1           0       -2.114507    2.688363    0.843407
     17          1           0       -0.368145    1.139991   -1.171335
     18          1           0       -0.392620    0.856353    0.558585
     19          1           0        0.370750    3.243063    0.927280
     20          1           0        0.479298    3.455657   -0.818548
     21          1           0        1.937154    1.105741    0.225677
     22          1           0        4.990262    4.693408   -0.523659
     23          1           0        6.194518    0.626889    0.126483
     24          1           0        8.579953    1.311996   -0.033247
     25         17           0        9.823822    3.805117   -0.470467
     26          6           0        7.447696    5.777687   -0.746578
     27          9           0        6.351794    6.547328   -0.843800
     28          9           0        8.143409    5.960389   -1.888687
     29          9           0        8.197047    6.305634    0.243958
     30          1           0        4.054718    1.115234    0.085024
     31          8           0        1.957433   -0.614877    0.700934
     32          8           0        4.183767   -0.592557    0.406271
     33          6           0        3.091152   -1.157397    0.685078
     34          6           0        3.133064   -2.652717    1.041131
     35          6           0        4.526362   -3.268956    1.017186
     36          1           0        2.461965   -3.167451    0.342341
     37          1           0        2.670858   -2.759907    2.030260
     38          1           0        4.977353   -3.164364    0.026146
     39          1           0        4.494302   -4.334290    1.277011
     40          1           0        5.186803   -2.757321    1.723366
 ---------------------------------------------------------------------
                    Distance matrix (angstroms):
                    1          2          3          4          5
     1  C    0.000000
     2  C    1.526943   0.000000
     3  C    2.526016   1.525227   0.000000
     4  N    3.791397   2.431866   1.444584   0.000000
     5  C    4.939322   3.701313   2.430420   1.354920   0.000000
     6  O    5.213776   4.240880   2.779212   2.281794   1.233901
     7  N    6.070858   4.690758   3.639341   2.282307   1.388065
     8  C    7.372281   6.033314   4.889343   3.611898   2.479773
     9  C    7.907775   6.718960   5.394940   4.352333   3.024320
    10  C    8.415294   6.990248   6.011576   4.628882   3.705674
    11  C    9.726800   8.327701   7.280064   5.937739   4.899775
    12  C   10.132712   8.830952   7.624865   6.411204   5.195837
    13  C    9.300660   8.109374   6.788851   5.731689   4.414599
    14  H    1.094999   2.179869   3.484404   4.604205   5.836009
    15  H    1.096681   2.177058   2.783092   4.125779   5.097634
    16  H    1.096407   2.175669   2.792457   4.107662   5.180151
    17  H    2.168054   1.096746   2.145613   2.671802   3.881700
    18  H    2.169828   1.096556   2.151361   2.638577   3.981637
    19  H    2.736151   2.163305   1.102478   2.106688   2.840225
    20  H    2.798949   2.171005   1.096627   2.078303   2.627681
    21  H    4.044504   2.556010   2.138044   1.036504   2.081782
    22  H    7.364917   6.317313   4.898906   4.096102   2.748298
    23  H    8.287797   6.804124   6.025610   4.588289   3.949367
    24  H   10.554409   9.113943   8.159035   6.772766   5.834122
    25  Cl  11.870359  10.579476   9.358564   8.161085   6.932548
    26  C   10.054183   9.003791   7.593780   6.729760   5.375438
    27  F    9.376748   8.478130   7.014215   6.373688   5.044253
    28  F   10.893649   9.835610   8.478125   7.605656   6.270493
    29  F   10.931984   9.906745   8.464211   7.614451   6.275683
    30  H    6.094250   4.619644   3.858603   2.416148   2.087283
    31  O    4.885497   3.470070   3.681827   2.820074   3.734311
    32  O    6.754806   5.245254   4.932915   3.591596   3.721400
    33  C    6.109121   4.654439   4.682749   3.562874   4.123993
    34  C    7.126196   5.771355   6.046750   5.043062   5.661394
    35  C    8.554180   7.144953   7.256848   6.093390   6.450266
    36  H    6.968542   5.680746   6.190374   5.319830   6.083320
    37  H    7.117816   5.874637   6.214448   5.349454   6.057501
    38  H    8.762180   7.304672   7.358437   6.124735   6.368630
    39  H    9.287116   7.937757   8.178011   7.082302   7.511120
    40  H    8.883233   7.458635   7.380664   6.152705   6.346289
                    6          7          8          9         10
     6  O    0.000000
     7  N    2.314327   0.000000
     8  C    2.911882   1.378970   0.000000
     9  C    2.852895   2.468975   1.406673   0.000000
    10  C    4.300514   2.374478   1.409332   2.418947   0.000000
    11  C    5.281857   3.656595   2.430520   2.789156   1.385446
    12  C    5.251753   4.190523   2.814152   2.424058   2.411085
    13  C    4.199165   3.721795   2.429054   1.394759   2.779838
    14  H    6.214389   6.870224   8.207743   8.836927   9.164549
    15  H    5.157232   6.329238   7.553850   7.933216   8.689017
    16  H    5.370084   6.342653   7.611709   8.088576   8.683269
    17  H    4.493426   4.738082   6.058853   6.798966   6.940987
    18  H    4.725880   4.750297   6.124091   6.970560   6.929001
    19  H    2.988224   4.052438   5.215788   5.613489   6.367592
    20  H    2.565745   3.953617   5.057798   5.333425   6.291262
    21  H    3.200765   2.449063   3.823264   4.822874   4.567623
    22  H    2.156973   2.728542   2.152360   1.081168   3.398877
    23  H    4.789738   2.563984   2.152186   3.399595   1.087766
    24  H    6.310383   4.521433   3.414678   3.874670   2.147667
    25  Cl   6.905811   5.939890   4.564929   4.053005   4.006739
    26  C    4.841778   4.964385   3.796719   2.495463   4.284817
    27  F    4.242744   4.991617   4.094914   2.688757   4.946254
    28  F    5.747193   5.823047   4.634538   3.434517   4.964098
    29  F    5.751650   5.828396   4.637228   3.439164   4.962267
    30  H    3.215887   1.041599   2.048995   3.358514   2.473073
    31  O    4.922718   3.598675   4.820978   6.059020   5.104776
    32  O    4.912032   2.776556   3.488650   4.888636   3.240494
    33  C    5.356508   3.543387   4.519896   5.878967   4.458299
    34  C    6.893464   5.024167   5.873241   7.264982   5.561236
    35  C    7.659388   5.533811   6.070919   7.471143   5.407745
    36  H    7.308317   5.580726   6.517473   7.892645   6.286261
    37  H    7.264418   5.534881   6.432828   7.792725   6.188401
    38  H    7.550798   5.371102   5.798200   7.178764   5.054002
    39  H    8.727588   6.625625   7.160685   8.558119   6.453049
    40  H    7.510598   5.325864   5.705220   7.071009   4.933975
                   11         12         13         14         15
    11  C    0.000000
    12  C    1.391722   0.000000
    13  C    2.406453   1.395568   0.000000
    14  H   10.505944  10.997433  10.230273   0.000000
    15  H    9.948209  10.234263   9.305945   1.771404   0.000000
    16  H    9.974024  10.336949   9.470584   1.770144   1.769186
    17  H    8.273419   8.823303   8.162086   2.514833   2.534122
    18  H    8.298855   8.934599   8.340169   2.520259   3.085602
    19  H    7.590433   7.865659   6.979445   3.753493   3.071936
    20  H    7.475887   7.662445   6.700427   3.798750   2.608156
    21  H    5.939949   6.621984   6.143104   4.673769   4.579611
    22  H    3.870320   3.405145   2.155602   8.349505   7.288116
    23  H    2.154148   3.400286   3.867555   8.938495   8.669336
    24  H    1.085532   2.143015   3.387698  11.280743  10.829719
    25  Cl   2.707000   1.751312   2.759491  12.743235  11.944443
    26  C    3.793048   2.521021   1.505078  11.041649   9.934335
    27  F    4.774737   3.662503   2.369428  10.404114   9.158080
    28  F    4.298798   2.995756   2.373703  11.854078  10.697910
    29  F    4.293144   2.989369   2.373208  11.940769  10.865218
    30  H    3.857115   4.682481   4.477364   6.769728   6.492848
    31  O    6.467351   7.428060   7.245926   5.182825   5.644328
    32  O    4.503787   5.651266   5.801050   7.208731   7.334564
    33  C    5.748458   6.860422   6.907704   6.418764   6.816020
    34  C    6.722547   7.957808   8.185424   7.246821   7.922910
    35  C    6.346242   7.687474   8.170627   8.721976   9.299916
    36  H    7.472378   8.687787   8.864494   6.948045   7.750006
    37  H    7.351631   8.557217   8.742886   7.197905   8.012639
    38  H    5.926264   7.274014   7.811352   8.957690   9.409500
    39  H    7.322572   8.684339   9.225503   9.355653  10.079116
    40  H    5.775218   7.119498   7.675174   9.154822   9.629488
                   16         17         18         19         20
    16  H    0.000000
    17  H    3.083249   0.000000
    18  H    2.530272   1.753190   0.000000
    19  H    2.547789   3.061545   2.532796   0.000000
    20  H    3.174690   2.490969   3.068081   1.762071   0.000000
    21  H    4.393431   2.695778   2.366616   2.741170   2.955986
    22  H    7.507783   6.462103   6.698482   5.054563   4.686980
    23  H    8.590899   6.709408   6.605282   6.434432   6.446608
    24  H   10.818242   9.021822   9.003607   8.487793   8.416210
    25  Cl  12.062218  10.557950  10.683157   9.572365   9.357532
    26  C   10.173873   9.098132   9.348451   7.701251   7.345446
    27  F    9.456031   8.631579   8.935380   7.058879   6.636662
    28  F   11.108345   9.808026  10.242271   8.702169   8.133725
    29  F   10.944045  10.101952  10.177231   8.431915   8.295477
    30  H    6.411646   4.597909   4.479966   4.336895   4.367797
    31  O    5.245225   3.463129   2.776244   4.177618   4.589439
    32  O    7.115039   5.119616   4.802693   5.433464   5.622394
    33  C    6.474088   4.548736   4.025898   5.179121   5.510258
    34  C    7.490209   5.615880   4.997687   6.511801   6.914703
    35  C    8.923059   6.941515   6.436216   7.725515   8.060339
    36  H    7.448874   5.371666   4.938261   6.768310   7.010292
    37  H    7.347924   5.890243   4.962667   6.522477   7.179964
    38  H    9.231295   6.966763   6.729507   7.942792   8.048024
    39  H    9.653084   7.720463   7.165258   8.633787   9.010822
    40  H    9.150898   7.377383   6.748727   7.735161   8.198965
                   21         22         23         24         25
    21  H    0.000000
    22  H    4.770149   0.000000
    23  H    4.285358   4.290629   0.000000
    24  H    6.651042   4.955838   2.487003   0.000000
    25  Cl   8.364854   4.914794   4.861001   2.820288   0.000000
    26  C    7.289611   2.695243   5.372468   4.661892   3.100523
    27  F    7.088279   2.322344   6.001482   5.747207   4.440054
    28  F    8.158171   3.662087   6.025389   5.024021   3.079015
    29  F    8.137904   3.670420   6.022630   5.015962   3.067472
    30  H    2.122251   3.748208   2.195210   4.531054   6.389570
    31  O    1.785163   6.235027   4.452512   6.936110   9.098824
    32  O    2.822074   5.427396   2.368216   4.811127   7.205444
    33  C    2.581580   6.268938   3.623063   6.061421   8.443381
    34  C    4.027552   7.737138   4.578744   6.822158   9.420976
    35  C    5.144750   8.123339   4.330555   6.206459   8.962070
    36  H    4.306879   8.302731   5.326872   7.591856  10.172232
    37  H    4.328750   8.213041   5.245087   7.466984  10.025870
    38  H    5.245610   7.876994   3.983108   5.746307   8.503443
    39  H    6.102315   9.218878   5.369147   7.091534   9.884705
    40  H    5.265600   7.784672   3.875359   5.581980   8.329492
                   26         27         28         29         30
    26  C    0.000000
    27  F    1.342684   0.000000
    28  F    1.349744   2.155497   0.000000
    29  F    1.349599   2.155596   2.161075   0.000000
    30  H    5.826004   5.970504   6.639914   6.642620   0.000000
    31  O    8.550038   8.543641   9.391835   9.329259   2.787693
    32  O    7.249986   7.565777   7.992915   7.982342   1.742528
    33  C    8.314115   8.504825   9.100135   9.053263   2.540350
    34  C    9.637617   9.927438  10.386192  10.321408   3.995128
    35  C    9.668857  10.156521  10.329954  10.283218   4.506939
    36  H   10.298483  10.531602  10.980609  11.074303   4.576513
    37  H   10.169539  10.413172  11.015922  10.766321   4.551454
    38  H    9.309133   9.846972   9.846401  10.004735   4.378320
    39  H   10.727046  11.240896  11.371809  11.313067   5.595658
    40  H    9.168349   9.722348   9.888727   9.663714   4.354592
                   31         32         33         34         35
    31  O    0.000000
    32  O    2.245861   0.000000
    33  C    1.256940   1.261185   0.000000
    34  C    2.377107   2.398184   1.537697   0.000000
    35  C    3.707229   2.766532   2.574646   1.523681   0.000000
    36  H    2.626552   3.098188   2.133931   1.097101   2.174271
    37  H    2.622449   3.102200   2.134057   1.097042   2.174475
    38  H    4.009382   2.718173   2.831936   2.166421   1.093843
    39  H    4.538899   3.854243   3.523048   2.176304   1.097029
    40  H    4.008025   2.725257   2.833646   2.166617   1.093912
                   36         37         38         39         40
    36  H    0.000000
    37  H    1.748942   0.000000
    38  H    2.535186   3.082203   0.000000
    39  H    2.522997   2.524087   1.779530   0.000000
    40  H    3.082236   2.534594   1.757871   1.779219   0.000000
 Stoichiometry    C14H17ClF3N2O3(1-)
 Framework group  C1[X(C14H17ClF3N2O3)]
 Deg. of freedom   114
 Full point group                 C1      NOp   1
 Largest Abelian subgroup         C1      NOp   1
 Largest concise Abelian subgroup C1      NOp   1
                         Standard orientation:                         
 ---------------------------------------------------------------------
 Center     Atomic      Atomic             Coordinates (Angstroms)
 Number     Number       Type             X           Y           Z
 ---------------------------------------------------------------------
      1          6           0        5.690157   -3.667991   -0.084922
      2          6           0        4.854370   -2.403059   -0.266486
      3          6           0        3.398358   -2.627385    0.128510
      4          7           0        2.656577   -1.395133   -0.006176
      5          6           0        1.301852   -1.403125    0.015403
      6          8           0        0.626568   -2.434658    0.064806
      7          7           0        0.759673   -0.126350   -0.035708
      8          6           0       -0.576322    0.215230   -0.036219
      9          6           0       -1.640481   -0.703781    0.005130
     10          6           0       -0.879708    1.590721   -0.083099
     11          6           0       -2.194250    2.028215   -0.089357
     12          6           0       -3.242991    1.114208   -0.049056
     13          6           0       -2.959854   -0.251485   -0.000836
     14          1           0        6.731971   -3.504692   -0.379841
     15          1           0        5.294749   -4.492574   -0.690253
     16          1           0        5.686192   -3.994668    0.961680
     17          1           0        4.888668   -2.069362   -1.310671
     18          1           0        5.267074   -1.580639    0.329949
     19          1           0        3.346430   -3.006519    1.162444
     20          1           0        2.937020   -3.392506   -0.507373
     21          1           0        3.177831   -0.501799    0.061553
     22          1           0       -1.422762   -1.762152    0.042193
     23          1           0       -0.057779    2.302607   -0.112882
     24          1           0       -2.416788    3.090065   -0.125812
     25         17           0       -4.884118    1.725483   -0.060831
     26          6           0       -4.071720   -1.264814    0.045849
     27          9           0       -3.615060   -2.526414    0.097114
     28          9           0       -4.876447   -1.195175   -1.035527
     29          9           0       -4.867964   -1.104045    1.123609
     30          1           0        1.419214    0.679259   -0.066190
     31          8           0        4.179811    0.970025    0.190300
     32          8           0        2.307026    2.178532   -0.085521
     33          6           0        3.551868    2.052516    0.072833
     34          6           0        4.396156    3.336471    0.128949
     35          6           0        3.595636    4.625461   -0.009884
     36          1           0        5.154443    3.256102   -0.659831
     37          1           0        4.949396    3.315328    1.076039
     38          1           0        3.052831    4.641979   -0.959401
     39          1           0        4.248649    5.505775    0.035889
     40          1           0        2.848681    4.703402    0.785494
 ---------------------------------------------------------------------
 Rotational constants (GHZ):      0.3092447      0.1077276      0.0813177
 Counterpoise: doing full dimer calculation.
 General basis read from cards:  (6D, 7F)
 There are   475 symmetry adapted cartesian basis functions of A   symmetry.
 There are   475 symmetry adapted basis functions of A   symmetry.
   475 basis functions,   828 primitive gaussians,   475 cartesian basis functions
    92 alpha electrons       92 beta electrons
       nuclear repulsion energy      2102.2535638817 Hartrees.
 NAtoms=   40 NActive=   40 NUniq=   40 SFac= 1.00D+00 NAtFMM=   60 NAOKFM=F Big=F
 Integral buffers will be    131072 words long.
 Raffenetti 2 integral format.
 Two-electron integral symmetry is turned on.
 One-electron integrals computed using PRISM.
 NBasis=   475 RedAO= T EigKep=  1.23D-06  NBF=   475
 NBsUse=   473 1.00D-06 EigRej=  8.69D-07 NBFU=   473
 ExpMin= 4.38D-02 ExpMax= 2.52D+04 ExpMxC= 3.78D+03 IAcc=3 IRadAn=         5 AccDes= 0.00D+00
 Harris functional with IExCor= 1009 and IRadAn=       5 diagonalized for initial guess.
 HarFok:  IExCor= 1009 AccDes= 0.00D+00 IRadAn=         5 IDoV= 1 UseB2=F ITyADJ=14
 ICtDFT=  3500011 ScaDFX=  1.000000  1.000000  1.000000  1.000000
 FoFCou: FMM=F IPFlag=           0 FMFlag=      100000 FMFlg1=           0
         NFxFlg=           0 DoJE=T BraDBF=F KetDBF=T FulRan=T
         wScrn=  0.000000 ICntrl=     500 IOpCl=  0 I1Cent=   200000004 NGrid=           0
         NMat0=    1 NMatS0=      1 NMatT0=    0 NMatD0=    1 NMtDS0=    0 NMtDT0=    0
 Petite list used in FoFCou.
 Requested convergence on RMS density matrix=1.00D-08 within 128 cycles.
 Requested convergence on MAX density matrix=1.00D-06.
 Requested convergence on             energy=1.00D-06.
 No special actions if energy rises.
 SCF Done:  E(RM062X) =  -1638.34011413     A.U. after   16 cycles
            NFock= 16  Conv=0.32D-08     -V/T= 2.0066

 **********************************************************************

            Population analysis using the SCF density.

 **********************************************************************

 Orbital symmetries:
       Occupied  (A) (A) (A) (A) (A) (A) (A) (A) (A) (A) (A) (A)
                 (A) (A) (A) (A) (A) (A) (A) (A) (A) (A) (A) (A)
                 (A) (A) (A) (A) (A) (A) (A) (A) (A) (A) (A) (A)
                 (A) (A) (A) (A) (A) (A) (A) (A) (A) (A) (A) (A)
                 (A) (A) (A) (A) (A) (A) (A) (A) (A) (A) (A) (A)
                 (A) (A) (A) (A) (A) (A) (A) (A) (A) (A) (A) (A)
                 (A) (A) (A) (A) (A) (A) (A) (A) (A) (A) (A) (A)
                 (A) (A) (A) (A) (A) (A) (A) (A)
       Virtual   (A) (A) (A) (A) (A) (A) (A) (A) (A) (A) (A) (A)
                 (A) (A) (A) (A) (A) (A) (A) (A) (A) (A) (A) (A)
                 (A) (A) (A) (A) (A) (A) (A) (A) (A) (A) (A) (A)
                 (A) (A) (A) (A) (A) (A) (A) (A) (A) (A) (A) (A)
                 (A) (A) (A) (A) (A) (A) (A) (A) (A) (A) (A) (A)
                 (A) (A) (A) (A) (A) (A) (A) (A) (A) (A) (A) (A)
                 (A) (A) (A) (A) (A) (A) (A) (A) (A) (A) (A) (A)
                 (A) (A) (A) (A) (A) (A) (A) (A) (A) (A) (A) (A)
                 (A) (A) (A) (A) (A) (A) (A) (A) (A) (A) (A) (A)
                 (A) (A) (A) (A) (A) (A) (A) (A) (A) (A) (A) (A)
                 (A) (A) (A) (A) (A) (A) (A) (A) (A) (A) (A) (A)
                 (A) (A) (A) (A) (A) (A) (A) (A) (A) (A) (A) (A)
                 (A) (A) (A) (A) (A) (A) (A) (A) (A) (A) (A) (A)
                 (A) (A) (A) (A) (A) (A) (A) (A) (A) (A) (A) (A)
                 (A) (A) (A) (A) (A) (A) (A) (A) (A) (A) (A) (A)
                 (A) (A) (A) (A) (A) (A) (A) (A) (A) (A) (A) (A)
                 (A) (A) (A) (A) (A) (A) (A) (A) (A) (A) (A) (A)
                 (A) (A) (A) (A) (A) (A) (A) (A) (A) (A) (A) (A)
                 (A) (A) (A) (A) (A) (A) (A) (A) (A) (A) (A) (A)
                 (A) (A) (A) (A) (A) (A) (A) (A) (A) (A) (A) (A)
                 (A) (A) (A) (A) (A) (A) (A) (A) (A) (A) (A) (A)
                 (A) (A) (A) (A) (A) (A) (A) (A) (A) (A) (A) (A)
                 (A) (A) (A) (A) (A) (A) (A) (A) (A) (A) (A) (A)
                 (A) (A) (A) (A) (A) (A) (A) (A) (A) (A) (A) (A)
                 (A) (A) (A) (A) (A) (A) (A) (A) (A) (A) (A) (A)
                 (A) (A) (A) (A) (A) (A) (A) (A) (A) (A) (A) (A)
                 (A) (A) (A) (A) (A) (A) (A) (A) (A) (A) (A) (A)
                 (A) (A) (A) (A) (A) (A) (A) (A) (A) (A) (A) (A)
                 (A) (A) (A) (A) (A) (A) (A) (A) (A) (A) (A) (A)
                 (A) (A) (A) (A) (A) (A) (A) (A) (A) (A) (A) (A)
                 (A) (A) (A) (A) (A) (A) (A) (A) (A) (A) (A) (A)
                 (A) (A) (A) (A) (A) (A) (A) (A) (A)
 The electronic state is 1-A.
 Alpha  occ. eigenvalues -- -102.58594 -25.20971 -25.20629 -25.20628 -19.49077
 Alpha  occ. eigenvalues --  -19.47333 -19.46796 -14.66720 -14.64872 -10.72046
 Alpha  occ. eigenvalues --  -10.56040 -10.52572 -10.51976 -10.50694 -10.49347
 Alpha  occ. eigenvalues --  -10.47563 -10.47134 -10.46269 -10.46111 -10.45450
 Alpha  occ. eigenvalues --  -10.44679 -10.43168 -10.43118  -9.73239  -7.45641
 Alpha  occ. eigenvalues --   -7.44982  -7.44976  -1.37416  -1.28151  -1.27823
 Alpha  occ. eigenvalues --   -1.05215  -1.03397  -0.94080  -0.93583  -0.91254
 Alpha  occ. eigenvalues --   -0.89963  -0.83982  -0.79570  -0.78284  -0.75210
 Alpha  occ. eigenvalues --   -0.73562  -0.71075  -0.67514  -0.63601  -0.61730
 Alpha  occ. eigenvalues --   -0.61540  -0.59702  -0.59438  -0.58202  -0.56616
 Alpha  occ. eigenvalues --   -0.54066  -0.51215  -0.48403  -0.47982  -0.47860
 Alpha  occ. eigenvalues --   -0.47179  -0.45868  -0.44984  -0.44429  -0.43791
 Alpha  occ. eigenvalues --   -0.43024  -0.42450  -0.41753  -0.41729  -0.40974
 Alpha  occ. eigenvalues --   -0.40894  -0.40570  -0.39457  -0.38335  -0.37974
 Alpha  occ. eigenvalues --   -0.37957  -0.36380  -0.35679  -0.35049  -0.34283
 Alpha  occ. eigenvalues --   -0.33901  -0.32900  -0.32671  -0.31980  -0.31186
 Alpha  occ. eigenvalues --   -0.30474  -0.29706  -0.29024  -0.28932  -0.26002
 Alpha  occ. eigenvalues --   -0.22869  -0.22718  -0.20181  -0.19652  -0.19524
 Alpha  occ. eigenvalues --   -0.18999  -0.15452
 Alpha virt. eigenvalues --    0.09696   0.09706   0.10190   0.10867   0.11014
 Alpha virt. eigenvalues --    0.11684   0.12058   0.12430   0.13062   0.13170
 Alpha virt. eigenvalues --    0.13748   0.14267   0.14458   0.14864   0.14997
 Alpha virt. eigenvalues --    0.15635   0.15999   0.16078   0.16898   0.16957
 Alpha virt. eigenvalues --    0.17212   0.17786   0.18247   0.18410   0.18577
 Alpha virt. eigenvalues --    0.19665   0.19911   0.20095   0.20498   0.20635
 Alpha virt. eigenvalues --    0.20997   0.21428   0.22016   0.22187   0.22359
 Alpha virt. eigenvalues --    0.22983   0.23234   0.23598   0.24371   0.24472
 Alpha virt. eigenvalues --    0.25113   0.25779   0.25891   0.26702   0.27045
 Alpha virt. eigenvalues --    0.27620   0.28141   0.28668   0.28802   0.29344
 Alpha virt. eigenvalues --    0.29841   0.30152   0.30754   0.31180   0.31502
 Alpha virt. eigenvalues --    0.32014   0.32221   0.32677   0.32785   0.33212
 Alpha virt. eigenvalues --    0.33587   0.33854   0.34158   0.34332   0.34630
 Alpha virt. eigenvalues --    0.35037   0.35310   0.35795   0.35853   0.36408
 Alpha virt. eigenvalues --    0.36706   0.36993   0.37754   0.38311   0.38556
 Alpha virt. eigenvalues --    0.38943   0.39396   0.39447   0.39727   0.40216
 Alpha virt. eigenvalues --    0.40558   0.40665   0.40859   0.41343   0.41569
 Alpha virt. eigenvalues --    0.42000   0.42281   0.42755   0.43417   0.43687
 Alpha virt. eigenvalues --    0.44062   0.44188   0.44814   0.45141   0.45483
 Alpha virt. eigenvalues --    0.45660   0.46029   0.46448   0.47044   0.47334
 Alpha virt. eigenvalues --    0.47790   0.48207   0.48470   0.48929   0.49172
 Alpha virt. eigenvalues --    0.49322   0.50218   0.50437   0.50584   0.50929
 Alpha virt. eigenvalues --    0.51585   0.53763   0.54148   0.54457   0.54897
 Alpha virt. eigenvalues --    0.55507   0.55960   0.57075   0.57284   0.57621
 Alpha virt. eigenvalues --    0.58709   0.59965   0.61197   0.61721   0.63224
 Alpha virt. eigenvalues --    0.63857   0.64624   0.65905   0.66533   0.68417
 Alpha virt. eigenvalues --    0.69497   0.71619   0.72201   0.73469   0.75828
 Alpha virt. eigenvalues --    0.79162   0.79716   0.80088   0.80437   0.80944
 Alpha virt. eigenvalues --    0.81244   0.82545   0.83494   0.83813   0.84620
 Alpha virt. eigenvalues --    0.86086   0.86313   0.86486   0.86672   0.87141
 Alpha virt. eigenvalues --    0.87800   0.88593   0.89305   0.90447   0.91116
 Alpha virt. eigenvalues --    0.92030   0.92350   0.93559   0.94548   0.94826
 Alpha virt. eigenvalues --    0.95929   0.96756   0.97323   0.98217   0.98550
 Alpha virt. eigenvalues --    0.99137   1.01367   1.02228   1.03344   1.04711
 Alpha virt. eigenvalues --    1.06799   1.07535   1.07942   1.08644   1.09845
 Alpha virt. eigenvalues --    1.10242   1.10631   1.11486   1.12694   1.13668
 Alpha virt. eigenvalues --    1.13862   1.15118   1.15933   1.16880   1.17805
 Alpha virt. eigenvalues --    1.18583   1.18972   1.19626   1.20390   1.21060
 Alpha virt. eigenvalues --    1.23612   1.24373   1.25929   1.26212   1.27265
 Alpha virt. eigenvalues --    1.27973   1.28629   1.29458   1.29704   1.31352
 Alpha virt. eigenvalues --    1.32322   1.33461   1.34003   1.35336   1.36451
 Alpha virt. eigenvalues --    1.38501   1.39597   1.42001   1.43303   1.43639
 Alpha virt. eigenvalues --    1.45281   1.46849   1.48210   1.48531   1.49343
 Alpha virt. eigenvalues --    1.50396   1.50795   1.52179   1.53548   1.53583
 Alpha virt. eigenvalues --    1.54463   1.55124   1.56219   1.56567   1.58555
 Alpha virt. eigenvalues --    1.59024   1.59646   1.59821   1.61360   1.62179
 Alpha virt. eigenvalues --    1.62589   1.65581   1.66081   1.66568   1.67289
 Alpha virt. eigenvalues --    1.68219   1.69279   1.70770   1.72490   1.73377
 Alpha virt. eigenvalues --    1.74888   1.75859   1.77360   1.79026   1.79178
 Alpha virt. eigenvalues --    1.79997   1.82951   1.83497   1.83737   1.84002
 Alpha virt. eigenvalues --    1.84543   1.86461   1.87676   1.88490   1.90587
 Alpha virt. eigenvalues --    1.91872   1.94165   1.95301   1.95500   1.96961
 Alpha virt. eigenvalues --    1.97833   1.97975   1.99029   1.99305   1.99613
 Alpha virt. eigenvalues --    1.99845   2.01969   2.02440   2.03528   2.03807
 Alpha virt. eigenvalues --    2.04165   2.06212   2.06753   2.06939   2.07233
 Alpha virt. eigenvalues --    2.08411   2.08580   2.09440   2.11859   2.12995
 Alpha virt. eigenvalues --    2.14145   2.15253   2.16486   2.17549   2.18230
 Alpha virt. eigenvalues --    2.18677   2.19516   2.19664   2.21311   2.22255
 Alpha virt. eigenvalues --    2.22395   2.22704   2.22772   2.24003   2.24184
 Alpha virt. eigenvalues --    2.25511   2.26081   2.26671   2.28718   2.30567
 Alpha virt. eigenvalues --    2.32857   2.33662   2.34538   2.35199   2.38340
 Alpha virt. eigenvalues --    2.39221   2.40323   2.41834   2.42098   2.42403
 Alpha virt. eigenvalues --    2.43481   2.46898   2.49246   2.49276   2.50152
 Alpha virt. eigenvalues --    2.50820   2.51227   2.52887   2.55363   2.59169
 Alpha virt. eigenvalues --    2.60620   2.61192   2.62064   2.65330   2.65910
 Alpha virt. eigenvalues --    2.67411   2.72171   2.73215   2.75372   2.76128
 Alpha virt. eigenvalues --    2.77369   2.78448   2.80746   2.83804   2.88194
 Alpha virt. eigenvalues --    2.88601   2.88948   2.89564   2.89879   2.92537
 Alpha virt. eigenvalues --    2.93531   2.95246   2.99791   3.05756   3.06539
 Alpha virt. eigenvalues --    3.10556   3.14794   3.21839   3.23911   3.26393
 Alpha virt. eigenvalues --    3.28137   3.28323   3.35220   3.37346   3.40915
 Alpha virt. eigenvalues --    3.42314   3.48403   3.55007   4.34758   4.36542
 Alpha virt. eigenvalues --    4.37620   4.41344   4.43800   4.50487   4.53268
 Alpha virt. eigenvalues --    4.55312   4.56028   4.56429   4.59353   4.60661
 Alpha virt. eigenvalues --    4.63272   4.68697   4.71605   4.75250   4.79615
 Alpha virt. eigenvalues --    4.88079   4.89529   4.99922   5.68750   6.29570
 Alpha virt. eigenvalues --    7.11905
          Condensed to atoms (all electrons):
               1          2          3          4          5          6
     1  C    5.852299  -0.249680   0.074282  -0.028783  -0.067029  -0.002594
     2  C   -0.249680   6.410445  -0.449754  -0.036994   0.162118   0.013680
     3  C    0.074282  -0.449754   6.913653   0.305018  -0.799910  -0.130402
     4  N   -0.028783  -0.036994   0.305018   7.802789   0.405054  -0.183931
     5  C   -0.067029   0.162118  -0.799910   0.405054   6.443625   0.626709
     6  O   -0.002594   0.013680  -0.130402  -0.183931   0.626709   8.354079
     7  N   -0.000673   0.014719  -0.148431  -0.371181   0.143961  -0.063610
     8  C    0.000993  -0.012572  -0.019098  -0.085785   0.383303  -0.277245
     9  C   -0.007125   0.003640  -0.377196  -0.101910  -1.564226   0.296657
    10  C   -0.001523   0.003339   0.037825  -0.009679   0.217569  -0.056745
    11  C   -0.000378   0.000052   0.022814  -0.039023   0.598455  -0.006244
    12  C    0.000170   0.000140  -0.008595   0.005737  -0.159465  -0.027281
    13  C   -0.000857  -0.001546  -0.081399   0.030343  -0.774001   0.060936
    14  H    0.445375  -0.120740   0.030005   0.000450  -0.001551   0.000001
    15  H    0.445960  -0.070010  -0.024451   0.000859  -0.004608  -0.000060
    16  H    0.397867  -0.060938   0.005997  -0.000475   0.004168   0.000002
    17  H   -0.059909   0.423802  -0.055248   0.001220   0.002859  -0.000160
    18  H   -0.028368   0.446879  -0.097558   0.009211  -0.005081  -0.000083
    19  H   -0.014375  -0.085934   0.401962  -0.071697   0.049367   0.002194
    20  H    0.002107  -0.031973   0.511030  -0.041685  -0.101344  -0.001129
    21  H    0.002803  -0.002274  -0.022357   0.144792  -0.001154   0.003190
    22  H    0.000019  -0.000053   0.003986   0.001258   0.034905  -0.003846
    23  H   -0.000004   0.000033  -0.000737   0.000630  -0.011687   0.000118
    24  H    0.000000  -0.000000   0.000029   0.000016   0.003198  -0.000002
    25  Cl  -0.000001   0.000003  -0.000135   0.000135  -0.006258   0.000062
    26  C   -0.000273   0.000083  -0.016600   0.001513  -0.198607   0.008577
    27  F    0.000001  -0.000004   0.000458   0.000016   0.015432  -0.000834
    28  F    0.000000  -0.000001   0.000058   0.000015   0.004118   0.000002
    29  F    0.000000  -0.000001   0.000018   0.000006   0.002713  -0.000014
    30  H   -0.000070  -0.000723  -0.000044   0.011433  -0.037805   0.003563
    31  O    0.003967  -0.010865   0.013139  -0.037675   0.000787  -0.000104
    32  O   -0.000783  -0.003594  -0.000607   0.005635   0.003921   0.000103
    33  C   -0.003900  -0.002463   0.009752   0.000411  -0.013254  -0.001534
    34  C    0.005997  -0.003703   0.042531  -0.029514  -0.028482  -0.001394
    35  C   -0.000655  -0.000582  -0.004173   0.004301   0.001679   0.000075
    36  H    0.000083   0.000344  -0.000077  -0.000272  -0.000084  -0.000000
    37  H    0.000004  -0.000155   0.000365  -0.000103  -0.000332  -0.000000
    38  H    0.000000   0.000002   0.000007   0.000006  -0.000094  -0.000000
    39  H    0.000000   0.000003  -0.000006  -0.000005   0.000019   0.000000
    40  H    0.000001   0.000017   0.000002   0.000008  -0.000000  -0.000000
               7          8          9         10         11         12
     1  C   -0.000673   0.000993  -0.007125  -0.001523  -0.000378   0.000170
     2  C    0.014719  -0.012572   0.003640   0.003339   0.000052   0.000140
     3  C   -0.148431  -0.019098  -0.377196   0.037825   0.022814  -0.008595
     4  N   -0.371181  -0.085785  -0.101910  -0.009679  -0.039023   0.005737
     5  C    0.143961   0.383303  -1.564226   0.217569   0.598455  -0.159465
     6  O   -0.063610  -0.277245   0.296657  -0.056745  -0.006244  -0.027281
     7  N    7.987694   0.044848   0.016009  -0.084496   0.013544  -0.008798
     8  C    0.044848  20.003176  -3.592251  -0.898863   0.118001   0.076584
     9  C    0.016009  -3.592251  14.035667  -1.913192  -2.231849  -3.751324
    10  C   -0.084496  -0.898863  -1.913192  13.400906  -4.696512   0.988099
    11  C    0.013544   0.118001  -2.231849  -4.696512  17.261669  -2.048999
    12  C   -0.008798   0.076584  -3.751324   0.988099  -2.048999  18.180402
    13  C    0.045041  -6.321809   4.876226  -1.824977  -3.267824  -5.867368
    14  H    0.000013  -0.000020  -0.000010   0.000001   0.000000  -0.000000
    15  H    0.000016  -0.000090  -0.000091   0.000016   0.000001  -0.000000
    16  H    0.000028   0.000133   0.000009  -0.000003  -0.000000   0.000000
    17  H   -0.000764   0.001422   0.000386  -0.000251  -0.000037   0.000007
    18  H    0.000774  -0.002836  -0.000795   0.000749   0.000066  -0.000003
    19  H   -0.000615   0.005570   0.009252  -0.002561  -0.000337   0.000113
    20  H   -0.000703  -0.003600  -0.016343   0.003306   0.000432  -0.000147
    21  H    0.011324   0.002153  -0.010604   0.003909   0.000079   0.000306
    22  H   -0.015082  -0.095764   0.441089  -0.020175  -0.025765  -0.039250
    23  H   -0.010016  -0.047417  -0.003097   0.357680  -0.006680  -0.031052
    24  H    0.000063   0.054191   0.006987  -0.123363   0.272087   0.005086
    25  Cl  -0.000222  -0.034017  -0.018223   0.065109  -0.029149  -0.259986
    26  C    0.035247  -2.988218   0.150550   0.263865   0.091396  -0.934923
    27  F   -0.000395   0.203398   0.125392  -0.013285   0.026235  -0.072742
    28  F    0.000360   0.053232   0.066916  -0.021165   0.001782  -0.267420
    29  F    0.000385   0.047718   0.062921  -0.019747   0.000497  -0.262259
    30  H    0.096555  -0.026940   0.059510  -0.037284   0.011248  -0.007096
    31  O    0.021826  -0.020678  -0.014415   0.002468  -0.003981   0.002108
    32  O    0.010007  -0.326270  -0.005263   0.244824   0.087900  -0.004137
    33  C   -0.017906   0.216309  -0.010531  -0.119602  -0.105128   0.007324
    34  C   -0.021136  -0.085024  -0.056373   0.067526   0.035902   0.007731
    35  C    0.001870  -0.012210   0.004623   0.001836   0.010966  -0.002603
    36  H    0.000168  -0.000808  -0.000085   0.000487  -0.000013   0.000008
    37  H    0.000159  -0.001530  -0.000228   0.001479   0.000139   0.000000
    38  H   -0.000122   0.000446  -0.000005   0.000020  -0.000596  -0.000136
    39  H    0.000029   0.000189   0.000009  -0.000195  -0.000120   0.000005
    40  H   -0.000131   0.001179   0.000125  -0.000989  -0.001136  -0.000083
              13         14         15         16         17         18
     1  C   -0.000857   0.445375   0.445960   0.397867  -0.059909  -0.028368
     2  C   -0.001546  -0.120740  -0.070010  -0.060938   0.423802   0.446879
     3  C   -0.081399   0.030005  -0.024451   0.005997  -0.055248  -0.097558
     4  N    0.030343   0.000450   0.000859  -0.000475   0.001220   0.009211
     5  C   -0.774001  -0.001551  -0.004608   0.004168   0.002859  -0.005081
     6  O    0.060936   0.000001  -0.000060   0.000002  -0.000160  -0.000083
     7  N    0.045041   0.000013   0.000016   0.000028  -0.000764   0.000774
     8  C   -6.321809  -0.000020  -0.000090   0.000133   0.001422  -0.002836
     9  C    4.876226  -0.000010  -0.000091   0.000009   0.000386  -0.000795
    10  C   -1.824977   0.000001   0.000016  -0.000003  -0.000251   0.000749
    11  C   -3.267824   0.000000   0.000001  -0.000000  -0.000037   0.000066
    12  C   -5.867368  -0.000000  -0.000000   0.000000   0.000007  -0.000003
    13  C   20.677139  -0.000000  -0.000005   0.000002   0.000050  -0.000063
    14  H   -0.000000   0.510857  -0.028153  -0.027325  -0.002962  -0.002820
    15  H   -0.000005  -0.028153   0.513630  -0.033071  -0.004739   0.003745
    16  H    0.000002  -0.027325  -0.033071   0.509574   0.003946  -0.004263
    17  H    0.000050  -0.002962  -0.004739   0.003946   0.504161  -0.032075
    18  H   -0.000063  -0.002820   0.003745  -0.004263  -0.032075   0.466889
    19  H    0.001076  -0.000082  -0.000508   0.002918   0.004523  -0.005380
    20  H   -0.001709  -0.000081   0.002602  -0.000212  -0.006026   0.003892
    21  H   -0.002033   0.000000   0.000005  -0.000007  -0.000435   0.002589
    22  H    0.011826   0.000000  -0.000000   0.000000   0.000000  -0.000000
    23  H    0.033669   0.000000  -0.000000   0.000000   0.000000  -0.000000
    24  H    0.093310  -0.000000   0.000000   0.000000  -0.000000  -0.000000
    25  Cl  -0.015589  -0.000000  -0.000000   0.000000   0.000000  -0.000000
    26  C   -0.495609  -0.000000  -0.000000   0.000000   0.000001  -0.000002
    27  F   -0.299381  -0.000000  -0.000000   0.000000   0.000000  -0.000000
    28  F    0.270844   0.000000  -0.000000   0.000000   0.000000   0.000000
    29  F    0.270703  -0.000000  -0.000000   0.000000   0.000000  -0.000000
    30  H    0.027439  -0.000000  -0.000000  -0.000000  -0.000001   0.000006
    31  O   -0.004469   0.000001  -0.000045   0.000056   0.000896  -0.005901
    32  O    0.017800  -0.000000  -0.000000   0.000000   0.000059  -0.000037
    33  C   -0.017154  -0.000066  -0.000049   0.000069   0.000356  -0.000019
    34  C   -0.018611   0.000059  -0.000002  -0.000025   0.000098  -0.000298
    35  C    0.002847  -0.000000   0.000000  -0.000000  -0.000012  -0.000030
    36  H   -0.000020  -0.000000  -0.000000   0.000000   0.000000  -0.000001
    37  H   -0.000026  -0.000000  -0.000000   0.000000   0.000000  -0.000001
    38  H    0.000005   0.000000  -0.000000  -0.000000  -0.000000   0.000000
    39  H   -0.000001   0.000000  -0.000000  -0.000000   0.000000  -0.000000
    40  H   -0.000004  -0.000000  -0.000000  -0.000000   0.000000   0.000000
              19         20         21         22         23         24
     1  C   -0.014375   0.002107   0.002803   0.000019  -0.000004   0.000000
     2  C   -0.085934  -0.031973  -0.002274  -0.000053   0.000033  -0.000000
     3  C    0.401962   0.511030  -0.022357   0.003986  -0.000737   0.000029
     4  N   -0.071697  -0.041685   0.144792   0.001258   0.000630   0.000016
     5  C    0.049367  -0.101344  -0.001154   0.034905  -0.011687   0.003198
     6  O    0.002194  -0.001129   0.003190  -0.003846   0.000118  -0.000002
     7  N   -0.000615  -0.000703   0.011324  -0.015082  -0.010016   0.000063
     8  C    0.005570  -0.003600   0.002153  -0.095764  -0.047417   0.054191
     9  C    0.009252  -0.016343  -0.010604   0.441089  -0.003097   0.006987
    10  C   -0.002561   0.003306   0.003909  -0.020175   0.357680  -0.123363
    11  C   -0.000337   0.000432   0.000079  -0.025765  -0.006680   0.272087
    12  C    0.000113  -0.000147   0.000306  -0.039250  -0.031052   0.005086
    13  C    0.001076  -0.001709  -0.002033   0.011826   0.033669   0.093310
    14  H   -0.000082  -0.000081   0.000000   0.000000   0.000000  -0.000000
    15  H   -0.000508   0.002602   0.000005  -0.000000  -0.000000   0.000000
    16  H    0.002918  -0.000212  -0.000007   0.000000   0.000000   0.000000
    17  H    0.004523  -0.006026  -0.000435   0.000000   0.000000  -0.000000
    18  H   -0.005380   0.003892   0.002589  -0.000000  -0.000000  -0.000000
    19  H    0.551719  -0.045554   0.000977   0.000000   0.000000   0.000000
    20  H   -0.045554   0.504844   0.001994  -0.000002   0.000000   0.000000
    21  H    0.000977   0.001994   0.249425  -0.000000   0.000004   0.000000
    22  H    0.000000  -0.000002  -0.000000   0.405881  -0.000111   0.000012
    23  H    0.000000   0.000000   0.000004  -0.000111   0.426256  -0.003457
    24  H    0.000000   0.000000   0.000000   0.000012  -0.003457   0.480058
    25  Cl   0.000000  -0.000000  -0.000000   0.000342   0.000554  -0.001845
    26  C    0.000057  -0.000099  -0.000165  -0.011626   0.007420  -0.001030
    27  F   -0.000000  -0.000000   0.000000   0.008734  -0.000000   0.000016
    28  F   -0.000000   0.000000  -0.000000  -0.000046   0.000001   0.000001
    29  F    0.000000  -0.000000  -0.000000  -0.000027   0.000001   0.000002
    30  H   -0.000000   0.000011   0.009220  -0.000178   0.006711  -0.000008
    31  O    0.000897  -0.000682   0.078500   0.000002   0.000004   0.000000
    32  O    0.000004  -0.000016  -0.000936   0.000002  -0.002293   0.000115
    33  C   -0.000452   0.001186  -0.003772   0.000011   0.000370  -0.000031
    34  C    0.000037   0.000078   0.019108   0.000008   0.001132   0.000003
    35  C   -0.000002   0.000005  -0.003061  -0.000002  -0.000286  -0.000057
    36  H    0.000000  -0.000000  -0.000006   0.000000   0.000000  -0.000000
    37  H   -0.000000  -0.000000  -0.000004   0.000000   0.000001  -0.000000
    38  H   -0.000000   0.000000  -0.000000   0.000000   0.000012   0.000000
    39  H   -0.000000  -0.000000   0.000000  -0.000000  -0.000000   0.000000
    40  H    0.000000   0.000000  -0.000000   0.000000   0.000021   0.000000
              25         26         27         28         29         30
     1  C   -0.000001  -0.000273   0.000001   0.000000   0.000000  -0.000070
     2  C    0.000003   0.000083  -0.000004  -0.000001  -0.000001  -0.000723
     3  C   -0.000135  -0.016600   0.000458   0.000058   0.000018  -0.000044
     4  N    0.000135   0.001513   0.000016   0.000015   0.000006   0.011433
     5  C   -0.006258  -0.198607   0.015432   0.004118   0.002713  -0.037805
     6  O    0.000062   0.008577  -0.000834   0.000002  -0.000014   0.003563
     7  N   -0.000222   0.035247  -0.000395   0.000360   0.000385   0.096555
     8  C   -0.034017  -2.988218   0.203398   0.053232   0.047718  -0.026940
     9  C   -0.018223   0.150550   0.125392   0.066916   0.062921   0.059510
    10  C    0.065109   0.263865  -0.013285  -0.021165  -0.019747  -0.037284
    11  C   -0.029149   0.091396   0.026235   0.001782   0.000497   0.011248
    12  C   -0.259986  -0.934923  -0.072742  -0.267420  -0.262259  -0.007096
    13  C   -0.015589  -0.495609  -0.299381   0.270844   0.270703   0.027439
    14  H   -0.000000  -0.000000  -0.000000   0.000000  -0.000000  -0.000000
    15  H   -0.000000  -0.000000  -0.000000  -0.000000  -0.000000  -0.000000
    16  H    0.000000   0.000000   0.000000   0.000000   0.000000  -0.000000
    17  H    0.000000   0.000001   0.000000   0.000000   0.000000  -0.000001
    18  H   -0.000000  -0.000002  -0.000000   0.000000  -0.000000   0.000006
    19  H    0.000000   0.000057  -0.000000  -0.000000   0.000000  -0.000000
    20  H   -0.000000  -0.000099  -0.000000   0.000000  -0.000000   0.000011
    21  H   -0.000000  -0.000165   0.000000  -0.000000  -0.000000   0.009220
    22  H    0.000342  -0.011626   0.008734  -0.000046  -0.000027  -0.000178
    23  H    0.000554   0.007420  -0.000000   0.000001   0.000001   0.006711
    24  H   -0.001845  -0.001030   0.000016   0.000001   0.000002  -0.000008
    25  Cl  17.110904  -0.007276   0.000267  -0.001034  -0.001891   0.000001
    26  C   -0.007276   8.482728   0.121605   0.014708   0.019938   0.002733
    27  F    0.000267   0.121605   9.314925  -0.044387  -0.044347  -0.000000
    28  F   -0.001034   0.014708  -0.044387   9.258593  -0.062529   0.000000
    29  F   -0.001891   0.019938  -0.044347  -0.062529   9.260353   0.000000
    30  H    0.000001   0.002733  -0.000000   0.000000   0.000000   0.267433
    31  O   -0.000000  -0.000266  -0.000000  -0.000000  -0.000000  -0.001585
    32  O   -0.000036   0.000958   0.000001  -0.000000  -0.000000   0.094192
    33  C   -0.000079  -0.003893   0.000016   0.000003   0.000003  -0.009393
    34  C   -0.000017  -0.001041   0.000001   0.000000   0.000000   0.019022
    35  C    0.000001   0.000195  -0.000000   0.000000  -0.000000  -0.002582
    36  H    0.000000  -0.000000  -0.000000  -0.000000  -0.000000  -0.000028
    37  H    0.000000  -0.000000  -0.000000  -0.000000  -0.000000  -0.000028
    38  H    0.000000  -0.000000  -0.000000   0.000000   0.000000  -0.000014
    39  H   -0.000000  -0.000000  -0.000000  -0.000000  -0.000000  -0.000000
    40  H   -0.000000  -0.000001  -0.000000  -0.000000  -0.000000  -0.000013
              31         32         33         34         35         36
     1  C    0.003967  -0.000783  -0.003900   0.005997  -0.000655   0.000083
     2  C   -0.010865  -0.003594  -0.002463  -0.003703  -0.000582   0.000344
     3  C    0.013139  -0.000607   0.009752   0.042531  -0.004173  -0.000077
     4  N   -0.037675   0.005635   0.000411  -0.029514   0.004301  -0.000272
     5  C    0.000787   0.003921  -0.013254  -0.028482   0.001679  -0.000084
     6  O   -0.000104   0.000103  -0.001534  -0.001394   0.000075  -0.000000
     7  N    0.021826   0.010007  -0.017906  -0.021136   0.001870   0.000168
     8  C   -0.020678  -0.326270   0.216309  -0.085024  -0.012210  -0.000808
     9  C   -0.014415  -0.005263  -0.010531  -0.056373   0.004623  -0.000085
    10  C    0.002468   0.244824  -0.119602   0.067526   0.001836   0.000487
    11  C   -0.003981   0.087900  -0.105128   0.035902   0.010966  -0.000013
    12  C    0.002108  -0.004137   0.007324   0.007731  -0.002603   0.000008
    13  C   -0.004469   0.017800  -0.017154  -0.018611   0.002847  -0.000020
    14  H    0.000001  -0.000000  -0.000066   0.000059  -0.000000  -0.000000
    15  H   -0.000045  -0.000000  -0.000049  -0.000002   0.000000  -0.000000
    16  H    0.000056   0.000000   0.000069  -0.000025  -0.000000   0.000000
    17  H    0.000896   0.000059   0.000356   0.000098  -0.000012   0.000000
    18  H   -0.005901  -0.000037  -0.000019  -0.000298  -0.000030  -0.000001
    19  H    0.000897   0.000004  -0.000452   0.000037  -0.000002   0.000000
    20  H   -0.000682  -0.000016   0.001186   0.000078   0.000005  -0.000000
    21  H    0.078500  -0.000936  -0.003772   0.019108  -0.003061  -0.000006
    22  H    0.000002   0.000002   0.000011   0.000008  -0.000002   0.000000
    23  H    0.000004  -0.002293   0.000370   0.001132  -0.000286   0.000000
    24  H    0.000000   0.000115  -0.000031   0.000003  -0.000057  -0.000000
    25  Cl  -0.000000  -0.000036  -0.000079  -0.000017   0.000001   0.000000
    26  C   -0.000266   0.000958  -0.003893  -0.001041   0.000195  -0.000000
    27  F   -0.000000   0.000001   0.000016   0.000001  -0.000000  -0.000000
    28  F   -0.000000  -0.000000   0.000003   0.000000   0.000000  -0.000000
    29  F   -0.000000  -0.000000   0.000003   0.000000  -0.000000  -0.000000
    30  H   -0.001585   0.094192  -0.009393   0.019022  -0.002582  -0.000028
    31  O    8.493712  -0.179620   0.546031  -0.284322   0.036481  -0.001985
    32  O   -0.179620   8.570985   0.208843  -0.090677   0.048957   0.001085
    33  C    0.546031   0.208843   5.787219  -1.083975   0.054747  -0.092303
    34  C   -0.284322  -0.090677  -1.083975   7.746943  -0.416708   0.460526
    35  C    0.036481   0.048957   0.054747  -0.416708   5.854915  -0.048573
    36  H   -0.001985   0.001085  -0.092303   0.460526  -0.048573   0.504248
    37  H   -0.003109   0.002586  -0.088574   0.461523  -0.053610  -0.030047
    38  H    0.000153  -0.004774  -0.005799  -0.056224   0.419093  -0.003923
    39  H   -0.000191   0.001982   0.035323  -0.082169   0.385587  -0.002067
    40  H    0.000123  -0.004868  -0.005588  -0.060297   0.423930   0.003710
              37         38         39         40
     1  C    0.000004   0.000000   0.000000   0.000001
     2  C   -0.000155   0.000002   0.000003   0.000017
     3  C    0.000365   0.000007  -0.000006   0.000002
     4  N   -0.000103   0.000006  -0.000005   0.000008
     5  C   -0.000332  -0.000094   0.000019  -0.000000
     6  O   -0.000000  -0.000000   0.000000  -0.000000
     7  N    0.000159  -0.000122   0.000029  -0.000131
     8  C   -0.001530   0.000446   0.000189   0.001179
     9  C   -0.000228  -0.000005   0.000009   0.000125
    10  C    0.001479   0.000020  -0.000195  -0.000989
    11  C    0.000139  -0.000596  -0.000120  -0.001136
    12  C    0.000000  -0.000136   0.000005  -0.000083
    13  C   -0.000026   0.000005  -0.000001  -0.000004
    14  H   -0.000000   0.000000   0.000000  -0.000000
    15  H   -0.000000  -0.000000  -0.000000  -0.000000
    16  H    0.000000  -0.000000  -0.000000  -0.000000
    17  H    0.000000  -0.000000   0.000000   0.000000
    18  H   -0.000001   0.000000  -0.000000   0.000000
    19  H   -0.000000  -0.000000  -0.000000   0.000000
    20  H   -0.000000   0.000000  -0.000000   0.000000
    21  H   -0.000004  -0.000000   0.000000  -0.000000
    22  H    0.000000   0.000000  -0.000000   0.000000
    23  H    0.000001   0.000012  -0.000000   0.000021
    24  H   -0.000000   0.000000   0.000000   0.000000
    25  Cl   0.000000   0.000000  -0.000000  -0.000000
    26  C   -0.000000  -0.000000  -0.000000  -0.000001
    27  F   -0.000000  -0.000000  -0.000000  -0.000000
    28  F   -0.000000   0.000000  -0.000000  -0.000000
    29  F   -0.000000   0.000000  -0.000000  -0.000000
    30  H   -0.000028  -0.000014  -0.000000  -0.000013
    31  O   -0.003109   0.000153  -0.000191   0.000123
    32  O    0.002586  -0.004774   0.001982  -0.004868
    33  C   -0.088574  -0.005799   0.035323  -0.005588
    34  C    0.461523  -0.056224  -0.082169  -0.060297
    35  C   -0.053610   0.419093   0.385587   0.423930
    36  H   -0.030047  -0.003923  -0.002067   0.003710
    37  H    0.503972   0.003710  -0.002062  -0.003903
    38  H    0.003710   0.489385  -0.029970  -0.027267
    39  H   -0.002062  -0.029970   0.550606  -0.030001
    40  H   -0.003903  -0.027267  -0.030001   0.489733
 Mulliken charges:
               1
     1  C   -0.764946
     2  C   -0.334743
     3  C   -0.136151
     4  N   -0.692144
     5  C    0.671010
     6  O   -0.612735
     7  N   -0.700358
     8  C   -0.359801
     9  C   -0.480829
    10  C    0.183593
    11  C   -0.089494
    12  C    0.479848
    13  C   -1.424801
    14  H    0.197048
    15  H    0.199047
    16  H    0.201547
    17  H    0.218831
    18  H    0.250812
    19  H    0.196832
    20  H    0.219822
    21  H    0.516430
    22  H    0.303853
    23  H    0.282221
    24  H    0.214619
    25  Cl   0.198382
    26  C    1.458055
    27  F   -0.341121
    28  F   -0.274052
    29  F   -0.274444
    30  H    0.514714
    31  O   -0.631256
    32  O   -0.676046
    33  C    0.717492
    34  C   -0.548235
    35  C   -0.706961
    36  H    0.209632
    37  H    0.209775
    38  H    0.216086
    39  H    0.173035
    40  H    0.215434
 Sum of Mulliken charges =  -1.00000
 Mulliken charges with hydrogens summed into heavy atoms:
               1
     1  C   -0.167305
     2  C    0.134899
     3  C    0.280502
     4  N   -0.175715
     5  C    0.671010
     6  O   -0.612735
     7  N   -0.185644
     8  C   -0.359801
     9  C   -0.176976
    10  C    0.465814
    11  C    0.125126
    12  C    0.479848
    13  C   -1.424801
    25  Cl   0.198382
    26  C    1.458055
    27  F   -0.341121
    28  F   -0.274052
    29  F   -0.274444
    31  O   -0.631256
    32  O   -0.676046
    33  C    0.717492
    34  C   -0.128828
    35  C   -0.102405
         Mulliken charges condensed to fragments:
      1     -0.178956
      2     -0.821044
 Electronic spatial extent (au):  <R**2>=          12294.7952
 Charge=             -1.0000 electrons
 Dipole moment (field-independent basis, Debye):
    X=             -1.9685    Y=              0.3343    Z=             -0.1842  Tot=              2.0051
 Quadrupole moment (field-independent basis, Debye-Ang):
   XX=           -210.9841   YY=           -169.1361   ZZ=           -148.4250
   XY=            -11.2801   XZ=             -0.8321   YZ=              0.6043
 Traceless Quadrupole moment (field-independent basis, Debye-Ang):
   XX=            -34.8024   YY=              7.0457   ZZ=             27.7567
   XY=            -11.2801   XZ=             -0.8321   YZ=              0.6043
 Octapole moment (field-independent basis, Debye-Ang**2):
  XXX=            -70.5046  YYY=            -21.5780  ZZZ=              2.2967  XYY=            -54.9395
  XXY=            -32.4346  XXZ=             -5.5702  XZZ=            -15.9723  YZZ=            -11.3966
  YYZ=             -0.6729  XYZ=             -0.3142
 Hexadecapole moment (field-independent basis, Debye-Ang**3):
 XXXX=         -12832.8934 YYYY=          -4754.9206 ZZZZ=           -269.1386 XXXY=             25.4589
 XXXZ=            -38.0923 YYYX=             42.7665 YYYZ=             10.8710 ZZZX=             -1.7872
 ZZZY=             -2.4716 XXYY=          -2855.2862 XXZZ=          -1977.0769 YYZZ=           -785.1630
 XXYZ=             -5.8976 YYXZ=              0.5311 ZZXY=             43.7070
 N-N= 2.102253563882D+03 E-N=-8.078354017893D+03  KE= 1.627548439219D+03
 CPIOFr:  IOpCl= 0 IRwI=-1 IRwCP=  731 ICalc= -1 LCPTot=      351879 Len1MO=      910887 IndFrg=      351879
 CPIOFr:  IOpCl= 0 IRwI=-1 IRwCP=  731 ICalc=  0 LCPTot=      351879 Len1MO=      910887 IndFrg=     1262766
 Counterpoise: doing DCBS calculation for fragment   1 NewBq=T
 Basis read from rwf:  (6D, 7F)
 There are   475 symmetry adapted cartesian basis functions of A   symmetry.
 There are   475 symmetry adapted basis functions of A   symmetry.
   475 basis functions,   828 primitive gaussians,   475 cartesian basis functions
    72 alpha electrons       72 beta electrons
       nuclear repulsion energy      1442.5655755961 Hartrees.
 NAtoms=   40 NActive=   40 NUniq=   40 SFac= 1.00D+00 NAtFMM=   60 NAOKFM=F Big=F
 Integral buffers will be    131072 words long.
 Raffenetti 2 integral format.
 Two-electron integral symmetry is turned on.
 One-electron integrals computed using PRISM.
 NBasis=   475 RedAO= T EigKep=  1.23D-06  NBF=   475
 NBsUse=   473 1.00D-06 EigRej=  8.69D-07 NBFU=   473
 ExpMin= 4.38D-02 ExpMax= 2.52D+04 ExpMxC= 3.78D+03 IAcc=3 IRadAn=         5 AccDes= 0.00D+00
 Harris functional with IExCor= 1009 and IRadAn=       5 diagonalized for initial guess.
 HarFok:  IExCor= 1009 AccDes= 0.00D+00 IRadAn=         5 IDoV= 1 UseB2=F ITyADJ=14
 ICtDFT=  3500011 ScaDFX=  1.000000  1.000000  1.000000  1.000000
 FoFCou: FMM=F IPFlag=           0 FMFlag=      100000 FMFlg1=           0
         NFxFlg=           0 DoJE=T BraDBF=F KetDBF=T FulRan=T
         wScrn=  0.000000 ICntrl=     500 IOpCl=  0 I1Cent=   200000004 NGrid=           0
         NMat0=    1 NMatS0=      1 NMatT0=    0 NMatD0=    1 NMtDS0=    0 NMtDT0=    0
 Petite list used in FoFCou.
 Requested convergence on RMS density matrix=1.00D-08 within 128 cycles.
 Requested convergence on MAX density matrix=1.00D-06.
 Requested convergence on             energy=1.00D-06.
 No special actions if energy rises.
 SCF Done:  E(RM062X) =  -1370.53026496     A.U. after   15 cycles
            NFock= 15  Conv=0.49D-08     -V/T= 2.0064

 **********************************************************************

            Population analysis using the SCF density.

 **********************************************************************

 Orbital symmetries:
       Occupied  (A) (A) (A) (A) (A) (A) (A) (A) (A) (A) (A) (A)
                 (A) (A) (A) (A) (A) (A) (A) (A) (A) (A) (A) (A)
                 (A) (A) (A) (A) (A) (A) (A) (A) (A) (A) (A) (A)
                 (A) (A) (A) (A) (A) (A) (A) (A) (A) (A) (A) (A)
                 (A) (A) (A) (A) (A) (A) (A) (A) (A) (A) (A) (A)
                 (A) (A) (A) (A) (A) (A) (A) (A) (A) (A) (A) (A)
       Virtual   (A) (A) (A) (A) (A) (A) (A) (A) (A) (A) (A) (A)
                 (A) (A) (A) (A) (A) (A) (A) (A) (A) (A) (A) (A)
                 (A) (A) (A) (A) (A) (A) (A) (A) (A) (A) (A) (A)
                 (A) (A) (A) (A) (A) (A) (A) (A) (A) (A) (A) (A)
                 (A) (A) (A) (A) (A) (A) (A) (A) (A) (A) (A) (A)
                 (A) (A) (A) (A) (A) (A) (A) (A) (A) (A) (A) (A)
                 (A) (A) (A) (A) (A) (A) (A) (A) (A) (A) (A) (A)
                 (A) (A) (A) (A) (A) (A) (A) (A) (A) (A) (A) (A)
                 (A) (A) (A) (A) (A) (A) (A) (A) (A) (A) (A) (A)
                 (A) (A) (A) (A) (A) (A) (A) (A) (A) (A) (A) (A)
                 (A) (A) (A) (A) (A) (A) (A) (A) (A) (A) (A) (A)
                 (A) (A) (A) (A) (A) (A) (A) (A) (A) (A) (A) (A)
                 (A) (A) (A) (A) (A) (A) (A) (A) (A) (A) (A) (A)
                 (A) (A) (A) (A) (A) (A) (A) (A) (A) (A) (A) (A)
                 (A) (A) (A) (A) (A) (A) (A) (A) (A) (A) (A) (A)
                 (A) (A) (A) (A) (A) (A) (A) (A) (A) (A) (A) (A)
                 (A) (A) (A) (A) (A) (A) (A) (A) (A) (A) (A) (A)
                 (A) (A) (A) (A) (A) (A) (A) (A) (A) (A) (A) (A)
                 (A) (A) (A) (A) (A) (A) (A) (A) (A) (A) (A) (A)
                 (A) (A) (A) (A) (A) (A) (A) (A) (A) (A) (A) (A)
                 (A) (A) (A) (A) (A) (A) (A) (A) (A) (A) (A) (A)
                 (A) (A) (A) (A) (A) (A) (A) (A) (A) (A) (A) (A)
                 (A) (A) (A) (A) (A) (A) (A) (A) (A) (A) (A) (A)
                 (A) (A) (A) (A) (A) (A) (A) (A) (A) (A) (A) (A)
                 (A) (A) (A) (A) (A) (A) (A) (A) (A) (A) (A) (A)
                 (A) (A) (A) (A) (A) (A) (A) (A) (A) (A) (A) (A)
                 (A) (A) (A) (A) (A) (A) (A) (A) (A) (A) (A) (A)
                 (A) (A) (A) (A) (A) (A) (A) (A) (A) (A) (A) (A)
                 (A) (A) (A) (A) (A) (A) (A) (A) (A) (A) (A) (A)
                 (A) (A) (A) (A) (A) (A) (A) (A) (A) (A) (A) (A)
                 (A) (A) (A) (A) (A) (A) (A) (A) (A) (A) (A) (A)
                 (A) (A) (A) (A) (A) (A) (A) (A) (A) (A) (A) (A)
                 (A) (A) (A) (A) (A) (A) (A) (A) (A) (A) (A) (A)
                 (A) (A) (A) (A) (A)
 The electronic state is 1-A.
 Alpha  occ. eigenvalues -- -102.67740 -25.29525 -25.28972 -25.28968 -19.62636
 Alpha  occ. eigenvalues --  -14.82714 -14.80941 -10.80957 -10.70355 -10.63237
 Alpha  occ. eigenvalues --  -10.62899 -10.59891 -10.59670 -10.58615 -10.58530
 Alpha  occ. eigenvalues --  -10.57665 -10.56882 -10.55469  -9.82362  -7.54780
 Alpha  occ. eigenvalues --   -7.54091  -7.54077  -1.45847  -1.36614  -1.36133
 Alpha  occ. eigenvalues --   -1.19069  -1.08189  -1.05271  -1.01079  -0.94616
 Alpha  occ. eigenvalues --   -0.90658  -0.89828  -0.85012  -0.81225  -0.79211
 Alpha  occ. eigenvalues --   -0.74435  -0.72684  -0.70757  -0.69707  -0.68069
 Alpha  occ. eigenvalues --   -0.68066  -0.66595  -0.64824  -0.60115  -0.57942
 Alpha  occ. eigenvalues --   -0.57417  -0.56563  -0.56320  -0.55181  -0.55029
 Alpha  occ. eigenvalues --   -0.53978  -0.52924  -0.52163  -0.51141  -0.50998
 Alpha  occ. eigenvalues --   -0.50057  -0.49455  -0.49061  -0.48500  -0.47008
 Alpha  occ. eigenvalues --   -0.45903  -0.44551  -0.44208  -0.43159  -0.42254
 Alpha  occ. eigenvalues --   -0.41493  -0.38211  -0.37536  -0.35908  -0.33967
 Alpha  occ. eigenvalues --   -0.33644  -0.28081
 Alpha virt. eigenvalues --   -0.02795  -0.01438   0.00042   0.00691   0.01860
 Alpha virt. eigenvalues --    0.02069   0.02270   0.02737   0.03766   0.04062
 Alpha virt. eigenvalues --    0.04696   0.04979   0.05284   0.05814   0.05854
 Alpha virt. eigenvalues --    0.06556   0.07052   0.07161   0.07508   0.07617
 Alpha virt. eigenvalues --    0.08047   0.08409   0.08845   0.09293   0.09344
 Alpha virt. eigenvalues --    0.09447   0.10103   0.10621   0.10989   0.11301
 Alpha virt. eigenvalues --    0.11681   0.12176   0.12580   0.12802   0.13198
 Alpha virt. eigenvalues --    0.13486   0.13888   0.14303   0.14853   0.14970
 Alpha virt. eigenvalues --    0.15585   0.16150   0.16277   0.16349   0.16865
 Alpha virt. eigenvalues --    0.17512   0.17860   0.18287   0.18647   0.18890
 Alpha virt. eigenvalues --    0.19490   0.19848   0.20193   0.20376   0.20832
 Alpha virt. eigenvalues --    0.20926   0.21136   0.21657   0.22115   0.22279
 Alpha virt. eigenvalues --    0.22832   0.23297   0.23360   0.23639   0.24395
 Alpha virt. eigenvalues --    0.24612   0.25165   0.25520   0.25852   0.26220
 Alpha virt. eigenvalues --    0.26479   0.26624   0.26824   0.27452   0.27654
 Alpha virt. eigenvalues --    0.28254   0.28525   0.28694   0.29310   0.29575
 Alpha virt. eigenvalues --    0.30146   0.30262   0.30776   0.31383   0.31530
 Alpha virt. eigenvalues --    0.32167   0.32568   0.32999   0.33273   0.33640
 Alpha virt. eigenvalues --    0.34124   0.34481   0.34691   0.35191   0.35629
 Alpha virt. eigenvalues --    0.36523   0.36706   0.37237   0.37550   0.38009
 Alpha virt. eigenvalues --    0.38189   0.38713   0.39297   0.39567   0.40056
 Alpha virt. eigenvalues --    0.40529   0.41404   0.41827   0.42346   0.42679
 Alpha virt. eigenvalues --    0.42813   0.44046   0.44243   0.45139   0.46005
 Alpha virt. eigenvalues --    0.46859   0.47687   0.48198   0.48675   0.49269
 Alpha virt. eigenvalues --    0.50069   0.51508   0.52190   0.52685   0.53798
 Alpha virt. eigenvalues --    0.54910   0.55971   0.57322   0.58478   0.59432
 Alpha virt. eigenvalues --    0.60347   0.60677   0.62153   0.63715   0.65504
 Alpha virt. eigenvalues --    0.67272   0.67845   0.69169   0.69478   0.69787
 Alpha virt. eigenvalues --    0.70331   0.71057   0.72591   0.73029   0.73352
 Alpha virt. eigenvalues --    0.73615   0.73823   0.74503   0.75086   0.75517
 Alpha virt. eigenvalues --    0.75937   0.76244   0.76741   0.78067   0.78301
 Alpha virt. eigenvalues --    0.79348   0.79708   0.81321   0.81907   0.82694
 Alpha virt. eigenvalues --    0.83678   0.84264   0.84565   0.85180   0.86229
 Alpha virt. eigenvalues --    0.86639   0.87445   0.88363   0.89657   0.90451
 Alpha virt. eigenvalues --    0.91615   0.92177   0.93150   0.94429   0.96437
 Alpha virt. eigenvalues --    0.97517   0.97861   0.98368   0.99975   1.01383
 Alpha virt. eigenvalues --    1.01940   1.02414   1.03145   1.03491   1.04056
 Alpha virt. eigenvalues --    1.04701   1.05069   1.05525   1.06992   1.09064
 Alpha virt. eigenvalues --    1.09720   1.11831   1.12900   1.14495   1.16018
 Alpha virt. eigenvalues --    1.17166   1.17330   1.18905   1.19007   1.19848
 Alpha virt. eigenvalues --    1.22569   1.23268   1.23795   1.25183   1.26508
 Alpha virt. eigenvalues --    1.27156   1.29559   1.30462   1.32023   1.33301
 Alpha virt. eigenvalues --    1.34660   1.36503   1.37951   1.38454   1.39378
 Alpha virt. eigenvalues --    1.42039   1.42583   1.44083   1.45498   1.46328
 Alpha virt. eigenvalues --    1.46594   1.48600   1.50046   1.51019   1.51594
 Alpha virt. eigenvalues --    1.54274   1.55612   1.55659   1.57472   1.57534
 Alpha virt. eigenvalues --    1.62828   1.65077   1.66332   1.68039   1.69967
 Alpha virt. eigenvalues --    1.70898   1.71289   1.75003   1.75354   1.75673
 Alpha virt. eigenvalues --    1.77481   1.77740   1.79520   1.79979   1.82821
 Alpha virt. eigenvalues --    1.84289   1.85110   1.86473   1.87498   1.88453
 Alpha virt. eigenvalues --    1.88884   1.89702   1.90666   1.90840   1.91846
 Alpha virt. eigenvalues --    1.93103   1.93294   1.94269   1.94737   1.95203
 Alpha virt. eigenvalues --    1.96607   1.98495   1.99599   2.01094   2.01687
 Alpha virt. eigenvalues --    2.03827   2.04070   2.05027   2.05984   2.07099
 Alpha virt. eigenvalues --    2.09358   2.10099   2.10353   2.12560   2.13251
 Alpha virt. eigenvalues --    2.13329   2.14318   2.14538   2.15267   2.15698
 Alpha virt. eigenvalues --    2.16621   2.17491   2.19183   2.20385   2.21134
 Alpha virt. eigenvalues --    2.21826   2.23093   2.23452   2.24648   2.26899
 Alpha virt. eigenvalues --    2.28047   2.30229   2.31125   2.32803   2.34766
 Alpha virt. eigenvalues --    2.34824   2.37056   2.38185   2.39489   2.39895
 Alpha virt. eigenvalues --    2.40204   2.42281   2.42973   2.43397   2.50510
 Alpha virt. eigenvalues --    2.51307   2.52041   2.52943   2.54182   2.59243
 Alpha virt. eigenvalues --    2.60063   2.61009   2.62886   2.64028   2.65250
 Alpha virt. eigenvalues --    2.66546   2.67335   2.68142   2.69384   2.71158
 Alpha virt. eigenvalues --    2.72114   2.75526   2.77157   2.77521   2.78817
 Alpha virt. eigenvalues --    2.79139   2.80214   2.80572   2.81290   2.82382
 Alpha virt. eigenvalues --    2.83585   2.85485   2.86881   2.89093   2.93817
 Alpha virt. eigenvalues --    2.95878   2.98680   3.01312   3.02327   3.04214
 Alpha virt. eigenvalues --    3.05380   3.11613   3.12259   3.14161   3.16550
 Alpha virt. eigenvalues --    3.19655   3.22026   3.24588   3.27337   3.29676
 Alpha virt. eigenvalues --    3.31699   3.32383   3.33448   3.37279   3.42649
 Alpha virt. eigenvalues --    3.52367   3.55529   3.63736   3.69746   3.76157
 Alpha virt. eigenvalues --    3.77148   3.84941   3.86449   4.04959   4.15641
 Alpha virt. eigenvalues --    4.22968   4.26463   4.27125   4.28872   4.32589
 Alpha virt. eigenvalues --    4.39289   4.41336   4.44414   4.44666   4.46571
 Alpha virt. eigenvalues --    4.48165   4.50902   4.54376   4.55621   4.59734
 Alpha virt. eigenvalues --    4.62777   4.65353   4.72619   4.78543   4.79223
 Alpha virt. eigenvalues --    4.85785   5.20973   5.21561   5.26249   5.56933
 Alpha virt. eigenvalues --    5.60730   5.67751   6.21288   6.45608   6.49905
 Alpha virt. eigenvalues --    7.03888  23.86858  24.10956  24.29529  38.22927
 Alpha virt. eigenvalues --   38.78944
          Condensed to atoms (all electrons):
               1          2          3          4          5          6
     1  C    5.641054  -0.031020  -0.016830  -0.013453  -0.023709  -0.000243
     2  C   -0.031020   6.049872  -0.284630  -0.045195   0.127560   0.009813
     3  C   -0.016830  -0.284630   6.619824   0.338032  -0.664327  -0.100217
     4  N   -0.013453  -0.045195   0.338032   7.700880   0.278746  -0.161802
     5  C   -0.023709   0.127560  -0.664327   0.278746   6.095095   0.625517
     6  O   -0.000243   0.009813  -0.100217  -0.161802   0.625517   8.230750
     7  N   -0.000183   0.011651  -0.156455  -0.433083   0.145208  -0.053033
     8  C    0.002100   0.000550  -0.051370  -0.120232  -0.033411  -0.321165
     9  C   -0.002794   0.005355  -0.203133  -0.042494  -0.876473   0.312914
    10  C   -0.001158   0.000558  -0.007873  -0.024707   0.075403  -0.051939
    11  C   -0.000257  -0.000737   0.003238  -0.042998   0.232199  -0.009921
    12  C    0.000050   0.000332  -0.013030   0.000979  -0.185789  -0.024300
    13  C   -0.000075  -0.000167  -0.029689   0.051579  -0.298645   0.077997
    14  H    0.421953  -0.088513   0.022495   0.000878  -0.001656   0.000003
    15  H    0.432013  -0.063791  -0.015165   0.001187  -0.005933  -0.000049
    16  H    0.409352  -0.070251  -0.000936  -0.000302   0.008719  -0.000014
    17  H   -0.013570   0.403217  -0.074522   0.002473   0.001001  -0.000240
    18  H   -0.032453   0.411496  -0.080081   0.007783  -0.000374  -0.000085
    19  H    0.002288  -0.078820   0.423917  -0.062942   0.009974  -0.000134
    20  H    0.004573  -0.042507   0.470403  -0.034895  -0.062048  -0.002994
    21  H   -0.000602   0.001912  -0.063960   0.200711   0.020491   0.002780
    22  H    0.000020  -0.000067   0.004295   0.001173   0.036410  -0.002886
    23  H   -0.000006   0.000037  -0.001092   0.000701  -0.016916   0.000127
    24  H    0.000000  -0.000000   0.000028   0.000017   0.002930  -0.000001
    25  Cl  -0.000001   0.000004  -0.000142   0.000130  -0.007021   0.000058
    26  C   -0.000117   0.000243  -0.008452   0.006715  -0.112257   0.012232
    27  F    0.000001  -0.000005   0.000489   0.000018   0.016583  -0.000792
    28  F    0.000000  -0.000001   0.000044   0.000017   0.003656  -0.000003
    29  F    0.000000  -0.000001   0.000044   0.000011   0.003600  -0.000015
    30  H   -0.000037  -0.000246   0.000167   0.031985  -0.048112   0.003547
    31  O   -0.000950   0.001642  -0.011568   0.019715   0.014568   0.000309
    32  O    0.000151   0.000115   0.003983   0.007824  -0.010234   0.000186
    33  C   -0.001010  -0.001660   0.007487  -0.007944  -0.013775   0.000607
    34  C    0.001032  -0.001365   0.004279  -0.004002  -0.013189  -0.000223
    35  C   -0.000018  -0.000369  -0.000057   0.000432   0.000417  -0.000008
    36  H   -0.000000   0.000001   0.000009   0.000002  -0.000020  -0.000000
    37  H    0.000001   0.000010  -0.000004  -0.000000  -0.000019  -0.000000
    38  H    0.000000   0.000001   0.000001   0.000002  -0.000011   0.000000
    39  H    0.000000   0.000000   0.000001   0.000001  -0.000002  -0.000000
    40  H   -0.000000  -0.000000   0.000002   0.000002  -0.000005   0.000000
               7          8          9         10         11         12
     1  C   -0.000183   0.002100  -0.002794  -0.001158  -0.000257   0.000050
     2  C    0.011651   0.000550   0.005355   0.000558  -0.000737   0.000332
     3  C   -0.156455  -0.051370  -0.203133  -0.007873   0.003238  -0.013030
     4  N   -0.433083  -0.120232  -0.042494  -0.024707  -0.042998   0.000979
     5  C    0.145208  -0.033411  -0.876473   0.075403   0.232199  -0.185789
     6  O   -0.053033  -0.321165   0.312914  -0.051939  -0.009921  -0.024300
     7  N    7.870542   0.092658   0.030660  -0.072365  -0.055727  -0.006797
     8  C    0.092658  14.602175  -1.808262  -0.480970   0.551491  -0.758339
     9  C    0.030660  -1.808262  10.730597  -1.200981  -0.875649  -3.249606
    10  C   -0.072365  -0.480970  -1.200981  10.365703  -2.408873   1.260286
    11  C   -0.055727   0.551491  -0.875649  -2.408873  11.904552  -2.113174
    12  C   -0.006797  -0.758339  -3.249606   1.260286  -2.113174  17.279572
    13  C    0.030511  -3.255538   3.069621  -2.148796  -1.499742  -5.236082
    14  H    0.000020  -0.000037  -0.000008   0.000003   0.000000  -0.000000
    15  H    0.000004  -0.000091  -0.000136   0.000024   0.000001  -0.000000
    16  H    0.000032   0.000195   0.000048  -0.000015  -0.000001   0.000000
    17  H   -0.001115   0.002204   0.000236  -0.000406  -0.000048   0.000007
    18  H    0.001447  -0.002877  -0.000702   0.000713   0.000059  -0.000003
    19  H   -0.002558   0.006225   0.002896  -0.001681  -0.000226   0.000096
    20  H    0.001903  -0.004618  -0.009418   0.002222   0.000258  -0.000072
    21  H    0.032681  -0.001249  -0.001570   0.004042   0.000761   0.000078
    22  H   -0.015711  -0.083631   0.430111  -0.022860  -0.024818  -0.041702
    23  H   -0.019446  -0.035749   0.006433   0.296458  -0.002084  -0.014283
    24  H    0.000131   0.043818   0.008339  -0.093224   0.268401  -0.007084
    25  Cl  -0.000001  -0.040833  -0.013319   0.109312  -0.049594  -0.188631
    26  C    0.015469  -1.971542  -0.135807   0.075727   0.143467  -0.489068
    27  F   -0.000392   0.214558   0.142410  -0.015889   0.025762  -0.081110
    28  F    0.000333   0.052522   0.066066  -0.020094  -0.000858  -0.278950
    29  F    0.000371   0.054134   0.069355  -0.021253  -0.001098  -0.280093
    30  H    0.161052   0.057707   0.053242  -0.084110  -0.019584  -0.003853
    31  O    0.006649  -0.001332   0.005007  -0.000278   0.000584   0.000255
    32  O    0.024838   0.050725   0.016411  -0.013565  -0.039732  -0.002267
    33  C   -0.014166   0.023773  -0.003401  -0.005270  -0.026419   0.001659
[...]
    16  H    0.002743  -0.000158  -0.000004   0.000000  -0.000000   0.000000
    17  H    0.004180  -0.005329  -0.000397   0.000000  -0.000000  -0.000000
    18  H   -0.005794   0.003909   0.003830  -0.000000   0.000000   0.000000
    19  H    0.514284  -0.037338   0.001282   0.000001  -0.000000  -0.000000
    20  H   -0.037338   0.462557   0.003246  -0.000002   0.000000   0.000000
    21  H    0.001282   0.003246   0.346527  -0.000002   0.000012  -0.000000
    22  H    0.000001  -0.000002  -0.000002   0.397778  -0.000120   0.000011
    23  H   -0.000000   0.000000   0.000012  -0.000120   0.509158  -0.003857
    24  H   -0.000000   0.000000  -0.000000   0.000011  -0.003857   0.457800
    25  Cl   0.000000  -0.000000  -0.000000   0.000623   0.000872  -0.004914
    26  C    0.000040  -0.000066  -0.000102   0.003116   0.006125   0.005022
    27  F   -0.000000   0.000000   0.000000   0.008712  -0.000002   0.000017
    28  F   -0.000000   0.000000  -0.000000  -0.000020   0.000001   0.000007
    29  F    0.000000  -0.000000  -0.000000   0.000005   0.000001   0.000008
    30  H    0.000000   0.000008   0.003997  -0.000189   0.009577  -0.000015
              25         26         27         28         29         30
     1  C   -0.000001  -0.000067   0.000000   0.000000   0.000000  -0.000087
     2  C    0.000004   0.000402   0.000002  -0.000001  -0.000000  -0.000074
     3  C   -0.000197  -0.004847   0.000182   0.000039   0.000039   0.004309
     4  N    0.000144   0.014438  -0.000018   0.000011   0.000006   0.023629
     5  C   -0.010204  -0.097599   0.005291   0.003098   0.003190  -0.024274
     6  O    0.000056   0.008320  -0.000720  -0.000011  -0.000018   0.004816
     7  N   -0.000543   0.004624  -0.000873   0.000317   0.000333   0.228423
     8  C   -0.011276  -1.401046   0.145866   0.030898   0.032763  -0.029530
     9  C    0.029276  -0.137863   0.111976   0.048723   0.051274   0.093914
    10  C    0.155468   0.302284   0.006161  -0.018438  -0.018537  -0.123321
    11  C   -0.105611   0.196702   0.008183  -0.003330  -0.002634   0.043801
    12  C   -0.319172  -0.658723  -0.109360  -0.283008  -0.279541  -0.009224
    13  C   -0.038379  -1.494437  -0.251977   0.308277   0.301731   0.017770
    14  H   -0.000000  -0.000000   0.000000  -0.000000  -0.000000  -0.000000
    15  H   -0.000000  -0.000000  -0.000000  -0.000000  -0.000000   0.000000
    16  H    0.000000   0.000000  -0.000000   0.000000   0.000000  -0.000000
    17  H    0.000000   0.000002   0.000000   0.000000   0.000000  -0.000001
    18  H   -0.000000  -0.000002  -0.000000  -0.000000   0.000000   0.000009
    19  H    0.000000   0.000040  -0.000000  -0.000000   0.000000   0.000000
    20  H   -0.000000  -0.000066   0.000000   0.000000  -0.000000   0.000008
    21  H   -0.000000  -0.000102   0.000000  -0.000000  -0.000000   0.003997
    22  H    0.000623   0.003116   0.008712  -0.000020   0.000005  -0.000189
    23  H    0.000872   0.006125  -0.000002   0.000001   0.000001   0.009577
    24  H   -0.004914   0.005022   0.000017   0.000007   0.000008  -0.000015
    25  Cl  16.977494   0.040944   0.001094   0.003163   0.002084   0.000043
    26  C    0.040944   7.568563   0.190829   0.043851   0.041464   0.002038
    27  F    0.001094   0.190829   9.302622  -0.043427  -0.043328  -0.000000
    28  F    0.003163   0.043851  -0.043427   9.236603  -0.061319  -0.000000
    29  F    0.002084   0.041464  -0.043328  -0.061319   9.238547  -0.000000
    30  H    0.000043   0.002038  -0.000000  -0.000000  -0.000000   0.352814
 Mulliken charges:
               1
     1  C   -0.727231
     2  C   -0.341015
     3  C   -0.104301
     4  N   -0.623770
     5  C    0.784308
     6  O   -0.576595
     7  N   -0.628161
     8  C   -0.316956
     9  C    0.317787
    10  C   -0.836413
    11  C   -0.152582
    12  C    0.480157
    13  C   -1.145321
    14  H    0.215711
    15  H    0.217474
    16  H    0.215746
    17  H    0.227227
    18  H    0.204744
    19  H    0.221174
    20  H    0.247763
    21  H    0.393582
    22  H    0.310066
    23  H    0.198357
    24  H    0.234395
    25  Cl   0.279030
    26  C    1.365988
    27  F   -0.331229
    28  F   -0.265433
    29  F   -0.266070
    30  H    0.401567
    31  O    0.000000
    32  O    0.000000
    33  C    0.000000
    34  C    0.000000
    35  C    0.000000
    36  H    0.000000
    37  H    0.000000
    38  H    0.000000
    39  H    0.000000
    40  H    0.000000
 Sum of Mulliken charges =  -0.00000
 Mulliken charges with hydrogens summed into heavy atoms:
               1
     1  C   -0.078300
     2  C    0.090956
     3  C    0.364637
     4  N   -0.230187
     5  C    0.784308
     6  O   -0.576595
     7  N   -0.226594
     8  C   -0.316956
     9  C    0.627853
    10  C   -0.638055
    11  C    0.081813
    12  C    0.480157
    13  C   -1.145321
    25  Cl   0.279030
    26  C    1.365988
    27  F   -0.331229
    28  F   -0.265433
    29  F   -0.266070
    31  O    0.000000
    32  O    0.000000
    33  C    0.000000
    34  C    0.000000
    35  C    0.000000
         Mulliken charges condensed to fragments:
      1     -0.000000
      2      0.000000
 Electronic spatial extent (au):  <R**2>=           8931.8024
 Charge=             -0.0000 electrons
 Dipole moment (field-independent basis, Debye):
    X=              8.1720    Y=              3.5574    Z=             -0.0587  Tot=              8.9129
 Quadrupole moment (field-independent basis, Debye-Ang):
   XX=           -115.2311   YY=           -112.9816   ZZ=           -115.4531
   XY=             -7.6252   XZ=              0.4542   YZ=              0.2067
 Traceless Quadrupole moment (field-independent basis, Debye-Ang):
   XX=             -0.6758   YY=              1.5737   ZZ=             -0.8979
   XY=             -7.6252   XZ=              0.4542   YZ=              0.2067
 Octapole moment (field-independent basis, Debye-Ang**2):
  XXX=            431.6718  YYY=            255.4667  ZZZ=              7.8648  XYY=            112.9450
  XXY=             64.3569  XXZ=              2.2788  XZZ=             97.4591  YZZ=             73.3273
  YYZ=             -1.0801  XYZ=              0.8563
 Hexadecapole moment (field-independent basis, Debye-Ang**3):
 XXXX=          -8689.7590 YYYY=          -2475.8514 ZZZZ=           -214.0337 XXXY=            852.4212
 XXXZ=             19.7190 YYYX=            974.8112 YYYZ=             17.1262 ZZZX=             24.8811
 ZZZY=              6.5309 XXYY=          -1777.4297 XXZZ=          -1496.3166 YYZZ=           -454.0859
 XXYZ=              6.7497 YYXZ=              3.4671 ZZXY=            351.6444
 N-N= 1.442565575596D+03 E-N=-6.110162961565D+03  KE= 1.361847003212D+03
 CPIOFr:  IOpCl= 0 IRwI=-1 IRwCP=  731 ICalc=  3 LCPTot=      351879 Len1MO=      910887 IndFrg=     3995427
 Counterpoise: doing MCBS calculation for fragment   2
 Basis read from rwf:  (6D, 7F)
 There are   105 symmetry adapted cartesian basis functions of A   symmetry.
 There are   105 symmetry adapted basis functions of A   symmetry.
   105 basis functions,   180 primitive gaussians,   105 cartesian basis functions
    20 alpha electrons       20 beta electrons
       nuclear repulsion energy       168.5357591809 Hartrees.
 NAtoms=   40 NActive=   10 NUniq=   10 SFac= 1.00D+00 NAtFMM=   60 NAOKFM=F Big=F
 Integral buffers will be    131072 words long.
 Raffenetti 2 integral format.
 Two-electron integral symmetry is turned on.
 One-electron integrals computed using PRISM.
 NBasis=   105 RedAO= T EigKep=  1.23D-04  NBF=   105
 NBsUse=   105 1.00D-06 EigRej= -1.00D+00 NBFU=   105
 ExpMin= 4.38D-02 ExpMax= 5.48D+03 ExpMxC= 8.25D+02 IAcc=3 IRadAn=         5 AccDes= 0.00D+00
 Harris functional with IExCor= 1009 and IRadAn=       5 diagonalized for initial guess.
 HarFok:  IExCor= 1009 AccDes= 0.00D+00 IRadAn=         5 IDoV= 1 UseB2=F ITyADJ=14
 ICtDFT=  3500011 ScaDFX=  1.000000  1.000000  1.000000  1.000000
 FoFCou: FMM=F IPFlag=           0 FMFlag=      100000 FMFlg1=           0
         NFxFlg=           0 DoJE=T BraDBF=F KetDBF=T FulRan=T
         wScrn=  0.000000 ICntrl=     500 IOpCl=  0 I1Cent=   200000004 NGrid=           0
         NMat0=    1 NMatS0=      1 NMatT0=    0 NMatD0=    1 NMtDS0=    0 NMtDT0=    0
 Petite list used in FoFCou.
 Keep R1 ints in memory in canonical form, NReq=16474200.
 Requested convergence on RMS density matrix=1.00D-08 within 128 cycles.
 Requested convergence on MAX density matrix=1.00D-06.
 Requested convergence on             energy=1.00D-06.
 No special actions if energy rises.
 SCF Done:  E(RM062X) =  -267.728505738     A.U. after   14 cycles
            NFock= 14  Conv=0.40D-08     -V/T= 2.0084

 **********************************************************************

            Population analysis using the SCF density.

 **********************************************************************

 Orbital symmetries:
       Occupied  (A) (A) (A) (A) (A) (A) (A) (A) (A) (A) (A) (A)
                 (A) (A) (A) (A) (A) (A) (A) (A)
       Virtual   (A) (A) (A) (A) (A) (A) (A) (A) (A) (A) (A) (A)
                 (A) (A) (A) (A) (A) (A) (A) (A) (A) (A) (A) (A)
                 (A) (A) (A) (A) (A) (A) (A) (A) (A) (A) (A) (A)
                 (A) (A) (A) (A) (A) (A) (A) (A) (A) (A) (A) (A)
                 (A) (A) (A) (A) (A) (A) (A) (A) (A) (A) (A) (A)
                 (A) (A) (A) (A) (A) (A) (A) (A) (A) (A) (A) (A)
                 (A) (A) (A) (A) (A) (A) (A) (A) (A) (A) (A) (A)
                 (A)
 The electronic state is 1-A.
 Alpha  occ. eigenvalues --  -19.38317 -19.37992 -10.43623 -10.38684 -10.37523
 Alpha  occ. eigenvalues --   -0.94234  -0.84536  -0.69906  -0.56003  -0.39479
 Alpha  occ. eigenvalues --   -0.36271  -0.33518  -0.30136  -0.27616  -0.27398
 Alpha  occ. eigenvalues --   -0.25017  -0.22643  -0.10895  -0.10839  -0.10186
 Alpha virt. eigenvalues --    0.14619   0.16487   0.18638   0.19568   0.21556
 Alpha virt. eigenvalues --    0.21831   0.22418   0.22882   0.23464   0.25913
 Alpha virt. eigenvalues --    0.28392   0.29736   0.30030   0.38011   0.38906
 Alpha virt. eigenvalues --    0.42276   0.42493   0.43636   0.45463   0.46252
 Alpha virt. eigenvalues --    0.46732   0.47999   0.49564   0.49784   0.50771
 Alpha virt. eigenvalues --    0.55089   0.56089   0.57222   0.71680   0.75206
 Alpha virt. eigenvalues --    0.84460   0.86645   0.89648   0.92065   0.94828
 Alpha virt. eigenvalues --    0.99482   1.01979   1.08492   1.10004   1.14588
 Alpha virt. eigenvalues --    1.20089   1.21328   1.31094   1.32741   1.33992
 Alpha virt. eigenvalues --    1.34582   1.49186   1.54768   1.57827   1.59155
 Alpha virt. eigenvalues --    1.61030   1.63168   1.63273   1.74398   1.78247
 Alpha virt. eigenvalues --    1.80797   1.86843   2.02603   2.02697   2.08642
 Alpha virt. eigenvalues --    2.10097   2.12071   2.14415   2.16411   2.22701
 Alpha virt. eigenvalues --    2.26516   2.28124   2.29476   2.45072   2.52372
 Alpha virt. eigenvalues --    2.54107   2.54302   2.73457   2.74131   2.78565
 Alpha virt. eigenvalues --    2.97737   3.13257   3.27219   3.32686   3.42455
 Alpha virt. eigenvalues --    4.36338   4.41512   4.58222   4.66960   4.82498
          Condensed to atoms (all electrons):
               1          2          3          4          5          6
     1  O    8.617683  -0.169451   0.529662  -0.393289   0.079575  -0.002817
     2  O   -0.169451   8.597000   0.462632  -0.323780   0.096333   0.001276
     3  C    0.529662   0.462632   4.835292  -0.361310   0.050745  -0.015236
     4  C   -0.393289  -0.323780  -0.361310   7.536486  -0.641955   0.388475
     5  C    0.079575   0.096333   0.050745  -0.641955   6.025698  -0.055754
     6  H   -0.002817   0.001276  -0.015236   0.388475  -0.055754   0.530589
     7  H   -0.002854   0.001360  -0.015181   0.388640  -0.055989  -0.032669
     8  H   -0.000110  -0.006644  -0.002564  -0.048550   0.411215  -0.004335
     9  H   -0.000312   0.002872   0.012349  -0.059995   0.378337  -0.002043
    10  H   -0.000099  -0.006603  -0.003029  -0.047993   0.410997   0.003865
               7          8          9         10
     1  O   -0.002854  -0.000110  -0.000312  -0.000099
     2  O    0.001360  -0.006644   0.002872  -0.006603
     3  C   -0.015181  -0.002564   0.012349  -0.003029
     4  C    0.388640  -0.048550  -0.059995  -0.047993
     5  C   -0.055989   0.411215   0.378337   0.410997
     6  H   -0.032669  -0.004335  -0.002043   0.003865
     7  H    0.530462   0.003866  -0.002027  -0.004349
     8  H    0.003866   0.498640  -0.033893  -0.025577
     9  H   -0.002027  -0.033893   0.589102  -0.033953
    10  H   -0.004349  -0.025577  -0.033953   0.499370
 Mulliken charges:
               1
     1  C    0.000000
     2  C    0.000000
     3  C    0.000000
     4  N    0.000000
     5  C    0.000000
     6  O    0.000000
     7  N    0.000000
     8  C    0.000000
     9  C    0.000000
    10  C    0.000000
    11  C    0.000000
    12  C    0.000000
    13  C    0.000000
    14  H    0.000000
    15  H    0.000000
    16  H    0.000000
    17  H    0.000000
    18  H    0.000000
    19  H    0.000000
    20  H    0.000000
    21  H    0.000000
    22  H    0.000000
    23  H    0.000000
    24  H    0.000000
    25  Cl   0.000000
    26  C    0.000000
    27  F    0.000000
    28  F    0.000000
    29  F    0.000000
    30  H    0.000000
    31  O   -0.657988
    32  O   -0.654997
    33  C    0.506640
    34  C   -0.436729
    35  C   -0.699203
    36  H    0.188649
    37  H    0.188741
    38  H    0.207952
    39  H    0.149563
    40  H    0.207372
 Sum of Mulliken charges =  -1.00000
 Mulliken charges with hydrogens summed into heavy atoms:
               1
     1  C    0.000000
     2  C    0.000000
     3  C    0.000000
     4  N    0.000000
     5  C    0.000000
     6  O    0.000000
     7  N    0.000000
     8  C    0.000000
     9  C    0.000000
    10  C    0.000000
    11  C    0.000000
    12  C    0.000000
    13  C    0.000000
    25  Cl   0.000000
    26  C    0.000000
    27  F    0.000000
    28  F    0.000000
    29  F    0.000000
    31  O   -0.657988
    32  O   -0.654997
    33  C    0.506640
    34  C   -0.059339
    35  C   -0.134316
         Mulliken charges condensed to fragments:
      1      0.000000
      2     -1.000000
 Electronic spatial extent (au):  <R**2>=           3355.9824
 Charge=             -1.0000 electrons
 Dipole moment (field-independent basis, Debye):
    X=            -15.3804    Y=             -7.5894    Z=             -0.2285  Tot=             17.1524
 Quadrupole moment (field-independent basis, Debye-Ang):
   XX=            -89.9558   YY=            -52.9612   ZZ=            -32.5331
   XY=            -21.2074   XZ=             -1.8747   YZ=              0.3271
 Traceless Quadrupole moment (field-independent basis, Debye-Ang):
   XX=            -31.4725   YY=              5.5222   ZZ=             25.9503
   XY=            -21.2074   XZ=             -1.8747   YZ=              0.3271
 Octapole moment (field-independent basis, Debye-Ang**2):
  XXX=           -595.7233  YYY=           -353.5081  ZZZ=             -5.6939  XYY=           -178.4590
  XXY=           -163.3663  XXZ=            -12.4178  XZZ=           -118.4836  YZZ=            -90.0811
  YYZ=             -0.4035  XYZ=             -0.7345
 Hexadecapole moment (field-independent basis, Debye-Ang**3):
 XXXX=          -3830.5439 YYYY=          -2305.4094 ZZZZ=            -52.8034 XXXY=          -1296.8082
 XXXZ=            -80.7610 YYYX=          -1265.6374 YYYZ=             -6.0136 ZZZX=            -27.6116
 ZZZY=            -10.2706 XXYY=           -988.0542 XXZZ=           -468.0778 YYZZ=           -326.7642
 XXYZ=            -12.5226 YYXZ=             -8.0622 ZZXY=           -330.1162
 N-N= 1.685357591809D+02 E-N=-9.724134790745D+02  KE= 2.654883864469D+02
 CPIOFr:  IOpCl= 0 IRwI=-1 IRwCP=  731 ICalc=  4 LCPTot=      351879 Len1MO=      910887 IndFrg=     4906314
 CPIOFr:  IOpCl= 0 IRwI=-2 IRwCP=  731 ICalc=  0 LCPTot=      351879 Len1MO=      910887 IndFrg=     1262766
 Counterpoise corrected energy =   -1638.338391614986
                   BSSE energy =       0.001722512021
               sum of monomers =   -1638.258017711937
           complexation energy =     -51.52 kcal/mole (raw)
           complexation energy =     -50.44 kcal/mole (corrected)
 1\1\GINC-R3790\SP\RM062X\Gen\C14H17Cl1F3N2O3(1-)\ROOT\28-Feb-2019\0\\#
  M062X/Gen 6D SCF=Tight INT(grid=ultrafine) Counterpoise=2 maxdisk=671
 088640\\3TFM4Chloro_EtO.M062X_6-31pGd_bsse\\-1,1\C,0,-1.9350471484,2.2
 180103752,-0.1305899469\C,0,-0.5267463045,1.6325114566,-0.204318874\C,
 0,0.5409143418,2.7061072276,-0.0204448896\N,0,1.8535955703,2.103443856
 7,-0.0425519102\C,0,2.9604201904,2.8729704502,-0.1788478344\O,0,2.9246
 413093,4.0911499807,-0.3719013675\N,0,4.1351539459,2.1390500798,-0.088
 9275035\C,0,5.4264431378,2.6124030987,-0.1892682154\C,0,5.7739863527,3
 .9562732232,-0.4172035704\C,0,6.461761235,1.6660985425,-0.0520074491\C
 ,0,7.7902817015,2.0491121585,-0.140295105\C,0,8.1280351024,3.380111748
 ,-0.3666863109\C,0,7.1149365649,4.3301361761,-0.5034130508\H,0,-2.6974
 399595,1.4451714128,-0.2737647043\H,0,-2.0846327559,2.9844767849,-0.90
 05660336\H,0,-2.1145067424,2.6883633217,0.843407443\H,0,-0.3681448857,
 1.1399912832,-1.1713353482\H,0,-0.3926202656,0.8563529761,0.5585852217
 \H,0,0.370750312,3.2430627655,0.9272795483\H,0,0.4792978,3.4556571089,
 -0.8185480229\H,0,1.9371537681,1.1057409244,0.2256767957\H,0,4.9902615
 644,4.693407817,-0.523659052\H,0,6.1945179882,0.6268886367,0.126482641
 1\H,0,8.5799525766,1.3119960874,-0.0332470618\Cl,0,9.823821932,3.80511
 681,-0.4704670077\C,0,7.4476957309,5.7776867488,-0.7465780376\F,0,6.35
 17941009,6.5473283673,-0.8438002967\F,0,8.1434089801,5.960389457,-1.88
 86867407\F,0,8.1970469314,6.3056336101,0.2439579979\H,0,4.0547176561,1
 .1152344938,0.0850242947\O,0,1.9574329375,-0.6148767426,0.7009336492\O
 ,0,4.183767369,-0.5925567902,0.4062706288\C,0,3.0911518052,-1.15739702
 25,0.6850781007\C,0,3.1330638089,-2.6527171218,1.0411307738\C,0,4.5263
 617659,-3.2689559345,1.0171860787\H,0,2.4619650162,-3.1674510275,0.342
 3414726\H,0,2.6708581682,-2.7599073253,2.0302603216\H,0,4.9773533324,-
 3.164363788,0.0261462711\H,0,4.4943024122,-4.3342900849,1.2770106522\H
 ,0,5.1868026539,-2.7573211419,1.7233664421\\Version=ES64L-G09RevE.01\S
 tate=1-A\HF=-267.7285057\RMSD=3.997e-09\Dipole=0.7114536,0.2849117,-0.
 1323476\Quadrupole=-7.900656,-11.3059268,19.2065828,-16.8875241,4.2637
 662,6.4054948\PG=C01 [X(C14H17Cl1F3N2O3)]\\@


 ASKING FOR EFFICIENCY AND ADAPTABILITY IN THE SAME PROGRAM IS LIKE
 ASKING FOR A BEAUTIFUL AND MODEST WIFE ...
 WE'LL PROBABLY HAVE TO SETTLE FOR ONE OR THE OTHER.

             -- THE PSYCHOLOGY OF COMPUTER PROGRAMMING
                GERALD M. WEINBERG
 Job cpu time:       0 days  1 hours 55 minutes 35.4 seconds.
 File lengths (MBytes):  RWF=    185 Int=      0 D2E=      0 Chk=     51 Scr=      1
 Normal termination of Gaussian 09 at Thu Feb 28 09:27:06 2019.
WARNING: pbs_rusage is deprecated and values produced may not be accurate


=============================================================================
                                     Resource usage:
                                       CPU time:              01:39:03
   JobId:    6246829.r-man2            Elapsed time:          00:26:24
   Project:             q95            Requested time:        48:00:00
   Service Units:      1.76 
                                       Max physical memory:      153MB
                                       Max virtual memory:       329MB
                                       Requested memory:           0MB

                                       Number of cpus:               4

                                       Max jobfs disk use:       0.2GB
                                       Requested jobfs:          5.0GB
=============================================================================

