 Entering Gaussian System, Link 0=/apps/gaussian/g09e01/g09/g09
 AtFile(1): /home/507/hio507/Basis/6-31pGd.gbs
 Initial command:
 /apps/gaussian/g09e01/g09/l1.exe "/jobfs/local/6128701.r-man2/Gau-56769.inp" -scrdir="/jobfs/local/6128701.r-man2/"
 Entering Link 1 = /apps/gaussian/g09e01/g09/l1.exe PID=     56770.
  
 Copyright (c) 1988,1990,1992,1993,1995,1998,2003,2009,2015,
            Gaussian, Inc.  All Rights Reserved.
  
 This is part of the Gaussian(R) 09 program.  It is based on
 the Gaussian(R) 03 system (copyright 2003, Gaussian, Inc.),
 the Gaussian(R) 98 system (copyright 1998, Gaussian, Inc.),
 the Gaussian(R) 94 system (copyright 1995, Gaussian, Inc.),
 the Gaussian 92(TM) system (copyright 1992, Gaussian, Inc.),
 the Gaussian 90(TM) system (copyright 1990, Gaussian, Inc.),
 the Gaussian 88(TM) system (copyright 1988, Gaussian, Inc.),
 the Gaussian 86(TM) system (copyright 1986, Carnegie Mellon
 University), and the Gaussian 82(TM) system (copyright 1983,
 Carnegie Mellon University). Gaussian is a federally registered
 trademark of Gaussian, Inc.
  
 This software contains proprietary and confidential information,
 including trade secrets, belonging to Gaussian, Inc.
  
 This software is provided under written license and may be
 used, copied, transmitted, or stored only in accord with that
 written license.
  
 The following legend is applicable only to US Government
 contracts under FAR:
  
                    RESTRICTED RIGHTS LEGEND
  
 Use, reproduction and disclosure by the US Government is
 subject to restrictions as set forth in subparagraphs (a)
 and (c) of the Commercial Computer Software - Restricted
 Rights clause in FAR 52.227-19.
  
 Gaussian, Inc.
 340 Quinnipiac St., Bldg. 40, Wallingford CT 06492
  
  
 ---------------------------------------------------------------
 Warning -- This program may not be used in any manner that
 competes with the business of Gaussian, Inc. or will provide
 assistance to any competitor of Gaussian, Inc.  The licensee
 of this program is prohibited from giving any competitor of
 Gaussian, Inc. access to this program.  By using this program,
 the user acknowledges that Gaussian, Inc. is engaged in the
 business of creating and licensing software in the field of
 computational chemistry and represents and warrants to the
 licensee that it is not a competitor of Gaussian, Inc. and that
 it will not use this program in any manner prohibited above.
 ---------------------------------------------------------------
  

 Cite this work as:
 Gaussian 09, Revision E.01,
 M. J. Frisch, G. W. Trucks, H. B. Schlegel, G. E. Scuseria, 
 M. A. Robb, J. R. Cheeseman, G. Scalmani, V. Barone, B. Mennucci, 
 G. A. Petersson, H. Nakatsuji, M. Caricato, X. Li, H. P. Hratchian, 
 A. F. Izmaylov, J. Bloino, G. Zheng, J. L. Sonnenberg, M. Hada, 
 M. Ehara, K. Toyota, R. Fukuda, J. Hasegawa, M. Ishida, T. Nakajima, 
 Y. Honda, O. Kitao, H. Nakai, T. Vreven, J. A. Montgomery, Jr., 
 J. E. Peralta, F. Ogliaro, M. Bearpark, J. J. Heyd, E. Brothers, 
 K. N. Kudin, V. N. Staroverov, T. Keith, R. Kobayashi, J. Normand, 
 K. Raghavachari, A. Rendell, J. C. Burant, S. S. Iyengar, J. Tomasi, 
 M. Cossi, N. Rega, J. M. Millam, M. Klene, J. E. Knox, J. B. Cross, 
 V. Bakken, C. Adamo, J. Jaramillo, R. Gomperts, R. E. Stratmann, 
 O. Yazyev, A. J. Austin, R. Cammi, C. Pomelli, J. W. Ochterski, 
 R. L. Martin, K. Morokuma, V. G. Zakrzewski, G. A. Voth, 
 P. Salvador, J. J. Dannenberg, S. Dapprich, A. D. Daniels, 
 O. Farkas, J. B. Foresman, J. V. Ortiz, J. Cioslowski, 
 and D. J. Fox, Gaussian, Inc., Wallingford CT, 2013.
 
 ******************************************
 Gaussian 09:  ES64L-G09RevE.01 30-Nov-2015
                25-Feb-2019 
 ******************************************
 %chk=4SF5.M062X_6-31pGd_opt_Pentadecane.chk
 %mem=196608000
 %nproc=4
 Will use up to    4 processors via shared memory.
 ----------------------------------------------------------------------
 # M062X/Gen 6D SCF=Tight INT(grid=ultrafine) OPT IOP(2/17=4) SCRF=(SMD
 ,Solvent=n-Pentadecane) maxdisk=2147483648
 ----------------------------------------------------------------------
 1/14=-1,18=20,19=15,26=4,38=1/1,3;
 2/9=110,12=2,17=4,18=5,40=1/2;
 3/5=7,8=2,11=2,16=1,25=1,30=1,70=32201,71=1,72=151,74=-55,75=-5/1,2,3;
 4//1;
 5/5=2,32=2,38=5,53=151/2;
 6/7=2,8=2,9=2,10=2,28=1/1;
 7//1,2,3,16;
 1/14=-1,18=20,19=15,26=4/3(2);
 2/9=110,17=4/2;
 99//99;
 2/9=110,17=4/2;
 3/5=7,6=1,8=2,11=2,16=1,25=1,30=1,70=32205,71=1,72=151,74=-55,75=-5,82=7/1,2,3;
 4/5=5,16=3,69=1/1;
 5/5=2,32=2,38=5,53=151/2;
 7//1,2,3,16;
 1/14=-1,18=20,19=15,26=4/3(-5);
 2/9=110,17=4/2;
 6/7=2,8=2,9=2,10=2,19=2,28=1/1;
 99/9=1/99;
 ----------------------------------
 4SF5.M062X_6-31pGd_opt_Pentadecane
 ----------------------------------
 Symbolic Z-matrix:
 Charge =  0 Multiplicity = 1
 C                    -2.14249   1.96008  -0.02364 
 C                    -0.81352   1.22332   0.1076 
 C                     0.37179   2.18969  -0.0055 
 N                     1.6313    1.47612   0.10396 
 C                     2.83457   2.10889   0.00358 
 O                     2.8647    3.31645  -0.17375 
 N                     3.98456   1.37414   0.09556 
 C                     5.34437   1.83447   0.00729 
 C                     5.73042   3.18273  -0.18436 
 C                     6.36063   0.86999   0.12274 
 C                     7.70728   1.22287   0.06085 
 C                     8.08984   2.55885  -0.11802 
 C                     7.08548   3.53406  -0.24507 
 H                    -2.97929   1.23454   0.05604 
 H                    -2.20543   2.46826  -1.00955 
 H                    -2.24613   2.71489   0.78447 
 H                    -0.74528   0.46037  -0.69871 
 H                    -0.78093   0.70638   1.09147 
 H                     0.3079    2.9521    0.80203 
 H                     0.32831   2.70094  -0.99232 
 H                     1.61436   0.45457   0.25234 
 H                     3.86338   0.36015   0.24488 
 H                     5.02621   3.989    -0.28537 
 H                     6.10842  -0.17309   0.26724 
 H                     8.4523    0.44455   0.15963 
 S                     9.85392   3.00786  -0.16637 
 H                     7.34842   4.57494  -0.38661 
 F                     10.17725   1.70599  -1.23172 
 F                     11.51069   3.43031  -0.20596 
 F                     9.58191   4.01789  -1.52219 
 F                     9.5635    4.31737   0.89809 
 F                     10.16035   2.00657   1.18938 
 

 GradGradGradGradGradGradGradGradGradGradGradGradGradGradGradGradGradGrad
 Berny optimization.
 Initialization pass.
                           ----------------------------
                           !    Initial Parameters    !
                           ! (Angstroms and Degrees)  !
 --------------------------                            --------------------------
 ! Name  Definition              Value          Derivative Info.                !
 --------------------------------------------------------------------------------
 ! R1    R(1,2)                  1.5252         estimate D2E/DX2                !
 ! R2    R(1,14)                 1.1104         estimate D2E/DX2                !
 ! R3    R(1,15)                 1.111          estimate D2E/DX2                !
 ! R4    R(1,16)                 1.1106         estimate D2E/DX2                !
 ! R5    R(2,3)                  1.5335         estimate D2E/DX2                !
 ! R6    R(2,17)                 1.1122         estimate D2E/DX2                !
 ! R7    R(2,18)                 1.1119         estimate D2E/DX2                !
 ! R8    R(3,4)                  1.4517         estimate D2E/DX2                !
 ! R9    R(3,19)                 1.1124         estimate D2E/DX2                !
 ! R10   R(3,20)                 1.1122         estimate D2E/DX2                !
 ! R11   R(4,5)                  1.3632         estimate D2E/DX2                !
 ! R12   R(4,21)                 1.0324         estimate D2E/DX2                !
 ! R13   R(5,6)                  1.2209         estimate D2E/DX2                !
 ! R14   R(5,7)                  1.3678         estimate D2E/DX2                !
 ! R15   R(7,8)                  1.4383         estimate D2E/DX2                !
 ! R16   R(7,22)                 1.0321         estimate D2E/DX2                !
 ! R17   R(8,9)                  1.4155         estimate D2E/DX2                !
 ! R18   R(8,10)                 1.4058         estimate D2E/DX2                !
 ! R19   R(9,13)                 1.4012         estimate D2E/DX2                !
 ! R20   R(9,23)                 1.0753         estimate D2E/DX2                !
 ! R21   R(10,11)                1.3935         estimate D2E/DX2                !
 ! R22   R(10,24)                1.0828         estimate D2E/DX2                !
 ! R23   R(11,12)                1.4011         estimate D2E/DX2                !
 ! R24   R(11,25)                1.0819         estimate D2E/DX2                !
 ! R25   R(12,13)                1.4057         estimate D2E/DX2                !
 ! R26   R(12,26)                1.821          estimate D2E/DX2                !
 ! R27   R(13,27)                1.0829         estimate D2E/DX2                !
 ! R28   R(26,28)                1.713          estimate D2E/DX2                !
 ! R29   R(26,29)                1.7102         estimate D2E/DX2                !
 ! R30   R(26,30)                1.7124         estimate D2E/DX2                !
 ! R31   R(26,31)                1.7124         estimate D2E/DX2                !
 ! R32   R(26,32)                1.713          estimate D2E/DX2                !
 ! A1    A(2,1,14)             109.5628         estimate D2E/DX2                !
 ! A2    A(2,1,15)             110.2852         estimate D2E/DX2                !
 ! A3    A(2,1,16)             110.3038         estimate D2E/DX2                !
 ! A4    A(14,1,15)            108.655          estimate D2E/DX2                !
 ! A5    A(14,1,16)            108.7555         estimate D2E/DX2                !
 ! A6    A(15,1,16)            109.2414         estimate D2E/DX2                !
 ! A7    A(1,2,3)              111.2689         estimate D2E/DX2                !
 ! A8    A(1,2,17)             108.8121         estimate D2E/DX2                !
 ! A9    A(1,2,18)             109.0424         estimate D2E/DX2                !
 ! A10   A(3,2,17)             109.3543         estimate D2E/DX2                !
 ! A11   A(3,2,18)             109.6082         estimate D2E/DX2                !
 ! A12   A(17,2,18)            108.7105         estimate D2E/DX2                !
 ! A13   A(2,3,4)              110.8112         estimate D2E/DX2                !
 ! A14   A(2,3,19)             109.5098         estimate D2E/DX2                !
 ! A15   A(2,3,20)             108.9585         estimate D2E/DX2                !
 ! A16   A(4,3,19)             109.3886         estimate D2E/DX2                !
 ! A17   A(4,3,20)             109.0715         estimate D2E/DX2                !
 ! A18   A(19,3,20)            109.074          estimate D2E/DX2                !
 ! A19   A(3,4,5)              122.1469         estimate D2E/DX2                !
 ! A20   A(3,4,21)             118.879          estimate D2E/DX2                !
 ! A21   A(5,4,21)             118.9706         estimate D2E/DX2                !
 ! A22   A(4,5,6)              119.4452         estimate D2E/DX2                !
 ! A23   A(4,5,7)              119.1981         estimate D2E/DX2                !
 ! A24   A(6,5,7)              121.3554         estimate D2E/DX2                !
 ! A25   A(5,7,8)              128.2307         estimate D2E/DX2                !
 ! A26   A(5,7,22)             116.0267         estimate D2E/DX2                !
 ! A27   A(8,7,22)             115.7424         estimate D2E/DX2                !
 ! A28   A(7,8,9)              124.8203         estimate D2E/DX2                !
 ! A29   A(7,8,10)             117.3111         estimate D2E/DX2                !
 ! A30   A(9,8,10)             117.8685         estimate D2E/DX2                !
 ! A31   A(8,9,13)             120.5611         estimate D2E/DX2                !
 ! A32   A(8,9,23)             123.2525         estimate D2E/DX2                !
 ! A33   A(13,9,23)            116.1856         estimate D2E/DX2                !
 ! A34   A(8,10,11)            121.4136         estimate D2E/DX2                !
 ! A35   A(8,10,24)            120.2294         estimate D2E/DX2                !
 ! A36   A(11,10,24)           118.3565         estimate D2E/DX2                !
 ! A37   A(10,11,12)           120.7294         estimate D2E/DX2                !
 ! A38   A(10,11,25)           118.6347         estimate D2E/DX2                !
 ! A39   A(12,11,25)           120.6349         estimate D2E/DX2                !
 ! A40   A(11,12,13)           118.5521         estimate D2E/DX2                !
 ! A41   A(11,12,26)           120.1991         estimate D2E/DX2                !
 ! A42   A(13,12,26)           121.2462         estimate D2E/DX2                !
 ! A43   A(9,13,12)            120.8716         estimate D2E/DX2                !
 ! A44   A(9,13,27)            118.7838         estimate D2E/DX2                !
 ! A45   A(12,13,27)           120.3437         estimate D2E/DX2                !
 ! A46   A(12,26,28)            90.6858         estimate D2E/DX2                !
 ! A47   A(12,26,30)            90.7207         estimate D2E/DX2                !
 ! A48   A(12,26,31)            90.4445         estimate D2E/DX2                !
 ! A49   A(12,26,32)            90.467          estimate D2E/DX2                !
 ! A50   A(28,26,29)            89.4546         estimate D2E/DX2                !
 ! A51   A(28,26,30)            89.1885         estimate D2E/DX2                !
 ! A52   A(28,26,32)            90.8146         estimate D2E/DX2                !
 ! A53   A(29,26,30)            89.4188         estimate D2E/DX2                !
 ! A54   A(29,26,31)            89.415          estimate D2E/DX2                !
 ! A55   A(29,26,32)            89.3934         estimate D2E/DX2                !
 ! A56   A(30,26,31)            90.8124         estimate D2E/DX2                !
 ! A57   A(31,26,32)            89.1611         estimate D2E/DX2                !
 ! A58   L(12,26,29,28,-1)     180.1404         estimate D2E/DX2                !
 ! A59   L(28,26,31,12,-1)     181.1304         estimate D2E/DX2                !
 ! A60   L(30,26,32,12,-1)     181.1877         estimate D2E/DX2                !
 ! A61   L(12,26,29,28,-2)     180.1375         estimate D2E/DX2                !
 ! A62   L(28,26,31,12,-2)     179.985          estimate D2E/DX2                !
 ! A63   L(30,26,32,12,-2)     180.0173         estimate D2E/DX2                !
 ! D1    D(14,1,2,3)           179.6582         estimate D2E/DX2                !
 ! D2    D(14,1,2,17)           59.1071         estimate D2E/DX2                !
 ! D3    D(14,1,2,18)          -59.3232         estimate D2E/DX2                !
 ! D4    D(15,1,2,3)            60.1034         estimate D2E/DX2                !
 ! D5    D(15,1,2,17)          -60.4477         estimate D2E/DX2                !
 ! D6    D(15,1,2,18)         -178.878          estimate D2E/DX2                !
 ! D7    D(16,1,2,3)           -60.6516         estimate D2E/DX2                !
 ! D8    D(16,1,2,17)          178.7973         estimate D2E/DX2                !
 ! D9    D(16,1,2,18)           60.367          estimate D2E/DX2                !
 ! D10   D(1,2,3,4)           -179.2856         estimate D2E/DX2                !
 ! D11   D(1,2,3,19)            59.9542         estimate D2E/DX2                !
 ! D12   D(1,2,3,20)           -59.2743         estimate D2E/DX2                !
 ! D13   D(17,2,3,4)           -59.0544         estimate D2E/DX2                !
 ! D14   D(17,2,3,19)         -179.8146         estimate D2E/DX2                !
 ! D15   D(17,2,3,20)           60.957          estimate D2E/DX2                !
 ! D16   D(18,2,3,4)            60.028          estimate D2E/DX2                !
 ! D17   D(18,2,3,19)          -60.7322         estimate D2E/DX2                !
 ! D18   D(18,2,3,20)         -179.9607         estimate D2E/DX2                !
 ! D19   D(2,3,4,5)            178.4489         estimate D2E/DX2                !
 ! D20   D(2,3,4,21)            -0.867          estimate D2E/DX2                !
 ! D21   D(19,3,4,5)           -60.7191         estimate D2E/DX2                !
 ! D22   D(19,3,4,21)          119.965          estimate D2E/DX2                !
 ! D23   D(20,3,4,5)            58.5051         estimate D2E/DX2                !
 ! D24   D(20,3,4,21)         -120.8108         estimate D2E/DX2                !
 ! D25   D(3,4,5,6)              0.5855         estimate D2E/DX2                !
 ! D26   D(3,4,5,7)           -179.0071         estimate D2E/DX2                !
 ! D27   D(21,4,5,6)           179.9008         estimate D2E/DX2                !
 ! D28   D(21,4,5,7)             0.3082         estimate D2E/DX2                !
 ! D29   D(4,5,7,8)            179.4692         estimate D2E/DX2                !
 ! D30   D(4,5,7,22)            -0.361          estimate D2E/DX2                !
 ! D31   D(6,5,7,8)             -0.1154         estimate D2E/DX2                !
 ! D32   D(6,5,7,22)          -179.9456         estimate D2E/DX2                !
 ! D33   D(5,7,8,9)              0.6781         estimate D2E/DX2                !
 ! D34   D(5,7,8,10)          -179.4304         estimate D2E/DX2                !
 ! D35   D(22,7,8,9)          -179.4914         estimate D2E/DX2                !
 ! D36   D(22,7,8,10)            0.4002         estimate D2E/DX2                !
 ! D37   D(7,8,9,13)           179.4092         estimate D2E/DX2                !
 ! D38   D(7,8,9,23)            -0.2392         estimate D2E/DX2                !
 ! D39   D(10,8,9,13)           -0.4818         estimate D2E/DX2                !
 ! D40   D(10,8,9,23)          179.8698         estimate D2E/DX2                !
 ! D41   D(7,8,10,11)         -179.4634         estimate D2E/DX2                !
 ! D42   D(7,8,10,24)            0.2822         estimate D2E/DX2                !
 ! D43   D(9,8,10,11)            0.4359         estimate D2E/DX2                !
 ! D44   D(9,8,10,24)         -179.8185         estimate D2E/DX2                !
 ! D45   D(8,9,13,12)            0.026          estimate D2E/DX2                !
 ! D46   D(8,9,13,27)         -179.6343         estimate D2E/DX2                !
 ! D47   D(23,9,13,12)         179.6984         estimate D2E/DX2                !
 ! D48   D(23,9,13,27)           0.0381         estimate D2E/DX2                !
 ! D49   D(8,10,11,12)           0.0717         estimate D2E/DX2                !
 ! D50   D(8,10,11,25)         179.7156         estimate D2E/DX2                !
 ! D51   D(24,10,11,12)       -179.6785         estimate D2E/DX2                !
 ! D52   D(24,10,11,25)         -0.0346         estimate D2E/DX2                !
 ! D53   D(10,11,12,13)         -0.5325         estimate D2E/DX2                !
 ! D54   D(10,11,12,26)        178.8811         estimate D2E/DX2                !
 ! D55   D(25,11,12,13)        179.8307         estimate D2E/DX2                !
 ! D56   D(25,11,12,26)         -0.7556         estimate D2E/DX2                !
 ! D57   D(11,12,13,9)           0.4833         estimate D2E/DX2                !
 ! D58   D(11,12,13,27)       -179.8617         estimate D2E/DX2                !
 ! D59   D(26,12,13,9)        -178.9239         estimate D2E/DX2                !
 ! D60   D(26,12,13,27)          0.7311         estimate D2E/DX2                !
 ! D61   D(11,12,26,28)         46.055          estimate D2E/DX2                !
 ! D62   D(11,12,26,30)        135.252          estimate D2E/DX2                !
 ! D63   D(11,12,26,31)       -133.9299         estimate D2E/DX2                !
 ! D64   D(11,12,26,32)        -44.7653         estimate D2E/DX2                !
 ! D65   D(13,12,26,28)       -134.5474         estimate D2E/DX2                !
 ! D66   D(13,12,26,30)        -45.3504         estimate D2E/DX2                !
 ! D67   D(13,12,26,31)         45.4676         estimate D2E/DX2                !
 ! D68   D(13,12,26,32)        134.6323         estimate D2E/DX2                !
 --------------------------------------------------------------------------------
 Trust Radius=3.00D-01 FncErr=1.00D-07 GrdErr=1.00D-06
 Number of steps in this run=    173 maximum allowed number of steps=    192.
 GradGradGradGradGradGradGradGradGradGradGradGradGradGradGradGradGradGrad

                          Input orientation:                          
 ---------------------------------------------------------------------
 Center     Atomic      Atomic             Coordinates (Angstroms)
 Number     Number       Type             X           Y           Z
 ---------------------------------------------------------------------
      1          6           0       -2.142490    1.960080   -0.023640
      2          6           0       -0.813520    1.223320    0.107600
      3          6           0        0.371790    2.189690   -0.005500
      4          7           0        1.631300    1.476120    0.103960
      5          6           0        2.834570    2.108890    0.003580
      6          8           0        2.864700    3.316450   -0.173750
      7          7           0        3.984560    1.374140    0.095560
      8          6           0        5.344370    1.834470    0.007290
      9          6           0        5.730420    3.182730   -0.184360
     10          6           0        6.360630    0.869990    0.122740
     11          6           0        7.707280    1.222870    0.060850
     12          6           0        8.089840    2.558850   -0.118020
     13          6           0        7.085480    3.534060   -0.245070
     14          1           0       -2.979290    1.234540    0.056040
     15          1           0       -2.205430    2.468260   -1.009550
     16          1           0       -2.246130    2.714890    0.784470
     17          1           0       -0.745280    0.460370   -0.698710
     18          1           0       -0.780930    0.706380    1.091470
     19          1           0        0.307900    2.952100    0.802030
     20          1           0        0.328310    2.700940   -0.992320
     21          1           0        1.614360    0.454570    0.252340
     22          1           0        3.863380    0.360150    0.244880
     23          1           0        5.026210    3.989000   -0.285370
     24          1           0        6.108420   -0.173090    0.267240
     25          1           0        8.452300    0.444550    0.159630
     26         16           0        9.853920    3.007860   -0.166370
     27          1           0        7.348420    4.574940   -0.386610
     28          9           0       10.177250    1.705990   -1.231720
     29          9           0       11.510690    3.430310   -0.205960
     30          9           0        9.581910    4.017890   -1.522190
     31          9           0        9.563500    4.317370    0.898090
     32          9           0       10.160350    2.006570    1.189380
 ---------------------------------------------------------------------
                    Distance matrix (angstroms):
                    1          2          3          4          5
     1  C    0.000000
     2  C    1.525189   0.000000
     3  C    2.524808   1.533500   0.000000
     4  N    3.806835   2.457858   1.451733   0.000000
     5  C    4.979359   3.755478   2.464122   1.363207   0.000000
     6  O    5.189819   4.241421   2.740893   2.232759   1.220883
     7  N    6.156158   4.800465   3.705056   2.355484   1.367770
     8  C    7.487978   6.188956   4.985268   3.731575   2.524761
     9  C    7.968903   6.837227   5.452801   4.449543   3.094253
    10  C    8.573959   7.182862   6.133862   4.768051   3.739274
    11  C    9.877681   8.520928   7.399227   6.081408   4.952940
    12  C   10.250269   9.005796   7.727693   6.552428   5.275899
    13  C    9.363860   8.237603   6.851157   5.839950   4.490342
    14  H    1.110401   2.166413   3.485088   4.617163   5.879473
    15  H    1.110958   2.176077   2.779889   4.116399   5.153366
    16  H    1.110640   2.176076   2.784491   4.126998   5.175958
    17  H    2.158019   1.112153   2.172311   2.706318   4.003268
    18  H    2.160805   1.111885   2.175389   2.717817   4.027701
    19  H    2.769521   2.174511   1.112410   2.101715   2.780753
    20  H    2.755371   2.167247   1.112241   2.097569   2.761101
    21  H    4.056679   2.550790   2.149675   1.032409   2.070644
    22  H    6.221122   4.757867   3.949824   2.499486   2.043225
    23  H    7.454883   6.473473   4.997947   4.241646   2.901998
    24  H    8.527165   7.063193   6.210156   4.774009   3.999380
    25  H   10.704205   9.298635   8.268460   6.898788   5.861166
    26  S   12.042926  10.819146   9.518722   8.368440   7.078722
    27  H    9.851224   8.837130   7.382955   6.521411   5.158342
    28  F   12.381438  11.082589   9.893666   8.652753   7.456758
    29  F   13.733322  12.524188  11.209568  10.075577   8.778674
    30  F   11.997574  10.887185   9.511518   8.503950   7.176270
    31  F   11.976502  10.857282   9.477923   8.463046   7.138349
    32  F   12.362583  11.054843   9.862919   8.614186   7.421836
                    6          7          8          9         10
     6  O    0.000000
     7  N    2.258137   0.000000
     8  C    2.894444   1.438325   0.000000
     9  C    2.868858   2.529304   1.415475   0.000000
    10  C    4.277219   2.429118   1.405822   2.416659   0.000000
    11  C    5.280975   3.725954   2.441366   2.794486   1.393492
    12  C    5.280071   4.278140   2.842188   2.441411   2.429070
    13  C    4.226988   3.794336   2.446172   1.401180   2.785312
    14  H    6.208009   6.965361   8.345394   8.928174   9.347270
    15  H    5.208090   6.382346   7.644288   8.010563   8.787146
    16  H    5.234562   6.410437   7.680810   8.048780   8.827109
    17  H    4.633005   4.882338   6.282549   7.043471   7.164951
    18  H    4.658741   4.914024   6.321972   7.082212   7.208820
    19  H    2.760819   4.062867   5.219841   5.516328   6.436782
    20  H    2.735358   4.038817   5.187567   5.483403   6.401923
    21  H    3.152025   2.547163   3.984614   4.957370   4.766178
    22  H    3.148384   1.032064   2.103188   3.411311   2.551688
    23  H    2.266475   2.840358   2.197470   1.075261   3.416936
    24  H    4.784671   2.633282   2.163711   3.407104   1.082823
    25  H    6.291282   4.563874   3.407978   3.876157   2.134817
    26  S    6.996033   6.098117   4.662944   4.127245   4.105746
    27  H    4.661851   4.668315   3.417828   2.144080   3.868051
    28  F    7.562160   6.342019   4.990830   4.801252   4.135220
    29  F    8.646800   7.807777   6.373043   5.785610   5.760764
    30  F    6.887033   6.398192   5.006334   4.161881   4.794968
    31  F    6.857449   6.358556   4.975879   4.141450   4.769064
    32  F    7.536605   6.303713   4.961917   4.784850   4.106995
                   11         12         13         14         15
    11  C    0.000000
    12  C    1.401139   0.000000
    13  C    2.412845   1.405673   0.000000
    14  H   10.686577  11.149427  10.328507   0.000000
    15  H   10.047814  10.334196   9.383036   1.804552   0.000000
    16  H   10.090596  10.376469   9.423902   1.805428   1.811350
    17  H    8.520804   9.099460   8.424616   2.481892   2.502056
    18  H    8.566134   9.142487   8.465372   2.486736   3.089936
    19  H    7.634816   7.846001   6.882637   3.783138   3.135722
    20  H    7.598885   7.811910   6.849220   3.766909   2.544460
    21  H    6.144154   6.818871   6.297923   4.663529   4.498679
    22  H    3.943820   4.777964   4.549251   6.900895   6.545852
    23  H    3.867749   3.385139   2.109310   8.472995   7.425207
    24  H    2.132523   3.396755   3.867825   9.198505   8.816293
    25  H    1.081940   2.163038   3.402507  11.459322  10.910985
    26  S    2.801050   1.820968   2.819103  12.957060  12.100828
    27  H    3.400790   2.164824   1.082868  10.863508   9.803173
    28  F    2.829292   2.514951   3.724830  13.227817  12.408109
    29  F    4.405668   3.531202   4.426599  14.657748  13.773280
    30  F    3.719192   2.515306   2.845574  12.962314  11.899812
    31  F    3.704383   2.509292   2.839185  12.943511  12.065074
    32  F    2.811640   2.510243   3.720981  13.211004  12.568252
                   16         17         18         19         20
    16  H    0.000000
    17  H    3.087917   0.000000
    18  H    2.505029   1.807356   0.000000
    19  H    2.565082   3.093562   2.512486   0.000000
    20  H    3.128085   2.501791   3.090447   1.811957   0.000000
    21  H    4.505063   2.544097   2.550483   2.871699   2.872156
    22  H    6.569785   4.705332   4.733519   4.435094   4.416637
    23  H    7.460217   6.777328   6.811326   4.951772   4.922311
    24  H    8.854742   6.950362   6.993995   6.610510   6.576945
    25  H   10.954509   9.237558   9.283826   8.545861   8.509847
    26  S   12.140887  10.914034  10.953493   9.595176   9.566276
    27  H    9.843099   9.084882   9.123421   7.322254   7.291139
    28  F   12.626293  11.006241  11.246250  10.153472   9.901962
    29  F   13.810969  12.620307  12.656502  11.258207  11.233698
    30  F   12.121098  10.953763  11.188645   9.620040   9.361850
    31  F   11.918398  11.121923  10.958279   9.356245   9.564268
    32  F   12.433279  11.175347  11.018697   9.905293  10.095097
                   21         22         23         24         25
    21  H    0.000000
    22  H    2.251013   0.000000
    23  H    4.941867   3.847323   0.000000
    24  H    4.537704   2.307607   4.335845   0.000000
    25  H    6.838576   4.590488   4.949671   2.426280   0.000000
    26  S    8.636258   6.562474   4.927837   4.933075   2.939621
    27  H    7.089792   5.505337   2.397130   4.950647   4.310110
    28  F    8.780181   6.622431   5.713224   4.725802   2.550007
    29  F   10.344197   8.252908   6.508988   6.510985   4.289775
    30  F    8.906630   7.014498   4.720695   5.729878   4.107712
    31  F    8.861549   6.969766   4.700575   5.700858   4.096196
    32  F    8.736172   6.576824   5.697746   4.692483   2.533323
                   26         27         28         29         30
    26  S    0.000000
    27  H    2.963406   0.000000
    28  F    1.713003   4.116718   0.000000
    29  F    1.710239   4.320568   2.409051   0.000000
    30  F    1.712425   2.566773   2.404929   2.407884   0.000000
    31  F    1.712377   2.573592   3.425213   2.407769   2.438808
    32  F    1.713050   4.121555   2.439746   2.407785   3.425290
                   31         32
    31  F    0.000000
    32  F    2.404345   0.000000
 Stoichiometry    C10H13F5N2OS
 Framework group  C1[X(C10H13F5N2OS)]
 Deg. of freedom    90
 Full point group                 C1      NOp   1
 Largest Abelian subgroup         C1      NOp   1
 Largest concise Abelian subgroup C1      NOp   1
                         Standard orientation:                         
 ---------------------------------------------------------------------
 Center     Atomic      Atomic             Coordinates (Angstroms)
 Number     Number       Type             X           Y           Z
 ---------------------------------------------------------------------
      1          6           0       -8.209047   -0.477857    0.039501
      2          6           0       -6.976621    0.420005    0.005290
      3          6           0       -5.685862   -0.407666   -0.017628
      4          7           0       -4.519333    0.456335   -0.033189
      5          6           0       -3.249443   -0.039262   -0.023472
      6          8           0       -3.076921   -1.247838   -0.011834
      7          7           0       -2.193793    0.830436   -0.018492
      8          6           0       -0.788547    0.524435    0.002143
      9          6           0       -0.246050   -0.782942    0.007735
     10          6           0        0.107355    1.607725    0.015486
     11          6           0        1.486641    1.409466    0.024616
     12          6           0        2.024014    0.115483    0.019225
     13          6           0        1.141388   -0.978535    0.015880
     14          1           0       -9.125282    0.149049    0.061724
     15          1           0       -8.194247   -1.117844    0.947479
     16          1           0       -8.240289   -1.124031   -0.863275
     17          1           0       -6.981510    1.070295    0.907500
     18          1           0       -7.022535    1.064792   -0.899382
     19          1           0       -5.676739   -1.056752   -0.920988
     20          1           0       -5.651364   -1.048523    0.890773
     21          1           0       -4.656758    1.479523   -0.041442
     22          1           0       -2.433891    1.834135   -0.028371
     23          1           0       -0.850555   -1.672160    0.000575
     24          1           0       -0.266137    2.624095    0.014748
     25          1           0        2.134942    2.275647    0.030061
     26         16           0        3.828697   -0.126788    0.000563
     27          1           0        1.525227   -1.991089    0.013950
     28          9           0        4.019931    1.048766    1.231775
     29          9           0        5.523577   -0.354280   -0.022831
     30          9           0        3.700745   -1.334765    1.207551
     31          9           0        3.671046   -1.306135   -1.230908
     32          9           0        3.991843    1.076600   -1.207651
 ---------------------------------------------------------------------
 Rotational constants (GHZ):      1.3186432      0.0971055      0.0944359
 General basis read from cards:  (6D, 7F)
 There are   391 symmetry adapted cartesian basis functions of A   symmetry.
 There are   391 symmetry adapted basis functions of A   symmetry.
   391 basis functions,   684 primitive gaussians,   391 cartesian basis functions
    78 alpha electrons       78 beta electrons
       nuclear repulsion energy      1674.8032693248 Hartrees.
 NAtoms=   32 NActive=   32 NUniq=   32 SFac= 1.00D+00 NAtFMM=   60 NAOKFM=F Big=F
 Integral buffers will be    131072 words long.
 Raffenetti 2 integral format.
 Two-electron integral symmetry is turned on.
 ------------------------------------------------------------------------------
 Polarizable Continuum Model (PCM)
 =================================
 Model                : PCM (using non-symmetric T matrix).
 Atomic radii         : SMD-Coulomb.
 Polarization charges : Total charges.
 Charge compensation  : None.
 Solution method      : On-the-fly selection.
 Cavity type          : VdW (van der Waals Surface) (Alpha=1.000).
 Cavity algorithm     : GePol (No added spheres)
                        Default sphere list used, NSphG=   32.
                        Lebedev-Laikov grids with approx.  5.0 points / Ang**2.
                        Smoothing algorithm: York/Karplus (Gamma=1.0000).
                        Polarization charges: spherical gaussians, with
                                              point-specific exponents (IZeta= 3).
                        Self-potential: point-specific (ISelfS= 7).
                        Self-field    : sphere-specific E.n sum rule (ISelfD= 2).
 1st derivatives      : Analytical E(r).r(x)/FMM algorithm (CHGder, D1EAlg=3).
                        Cavity 1st derivative terms included.
 Solvent              : n-Pentadecane, Eps=   2.033300 Eps(inf)=   2.049192
 ------------------------------------------------------------------------------
 ------------------------------------------------------------------------------
 Atomic radii for non-electrostatic terms: SMD-CDS.
 ------------------------------------------------------------------------------
 Nuclear repulsion after PCM non-electrostatic terms =     1674.7978357727 Hartrees.
 One-electron integrals computed using PRISM.
 NBasis=   391 RedAO= T EigKep=  1.04D-06  NBF=   391
 NBsUse=   391 1.00D-06 EigRej= -1.00D+00 NBFU=   391
 ExpMin= 4.05D-02 ExpMax= 2.19D+04 ExpMxC= 3.30D+03 IAcc=3 IRadAn=         5 AccDes= 0.00D+00
 Harris functional with IExCor= 1009 and IRadAn=       5 diagonalized for initial guess.
 HarFok:  IExCor= 1009 AccDes= 0.00D+00 IRadAn=         5 IDoV= 1 UseB2=F ITyADJ=14
 ICtDFT=  3500011 ScaDFX=  1.000000  1.000000  1.000000  1.000000
 FoFCou: FMM=F IPFlag=           0 FMFlag=      100000 FMFlg1=           0
         NFxFlg=           0 DoJE=T BraDBF=F KetDBF=T FulRan=T
         wScrn=  0.000000 ICntrl=     500 IOpCl=  0 I1Cent=   200000004 NGrid=           0
         NMat0=    1 NMatS0=      1 NMatT0=    0 NMatD0=    1 NMtDS0=    0 NMtDT0=    0
 Petite list used in FoFCou.
 Requested convergence on RMS density matrix=1.00D-08 within 128 cycles.
 Requested convergence on MAX density matrix=1.00D-06.
 Requested convergence on             energy=1.00D-06.
 No special actions if energy rises.
 Inv3:  Mode=1 IEnd=    19142028.
 Iteration    1 A*A^-1 deviation from unit magnitude is 7.11D-15 for   2516.
 Iteration    1 A*A^-1 deviation from orthogonality  is 2.25D-15 for   1417    964.
 Iteration    1 A^-1*A deviation from unit magnitude is 6.88D-15 for   2516.
 Iteration    1 A^-1*A deviation from orthogonality  is 1.44D-15 for   1715   1696.
 Error on total polarization charges =  0.02181
 SCF Done:  E(RM062X) =  -1470.50729744     A.U. after   18 cycles
            NFock= 18  Conv=0.47D-08     -V/T= 2.0077
 SMD-CDS (non-electrostatic) energy       (kcal/mol) =      -3.41
 (included in total energy above)

 **********************************************************************

            Population analysis using the SCF density.

 **********************************************************************

 Orbital symmetries:
       Occupied  (A) (A) (A) (A) (A) (A) (A) (A) (A) (A) (A) (A)
                 (A) (A) (A) (A) (A) (A) (A) (A) (A) (A) (A) (A)
                 (A) (A) (A) (A) (A) (A) (A) (A) (A) (A) (A) (A)
                 (A) (A) (A) (A) (A) (A) (A) (A) (A) (A) (A) (A)
                 (A) (A) (A) (A) (A) (A) (A) (A) (A) (A) (A) (A)
                 (A) (A) (A) (A) (A) (A) (A) (A) (A) (A) (A) (A)
                 (A) (A) (A) (A) (A) (A)
       Virtual   (A) (A) (A) (A) (A) (A) (A) (A) (A) (A) (A) (A)
                 (A) (A) (A) (A) (A) (A) (A) (A) (A) (A) (A) (A)
                 (A) (A) (A) (A) (A) (A) (A) (A) (A) (A) (A) (A)
                 (A) (A) (A) (A) (A) (A) (A) (A) (A) (A) (A) (A)
                 (A) (A) (A) (A) (A) (A) (A) (A) (A) (A) (A) (A)
                 (A) (A) (A) (A) (A) (A) (A) (A) (A) (A) (A) (A)
                 (A) (A) (A) (A) (A) (A) (A) (A) (A) (A) (A) (A)
                 (A) (A) (A) (A) (A) (A) (A) (A) (A) (A) (A) (A)
                 (A) (A) (A) (A) (A) (A) (A) (A) (A) (A) (A) (A)
                 (A) (A) (A) (A) (A) (A) (A) (A) (A) (A) (A) (A)
                 (A) (A) (A) (A) (A) (A) (A) (A) (A) (A) (A) (A)
                 (A) (A) (A) (A) (A) (A) (A) (A) (A) (A) (A) (A)
                 (A) (A) (A) (A) (A) (A) (A) (A) (A) (A) (A) (A)
                 (A) (A) (A) (A) (A) (A) (A) (A) (A) (A) (A) (A)
                 (A) (A) (A) (A) (A) (A) (A) (A) (A) (A) (A) (A)
                 (A) (A) (A) (A) (A) (A) (A) (A) (A) (A) (A) (A)
                 (A) (A) (A) (A) (A) (A) (A) (A) (A) (A) (A) (A)
                 (A) (A) (A) (A) (A) (A) (A) (A) (A) (A) (A) (A)
                 (A) (A) (A) (A) (A) (A) (A) (A) (A) (A) (A) (A)
                 (A) (A) (A) (A) (A) (A) (A) (A) (A) (A) (A) (A)
                 (A) (A) (A) (A) (A) (A) (A) (A) (A) (A) (A) (A)
                 (A) (A) (A) (A) (A) (A) (A) (A) (A) (A) (A) (A)
                 (A) (A) (A) (A) (A) (A) (A) (A) (A) (A) (A) (A)
                 (A) (A) (A) (A) (A) (A) (A) (A) (A) (A) (A) (A)
                 (A) (A) (A) (A) (A) (A) (A) (A) (A) (A) (A) (A)
                 (A) (A) (A) (A) (A) (A) (A) (A) (A) (A) (A) (A)
                 (A)
 The electronic state is 1-A.
 Alpha  occ. eigenvalues --  -90.33401 -25.32462 -25.30647 -25.30627 -25.30589
 Alpha  occ. eigenvalues --  -25.30560 -19.61059 -14.82130 -14.79578 -10.69067
 Alpha  occ. eigenvalues --  -10.63889 -10.62052 -10.59330 -10.59117 -10.59010
 Alpha  occ. eigenvalues --  -10.58301 -10.57506 -10.55993 -10.54698  -8.62055
 Alpha  occ. eigenvalues --   -6.54398  -6.54381  -6.53993  -1.43809  -1.36518
 Alpha  occ. eigenvalues --   -1.36370  -1.35587  -1.33485  -1.18655  -1.06246
 Alpha  occ. eigenvalues --   -1.03493  -0.99349  -0.94144  -0.88978  -0.87276
 Alpha  occ. eigenvalues --   -0.85856  -0.78668  -0.74268  -0.73272  -0.70472
 Alpha  occ. eigenvalues --   -0.70144  -0.68866  -0.68408  -0.67188  -0.64365
 Alpha  occ. eigenvalues --   -0.62389  -0.60159  -0.59539  -0.59115  -0.56495
 Alpha  occ. eigenvalues --   -0.56036  -0.55634  -0.54685  -0.54243  -0.54176
 Alpha  occ. eigenvalues --   -0.53984  -0.53758  -0.53717  -0.52998  -0.52668
 Alpha  occ. eigenvalues --   -0.52269  -0.51074  -0.50893  -0.50774  -0.49452
 Alpha  occ. eigenvalues --   -0.47917  -0.47095  -0.45605  -0.45021  -0.43431
 Alpha  occ. eigenvalues --   -0.42922  -0.40673  -0.40638  -0.39006  -0.34814
 Alpha  occ. eigenvalues --   -0.33231  -0.32523  -0.29520
 Alpha virt. eigenvalues --   -0.09440  -0.01783  -0.00227   0.00017   0.02246
 Alpha virt. eigenvalues --    0.02752   0.03035   0.03625   0.03779   0.03878
 Alpha virt. eigenvalues --    0.04454   0.04922   0.05497   0.05656   0.06636
 Alpha virt. eigenvalues --    0.06937   0.07098   0.07340   0.07927   0.08522
 Alpha virt. eigenvalues --    0.08767   0.09279   0.09525   0.09674   0.10022
 Alpha virt. eigenvalues --    0.10465   0.11800   0.11954   0.11968   0.13169
 Alpha virt. eigenvalues --    0.13736   0.14419   0.14530   0.14736   0.15369
 Alpha virt. eigenvalues --    0.15684   0.15774   0.17290   0.17674   0.18690
 Alpha virt. eigenvalues --    0.18999   0.19066   0.19671   0.20244   0.20558
 Alpha virt. eigenvalues --    0.21389   0.21937   0.22278   0.22291   0.23206
 Alpha virt. eigenvalues --    0.23272   0.23373   0.24317   0.24510   0.24683
 Alpha virt. eigenvalues --    0.25271   0.25947   0.26198   0.26494   0.27129
 Alpha virt. eigenvalues --    0.27283   0.28036   0.28673   0.28890   0.29189
 Alpha virt. eigenvalues --    0.29596   0.30435   0.31099   0.31270   0.31556
 Alpha virt. eigenvalues --    0.31853   0.32016   0.32355   0.32948   0.32998
 Alpha virt. eigenvalues --    0.33409   0.34093   0.34540   0.34992   0.35587
 Alpha virt. eigenvalues --    0.35860   0.36446   0.37070   0.37460   0.37853
 Alpha virt. eigenvalues --    0.38660   0.39131   0.39578   0.39691   0.40236
 Alpha virt. eigenvalues --    0.40423   0.41202   0.41395   0.42584   0.44821
 Alpha virt. eigenvalues --    0.46342   0.46590   0.46767   0.48562   0.49071
 Alpha virt. eigenvalues --    0.49832   0.51365   0.51612   0.53493   0.55426
 Alpha virt. eigenvalues --    0.57159   0.57598   0.58422   0.59266   0.59728
 Alpha virt. eigenvalues --    0.60164   0.65408   0.66611   0.68446   0.68918
 Alpha virt. eigenvalues --    0.70415   0.70636   0.71924   0.73068   0.74328
 Alpha virt. eigenvalues --    0.74960   0.75798   0.76522   0.78108   0.78459
 Alpha virt. eigenvalues --    0.79951   0.80103   0.81244   0.82212   0.84469
 Alpha virt. eigenvalues --    0.84792   0.84960   0.87830   0.88086   0.88191
 Alpha virt. eigenvalues --    0.88364   0.88835   0.90467   0.90673   0.93124
 Alpha virt. eigenvalues --    0.94378   0.97297   0.97561   0.98798   0.99429
 Alpha virt. eigenvalues --    1.01112   1.02320   1.02681   1.03319   1.04703
 Alpha virt. eigenvalues --    1.04761   1.05237   1.09867   1.10211   1.10432
 Alpha virt. eigenvalues --    1.11436   1.12425   1.13455   1.14110   1.14270
 Alpha virt. eigenvalues --    1.16458   1.17809   1.20320   1.21781   1.24322
 Alpha virt. eigenvalues --    1.26723   1.28773   1.29998   1.31022   1.34943
 Alpha virt. eigenvalues --    1.35243   1.35849   1.38344   1.38802   1.39878
 Alpha virt. eigenvalues --    1.43788   1.44338   1.45292   1.47001   1.48007
 Alpha virt. eigenvalues --    1.48173   1.48657   1.49782   1.51151   1.52912
 Alpha virt. eigenvalues --    1.54603   1.55880   1.56137   1.57317   1.59784
 Alpha virt. eigenvalues --    1.60163   1.60800   1.64357   1.66375   1.66908
 Alpha virt. eigenvalues --    1.69088   1.70411   1.71352   1.74439   1.74613
 Alpha virt. eigenvalues --    1.76648   1.77655   1.78407   1.79090   1.80857
 Alpha virt. eigenvalues --    1.82222   1.83506   1.84241   1.84567   1.84984
 Alpha virt. eigenvalues --    1.85514   1.86728   1.86815   1.88122   1.88405
 Alpha virt. eigenvalues --    1.88474   1.89271   1.90523   1.90988   1.91681
 Alpha virt. eigenvalues --    1.91776   1.92676   1.92959   1.93691   1.94681
 Alpha virt. eigenvalues --    1.96630   1.96698   1.97860   1.98255   1.98481
 Alpha virt. eigenvalues --    1.98949   1.99172   1.99710   2.01601   2.02172
 Alpha virt. eigenvalues --    2.03284   2.03469   2.04281   2.04791   2.05418
 Alpha virt. eigenvalues --    2.06532   2.07356   2.12868   2.13992   2.14519
 Alpha virt. eigenvalues --    2.14675   2.15183   2.17283   2.19431   2.19681
 Alpha virt. eigenvalues --    2.20385   2.23550   2.23802   2.24808   2.24970
 Alpha virt. eigenvalues --    2.25957   2.28935   2.29056   2.29280   2.29393
 Alpha virt. eigenvalues --    2.31898   2.35427   2.37928   2.38133   2.39535
 Alpha virt. eigenvalues --    2.41199   2.41749   2.48234   2.50655   2.55558
 Alpha virt. eigenvalues --    2.58580   2.63588   2.65080   2.65855   2.69200
 Alpha virt. eigenvalues --    2.72301   2.73640   2.75086   2.77653   2.77786
 Alpha virt. eigenvalues --    2.78049   2.80429   2.81454   2.81490   2.84948
 Alpha virt. eigenvalues --    2.87534   2.93081   2.97499   3.08401   3.11778
 Alpha virt. eigenvalues --    3.18813   3.27547   3.32193   3.39938   4.14330
 Alpha virt. eigenvalues --    4.20414   4.25151   4.26486   4.30683   4.34710
 Alpha virt. eigenvalues --    4.41125   4.41857   4.42726   4.49347   4.51244
 Alpha virt. eigenvalues --    4.58414   4.67155   4.75535   5.73929   5.77814
 Alpha virt. eigenvalues --    5.90019   7.11073   8.05072
          Condensed to atoms (all electrons):
               1          2          3          4          5          6
     1  C    5.589746  -0.013190   0.005535  -0.004058  -0.042106  -0.002761
     2  C   -0.013190   6.130124  -0.357174  -0.080884   0.118185   0.019660
     3  C    0.005535  -0.357174   6.803712   0.339723  -0.471929  -0.097357
     4  N   -0.004058  -0.080884   0.339723   7.710707   0.384019  -0.210659
     5  C   -0.042106   0.118185  -0.471929   0.384019   6.733331   0.622811
     6  O   -0.002761   0.019660  -0.097357  -0.210659   0.622811   8.329263
     7  N   -0.002585   0.015582  -0.141207  -0.411740   0.105936  -0.077695
     8  C   -0.007669   0.010801  -0.406709  -0.219891  -0.853937  -0.440577
     9  C   -0.002454  -0.002722  -0.063804   0.056130   0.728883   0.339510
    10  C   -0.000606   0.002485  -0.070424  -0.109429  -1.636020  -0.151086
    11  C    0.000257   0.000217   0.031521   0.018213   0.367495   0.011407
    12  C   -0.000215   0.000499  -0.035774   0.002377  -0.557835   0.004231
    13  C   -0.000916  -0.000236  -0.035830   0.032748  -0.272153   0.260837
    14  H    0.410691  -0.085372   0.027393   0.000605  -0.002191   0.000008
    15  H    0.422043  -0.067669  -0.008871   0.000487  -0.001383  -0.000063
    16  H    0.413611  -0.064362  -0.006614   0.000501   0.001369  -0.000058
    17  H   -0.035390   0.422988  -0.083901   0.007063   0.001986  -0.000243
    18  H   -0.025440   0.411704  -0.068796   0.007091  -0.010716  -0.000219
    19  H    0.002124  -0.046034   0.408562  -0.054570  -0.001381   0.001405
    20  H    0.008306  -0.055720   0.442933  -0.058700  -0.025132   0.001962
    21  H   -0.002302   0.000841  -0.077308   0.237151   0.031658   0.008558
    22  H   -0.000131   0.000336  -0.000166   0.020401  -0.020028   0.007483
    23  H    0.000002   0.000053   0.001632   0.000346   0.004608  -0.001523
    24  H   -0.000001   0.000006  -0.000111   0.001381  -0.003955   0.000026
    25  H    0.000000   0.000000   0.000027   0.000012   0.003482  -0.000001
    26  S   -0.000004   0.000004  -0.001100   0.000649  -0.052853   0.000085
    27  H    0.000000   0.000001   0.000037   0.000019   0.001791   0.000197
    28  F   -0.000000  -0.000000  -0.000004   0.000001  -0.000861  -0.000001
    29  F   -0.000000   0.000000  -0.000000  -0.000000  -0.000069   0.000000
    30  F   -0.000000   0.000000  -0.000008   0.000000  -0.001422   0.000001
    31  F   -0.000000   0.000000  -0.000008   0.000000  -0.001463   0.000001
    32  F   -0.000000   0.000000  -0.000004   0.000001  -0.000942  -0.000001
               7          8          9         10         11         12
     1  C   -0.002585  -0.007669  -0.002454  -0.000606   0.000257  -0.000215
     2  C    0.015582   0.010801  -0.002722   0.002485   0.000217   0.000499
     3  C   -0.141207  -0.406709  -0.063804  -0.070424   0.031521  -0.035774
     4  N   -0.411740  -0.219891   0.056130  -0.109429   0.018213   0.002377
     5  C    0.105936  -0.853937   0.728883  -1.636020   0.367495  -0.557835
     6  O   -0.077695  -0.440577   0.339510  -0.151086   0.011407   0.004231
     7  N    7.839458   0.083154  -0.352120   0.336381   0.069653   0.022965
     8  C    0.083154  15.174068  -1.154990  -0.791643   1.204273  -5.065480
     9  C   -0.352120  -1.154990  19.646023  -4.927396  -0.140914  -1.082485
    10  C    0.336381  -0.791643  -4.927396  18.786390  -3.972313   1.229853
    11  C    0.069653   1.204273  -0.140914  -3.972313  22.951922  -3.911913
    12  C    0.022965  -5.065480  -1.082485   1.229853  -3.911913  20.339144
    13  C   -0.092774  -1.278079  -7.891018  -1.687888 -10.763170  -3.834150
    14  H    0.000011  -0.000047   0.000005  -0.000002   0.000000  -0.000000
    15  H    0.000015  -0.000012  -0.000048   0.000001   0.000000  -0.000000
    16  H    0.000011   0.000037  -0.000041   0.000001   0.000000  -0.000000
    17  H    0.000027   0.000032  -0.000207   0.000112   0.000004  -0.000000
    18  H    0.000118  -0.000949  -0.000228   0.000081   0.000009  -0.000003
    19  H   -0.000065  -0.002583   0.003028  -0.000958  -0.000003   0.000005
    20  H    0.000636  -0.006500   0.002454  -0.001027   0.000033  -0.000052
    21  H    0.029839   0.017058  -0.000427  -0.000671   0.000407  -0.000250
    22  H    0.231905   0.006358   0.041043  -0.104410   0.032307  -0.002040
    23  H   -0.013932   0.028971   0.228126   0.036666  -0.002886   0.060938
    24  H   -0.010657   0.007959   0.068562   0.221858  -0.067316   0.092335
    25  H    0.000644   0.016218  -0.025175  -0.113758   0.382408   0.004582
    26  S    0.001684  -0.552859  -0.828780   0.205432  -0.276164  -0.426038
    27  H   -0.000374  -0.013893  -0.067881  -0.039587   0.035690   0.020352
    28  F    0.000019  -0.020571   0.012332  -0.007541  -0.117813   0.116092
    29  F   -0.000008   0.004044  -0.012034   0.003542   0.066889  -0.182492
    30  F   -0.000031  -0.015310  -0.041647   0.032324  -0.031040   0.115862
    31  F   -0.000032  -0.016972  -0.039673   0.034258  -0.031692   0.106149
    32  F    0.000021  -0.023251   0.009653  -0.002403  -0.120037   0.104942
              13         14         15         16         17         18
     1  C   -0.000916   0.410691   0.422043   0.413611  -0.035390  -0.025440
     2  C   -0.000236  -0.085372  -0.067669  -0.064362   0.422988   0.411704
     3  C   -0.035830   0.027393  -0.008871  -0.006614  -0.083901  -0.068796
     4  N    0.032748   0.000605   0.000487   0.000501   0.007063   0.007091
     5  C   -0.272153  -0.002191  -0.001383   0.001369   0.001986  -0.010716
     6  O    0.260837   0.000008  -0.000063  -0.000058  -0.000243  -0.000219
     7  N   -0.092774   0.000011   0.000015   0.000011   0.000027   0.000118
     8  C   -1.278079  -0.000047  -0.000012   0.000037   0.000032  -0.000949
     9  C   -7.891018   0.000005  -0.000048  -0.000041  -0.000207  -0.000228
    10  C   -1.687888  -0.000002   0.000001   0.000001   0.000112   0.000081
    11  C  -10.763170   0.000000   0.000000   0.000000   0.000004   0.000009
    12  C   -3.834150  -0.000000  -0.000000  -0.000000  -0.000000  -0.000003
    13  C   31.489790   0.000000  -0.000004  -0.000003  -0.000018  -0.000022
    14  H    0.000000   0.486592  -0.023968  -0.023801  -0.003099  -0.003024
    15  H   -0.000004  -0.023968   0.489303  -0.027803  -0.004784   0.003886
    16  H   -0.000003  -0.023801  -0.027803   0.488950   0.003903  -0.004778
    17  H   -0.000018  -0.003099  -0.004784   0.003903   0.504792  -0.033238
    18  H   -0.000022  -0.003024   0.003886  -0.004778  -0.033238   0.504359
    19  H    0.000509  -0.000064  -0.000319   0.002602   0.003786  -0.005299
    20  H    0.000374  -0.000057   0.002695  -0.000319  -0.005339   0.003814
    21  H    0.000565  -0.000003   0.000001   0.000000   0.000851   0.000896
    22  H    0.023039  -0.000000  -0.000000  -0.000000   0.000002   0.000002
    23  H   -0.037989   0.000000  -0.000000  -0.000000  -0.000000  -0.000000
    24  H   -0.017213   0.000000   0.000000   0.000000   0.000000   0.000000
    25  H    0.025111  -0.000000   0.000000   0.000000  -0.000000  -0.000000
    26  S    0.569932  -0.000000  -0.000000  -0.000000  -0.000000  -0.000000
    27  H    0.358623  -0.000000   0.000000   0.000000   0.000000   0.000000
    28  F   -0.022405  -0.000000  -0.000000  -0.000000   0.000000  -0.000000
    29  F    0.081230  -0.000000   0.000000   0.000000   0.000000   0.000000
    30  F   -0.084555  -0.000000  -0.000000   0.000000   0.000000  -0.000000
    31  F   -0.086967  -0.000000   0.000000  -0.000000  -0.000000   0.000000
    32  F   -0.020761  -0.000000   0.000000  -0.000000  -0.000000  -0.000000
              19         20         21         22         23         24
     1  C    0.002124   0.008306  -0.002302  -0.000131   0.000002  -0.000001
     2  C   -0.046034  -0.055720   0.000841   0.000336   0.000053   0.000006
     3  C    0.408562   0.442933  -0.077308  -0.000166   0.001632  -0.000111
     4  N   -0.054570  -0.058700   0.237151   0.020401   0.000346   0.001381
     5  C   -0.001381  -0.025132   0.031658  -0.020028   0.004608  -0.003955
     6  O    0.001405   0.001962   0.008558   0.007483  -0.001523   0.000026
     7  N   -0.000065   0.000636   0.029839   0.231905  -0.013932  -0.010657
     8  C   -0.002583  -0.006500   0.017058   0.006358   0.028971   0.007959
     9  C    0.003028   0.002454  -0.000427   0.041043   0.228126   0.068562
    10  C   -0.000958  -0.001027  -0.000671  -0.104410   0.036666   0.221858
    11  C   -0.000003   0.000033   0.000407   0.032307  -0.002886  -0.067316
    12  C    0.000005  -0.000052  -0.000250  -0.002040   0.060938   0.092335
    13  C    0.000509   0.000374   0.000565   0.023039  -0.037989  -0.017213
    14  H   -0.000064  -0.000057  -0.000003  -0.000000   0.000000   0.000000
    15  H   -0.000319   0.002695   0.000001  -0.000000  -0.000000   0.000000
    16  H    0.002602  -0.000319   0.000000  -0.000000  -0.000000   0.000000
    17  H    0.003786  -0.005339   0.000851   0.000002  -0.000000   0.000000
    18  H   -0.005299   0.003814   0.000896   0.000002  -0.000000   0.000000
    19  H    0.492058  -0.035618   0.002563   0.000004  -0.000000   0.000000
    20  H   -0.035618   0.492156   0.002607   0.000005  -0.000000   0.000000
    21  H    0.002563   0.002607   0.318953   0.002525   0.000000   0.000004
    22  H    0.000004   0.000005   0.002525   0.314342  -0.000110   0.006024
    23  H   -0.000000  -0.000000   0.000000  -0.000110   0.413956  -0.000104
    24  H    0.000000   0.000000   0.000004   0.006024  -0.000104   0.470398
    25  H   -0.000000  -0.000000  -0.000000  -0.000010   0.000011  -0.004028
    26  S   -0.000000  -0.000001  -0.000004   0.000390   0.001013   0.004606
    27  H   -0.000000  -0.000000  -0.000000   0.000002  -0.004242   0.000013
    28  F   -0.000000  -0.000000  -0.000000   0.000000   0.000013   0.000052
    29  F   -0.000000   0.000000  -0.000000   0.000000  -0.000000  -0.000000
    30  F   -0.000000  -0.000000  -0.000000   0.000000   0.000017   0.000015
    31  F    0.000000  -0.000000  -0.000000   0.000000   0.000017   0.000015
    32  F    0.000000  -0.000000  -0.000000   0.000000   0.000013   0.000053
              25         26         27         28         29         30
     1  C    0.000000  -0.000004   0.000000  -0.000000  -0.000000  -0.000000
     2  C    0.000000   0.000004   0.000001  -0.000000   0.000000   0.000000
     3  C    0.000027  -0.001100   0.000037  -0.000004  -0.000000  -0.000008
     4  N    0.000012   0.000649   0.000019   0.000001  -0.000000   0.000000
     5  C    0.003482  -0.052853   0.001791  -0.000861  -0.000069  -0.001422
     6  O   -0.000001   0.000085   0.000197  -0.000001   0.000000   0.000001
     7  N    0.000644   0.001684  -0.000374   0.000019  -0.000008  -0.000031
     8  C    0.016218  -0.552859  -0.013893  -0.020571   0.004044  -0.015310
     9  C   -0.025175  -0.828780  -0.067881   0.012332  -0.012034  -0.041647
    10  C   -0.113758   0.205432  -0.039587  -0.007541   0.003542   0.032324
    11  C    0.382408  -0.276164   0.035690  -0.117813   0.066889  -0.031040
    12  C    0.004582  -0.426038   0.020352   0.116092  -0.182492   0.115862
    13  C    0.025111   0.569932   0.358623  -0.022405   0.081230  -0.084555
    14  H   -0.000000  -0.000000  -0.000000  -0.000000  -0.000000  -0.000000
    15  H    0.000000  -0.000000   0.000000  -0.000000   0.000000  -0.000000
    16  H    0.000000  -0.000000   0.000000  -0.000000   0.000000   0.000000
    17  H   -0.000000  -0.000000   0.000000   0.000000   0.000000   0.000000
    18  H   -0.000000  -0.000000   0.000000  -0.000000   0.000000  -0.000000
    19  H   -0.000000  -0.000000  -0.000000  -0.000000  -0.000000  -0.000000
    20  H   -0.000000  -0.000001  -0.000000  -0.000000   0.000000  -0.000000
    21  H   -0.000000  -0.000004  -0.000000  -0.000000  -0.000000  -0.000000
    22  H   -0.000010   0.000390   0.000002   0.000000   0.000000   0.000000
    23  H    0.000011   0.001013  -0.004242   0.000013  -0.000000   0.000017
    24  H   -0.004028   0.004606   0.000013   0.000052  -0.000000   0.000015
    25  H    0.434488   0.011373  -0.000124   0.000876  -0.000008   0.000119
    26  S    0.011373  14.908298   0.010350   0.061885   0.127706   0.055270
    27  H   -0.000124   0.010350   0.431107   0.000088  -0.000015   0.001042
    28  F    0.000876   0.061885   0.000088   9.500677  -0.025432  -0.006649
    29  F   -0.000008   0.127706  -0.000015  -0.025432   9.426800  -0.024715
    30  F    0.000119   0.055270   0.001042  -0.006649  -0.024715   9.491005
    31  F    0.000121   0.061166   0.000908  -0.018428  -0.024346  -0.028894
    32  F    0.000675   0.069818   0.000085  -0.027276  -0.025241  -0.018612
              31         32
     1  C   -0.000000  -0.000000
     2  C    0.000000   0.000000
     3  C   -0.000008  -0.000004
     4  N    0.000000   0.000001
     5  C   -0.001463  -0.000942
     6  O    0.000001  -0.000001
     7  N   -0.000032   0.000021
     8  C   -0.016972  -0.023251
     9  C   -0.039673   0.009653
    10  C    0.034258  -0.002403
    11  C   -0.031692  -0.120037
    12  C    0.106149   0.104942
    13  C   -0.086967  -0.020761
    14  H   -0.000000  -0.000000
    15  H    0.000000   0.000000
    16  H   -0.000000  -0.000000
    17  H   -0.000000  -0.000000
    18  H    0.000000  -0.000000
    19  H    0.000000   0.000000
    20  H   -0.000000  -0.000000
    21  H   -0.000000  -0.000000
    22  H    0.000000   0.000000
    23  H    0.000017   0.000013
    24  H    0.000015   0.000053
    25  H    0.000121   0.000675
    26  S    0.061166   0.069818
    27  H    0.000908   0.000085
    28  F   -0.018428  -0.027276
    29  F   -0.024346  -0.025241
    30  F   -0.028894  -0.018612
    31  F    9.495518  -0.006106
    32  F   -0.006106   9.506379
 Mulliken charges:
               1
     1  C   -0.712487
     2  C   -0.360123
     3  C   -0.133979
     4  N   -0.669696
     5  C    0.850825
     6  O   -0.625201
     7  N   -0.634839
     8  C    0.318948
     9  C    1.498294
    10  C   -1.272223
    11  C    0.262555
    12  C   -1.121597
    13  C   -0.716607
    14  H    0.216322
    15  H    0.216492
    16  H    0.216792
    17  H    0.220674
    18  H    0.220753
    19  H    0.230248
    20  H    0.230492
    21  H    0.426485
    22  H    0.440729
    23  H    0.284403
    24  H    0.230078
    25  H    0.262958
    26  S    2.048143
    27  H    0.265811
    28  F   -0.445053
    29  F   -0.415849
    30  F   -0.442771
    31  F   -0.443573
    32  F   -0.447003
 Sum of Mulliken charges =  -0.00000
 Mulliken charges with hydrogens summed into heavy atoms:
               1
     1  C   -0.062881
     2  C    0.081303
     3  C    0.326761
     4  N   -0.243210
     5  C    0.850825
     6  O   -0.625201
     7  N   -0.194111
     8  C    0.318948
     9  C    1.782697
    10  C   -1.042145
    11  C    0.525513
    12  C   -1.121597
    13  C   -0.450796
    26  S    2.048143
    28  F   -0.445053
    29  F   -0.415849
    30  F   -0.442771
    31  F   -0.443573
    32  F   -0.447003
 Electronic spatial extent (au):  <R**2>=          10678.6435
 Charge=             -0.0000 electrons
 Dipole moment (field-independent basis, Debye):
    X=             -8.1303    Y=              5.0972    Z=             -0.0005  Tot=              9.5960
 Quadrupole moment (field-independent basis, Debye-Ang):
   XX=           -112.8512   YY=           -110.2010   ZZ=           -124.0701
   XY=            -13.3705   XZ=              0.1371   YZ=             -0.0806
 Traceless Quadrupole moment (field-independent basis, Debye-Ang):
   XX=              2.8562   YY=              5.5064   ZZ=             -8.3626
   XY=            -13.3705   XZ=              0.1371   YZ=             -0.0806
 Octapole moment (field-independent basis, Debye-Ang**2):
  XXX=           -170.7775  YYY=             18.8230  ZZZ=             -0.4030  XYY=             29.3649
  XXY=             51.0544  XXZ=             -0.4293  XZZ=             26.3489  YZZ=             -5.0415
  YYZ=             -0.1887  XYZ=              0.4302
 Hexadecapole moment (field-independent basis, Debye-Ang**3):
 XXXX=         -11500.7624 YYYY=           -658.2697 ZZZZ=           -327.0112 XXXY=           -202.8948
 XXXZ=              1.1040 YYYX=            -74.1100 YYYZ=             -0.2277 ZZZX=             -0.4677
 ZZZY=             -0.2056 XXYY=          -2158.8439 XXZZ=          -2137.4196 YYZZ=           -184.6445
 XXYZ=             -0.4226 YYXZ=              1.2095 ZZXY=              1.1374
 N-N= 1.674797835773D+03 E-N=-6.811586305794D+03  KE= 1.459330645438D+03
 D1PCM: PCM CHGder 1st derivatives, ID1Alg=3 FixD1E=F DoIter=F DoCFld=F I1PDM=0.
 Calling FoFJK, ICntrl=      2127 FMM=F ISym2X=0 I1Cent= 0 IOpClX= 0 NMat=1 NMatS=1 NMatT=0.
 ***** Axes restored to original set *****
 -------------------------------------------------------------------
 Center     Atomic                   Forces (Hartrees/Bohr)
 Number     Number              X              Y              Z
 -------------------------------------------------------------------
      1        6          -0.005155658    0.001347582   -0.000304196
      2        6           0.004786793   -0.005606624    0.000641292
      3        6          -0.005651579    0.006474389   -0.001686238
      4        7           0.012447076   -0.035135158    0.005497897
      5        6          -0.014559292    0.023800787   -0.004291879
      6        8           0.002932557    0.015449241   -0.002013498
      7        7           0.027247079   -0.025926393    0.003501112
      8        6          -0.017768902    0.001822243    0.000120267
      9        6           0.008971574   -0.005418002    0.000819499
     10        6           0.001735224    0.007092646   -0.000916468
     11        6           0.004677511    0.003503612   -0.000087349
     12        6          -0.024789786   -0.004232500    0.000350105
     13        6           0.008004372   -0.008889214    0.001518167
     14        1           0.006124871    0.009156126   -0.000982775
     15        1          -0.001464104   -0.003388872    0.009937635
     16        1          -0.001191302   -0.005837552   -0.008569828
     17        1           0.001033882    0.004619555    0.008342312
     18        1           0.001242792    0.002310094   -0.009028344
     19        1           0.001057907   -0.004941891   -0.009509084
     20        1           0.001062216   -0.001561857    0.010611950
     21        1          -0.002864226    0.016004261   -0.002308682
     22        1           0.006638107    0.014387607   -0.002279248
     23        1          -0.007892796   -0.001556849    0.000225093
     24        1          -0.000917931   -0.002465230    0.000259593
     25        1           0.001667815   -0.001319884    0.000152932
     26       16           0.002344575    0.002403542   -0.000184236
     27        1          -0.000317993    0.001407926   -0.000207824
     28        9           0.004483616    0.039249284    0.032766040
     29        9          -0.061115321   -0.015798176    0.001394447
     30        9           0.020512688   -0.024036877    0.041013290
     31        9           0.021391075   -0.032959185   -0.033542606
     32        9           0.005327160    0.030045372   -0.041239376
 -------------------------------------------------------------------
 Cartesian Forces:  Max     0.061115321 RMS     0.014904065

 GradGradGradGradGradGradGradGradGradGradGradGradGradGradGradGradGradGrad
 Berny optimization.
 FormGI is forming the generalized inverse of G from B-inverse, IUseBI=4.
 GSVD:  received Info=                   1 from GESDD.
 Internal  Forces:  Max     0.063138947 RMS     0.011483154
 Search for a local minimum.
 Step number   1 out of a maximum of  173
 All quantities printed in internal units (Hartrees-Bohrs-Radians)
 Mixed Optimization -- RFO/linear search
 Second derivative matrix not updated -- first step.
 ITU=  0
     Eigenvalues ---    0.00230   0.00323   0.00433   0.01007   0.01173
     Eigenvalues ---    0.01185   0.01477   0.01653   0.01714   0.01950
     Eigenvalues ---    0.01980   0.02040   0.02046   0.02085   0.02101
     Eigenvalues ---    0.02118   0.02129   0.02148   0.02178   0.03751
     Eigenvalues ---    0.04457   0.04932   0.05555   0.05687   0.05795
     Eigenvalues ---    0.08042   0.08693   0.08696   0.09155   0.11982
     Eigenvalues ---    0.12648   0.12862   0.12930   0.12935   0.13034
     Eigenvalues ---    0.15999   0.16000   0.16000   0.16000   0.16000
     Eigenvalues ---    0.16000   0.16000   0.16000   0.16000   0.16742
     Eigenvalues ---    0.21962   0.22000   0.22000   0.22000   0.22002
     Eigenvalues ---    0.22958   0.24000   0.24532   0.24999   0.25000
     Eigenvalues ---    0.25000   0.25000   0.25000   0.25000   0.29103
     Eigenvalues ---    0.29872   0.32346   0.32364   0.32373   0.32401
     Eigenvalues ---    0.32499   0.32532   0.32558   0.34364   0.34370
     Eigenvalues ---    0.34436   0.34441   0.34686   0.35650   0.35655
     Eigenvalues ---    0.35761   0.36573   0.38019   0.39816   0.40701
     Eigenvalues ---    0.41183   0.42416   0.42468   0.44189   0.44681
     Eigenvalues ---    0.45301   0.46303   0.51408   0.52305   0.94993
 RFO step:  Lambda=-5.95600441D-02 EMin= 2.30000000D-03
 Linear search not attempted -- first point.
 Maximum step size (   0.300) exceeded in Quadratic search.
    -- Step size scaled by   0.704
 Iteration  1 RMS(Cart)=  0.04605691 RMS(Int)=  0.00068313
 Iteration  2 RMS(Cart)=  0.00111393 RMS(Int)=  0.00027048
 Iteration  3 RMS(Cart)=  0.00000101 RMS(Int)=  0.00027048
 Iteration  4 RMS(Cart)=  0.00000000 RMS(Int)=  0.00027048
 Variable       Old X    -DE/DX   Delta X   Delta X   Delta X     New X
                                 (Linear)    (Quad)   (Total)
    R1        2.88219   0.00207   0.00000   0.00407   0.00407   2.88626
    R2        2.09835  -0.01067   0.00000  -0.01949  -0.01949   2.07887
    R3        2.09941  -0.01029   0.00000  -0.01883  -0.01883   2.08058
    R4        2.09881  -0.01009   0.00000  -0.01845  -0.01845   2.08035
    R5        2.89790  -0.00578   0.00000  -0.01160  -0.01160   2.88629
    R6        2.10167  -0.00915   0.00000  -0.01680  -0.01680   2.08486
    R7        2.10116  -0.00902   0.00000  -0.01656  -0.01656   2.08460
    R8        2.74338  -0.00031   0.00000  -0.00050  -0.00050   2.74288
    R9        2.10215  -0.01035   0.00000  -0.01902  -0.01902   2.08313
   R10        2.10183  -0.01018   0.00000  -0.01869  -0.01869   2.08314
   R11        2.57609  -0.00219   0.00000  -0.00265  -0.00265   2.57344
   R12        1.95097  -0.01612   0.00000  -0.02345  -0.02345   1.92752
   R13        2.30713   0.01564   0.00000   0.01091   0.01091   2.31804
   R14        2.58471   0.01258   0.00000   0.01544   0.01544   2.60015
   R15        2.71804  -0.03556   0.00000  -0.05467  -0.05467   2.66337
   R16        1.95032  -0.01524   0.00000  -0.02215  -0.02215   1.92817
   R17        2.67486  -0.01435   0.00000  -0.02061  -0.02064   2.65422
   R18        2.65662  -0.00472   0.00000  -0.00629  -0.00631   2.65031
   R19        2.64785  -0.01086   0.00000  -0.01517  -0.01518   2.63267
   R20        2.03195   0.00398   0.00000   0.00659   0.00659   2.03854
   R21        2.63332  -0.00912   0.00000  -0.01190  -0.01189   2.62143
   R22        2.04624   0.00262   0.00000   0.00443   0.00443   2.05067
   R23        2.64777  -0.01116   0.00000  -0.01525  -0.01522   2.63255
   R24        2.04457   0.00211   0.00000   0.00356   0.00356   2.04813
   R25        2.65634  -0.01403   0.00000  -0.01976  -0.01975   2.63659
   R26        3.44113  -0.00711   0.00000  -0.01641  -0.01641   3.42472
   R27        2.04632   0.00130   0.00000   0.00221   0.00221   2.04853
   R28        3.23711  -0.04936   0.00000  -0.08614  -0.08614   3.15097
   R29        3.23188  -0.06314   0.00000  -0.10932  -0.10932   3.12256
   R30        3.23601  -0.04991   0.00000  -0.08694  -0.08694   3.14907
   R31        3.23592  -0.04968   0.00000  -0.08654  -0.08654   3.14938
   R32        3.23719  -0.04925   0.00000  -0.08595  -0.08595   3.15124
    A1        1.91223   0.00334   0.00000   0.01121   0.01116   1.92339
    A2        1.92484   0.00238   0.00000   0.00740   0.00737   1.93221
    A3        1.92516   0.00254   0.00000   0.00783   0.00780   1.93296
    A4        1.89639  -0.00264   0.00000  -0.00787  -0.00792   1.88846
    A5        1.89814  -0.00279   0.00000  -0.00853  -0.00858   1.88956
    A6        1.90662  -0.00299   0.00000  -0.01056  -0.01058   1.89604
    A7        1.94201  -0.00085   0.00000  -0.00079  -0.00078   1.94122
    A8        1.89913   0.00152   0.00000   0.00708   0.00708   1.90621
    A9        1.90315   0.00126   0.00000   0.00558   0.00558   1.90873
   A10        1.90859  -0.00025   0.00000  -0.00173  -0.00174   1.90685
   A11        1.91302  -0.00026   0.00000  -0.00222  -0.00223   1.91080
   A12        1.89736  -0.00143   0.00000  -0.00805  -0.00808   1.88928
   A13        1.93402  -0.00374   0.00000  -0.00799  -0.00798   1.92604
   A14        1.91131   0.00187   0.00000   0.00585   0.00585   1.91715
   A15        1.90169   0.00247   0.00000   0.00898   0.00898   1.91067
   A16        1.90919   0.00096   0.00000   0.00160   0.00162   1.91081
   A17        1.90366   0.00100   0.00000   0.00281   0.00282   1.90648
   A18        1.90370  -0.00257   0.00000  -0.01137  -0.01138   1.89232
   A19        2.13187  -0.00546   0.00000  -0.01374  -0.01374   2.11813
   A20        2.07483  -0.00032   0.00000  -0.00291  -0.00291   2.07192
   A21        2.07643   0.00578   0.00000   0.01665   0.01665   2.09308
   A22        2.08471   0.01555   0.00000   0.03536   0.03536   2.12007
   A23        2.08040  -0.02524   0.00000  -0.05736  -0.05736   2.02304
   A24        2.11805   0.00968   0.00000   0.02202   0.02202   2.14007
   A25        2.23805  -0.00661   0.00000  -0.01665  -0.01665   2.22140
   A26        2.02505   0.00807   0.00000   0.02359   0.02359   2.04864
   A27        2.02009  -0.00146   0.00000  -0.00694  -0.00694   2.01314
   A28        2.17853  -0.00627   0.00000  -0.01483  -0.01481   2.16371
   A29        2.04747  -0.00175   0.00000  -0.00457  -0.00454   2.04292
   A30        2.05719   0.00801   0.00000   0.01940   0.01936   2.07655
   A31        2.10419  -0.00415   0.00000  -0.01018  -0.01022   2.09397
   A32        2.15116  -0.00503   0.00000  -0.01768  -0.01766   2.13350
   A33        2.02782   0.00918   0.00000   0.02787   0.02789   2.05571
   A34        2.11907  -0.00340   0.00000  -0.00664  -0.00664   2.11243
   A35        2.09840   0.00138   0.00000   0.00229   0.00229   2.10069
   A36        2.06571   0.00202   0.00000   0.00435   0.00435   2.07006
   A37        2.10713  -0.00890   0.00000  -0.02091  -0.02087   2.08625
   A38        2.07057   0.00476   0.00000   0.01144   0.01142   2.08198
   A39        2.10548   0.00415   0.00000   0.00949   0.00947   2.11494
   A40        2.06912   0.01297   0.00000   0.02991   0.02995   2.09908
   A41        2.09787  -0.00508   0.00000  -0.01176  -0.01178   2.08609
   A42        2.11614  -0.00789   0.00000  -0.01814  -0.01816   2.09798
   A43        2.10961  -0.00453   0.00000  -0.01156  -0.01156   2.09805
   A44        2.07317   0.00160   0.00000   0.00364   0.00364   2.07680
   A45        2.10039   0.00294   0.00000   0.00793   0.00793   2.10832
   A46        1.58277   0.01087   0.00000   0.04062   0.04057   1.62334
   A47        1.58337   0.01050   0.00000   0.03981   0.03977   1.62315
   A48        1.57855   0.01148   0.00000   0.04261   0.04256   1.62112
   A49        1.57895   0.01179   0.00000   0.04324   0.04319   1.62214
   A50        1.56128  -0.01129   0.00000  -0.04219  -0.04215   1.51913
   A51        1.55663   0.00287   0.00000   0.00874   0.00709   1.56372
   A52        1.58501  -0.00342   0.00000  -0.01087  -0.01261   1.57241
   A53        1.56065  -0.01086   0.00000  -0.04112  -0.04107   1.51958
   A54        1.56059  -0.01105   0.00000  -0.04103  -0.04099   1.51960
   A55        1.56021  -0.01144   0.00000  -0.04193  -0.04189   1.51832
   A56        1.58497  -0.00328   0.00000  -0.01019  -0.01189   1.57308
   A57        1.55615   0.00293   0.00000   0.00896   0.00716   1.56331
   A58        3.14404  -0.00043   0.00000  -0.00158  -0.00157   3.14247
   A59        3.16132   0.02234   0.00000   0.08322   0.08313   3.24446
   A60        3.16232   0.02229   0.00000   0.08305   0.08296   3.24528
   A61        3.14399  -0.00034   0.00000  -0.00126  -0.00127   3.14273
   A62        3.14133  -0.00007   0.00000  -0.00038  -0.00033   3.14100
   A63        3.14189  -0.00006   0.00000  -0.00029  -0.00032   3.14158
    D1        3.13563   0.00010   0.00000   0.00083   0.00083   3.13646
    D2        1.03161  -0.00005   0.00000  -0.00115  -0.00115   1.03046
    D3       -1.03538   0.00007   0.00000   0.00125   0.00124  -1.03414
    D4        1.04900  -0.00021   0.00000  -0.00106  -0.00107   1.04793
    D5       -1.05501  -0.00036   0.00000  -0.00305  -0.00306  -1.05807
    D6       -3.12201  -0.00025   0.00000  -0.00065  -0.00066  -3.12267
    D7       -1.05857   0.00033   0.00000   0.00222   0.00223  -1.05634
    D8        3.12060   0.00018   0.00000   0.00023   0.00024   3.12084
    D9        1.05360   0.00030   0.00000   0.00263   0.00264   1.05624
   D10       -3.12912  -0.00029   0.00000  -0.00216  -0.00216  -3.13129
   D11        1.04640  -0.00032   0.00000  -0.00288  -0.00287   1.04353
   D12       -1.03453   0.00021   0.00000   0.00210   0.00209  -1.03244
   D13       -1.03069   0.00090   0.00000   0.00503   0.00502  -1.02567
   D14       -3.13836   0.00087   0.00000   0.00431   0.00432  -3.13404
   D15        1.06390   0.00140   0.00000   0.00929   0.00928   1.07318
   D16        1.04769  -0.00115   0.00000  -0.00717  -0.00716   1.04053
   D17       -1.05998  -0.00118   0.00000  -0.00788  -0.00787  -1.06785
   D18       -3.14091  -0.00064   0.00000  -0.00290  -0.00291   3.13937
   D19        3.11452   0.00031   0.00000   0.00194   0.00194   3.11646
   D20       -0.01513   0.00022   0.00000   0.00118   0.00118  -0.01395
   D21       -1.05975   0.00089   0.00000   0.00518   0.00518  -1.05456
   D22        2.09378   0.00080   0.00000   0.00442   0.00442   2.09821
   D23        1.02111  -0.00107   0.00000  -0.00600  -0.00600   1.01510
   D24       -2.10855  -0.00116   0.00000  -0.00677  -0.00677  -2.11531
   D25        0.01022   0.00008   0.00000   0.00060   0.00061   0.01082
   D26       -3.12426  -0.00032   0.00000  -0.00288  -0.00289  -3.12716
   D27        3.13986   0.00013   0.00000   0.00124   0.00124   3.14111
   D28        0.00538  -0.00027   0.00000  -0.00225  -0.00225   0.00313
   D29        3.13233   0.00029   0.00000   0.00252   0.00251   3.13484
   D30       -0.00630   0.00029   0.00000   0.00242   0.00241  -0.00389
   D31       -0.00201  -0.00013   0.00000  -0.00109  -0.00108  -0.00309
   D32       -3.14064  -0.00014   0.00000  -0.00119  -0.00118   3.14136
   D33        0.01183  -0.00005   0.00000  -0.00047  -0.00047   0.01137
   D34       -3.13165  -0.00001   0.00000  -0.00003  -0.00003  -3.13168
   D35       -3.13272  -0.00003   0.00000  -0.00032  -0.00032  -3.13304
   D36        0.00698   0.00001   0.00000   0.00012   0.00012   0.00710
   D37        3.13128   0.00021   0.00000   0.00188   0.00188   3.13316
   D38       -0.00418   0.00002   0.00000   0.00023   0.00024  -0.00394
   D39       -0.00841   0.00018   0.00000   0.00146   0.00146  -0.00695
   D40        3.13932  -0.00002   0.00000  -0.00019  -0.00018   3.13914
   D41       -3.13223  -0.00018   0.00000  -0.00155  -0.00155  -3.13377
   D42        0.00493  -0.00005   0.00000  -0.00038  -0.00037   0.00455
   D43        0.00761  -0.00015   0.00000  -0.00118  -0.00116   0.00644
   D44       -3.13843  -0.00002   0.00000  -0.00000   0.00001  -3.13841
   D45        0.00045   0.00004   0.00000   0.00014   0.00012   0.00058
   D46       -3.13521  -0.00017   0.00000  -0.00164  -0.00165  -3.13686
   D47        3.13633   0.00018   0.00000   0.00153   0.00154   3.13787
   D48        0.00066  -0.00003   0.00000  -0.00024  -0.00023   0.00043
   D49        0.00125  -0.00010   0.00000  -0.00074  -0.00073   0.00052
   D50        3.13663   0.00014   0.00000   0.00136   0.00137   3.13799
   D51       -3.13598  -0.00023   0.00000  -0.00189  -0.00188  -3.13786
   D52       -0.00060   0.00002   0.00000   0.00021   0.00022  -0.00039
   D53       -0.00929   0.00029   0.00000   0.00226   0.00225  -0.00704
   D54        3.12206   0.00037   0.00000   0.00355   0.00356   3.12562
   D55        3.13864   0.00004   0.00000   0.00012   0.00012   3.13875
   D56       -0.01319   0.00012   0.00000   0.00140   0.00142  -0.01177
   D57        0.00843  -0.00024   0.00000  -0.00193  -0.00192   0.00651
   D58       -3.13918  -0.00003   0.00000  -0.00014  -0.00013  -3.13931
   D59       -3.12281  -0.00034   0.00000  -0.00327  -0.00328  -3.12609
   D60        0.01276  -0.00013   0.00000  -0.00148  -0.00149   0.01127
   D61        0.80381  -0.00172   0.00000  -0.00604  -0.00601   0.79781
   D62        2.36059   0.00141   0.00000   0.00368   0.00367   2.36427
   D63       -2.33752  -0.00165   0.00000  -0.00566  -0.00567  -2.34319
   D64       -0.78130   0.00147   0.00000   0.00397   0.00399  -0.77731
   D65       -2.34830  -0.00151   0.00000  -0.00443  -0.00441  -2.35271
   D66       -0.79151   0.00162   0.00000   0.00529   0.00527  -0.78625
   D67        0.79356  -0.00144   0.00000  -0.00405  -0.00408   0.78948
[...]
 -0.00000557,-0.00001077,0.00013328,-0.00011557,0.00003429,-0.00001257,
 0.00004707,-0.00000669,-0.00011802,-0.00010196,-0.00000168,-0.00006243
 ,0.00152759,0.00097572,-0.00028750,-0.00084505,0.00097468,0.00013152,0
 .00071182,-0.00026465,0.00382781,-0.00089393,0.00098817,-0.00678163,-0
 .01515352,0.00300982,-0.07409091,-0.32679240,0.04609289,-0.00000159,-0
 .00000012,0.,0.00000010,0.00000076,0.00000018,0.00000029,0.00000035,-0
 .00000047,0.00000034,-0.00000111,-0.00000059,0.,-0.00000068,0.00000015
 ,-0.00000429,0.00000283,-0.00000053,-0.00000232,0.00000204,0.00000122,
 0.00000205,0.00000451,-0.00000080,-0.00002435,0.00003328,-0.00004381,0
 .00010855,0.00062210,-0.00085125,-0.00004820,-0.00006430,-0.00008997,-
 0.00046813,-0.00061006,0.00018846,0.00049157,-0.00334473,0.00049834,0.
 08018145,0.34208836,-0.00000022,-0.00000021,0.00000158,0.00000105,-0.0
 0000043,0.00000130,-0.00000182,0.00000861,0.00002324,0.00000688,-0.000
 00809,-0.00003553,-0.00003764,0.00003476,0.00009545,-0.00004009,-0.000
 00717,0.00003175,-0.00000091,-0.00003876,-0.00009519,0.00012104,0.0009
 8592,0.00754170,0.00009668,0.00118338,0.00486639,-0.00007728,-0.000239
 79,-0.00094736,-0.00050766,0.00101412,0.00535829,0.00103705,0.00279004
 ,0.00298980,0.01189093,0.04620136,-0.04669742,-0.00000014,-0.00000018,
 0.00000012,-0.00000065,0.00000144,-0.00000064,0.00000107,-0.00000104,-
 0.00000165,-0.00000100,-0.00000318,-0.00000174,0.00000032,0.00000205,-
 0.00000141,0.00000235,-0.00000119,-0.00000420,-0.00000080,-0.00000045,
 0.00000009,0.00000072,-0.00000446,-0.00000118,-0.00000025,-0.00004479,
 -0.00024410,0.00003210,-0.00090741,-0.00457696,0.00000130,-0.00008906,
 -0.00061054,0.00007711,0.00017879,0.00052822,-0.00002417,0.00047104,-0
 .00013699,-0.01298678,-0.05066026,0.03466216,-0.00001853,-0.00005939,0
 .00000189,-0.00002298,0.00011773,0.00000787,0.00036165,-0.00022590,0.0
 0008523,-0.00137422,-0.00040396,-0.00011640,0.00287508,-0.00123005,0.0
 0014548,-0.00075763,0.00056450,-0.00010077,-0.00411167,-0.00014442,0.0
 0021903,0.00271071,0.00242839,-0.00030644,-0.00298522,-0.00071179,-0.0
 0128745,-0.00038655,0.00053747,-0.00030418,-0.00345562,0.00089113,0.00
 183358,-0.01134322,0.02434402,0.01590468,-0.00062002,-0.00527395,0.004
 05845,-0.00004478,-0.00000473,-0.00000116,0.00000637,0.00001273,-0.000
 00366,0.00000303,0.00001129,0.00000328,0.00000881,-0.00000678,-0.00000
 146,0.00000219,-0.00001308,0.00000323,-0.00010278,0.00005809,0.0000226
 3,-0.00002076,0.00002025,0.00000396,0.00004648,0.00015142,0.00002611,-
 0.00007397,0.00019661,0.00000292,-0.00033701,-0.00040604,-0.00028645,-
 0.00025863,-0.00021193,0.00000134,-0.00133789,0.00006692,0.00037167,-0
 .08241576,0.03308904,0.02929657,0.00025912,0.00009118,0.00040036,0.096
 62766,0.00001120,0.00002619,-0.00000144,0.00000551,-0.00005684,-0.0000
 0836,-0.00014409,0.00007876,-0.00004401,0.00062247,0.00025943,0.000073
 84,-0.00130158,0.00033727,-0.00010556,0.00039151,-0.00011361,0.0000551
 2,0.00197291,0.00026757,-0.00016887,-0.00178512,-0.00027870,-0.0001231
 1,0.00043733,-0.00042577,0.00075033,0.00105021,0.00137630,0.00086848,0
 .00033200,-0.00317980,0.00140005,-0.00453004,-0.00842946,-0.00631229,0
 .00260991,0.00299652,-0.00182550,0.00002128,0.00000277,-0.00000018,-0.
 00000372,-0.00000634,-0.00000166,-0.00000410,-0.00000275,0.00000375,-0
 .00000219,0.00000718,0.00000872,0.00000118,0.00000648,-0.00000568,0.00
 004101,-0.00002045,-0.00000025,0.00000829,-0.00001119,-0.00000645,-0.0
 0001119,-0.00008596,-0.00003690,0.00007768,-0.00012147,-0.00002876,0.0
 0024713,0.00028676,0.00009829,0.00039001,0.00009975,0.00001931,-0.0005
 3928,0.00152384,-0.00090827,0.03224870,-0.14012512,-0.06244119,-0.0006
 7008,0.00026601,-0.00024603,-0.02734814,0.20980315,0.00001011,0.000028
 91,-0.00000157,0.00001040,-0.00005723,-0.00001400,-0.00016233,0.000100
 01,-0.00006397,0.00064812,0.00022302,0.00009468,-0.00131806,0.00047040
 ,-0.00009841,0.00043146,-0.00019513,0.00010632,0.00186905,0.00005387,-
 0.00001145,-0.00134074,-0.00054991,-0.00014407,0.00096515,-0.00105148,
 0.00068340,0.00059308,0.00000197,0.00038061,0.00195820,0.00014755,-0.0
 0001684,-0.00132685,-0.01552381,-0.00122067,0.00314374,0.00392687,-0.0
 0195358,0.00002189,0.00000230,-0.00000087,-0.00000203,-0.00000927,0.00
 000221,-0.00000366,-0.00000203,0.00000248,-0.00000236,0.00000951,0.000
 00682,-0.00000129,0.00000224,0.00000095,0.00004234,-0.00002154,-0.0000
 0292,0.00001112,-0.00001409,-0.00000238,-0.00002301,-0.00008030,-0.000
 04197,0.00002960,-0.00009556,-0.00006543,0.00029212,0.00032883,0.00008
 055,0.00024235,0.00010545,-0.00007627,0.00066503,-0.00016245,-0.000616
 07,0.02938030,-0.06101542,-0.11286691,-0.00024944,-0.00001781,-0.00029
 325,-0.02585115,0.09935412,0.15582850,-0.00001043,-0.00003658,0.000000
 94,-0.00001114,0.00006976,0.00000211,0.00023682,-0.00014366,0.00005011
 ,-0.00083302,-0.00024011,-0.00004638,0.00167846,-0.00059584,0.00006889
 ,-0.00045700,0.00027834,-0.00005192,-0.00213579,0.00003060,0.00003905,
 0.00152015,0.00040467,-0.00009517,-0.00050414,-0.00053031,0.00008713,-
 0.00080911,0.00016626,-0.00003329,0.00004006,0.00072211,-0.00010913,-0
 .00269390,-0.00151019,0.00025926,0.00054621,-0.00025439,0.00005677,-0.
 00003024,-0.00000547,-0.00000094,0.00000502,0.00000881,-0.00000282,0.0
 0000224,0.00000885,0.00000346,0.00000605,-0.00000291,0.00000089,0.0000
 0112,-0.00000868,0.00000211,-0.00006170,0.00003607,0.00001505,-0.00000
 785,0.00001416,0.00000012,0.00003196,0.00008710,0.00001472,-0.00000276
 ,0.00009307,-0.00000829,0.00000834,-0.00005399,0.00001324,-0.00017191,
 -0.00009932,0.00002095,0.00014944,0.00029996,-0.00003964,-0.18769923,-
 0.03025144,0.00542773,0.00037993,-0.00034073,0.00004286,-0.01438967,-0
 .02023748,-0.00929877,0.29473806,-0.00000094,-0.00000907,-0.00000003,-
 0.00000583,0.00001421,0.00000132,0.00006254,-0.00004424,0.00000782,-0.
 00019443,-0.00001886,-0.00000885,0.00042074,-0.00029956,0.00004938,-0.
 00010092,0.00017114,-0.00002969,-0.00055923,0.00008499,0.00000431,0.00
 031178,0.00033719,-0.00007882,-0.00056149,0.00009897,-0.00000922,0.000
 10681,0.00045460,-0.00007627,0.00068110,-0.00037273,0.00009991,-0.0015
 8740,0.00319926,-0.00006884,-0.00020951,-0.00088733,0.00018032,-0.0000
 0582,-0.00000015,-0.00000019,-0.00000003,0.00000218,-0.00000305,-0.000
 00089,0.00000218,0.00000315,0.00000227,0.00000065,0.00000352,0.0000009
 2,-0.00000048,-0.00000292,-0.00001718,0.00001007,0.00000806,-0.0000036
 9,0.00000271,-0.00000228,0.00001197,0.00001184,-0.00000364,0.00001694,
 0.00001024,-0.00000621,-0.00005394,-0.00004415,-0.00000082,0.00002288,
 -0.00001304,-0.00000602,0.00015455,0.00041703,-0.00008824,-0.03034781,
 -0.06987279,0.00139968,-0.00015617,0.00017857,-0.00005738,-0.03781020,
 -0.02982044,-0.01991373,0.04748110,0.11029730,0.00000067,0.00000191,-0
 .00000114,0.00000051,-0.00000280,-0.00000572,-0.00000797,0.00000305,-0
 .00001737,0.00003088,0.00001037,0.00002557,-0.00007447,0.00005921,-0.0
 0005244,0.00001454,-0.00003122,0.00005250,0.00010081,-0.00000554,0.000
 06821,-0.00005455,-0.00006903,-0.00009459,0.00008421,-0.00002041,-0.00
 000030,-0.00000894,-0.00007185,0.00002922,-0.00011336,0.00009565,0.000
 22823,0.00028600,-0.00007032,0.00271420,0.00003562,0.00018209,0.000215
 32,0.00000157,0.00000029,-0.00000078,0.00000073,-0.00000268,0.00000145
 ,-0.00000129,0.00000166,0.00000174,0.00000053,0.00000389,0.00000269,-0
 .00000048,-0.00000305,0.00000276,-0.00000028,0.00000234,0.00000342,0.0
 0000180,-0.00000329,0.00000134,-0.00000419,-0.00000926,-0.00001728,-0.
 00000262,-0.00000857,-0.00003796,0.00000877,-0.00000177,-0.00005743,-0
 .00000359,-0.00000609,-0.00005422,-0.00002929,-0.00009080,-0.00018969,
 0.00542357,0.00137354,-0.06242995,0.00002295,-0.00005706,-0.00019515,-
 0.02173120,-0.02374607,-0.00237478,-0.00853551,-0.00211681,0.09896237,
 -0.00001220,-0.00004109,0.00000069,-0.00001606,0.00008039,0.00000318,0
 .00025569,-0.00016105,0.00005454,-0.00095311,-0.00024517,-0.00007805,0
 .00202166,-0.00096195,0.00018694,-0.00048202,0.00048300,-0.00010128,-0
 .00288865,0.00005076,0.00005610,0.00234404,-0.00082936,0.00012899,0.00
 060115,-0.00074724,0.00042787,-0.00251561,-0.00067971,-0.00085631,-0.0
 0155804,0.00385498,0.00174254,-0.00255058,-0.01802788,0.01671734,-0.00
 330085,-0.00020691,0.00219995,-0.00003146,-0.00000350,-0.00000094,0.00
 000464,0.00000860,-0.00000285,0.00000171,0.00000874,0.00000366,0.00000
 632,-0.00000350,0.00000057,0.00000170,-0.00000951,0.00000199,-0.000073
 12,0.00004118,0.00001761,-0.00001385,0.00001512,0.00000125,0.00003828,
 0.00010318,0.00001373,-0.00002314,0.00012666,-0.00004344,0.00002992,0.
 00002143,-0.00000229,-0.00044416,-0.00016461,-0.00023216,0.00001276,-0
 .00013980,0.00031504,-0.06770709,-0.00041886,-0.00044210,-0.00115376,-
 0.00124663,0.00040056,0.00472242,0.01497854,-0.00518259,-0.03806153,0.
 02046062,-0.04008209,0.09560921,-0.00000898,-0.00004059,0.00000368,-0.
 00002230,0.00007523,0.00000767,0.00024724,-0.00016995,0.00005640,-0.00
 091114,-0.00015016,-0.00009223,0.00208019,-0.00142363,0.00033107,-0.00
 042432,0.00076686,-0.00020535,-0.00331791,0.00027822,0.00012177,0.0026
 1358,0.00014660,0.00009776,-0.00103109,0.00039142,-0.00089932,-0.00144
 783,-0.00051368,-0.00100996,-0.00341091,0.00321738,0.00180109,0.004111
 21,-0.00914480,0.01576026,0.00012776,-0.00352703,0.00073745,-0.0000265
 1,0.00000002,-0.00000022,0.00000046,0.00001001,-0.00000832,-0.00000041
 ,0.00000593,0.00000527,0.00000747,-0.00000494,0.00000424,0.00000300,-0
 .00000308,-0.00000658,-0.00007398,0.00003821,0.00002054,-0.00002055,0.
 00001457,-0.00000389,0.00004388,0.00009067,0.00001233,0.00003730,0.000
 12424,-0.00001012,-0.00023475,-0.00017001,-0.00002342,-0.00056974,-0.0
 0014297,-0.00022488,0.00045300,0.00051985,0.00020408,0.00043880,-0.115
 72419,0.07085729,-0.00037174,0.00118832,0.00042819,0.00822279,-0.03926
 670,0.01727805,0.00726107,0.00442040,0.00891743,-0.01732596,0.15091517
 ,0.00000923,0.00003705,-0.00000374,0.00001873,-0.00006720,-0.00001569,
 -0.00021218,0.00014096,-0.00008182,0.00081202,0.00016591,0.00012753,-0
 .00180576,0.00114390,-0.00031449,0.00042201,-0.00060632,0.00024560,0.0
 0275620,-0.00018716,-0.00000510,-0.00197414,-0.00041080,-0.00019853,0.
 00088741,0.00007468,0.00060541,0.00058532,0.00146439,0.00055789,0.0057
 5286,-0.00300929,-0.00140521,-0.01011204,0.01386032,-0.00888203,0.0017
 2612,0.00199559,-0.00029602,0.00002478,0.00000044,-0.00000089,0.000000
 47,-0.00001223,0.00000773,-0.00000201,-0.00000251,-0.00000053,-0.00000
 477,0.00001089,0.00000203,-0.00000301,-0.00000100,0.00000827,0.0000593
 1,-0.00002914,-0.00000999,0.00001940,-0.00001754,0.00000305,-0.0000425
 2,-0.00008995,-0.00003586,-0.00003233,-0.00010579,-0.00003820,0.000200
 58,0.00013725,-0.00008142,0.00071792,0.00014087,0.00017425,-0.00035294
 ,-0.00034632,-0.00031625,0.00016260,0.06974887,-0.15484794,0.00072380,
 -0.00018991,-0.00112703,0.00093994,-0.00332651,0.00702231,-0.02282449,
 0.01258923,-0.01297286,0.02527143,-0.10066325,0.21945832,-0.00001235,-
 0.00004245,0.00000257,-0.00001483,0.00008209,0.00000218,0.00025698,-0.
 00016149,0.00005477,-0.00096402,-0.00024144,-0.00005328,0.00206150,-0.
 00099372,0.00013396,-0.00048641,0.00049702,-0.00011520,-0.00294908,0.0
 0004939,0.00005970,0.00239715,-0.00086523,-0.00002191,0.00060013,-0.00
 079678,-0.00011467,-0.00255600,-0.00037173,0.00103645,-0.00157642,0.00
 320763,-0.00285109,-0.00272899,-0.02246820,-0.01061059,-0.00321676,-0.
 00092904,-0.00195997,-0.00003189,-0.00000370,-0.00000107,0.00000447,0.
 00000909,-0.00000326,0.00000181,0.00000864,0.00000322,0.00000731,-0.00
 000384,0.00000061,0.00000073,-0.00000974,0.00000226,-0.00007508,0.0000
 4047,0.00001552,-0.00001246,0.00001664,0.00000092,0.00003672,0.0001021
 0,0.00001627,-0.00002068,0.00013642,0.00002360,0.00002897,0.00002202,0
 .00001282,-0.00044662,-0.00008317,0.00029440,0.00001050,-0.00022273,-0
 .00026286,-0.06772763,-0.00098388,-0.00066150,-0.00104412,-0.00138119,
 -0.00000776,0.00785650,0.00048858,-0.00038080,-0.03742821,0.03130012,0
 .03255497,0.00829479,0.00024952,-0.00024282,0.09500231,-0.00001053,-0.
 00004913,0.00000077,-0.00002810,0.00009139,0.00000215,0.00030999,-0.00
 021752,0.00004346,-0.00113219,-0.00017854,-0.00003641,0.00254705,-0.00
 171003,0.00019419,-0.00052476,0.00091956,-0.00012706,-0.00401845,0.000
 27153,-0.00004990,0.00309415,0.00019198,-0.00038242,-0.00123996,0.0006
 2779,0.00094513,-0.00156672,-0.00052364,0.00133233,-0.00492299,0.00313
 818,-0.00316490,0.00659696,-0.01744369,-0.01315243,-0.00040926,-0.0039
 6525,0.00048613,-0.00003162,0.00000050,-0.00000148,0.00000238,0.000007
 76,-0.00000789,-0.00000301,0.00001095,0.00001088,0.00001098,0.00000205
 ,0.00001045,0.00000289,-0.00001044,-0.00000363,-0.00009972,0.00005432,
 0.00003329,-0.00001973,0.00001535,-0.00000460,0.00004769,0.00010021,-0
 .00000835,0.00004557,0.00013883,-0.00002825,-0.00029387,-0.00018353,0.
 00008279,-0.00075009,-0.00008499,0.00033300,0.00053653,0.00047654,-0.0
 0044395,-0.00027277,-0.15887509,-0.06942324,-0.00073404,0.00095980,-0.
 00106499,0.00408394,-0.00206663,-0.00569863,0.01367571,-0.00333270,-0.
 01219120,0.00035800,0.00691076,0.00286964,-0.02270512,0.21392727,-0.00
 000465,-0.00002198,-0.00000289,-0.00001258,0.00004019,-0.00000398,0.00
 013881,-0.00010089,0.00000567,-0.00051177,-0.00008751,0.00002415,0.001
 09395,-0.00063502,-0.00000374,-0.00027638,0.00034112,0.00001668,-0.001
 61882,0.00009446,0.00008030,0.00109604,0.00027491,-0.00030550,-0.00054
 162,-0.00007432,0.00035730,-0.00012186,-0.00111081,0.00058251,-0.00445
 274,0.00156185,-0.00129106,0.00839647,-0.01095723,-0.00042724,-0.00162
 744,-0.00080563,0.00029131,-0.00001388,0.00000044,-0.00000154,0.000002
 12,0.00000059,-0.00000148,-0.00000295,0.00000726,0.00000697,0.00000603
 ,0.00000575,0.00000760,0.00000038,-0.00000927,0.00000199,-0.00004835,0
 .00002939,0.00001936,-0.00000523,0.00000468,0.00000085,0.00001606,0.00
 003498,-0.00002480,0.00002267,0.00004463,-0.00004917,-0.00012531,-0.00
 009720,-0.00004635,-0.00051057,-0.00005385,0.00013847,0.00019529,0.000
 10001,-0.00028089,-0.00143095,-0.06824377,-0.11124667,-0.00053979,-0.0
 0040047,-0.00081043,0.00223333,-0.00487061,0.00060583,0.01998528,-0.01
 602014,-0.00596256,-0.00061519,-0.01896326,-0.04499453,-0.01745223,0.1
 0244809,0.15638296,-0.00001782,-0.00005893,0.00000117,-0.00002156,0.00
 011626,0.00000378,0.00036183,-0.00023216,0.00008193,-0.00138082,-0.000
 39567,-0.00005786,0.00289342,-0.00124261,0.00017776,-0.00072013,0.0005
 6648,-0.00013261,-0.00411961,-0.00017685,0.00002999,0.00267331,0.00237
 956,-0.00057898,-0.00295184,-0.00020728,0.00149021,-0.00036413,0.00059
 505,0.00006717,-0.00362042,0.00021141,-0.00197181,-0.01151933,0.018750
 89,-0.02241353,-0.00079994,-0.00632551,-0.00219928,-0.00004429,-0.0000
 0456,-0.00000181,0.00000648,0.00001114,-0.00000298,0.00000207,0.000012
 55,0.00000461,0.00000992,-0.00000411,0.00000081,0.00000069,-0.00001555
 ,0.00000537,-0.00010761,0.00005919,0.00002184,-0.00001505,0.00002266,0
 .00000155,0.00003828,0.00015139,0.00002400,-0.00007331,0.00018681,-0.0
 0005062,-0.00036068,-0.00028178,0.00043355,-0.00026140,-0.00020171,0.0
 0007652,-0.00164648,0.00002532,-0.00061077,-0.08355163,0.02391378,-0.0
 3815268,0.00026412,-0.00004518,-0.00042521,0.00857690,0.00064155,0.004
 82904,-0.01403620,-0.02941886,0.03208170,0.00784092,0.00330085,-0.0034
 8110,0.00473169,0.00745108,-0.00327411,0.09821263,0.00000740,0.0000155
 5,-0.00000045,0.00000211,-0.00003614,0.00000360,-0.00008902,0.00004706
 ,-0.00002228,0.00039833,0.00016918,0.00000690,-0.00084611,0.00019791,0
 .00004390,0.00022735,-0.00004774,0.00000278,0.00131442,0.00027575,-0.0
 0000929,-0.00128884,-0.00008288,0.00019033,0.00012380,-0.00025171,-0.0
 0047711,0.00078001,0.00107661,-0.00107921,-0.00033003,-0.00344599,-0.0
 0035994,-0.00385961,-0.00166471,0.00656128,0.00159308,0.00199123,0.000
 58031,0.00001285,0.00000174,0.00000119,-0.00000366,-0.00000109,-0.0000
 0326,-0.00000176,-0.00000413,0.00000112,-0.00000149,0.00000135,0.00000
 308,0.00000123,0.00000825,-0.00000749,0.00002941,-0.00001719,-0.000000
 94,0.00000269,-0.00000496,-0.00000453,0.00000052,-0.00005339,-0.000008
 01,0.00006883,-0.00007743,0.00002823,0.00015910,0.00013837,-0.00014225
 ,0.00030049,0.00004564,-0.00006854,-0.00066755,0.00154098,0.00019285,0
 .02310533,-0.10257925,0.05891937,-0.00056517,0.00030129,0.00007517,-0.
 00103716,0.00667325,-0.01762470,-0.01632656,-0.01499797,0.02785642,0.0
 0062151,0.00116786,0.00468494,0.01605371,-0.03920359,0.01746357,-0.019
 78520,0.14881613,-0.00001046,-0.00003255,-0.00000162,-0.00001091,0.000
 06629,-0.00000819,0.00019707,-0.00013185,0.00002884,-0.00078398,-0.000
 24857,0.00001901,0.00158835,-0.00051151,-0.00004614,-0.00049340,0.0002
 0017,0.00000761,-0.00228130,-0.00013548,0.00012057,0.00174789,0.000462
 42,-0.00041233,-0.00097777,0.00136987,0.00050611,-0.00085684,-0.000248
 99,0.00069034,-0.00194407,0.00094729,0.00022841,0.00277723,0.01537652,
 -0.00786719,-0.00384224,-0.00505000,-0.00076272,-0.00002396,-0.0000020
 6,-0.00000257,0.00000542,0.00000175,0.00000213,-0.00000082,0.00001037,
 0.00000443,0.00000641,0.00000322,0.00000367,-0.00000132,-0.00001584,0.
 00000981,-0.00006479,0.00004030,0.00001545,-0.00000375,0.00000881,0.00
 000534,0.00000811,0.00007549,-0.00001415,-0.00005089,0.00009378,-0.000
 09695,-0.00036133,-0.00032590,0.00025331,-0.00034542,-0.00013914,-0.00
 001290,-0.00072354,-0.00055915,-0.00100827,-0.03801748,0.05754129,-0.1
 4942145,0.00043687,-0.00017479,-0.00031931,-0.00557123,0.00157567,-0.0
 4494927,0.01495568,0.02414645,-0.01784481,0.00009532,0.00546621,-0.002
 58425,0.00052479,-0.00300300,0.00693088,0.03402236,-0.09680707,0.21652
 622\\0.00000091,-0.00000203,-0.00000175,-0.00000265,-0.00000013,0.0000
 0267,0.00001481,-0.00000850,-0.00000126,-0.00001584,-0.00001829,-0.000
 00126,0.00001226,0.00002297,0.00000559,0.00000143,-0.00000307,-0.00000
 478,-0.00001183,-0.00000500,0.00001730,0.00000851,0.00000484,-0.000014
 03,-0.00000433,-0.00000240,0.00000156,0.00000243,-0.00000184,0.0000017
 9,0.00000579,-0.00000097,0.00000360,-0.00002993,-0.00000195,0.00000401
 ,0.00001656,-0.00000262,0.00000061,0.00000070,0.00000206,0.00000012,-0
 .00000071,-0.00000158,0.00000025,-0.00000018,0.00000089,-0.00000252,0.
 00000058,-0.00000186,0.00000254,0.00000171,0.00000054,-0.00000230,0.00
 000083,0.00000549,-0.00000493,-0.00000241,0.00000132,0.00000024,0.0000
 0064,0.00000638,0.00000034,0.,0.00000009,-0.00000746,-0.00000605,-0.00
 000164,-0.00000065,-0.00000095,0.00000129,0.00000470,-0.00000040,0.000
 00043,0.00000358,0.00001223,0.00001154,-0.00000904,-0.00000228,0.00000
 025,-0.00000176,0.00000052,-0.00000902,0.00000796,0.00000650,-0.000011
 27,0.00001467,-0.00000854,0.00000792,-0.00001589,-0.00000354,-0.000004
 63,0.00000789,0.00000324,0.00001079,-0.00001178\\\@


 Time has a wonderful way of weeding out the trivial.
                                -- Richard Ben Sapir
 Job cpu time:       0 days  3 hours 40 minutes 13.7 seconds.
 File lengths (MBytes):  RWF=    668 Int=      0 D2E=      0 Chk=     22 Scr=      1
 Normal termination of Gaussian 09 at Mon Feb 25 14:20:23 2019.
WARNING: pbs_rusage is deprecated and values produced may not be accurate


=============================================================================
                                     Resource usage:
                                       CPU time:              16:05:20
   JobId:    6128701.r-man2            Elapsed time:          04:35:12
   Project:             q95            Requested time:        38:00:00
   Service Units:     18.35 
                                       Max physical memory:      768MB
                                       Max virtual memory:      1908MB
                                       Requested memory:           0MB

                                       Number of cpus:               4

                                       Max jobfs disk use:       0.7GB
                                       Requested jobfs:         16.0GB
=============================================================================

