 Entering Gaussian System, Link 0=/apps/gaussian/g09e01/g09/g09
 AtFile(1): /home/507/hio507/Basis/6-31pGd.gbs
 Initial command:
 /apps/gaussian/g09e01/g09/l1.exe "/jobfs/local/6286804.r-man2/Gau-56845.inp" -scrdir="/jobfs/local/6286804.r-man2/"
 Entering Link 1 = /apps/gaussian/g09e01/g09/l1.exe PID=     56846.
  
 Copyright (c) 1988,1990,1992,1993,1995,1998,2003,2009,2015,
            Gaussian, Inc.  All Rights Reserved.
  
 This is part of the Gaussian(R) 09 program.  It is based on
 the Gaussian(R) 03 system (copyright 2003, Gaussian, Inc.),
 the Gaussian(R) 98 system (copyright 1998, Gaussian, Inc.),
 the Gaussian(R) 94 system (copyright 1995, Gaussian, Inc.),
 the Gaussian 92(TM) system (copyright 1992, Gaussian, Inc.),
 the Gaussian 90(TM) system (copyright 1990, Gaussian, Inc.),
 the Gaussian 88(TM) system (copyright 1988, Gaussian, Inc.),
 the Gaussian 86(TM) system (copyright 1986, Carnegie Mellon
 University), and the Gaussian 82(TM) system (copyright 1983,
 Carnegie Mellon University). Gaussian is a federally registered
 trademark of Gaussian, Inc.
  
 This software contains proprietary and confidential information,
 including trade secrets, belonging to Gaussian, Inc.
  
 This software is provided under written license and may be
 used, copied, transmitted, or stored only in accord with that
 written license.
  
 The following legend is applicable only to US Government
 contracts under FAR:
  
                    RESTRICTED RIGHTS LEGEND
  
 Use, reproduction and disclosure by the US Government is
 subject to restrictions as set forth in subparagraphs (a)
 and (c) of the Commercial Computer Software - Restricted
 Rights clause in FAR 52.227-19.
  
 Gaussian, Inc.
 340 Quinnipiac St., Bldg. 40, Wallingford CT 06492
  
  
 ---------------------------------------------------------------
 Warning -- This program may not be used in any manner that
 competes with the business of Gaussian, Inc. or will provide
 assistance to any competitor of Gaussian, Inc.  The licensee
 of this program is prohibited from giving any competitor of
 Gaussian, Inc. access to this program.  By using this program,
 the user acknowledges that Gaussian, Inc. is engaged in the
 business of creating and licensing software in the field of
 computational chemistry and represents and warrants to the
 licensee that it is not a competitor of Gaussian, Inc. and that
 it will not use this program in any manner prohibited above.
 ---------------------------------------------------------------
  

 Cite this work as:
 Gaussian 09, Revision E.01,
 M. J. Frisch, G. W. Trucks, H. B. Schlegel, G. E. Scuseria, 
 M. A. Robb, J. R. Cheeseman, G. Scalmani, V. Barone, B. Mennucci, 
 G. A. Petersson, H. Nakatsuji, M. Caricato, X. Li, H. P. Hratchian, 
 A. F. Izmaylov, J. Bloino, G. Zheng, J. L. Sonnenberg, M. Hada, 
 M. Ehara, K. Toyota, R. Fukuda, J. Hasegawa, M. Ishida, T. Nakajima, 
 Y. Honda, O. Kitao, H. Nakai, T. Vreven, J. A. Montgomery, Jr., 
 J. E. Peralta, F. Ogliaro, M. Bearpark, J. J. Heyd, E. Brothers, 
 K. N. Kudin, V. N. Staroverov, T. Keith, R. Kobayashi, J. Normand, 
 K. Raghavachari, A. Rendell, J. C. Burant, S. S. Iyengar, J. Tomasi, 
 M. Cossi, N. Rega, J. M. Millam, M. Klene, J. E. Knox, J. B. Cross, 
 V. Bakken, C. Adamo, J. Jaramillo, R. Gomperts, R. E. Stratmann, 
 O. Yazyev, A. J. Austin, R. Cammi, C. Pomelli, J. W. Ochterski, 
 R. L. Martin, K. Morokuma, V. G. Zakrzewski, G. A. Voth, 
 P. Salvador, J. J. Dannenberg, S. Dapprich, A. D. Daniels, 
 O. Farkas, J. B. Foresman, J. V. Ortiz, J. Cioslowski, 
 and D. J. Fox, Gaussian, Inc., Wallingford CT, 2013.
 
 ******************************************
 Gaussian 09:  ES64L-G09RevE.01 30-Nov-2015
                 1-Mar-2019 
 ******************************************
 %chk=4SF5_EtO.M062X_6-31pGd_opt_water.chk
 %mem=196608000
 %nproc=8
 Will use up to    8 processors via shared memory.
 ----------------------------------------------------------------------
 # M062X/Gen 6D SCF=Tight INT(grid=ultrafine) OPT=(CalcFC,MaxStep=1) IO
 P(2/17=4) SCRF=(SMD,Solvent=h2o) maxdisk=3221225472
 ----------------------------------------------------------------------
 1/8=1,10=4,14=-1,18=20,19=15,26=4,38=1/1,3;
 2/9=110,12=2,17=4,18=5,40=1/2;
 3/5=7,8=2,11=2,16=1,25=1,30=1,70=32201,71=2,72=1,74=-55,75=-5,140=1/1,2,3;
 4//1;
 5/5=2,32=2,38=5,53=1/2;
 8/6=4,10=90,11=11/1;
 11/6=1,8=1,9=11,15=111,16=1/1,2,10;
 10/6=1,13=1/2;
 6/7=2,8=2,9=2,10=2,28=1/1;
 7/10=1,18=20,25=1/1,2,3,16;
 1/8=1,10=4,14=-1,18=20,19=15,26=4/3(2);
 2/9=110,17=4/2;
 99//99;
 2/9=110,17=4/2;
 3/5=7,6=1,8=2,11=2,16=1,25=1,30=1,70=32205,71=1,72=1,74=-55,75=-5,82=7/1,2,3;
 4/5=5,16=3,69=1/1;
 5/5=2,32=2,38=5,53=1/2;
 7//1,2,3,16;
 1/8=1,14=-1,18=20,19=15,26=4/3(-5);
 2/9=110,17=4/2;
 6/7=2,8=2,9=2,10=2,19=2,28=1/1;
 99/9=1/99;
 --------------------------------
 4SF5_EtO.M062X_6-31pGd_opt_water
 --------------------------------
 Symbolic Z-matrix:
 Charge = -1 Multiplicity = 1
 C                    -2.16035   2.33786  -0.08902 
 C                    -0.81572   1.63174   0.05979 
 C                     0.34762   2.58464  -0.18698 
 N                     1.6064    1.88573  -0.03144 
 C                     2.77406   2.553    -0.16217 
 O                     2.83824   3.76025  -0.4135 
 N                     3.88816   1.74149   0.018 
 C                     5.21268   2.11074  -0.05294 
 C                     5.67333   3.41248  -0.33731 
 C                     6.16373   1.09074   0.17941 
 C                     7.52015   1.35459   0.12996 
 C                     7.94855   2.65126  -0.15436 
 C                     7.03668   3.67488  -0.38661 
 H                    -2.99215   1.64782   0.08637 
 H                    -2.27863   2.75481  -1.09619 
 H                    -2.2544    3.16373   0.62605 
 H                    -0.74864   0.79156  -0.64159 
 H                    -0.72117   1.20228   1.06432 
 H                     0.30151   3.42811   0.51561 
 H                     0.27583   3.0144   -1.19645 
 H                     1.59188   0.86753   0.16099 
 H                     3.72198   0.73704   0.24182 
 H                     4.95857   4.20327  -0.51593 
 H                     5.80663   0.088     0.39937 
 H                     8.23287   0.55709   0.31133 
 S                     9.70777   3.00144  -0.22115 
 H                     7.37611   4.68159  -0.60709 
 F                     10.03797   1.67594  -1.09294 
 F                     11.29993   3.31565  -0.28106 
 F                     9.58655   3.86823  -1.58526 
 F                     9.57222   4.36616   0.64247 
 F                     10.02353   2.17397   1.1359 
 O                     1.46941  -0.88457   0.49608 
 O                     3.70626  -0.95509   0.63298 
 C                     2.56055  -1.48019   0.69025 
 C                     2.47008  -2.97413   1.0313 
 C                     3.81052  -3.67659   1.20044 
 H                     1.87549  -3.45003   0.24198 
 H                     1.86976  -3.05606   1.94629 
 H                     4.40594  -3.60903   0.28484 
 H                     3.67008  -4.73712   1.44163 
 H                     4.39519  -3.21584   2.0021 
 
 Add virtual bond connecting atoms O33        and H21        Dist= 3.38D+00.
 Add virtual bond connecting atoms O34        and H22        Dist= 3.28D+00.

 GradGradGradGradGradGradGradGradGradGradGradGradGradGradGradGradGradGrad
 Berny optimization.
 Initialization pass.
                           ----------------------------
                           !    Initial Parameters    !
                           ! (Angstroms and Degrees)  !
 --------------------------                            --------------------------
 ! Name  Definition              Value          Derivative Info.                !
 --------------------------------------------------------------------------------
 ! R1    R(1,2)                  1.526          calculate D2E/DX2 analytically  !
 ! R2    R(1,14)                 1.0949         calculate D2E/DX2 analytically  !
 ! R3    R(1,15)                 1.0965         calculate D2E/DX2 analytically  !
 ! R4    R(1,16)                 1.0965         calculate D2E/DX2 analytically  !
 ! R5    R(2,3)                  1.5239         calculate D2E/DX2 analytically  !
 ! R6    R(2,17)                 1.0965         calculate D2E/DX2 analytically  !
 ! R7    R(2,18)                 1.0966         calculate D2E/DX2 analytically  !
 ! R8    R(3,4)                  1.4482         calculate D2E/DX2 analytically  !
 ! R9    R(3,19)                 1.0987         calculate D2E/DX2 analytically  !
 ! R10   R(3,20)                 1.0995         calculate D2E/DX2 analytically  !
 ! R11   R(4,5)                  1.3512         calculate D2E/DX2 analytically  !
 ! R12   R(4,21)                 1.0363         calculate D2E/DX2 analytically  !
 ! R13   R(5,6)                  1.2348         calculate D2E/DX2 analytically  !
 ! R14   R(5,7)                  1.39           calculate D2E/DX2 analytically  !
 ! R15   R(7,8)                  1.3769         calculate D2E/DX2 analytically  !
 ! R16   R(7,22)                 1.0424         calculate D2E/DX2 analytically  !
 ! R17   R(8,9)                  1.4098         calculate D2E/DX2 analytically  !
 ! R18   R(8,10)                 1.4138         calculate D2E/DX2 analytically  !
 ! R19   R(9,13)                 1.3892         calculate D2E/DX2 analytically  !
 ! R20   R(9,23)                 1.0808         calculate D2E/DX2 analytically  !
 ! R21   R(10,11)                1.3827         calculate D2E/DX2 analytically  !
 ! R22   R(10,24)                1.0869         calculate D2E/DX2 analytically  !
 ! R23   R(11,12)                1.3949         calculate D2E/DX2 analytically  !
 ! R24   R(11,25)                1.0848         calculate D2E/DX2 analytically  !
 ! R25   R(12,13)                1.3904         calculate D2E/DX2 analytically  !
 ! R26   R(12,26)                1.795          calculate D2E/DX2 analytically  !
 ! R27   R(13,27)                1.085          calculate D2E/DX2 analytically  !
 ! R28   R(21,33)                1.7881         calculate D2E/DX2 analytically  !
 ! R29   R(22,34)                1.7368         calculate D2E/DX2 analytically  !
 ! R30   R(26,28)                1.6205         calculate D2E/DX2 analytically  !
 ! R31   R(26,29)                1.624          calculate D2E/DX2 analytically  !
 ! R32   R(26,30)                1.6207         calculate D2E/DX2 analytically  !
 ! R33   R(26,31)                1.6207         calculate D2E/DX2 analytically  !
 ! R34   R(26,32)                1.6205         calculate D2E/DX2 analytically  !
 ! R35   R(33,35)                1.2582         calculate D2E/DX2 analytically  !
 ! R36   R(34,35)                1.2616         calculate D2E/DX2 analytically  !
 ! R37   R(35,36)                1.535          calculate D2E/DX2 analytically  !
 ! R38   R(36,37)                1.5228         calculate D2E/DX2 analytically  !
 ! R39   R(36,38)                1.0968         calculate D2E/DX2 analytically  !
 ! R40   R(36,39)                1.0974         calculate D2E/DX2 analytically  !
 ! R41   R(37,40)                1.0943         calculate D2E/DX2 analytically  !
 ! R42   R(37,41)                1.0966         calculate D2E/DX2 analytically  !
 ! R43   R(37,42)                1.094          calculate D2E/DX2 analytically  !
 ! A1    A(2,1,14)             111.2329         calculate D2E/DX2 analytically  !
 ! A2    A(2,1,15)             111.1364         calculate D2E/DX2 analytically  !
 ! A3    A(2,1,16)             111.1313         calculate D2E/DX2 analytically  !
 ! A4    A(14,1,15)            107.7486         calculate D2E/DX2 analytically  !
 ! A5    A(14,1,16)            107.7617         calculate D2E/DX2 analytically  !
 ! A6    A(15,1,16)            107.6604         calculate D2E/DX2 analytically  !
 ! A7    A(1,2,3)              111.5629         calculate D2E/DX2 analytically  !
 ! A8    A(1,2,17)             110.2475         calculate D2E/DX2 analytically  !
 ! A9    A(1,2,18)             110.2751         calculate D2E/DX2 analytically  !
 ! A10   A(3,2,17)             109.1987         calculate D2E/DX2 analytically  !
 ! A11   A(3,2,18)             109.1118         calculate D2E/DX2 analytically  !
 ! A12   A(17,2,18)            106.2954         calculate D2E/DX2 analytically  !
 ! A13   A(2,3,4)              110.1442         calculate D2E/DX2 analytically  !
 ! A14   A(2,3,19)             110.1474         calculate D2E/DX2 analytically  !
 ! A15   A(2,3,20)             110.0747         calculate D2E/DX2 analytically  !
 ! A16   A(4,3,19)             109.7732         calculate D2E/DX2 analytically  !
 ! A17   A(4,3,20)             110.1213         calculate D2E/DX2 analytically  !
 ! A18   A(19,3,20)            106.5171         calculate D2E/DX2 analytically  !
 ! A19   A(3,4,5)              120.1604         calculate D2E/DX2 analytically  !
 ! A20   A(3,4,21)             118.8127         calculate D2E/DX2 analytically  !
 ! A21   A(5,4,21)             121.0148         calculate D2E/DX2 analytically  !
 ! A22   A(4,5,6)              123.1897         calculate D2E/DX2 analytically  !
 ! A23   A(4,5,7)              113.0649         calculate D2E/DX2 analytically  !
 ! A24   A(6,5,7)              123.7453         calculate D2E/DX2 analytically  !
 ! A25   A(5,7,8)              127.4287         calculate D2E/DX2 analytically  !
 ! A26   A(5,7,22)             117.5549         calculate D2E/DX2 analytically  !
 ! A27   A(8,7,22)             115.0138         calculate D2E/DX2 analytically  !
 ! A28   A(7,8,9)              124.9137         calculate D2E/DX2 analytically  !
 ! A29   A(7,8,10)             116.4337         calculate D2E/DX2 analytically  !
 ! A30   A(9,8,10)             118.6526         calculate D2E/DX2 analytically  !
 ! A31   A(8,9,13)             120.1463         calculate D2E/DX2 analytically  !
 ! A32   A(8,9,23)             119.5266         calculate D2E/DX2 analytically  !
 ! A33   A(13,9,23)            120.3271         calculate D2E/DX2 analytically  !
 ! A34   A(8,10,11)            121.0868         calculate D2E/DX2 analytically  !
 ! A35   A(8,10,24)            118.544          calculate D2E/DX2 analytically  !
 ! A36   A(11,10,24)           120.3692         calculate D2E/DX2 analytically  !
 ! A37   A(10,11,12)           119.075          calculate D2E/DX2 analytically  !
 ! A38   A(10,11,25)           119.8826         calculate D2E/DX2 analytically  !
 ! A39   A(12,11,25)           121.0424         calculate D2E/DX2 analytically  !
 ! A40   A(11,12,13)           121.1304         calculate D2E/DX2 analytically  !
 ! A41   A(11,12,26)           119.337          calculate D2E/DX2 analytically  !
 ! A42   A(13,12,26)           119.5326         calculate D2E/DX2 analytically  !
 ! A43   A(9,13,12)            119.9089         calculate D2E/DX2 analytically  !
 ! A44   A(9,13,27)            119.3047         calculate D2E/DX2 analytically  !
 ! A45   A(12,13,27)           120.7864         calculate D2E/DX2 analytically  !
 ! A46   A(12,26,28)            93.448          calculate D2E/DX2 analytically  !
 ! A47   A(12,26,30)            93.5746         calculate D2E/DX2 analytically  !
 ! A48   A(12,26,31)            93.582          calculate D2E/DX2 analytically  !
 ! A49   A(12,26,32)            93.4507         calculate D2E/DX2 analytically  !
 ! A50   A(28,26,29)            86.4824         calculate D2E/DX2 analytically  !
 ! A51   A(28,26,30)            89.9945         calculate D2E/DX2 analytically  !
 ! A52   A(28,26,32)            89.6067         calculate D2E/DX2 analytically  !
 ! A53   A(29,26,30)            86.4918         calculate D2E/DX2 analytically  !
 ! A54   A(29,26,31)            86.4877         calculate D2E/DX2 analytically  !
 ! A55   A(29,26,32)            86.4829         calculate D2E/DX2 analytically  !
 ! A56   A(30,26,31)            89.5357         calculate D2E/DX2 analytically  !
 ! A57   A(31,26,32)            90.0022         calculate D2E/DX2 analytically  !
 ! A58   A(21,33,35)           115.683          calculate D2E/DX2 analytically  !
 ! A59   A(22,34,35)           115.0841         calculate D2E/DX2 analytically  !
 ! A60   A(33,35,34)           125.6985         calculate D2E/DX2 analytically  !
 ! A61   A(33,35,36)           116.3522         calculate D2E/DX2 analytically  !
 ! A62   A(34,35,36)           117.9488         calculate D2E/DX2 analytically  !
 ! A63   A(35,36,37)           114.9451         calculate D2E/DX2 analytically  !
 ! A64   A(35,36,38)           107.1176         calculate D2E/DX2 analytically  !
 ! A65   A(35,36,39)           106.8668         calculate D2E/DX2 analytically  !
 ! A66   A(37,36,38)           110.9134         calculate D2E/DX2 analytically  !
 ! A67   A(37,36,39)           110.7617         calculate D2E/DX2 analytically  !
 ! A68   A(38,36,39)           105.7286         calculate D2E/DX2 analytically  !
 ! A69   A(36,37,40)           110.9502         calculate D2E/DX2 analytically  !
 ! A70   A(36,37,41)           110.9663         calculate D2E/DX2 analytically  !
 ! A71   A(36,37,42)           110.9502         calculate D2E/DX2 analytically  !
 ! A72   A(40,37,41)           108.2657         calculate D2E/DX2 analytically  !
 ! A73   A(40,37,42)           107.2374         calculate D2E/DX2 analytically  !
 ! A74   A(41,37,42)           108.335          calculate D2E/DX2 analytically  !
 ! A75   L(4,21,33,1,-1)       176.8742         calculate D2E/DX2 analytically  !
 ! A76   L(7,22,34,1,-1)       188.652          calculate D2E/DX2 analytically  !
 ! A77   L(12,26,29,28,-1)     179.9304         calculate D2E/DX2 analytically  !
 ! A78   L(28,26,31,12,-1)     187.03           calculate D2E/DX2 analytically  !
 ! A79   L(30,26,32,12,-1)     187.0253         calculate D2E/DX2 analytically  !
 ! A80   L(4,21,33,1,-2)       180.1067         calculate D2E/DX2 analytically  !
 ! A81   L(7,22,34,1,-2)       180.5074         calculate D2E/DX2 analytically  !
 ! A82   L(12,26,29,28,-2)     180.0663         calculate D2E/DX2 analytically  !
 ! A83   L(28,26,31,12,-2)     180.0319         calculate D2E/DX2 analytically  !
 ! A84   L(30,26,32,12,-2)     180.0236         calculate D2E/DX2 analytically  !
 ! D1    D(14,1,2,3)           179.8285         calculate D2E/DX2 analytically  !
 ! D2    D(14,1,2,17)           58.3182         calculate D2E/DX2 analytically  !
 ! D3    D(14,1,2,18)          -58.7527         calculate D2E/DX2 analytically  !
 ! D4    D(15,1,2,3)            59.773          calculate D2E/DX2 analytically  !
 ! D5    D(15,1,2,17)          -61.7372         calculate D2E/DX2 analytically  !
 ! D6    D(15,1,2,18)         -178.8081         calculate D2E/DX2 analytically  !
 ! D7    D(16,1,2,3)           -60.1029         calculate D2E/DX2 analytically  !
 ! D8    D(16,1,2,17)          178.3869         calculate D2E/DX2 analytically  !
 ! D9    D(16,1,2,18)           61.316          calculate D2E/DX2 analytically  !
 ! D10   D(1,2,3,4)            179.7077         calculate D2E/DX2 analytically  !
 ! D11   D(1,2,3,19)            58.4821         calculate D2E/DX2 analytically  !
 ! D12   D(1,2,3,20)           -58.6793         calculate D2E/DX2 analytically  !
 ! D13   D(17,2,3,4)           -58.176          calculate D2E/DX2 analytically  !
 ! D14   D(17,2,3,19)         -179.4015         calculate D2E/DX2 analytically  !
 ! D15   D(17,2,3,20)           63.4371         calculate D2E/DX2 analytically  !
 ! D16   D(18,2,3,4)            57.6161         calculate D2E/DX2 analytically  !
 ! D17   D(18,2,3,19)          -63.6095         calculate D2E/DX2 analytically  !
 ! D18   D(18,2,3,20)          179.2291         calculate D2E/DX2 analytically  !
 ! D19   D(2,3,4,5)           -177.7923         calculate D2E/DX2 analytically  !
 ! D20   D(2,3,4,21)             3.4615         calculate D2E/DX2 analytically  !
 ! D21   D(19,3,4,5)           -56.3435         calculate D2E/DX2 analytically  !
 ! D22   D(19,3,4,21)          124.9103         calculate D2E/DX2 analytically  !
 ! D23   D(20,3,4,5)            60.6224         calculate D2E/DX2 analytically  !
 ! D24   D(20,3,4,21)         -118.1238         calculate D2E/DX2 analytically  !
 ! D25   D(3,4,5,6)              0.0298         calculate D2E/DX2 analytically  !
 ! D26   D(3,4,5,7)            179.9047         calculate D2E/DX2 analytically  !
 ! D27   D(21,4,5,6)           178.7479         calculate D2E/DX2 analytically  !
 ! D28   D(21,4,5,7)            -1.3771         calculate D2E/DX2 analytically  !
 ! D29   D(3,4,33,35)         -176.9267         calculate D2E/DX2 analytically  !
 ! D30   D(5,4,33,35)            4.2334         calculate D2E/DX2 analytically  !
 ! D31   D(4,5,7,8)            179.7812         calculate D2E/DX2 analytically  !
 ! D32   D(4,5,7,22)            -0.8331         calculate D2E/DX2 analytically  !
 ! D33   D(6,5,7,8)             -0.3446         calculate D2E/DX2 analytically  !
 ! D34   D(6,5,7,22)           179.0411         calculate D2E/DX2 analytically  !
 ! D35   D(5,7,8,9)             -0.4326         calculate D2E/DX2 analytically  !
 ! D36   D(5,7,8,10)           179.6194         calculate D2E/DX2 analytically  !
 ! D37   D(22,7,8,9)          -179.8316         calculate D2E/DX2 analytically  !
 ! D38   D(22,7,8,10)            0.2204         calculate D2E/DX2 analytically  !
 ! D39   D(5,7,34,35)            3.3794         calculate D2E/DX2 analytically  !
 ! D40   D(8,7,34,35)         -177.4272         calculate D2E/DX2 analytically  !
 ! D41   D(7,8,9,13)          -179.8918         calculate D2E/DX2 analytically  !
 ! D42   D(7,8,9,23)             0.1337         calculate D2E/DX2 analytically  !
 ! D43   D(10,8,9,13)            0.0552         calculate D2E/DX2 analytically  !
 ! D44   D(10,8,9,23)         -179.9193         calculate D2E/DX2 analytically  !
 ! D45   D(7,8,10,11)          179.9053         calculate D2E/DX2 analytically  !
 ! D46   D(7,8,10,24)           -0.1024         calculate D2E/DX2 analytically  !
 ! D47   D(9,8,10,11)           -0.0461         calculate D2E/DX2 analytically  !
 ! D48   D(9,8,10,24)          179.9462         calculate D2E/DX2 analytically  !
 ! D49   D(8,9,13,12)           -0.0267         calculate D2E/DX2 analytically  !
 ! D50   D(8,9,13,27)          179.9736         calculate D2E/DX2 analytically  !
 ! D51   D(23,9,13,12)         179.9476         calculate D2E/DX2 analytically  !
 ! D52   D(23,9,13,27)          -0.052          calculate D2E/DX2 analytically  !
 ! D53   D(8,10,11,12)           0.008          calculate D2E/DX2 analytically  !
 ! D54   D(8,10,11,25)        -179.9952         calculate D2E/DX2 analytically  !
 ! D55   D(24,10,11,12)       -179.9842         calculate D2E/DX2 analytically  !
 ! D56   D(24,10,11,25)          0.0126         calculate D2E/DX2 analytically  !
 ! D57   D(10,11,12,13)          0.022          calculate D2E/DX2 analytically  !
 ! D58   D(10,11,12,26)       -179.9684         calculate D2E/DX2 analytically  !
 ! D59   D(25,11,12,13)       -179.9748         calculate D2E/DX2 analytically  !
 ! D60   D(25,11,12,26)          0.0348         calculate D2E/DX2 analytically  !
 ! D61   D(11,12,13,9)          -0.0126         calculate D2E/DX2 analytically  !
 ! D62   D(11,12,13,27)        179.9871         calculate D2E/DX2 analytically  !
 ! D63   D(26,12,13,9)         179.9778         calculate D2E/DX2 analytically  !
 ! D64   D(26,12,13,27)         -0.0226         calculate D2E/DX2 analytically  !
 ! D65   D(11,12,26,28)         44.7862         calculate D2E/DX2 analytically  !
 ! D66   D(11,12,26,30)        134.9963         calculate D2E/DX2 analytically  !
 ! D67   D(11,12,26,31)       -135.2458         calculate D2E/DX2 analytically  !
 ! D68   D(11,12,26,32)        -45.0273         calculate D2E/DX2 analytically  !
 ! D69   D(13,12,26,28)       -135.2043         calculate D2E/DX2 analytically  !
 ! D70   D(13,12,26,30)        -44.9943         calculate D2E/DX2 analytically  !
 ! D71   D(13,12,26,31)         44.7637         calculate D2E/DX2 analytically  !
 ! D72   D(13,12,26,32)        134.9822         calculate D2E/DX2 analytically  !
 ! D73   D(21,33,35,34)         -1.9398         calculate D2E/DX2 analytically  !
 ! D74   D(21,33,35,36)        177.7834         calculate D2E/DX2 analytically  !
 ! D75   D(22,34,35,33)         -0.2804         calculate D2E/DX2 analytically  !
 ! D76   D(22,34,35,36)       -179.9996         calculate D2E/DX2 analytically  !
 ! D77   D(33,35,36,37)        177.4701         calculate D2E/DX2 analytically  !
 ! D78   D(33,35,36,38)         53.7468         calculate D2E/DX2 analytically  !
 ! D79   D(33,35,36,39)        -59.1935         calculate D2E/DX2 analytically  !
 ! D80   D(34,35,36,37)         -2.7844         calculate D2E/DX2 analytically  !
 ! D81   D(34,35,36,38)       -126.5077         calculate D2E/DX2 analytically  !
 ! D82   D(34,35,36,39)        120.552          calculate D2E/DX2 analytically  !
 ! D83   D(35,36,37,40)        -59.5711         calculate D2E/DX2 analytically  !
 ! D84   D(35,36,37,41)       -179.9766         calculate D2E/DX2 analytically  !
 ! D85   D(35,36,37,42)         59.5303         calculate D2E/DX2 analytically  !
 ! D86   D(38,36,37,40)         62.1144         calculate D2E/DX2 analytically  !
 ! D87   D(38,36,37,41)        -58.2912         calculate D2E/DX2 analytically  !
 ! D88   D(38,36,37,42)       -178.7842         calculate D2E/DX2 analytically  !
 ! D89   D(39,36,37,40)        179.1933         calculate D2E/DX2 analytically  !
 ! D90   D(39,36,37,41)         58.7878         calculate D2E/DX2 analytically  !
 ! D91   D(39,36,37,42)        -61.7053         calculate D2E/DX2 analytically  !
 --------------------------------------------------------------------------------
 Trust Radius=1.00D-02 FncErr=1.00D-07 GrdErr=1.00D-06
 Number of steps in this run=    228 maximum allowed number of steps=    252.
 GradGradGradGradGradGradGradGradGradGradGradGradGradGradGradGradGradGrad

                          Input orientation:                          
 ---------------------------------------------------------------------
 Center     Atomic      Atomic             Coordinates (Angstroms)
 Number     Number       Type             X           Y           Z
 ---------------------------------------------------------------------
      1          6           0       -2.160346    2.337858   -0.089024
      2          6           0       -0.815725    1.631743    0.059788
      3          6           0        0.347622    2.584644   -0.186984
      4          7           0        1.606395    1.885731   -0.031441
      5          6           0        2.774062    2.552998   -0.162166
      6          8           0        2.838237    3.760251   -0.413498
      7          7           0        3.888159    1.741489    0.018001
      8          6           0        5.212678    2.110741   -0.052935
      9          6           0        5.673331    3.412481   -0.337314
     10          6           0        6.163726    1.090739    0.179411
     11          6           0        7.520149    1.354592    0.129956
     12          6           0        7.948550    2.651255   -0.154358
     13          6           0        7.036679    3.674879   -0.386607
     14          1           0       -2.992148    1.647822    0.086368
     15          1           0       -2.278634    2.754806   -1.096186
     16          1           0       -2.254399    3.163731    0.626051
     17          1           0       -0.748645    0.791560   -0.641585
     18          1           0       -0.721173    1.202281    1.064316
     19          1           0        0.301505    3.428106    0.515606
     20          1           0        0.275835    3.014402   -1.196448
     21          1           0        1.591879    0.867527    0.160995
     22          1           0        3.721980    0.737039    0.241820
     23          1           0        4.958571    4.203270   -0.515928
     24          1           0        5.806632    0.088005    0.399370
     25          1           0        8.232871    0.557091    0.311333
     26         16           0        9.707774    3.001444   -0.221150
     27          1           0        7.376111    4.681594   -0.607087
     28          9           0       10.037968    1.675942   -1.092939
     29          9           0       11.299934    3.315653   -0.281058
     30          9           0        9.586546    3.868235   -1.585261
     31          9           0        9.572220    4.366156    0.642466
     32          9           0       10.023532    2.173970    1.135895
     33          8           0        1.469407   -0.884575    0.496081
     34          8           0        3.706260   -0.955093    0.632979
     35          6           0        2.560551   -1.480194    0.690254
     36          6           0        2.470076   -2.974126    1.031302
     37          6           0        3.810518   -3.676595    1.200436
     38          1           0        1.875493   -3.450027    0.241980
     39          1           0        1.869764   -3.056059    1.946286
     40          1           0        4.405936   -3.609028    0.284840
     41          1           0        3.670082   -4.737124    1.441630
     42          1           0        4.395194   -3.215843    2.002096
 ---------------------------------------------------------------------
                    Distance matrix (angstroms):
                    1          2          3          4          5
     1  C    0.000000
     2  C    1.526025   0.000000
     3  C    2.521984   1.523907   0.000000
     4  N    3.794216   2.437109   1.448165   0.000000
     5  C    4.939638   3.712755   2.426774   1.351215   0.000000
     6  O    5.207142   4.255113   2.763426   2.275352   1.234805
     7  N    6.078777   4.705349   3.645316   2.286853   1.390042
     8  C    7.376610   6.048454   4.889921   3.613360   2.480801
     9  C    7.910940   6.740665   5.391761   4.354824   3.029051
    10  C    8.421256   7.001410   6.016068   4.630955   3.707385
    11  C    9.732767   8.340775   7.284135   5.939751   4.903759
    12  C   10.113964   8.825972   7.601290   6.389371   5.175427
    13  C    9.298465   8.126126   6.780262   5.728453   4.413490
    14  H    1.094900   2.176645   3.479428   4.606200   5.842114
    15  H    1.096454   2.176614   2.784390   4.120974   5.142262
    16  H    1.096469   2.176562   2.786912   4.119625   5.126373
    17  H    2.165471   1.096509   2.150259   2.667527   3.967616
    18  H    2.165861   1.096565   2.149186   2.661834   3.942761
    19  H    2.759517   2.164000   1.098721   2.093064   2.709008
    20  H    2.760267   2.163649   1.099483   2.097982   2.742950
    21  H    4.037769   2.528008   2.148896   1.036330   2.083939
    22  H    6.105231   4.628649   3.870892   2.422780   2.087932
    23  H    7.371635   6.347181   4.897858   4.103998   2.760548
    24  H    8.292956   6.808382   6.031402   4.589053   3.948164
    25  H   10.552270   9.115659   8.156988   6.767050   5.831504
    26  S   11.887392  10.615981   9.369490   8.180046   6.948449
    27  H    9.833896   8.766556   7.346656   6.437224   5.089964
    28  F   12.257441  10.914824   9.774932   8.500718   7.375628
    29  F   13.497115  12.236867  10.977083   9.801616   8.560740
    30  F   11.940279  10.766398   9.431888   8.368243   7.082725
    31  F   11.929048  10.757598   9.431595   8.370246   7.081661
    32  F   12.246395  10.906031   9.774554   8.502585   7.374513
    33  O    4.888920   3.426957   3.709509   2.823409   3.735281
    34  O    6.766231   5.241051   4.947982   3.594602   3.715905
    35  C    6.121411   4.634747   4.710574   3.572213   4.127813
    36  C    7.135344   5.740589   6.073628   5.049117   5.662674
    37  C    8.572489   7.133137   7.288325   6.108612   6.460553
    38  H    7.063794   5.753280   6.239844   5.349531   6.083344
    39  H    7.034104   5.722430   6.219749   5.329358   6.060103
    40  H    8.866865   7.401491   7.419846   6.174937   6.390102
    41  H    9.294739   7.911663   8.203622   7.091611   7.518038
    42  H    8.842596   7.377352   7.404091   6.159442   6.371156
                    6          7          8          9         10
     6  O    0.000000
     7  N    2.316014   0.000000
     8  C    2.913564   1.376855   0.000000
     9  C    2.857360   2.470891   1.409822   0.000000
    10  C    4.305428   2.372286   1.413818   2.428576   0.000000
    11  C    5.291770   3.654255   2.435083   2.804279   1.382732
    12  C    5.235678   4.164632   2.790598   2.406150   2.394203
    13  C    4.199396   3.716838   2.425869   1.389244   2.785714
    14  H    6.221384   6.881284   8.219056   8.853477   9.173278
    15  H    5.259217   6.348036   7.590979   8.015122   8.698835
    16  H    5.231772   6.334312   7.571463   7.989922   8.681107
    17  H    4.661638   4.778846   6.133850   6.942880   6.967383
    18  H    4.625640   4.757253   6.106074   6.909358   6.942430
    19  H    2.721867   3.994542   5.116474   5.439139   6.319964
    20  H    2.781224   4.017969   5.147490   5.479922   6.345135
    21  H    3.201765   2.461129   3.834258   4.835633   4.577330
    22  H    3.217180   1.042416   2.048443   3.361719   2.468021
    23  H    2.168542   2.737011   2.158150   1.080802   3.409362
    24  H    4.791400   2.561249   2.156113   3.407729   1.086910
    25  H    6.315670   4.512801   3.415858   3.889118   2.140921
    26  S    6.913995   5.959245   4.585579   4.056991   4.046173
    27  H    4.634507   4.604429   3.405410   2.140768   3.870749
    28  F    7.526095   6.249691   4.955207   4.757792   4.119597
    29  F    8.474403   7.582997   6.209552   5.627717   5.616307
    30  F    6.850136   6.290081   4.956564   4.132595   4.748079
    31  F    6.843150   6.291850   4.957427   4.131682   4.749801
    32  F    7.519665   6.251363   4.955969   4.756943   4.121450
    33  O    4.927011   3.602101   4.825496   6.068955   5.102821
    34  O    4.907447   2.771794   3.484122   4.887385   3.229596
    35  C    5.362614   3.548761   4.525585   5.889275   4.455729
    36  C    6.897450   5.027402   5.878206   7.274799   5.558048
    37  C    7.671817   5.546153   6.085248   7.489308   5.413645
    38  H    7.303741   5.572507   6.491989   7.864679   6.245912
    39  H    7.277953   5.550556   6.470532   7.843721   6.225423
    40  H    7.566480   5.382131   5.786250   7.162050   5.018840
    41  H    8.737210   6.636769   7.176809   8.578678   6.463393
    42  H    7.544872   5.363661   5.767489   7.144309   4.999653
                   11         12         13         14         15
    11  C    0.000000
    12  C    1.394882   0.000000
    13  C    2.425759   1.390415   0.000000
    14  H   10.516476  10.989254  10.242560   0.000000
    15  H    9.973975  10.270982   9.387497   1.770013   0.000000
    16  H    9.952933  10.245576   9.360068   1.770173   1.770284
    17  H    8.323775   8.907135   8.306010   2.509264   2.530190
    18  H    8.295517   8.874051   8.270622   2.512413   3.082822
    19  H    7.520439   7.715545   6.799812   3.768529   3.115819
    20  H    7.549464   7.751670   6.841132   3.767342   2.569583
    21  H    5.948326   6.609720   6.150360   4.650563   4.485889
    22  H    3.849672   4.656724   4.473595   6.777404   6.470627
    23  H    3.885076   3.388135   2.148128   8.372993   7.403506
    24  H    2.147782   3.385953   3.872524   8.941451   8.644076
    25  H    1.084841   2.164077   3.411539  11.280131  10.830642
    26  S    2.760634   1.794983   2.759645  12.775558  12.020837
    27  H    3.410707   2.157528   1.085036  10.825223   9.857274
    28  F    2.817472   2.489545   3.674559  13.083405  12.363764
    29  F    4.278021   3.418954   4.279664  14.393758  13.614569
    30  F    3.678365   2.492300   2.824178  12.882086  11.927340
    31  F    3.680106   2.492412   2.822379  12.867087  12.085616
    32  F    2.819614   2.489599   3.673150  13.068522  12.516504
    33  O    6.462151   7.409754   7.249984   5.146491   5.461522
    34  O    4.487029   5.623404   5.793779   7.207123   7.250677
    35  C    5.739996   6.841986   6.911593   6.401690   6.674152
    36  C    6.712188   7.941308   8.189847   7.217424   7.739323
    37  C    6.341934   7.681176   8.183580   8.710156   9.149598
    38  H    7.413438   8.617700   8.820275   7.050263   7.586001
    39  H    7.394576   8.598708   8.800280   7.015980   7.760927
    40  H    5.861727   7.206536   7.773477   9.077748   9.332154
    41  H    7.324788   8.685656   9.243279   9.326820   9.897310
    42  H    5.844581   7.190234   7.756635   9.049756   9.475652
                   16         17         18         19         20
    16  H    0.000000
    17  H    3.082433   0.000000
    18  H    2.527874   1.754863   0.000000
    19  H    2.571913   3.064846   2.510230   0.000000
    20  H    3.121839   2.509672   3.064125   1.761516   0.000000
    21  H    4.503630   2.475472   2.505645   2.889183   2.860715
    22  H    6.461700   4.557396   4.542527   4.360785   4.373890
    23  H    7.376428   6.650404   6.615331   4.832515   4.878990
    24  H    8.630858   6.674597   6.655524   6.440203   6.457566
    25  H   10.810941   9.034969   9.008782   8.437477   8.463227
    26  S   11.993234  10.695656  10.660785   9.444720   9.482239
    27  H    9.827068   9.008064   8.970241   7.271982   7.317158
    28  F   12.500829  10.832214  10.983497  10.022784   9.854006
    29  F   13.585502  12.315408  12.279388  11.027817  11.066140
    30  F   12.066243  10.824631  10.971629   9.529918   9.357861
    31  F   11.887599  10.997580  10.776919   9.318915   9.572441
    32  F   12.328307  11.005012  10.788790   9.822190  10.058020
    33  O    5.502036   3.003909   3.078392   4.468064   4.414894
    34  O    7.245289   4.951918   4.943933   5.551447   5.556213
    35  C    6.689836   4.229118   4.255033   5.406034   5.383397
    36  C    7.756171   5.228682   5.256190   6.779176   6.755741
    37  C    9.159868   6.644051   6.660193   7.953548   7.937787
    38  H    7.806748   5.065358   5.390999   7.061234   6.812989
    39  H    7.578755   5.325159   5.062043   6.822806   7.019108
    40  H    9.505091   6.840552   7.074144   8.149900   7.944922
    41  H    9.908994   7.377756   7.396080   8.881206   8.863776
    42  H    9.317165   7.036150   6.824695   7.944180   8.125008
                   21         22         23         24         25
    21  H    0.000000
    22  H    2.135623   0.000000
    23  H    4.787486   3.757406   0.000000
    24  H    4.292857   2.189028   4.300278   0.000000
    25  H    6.649943   4.515015   4.969912   2.472737   0.000000
    26  S    8.400440   6.416511   4.907770   4.908369   2.904090
    27  H    6.970968   5.443605   2.466091   4.957548   4.311503
    28  F    8.576846   6.523406   5.702683   4.759488   2.546013
    29  F   10.021729   8.021723   6.407488   6.407578   4.167429
    30  F    8.715983   6.894618   4.761709   5.702337   4.048849
    31  F    8.726858   6.896109   4.759639   5.704500   4.051232
    32  F    8.587782   6.524853   5.700913   4.761929   2.549640
    33  O    1.788056   2.787179   6.251768   4.445986   6.917874
    34  O    2.831134   1.736825   5.431112   2.356733   4.783342
    35  C    2.594270   2.542858   6.285470   3.616753   6.038983
    36  C    4.035712   3.995409   7.752519   4.572591   6.796886
    37  C    5.162542   4.517405   8.145932   4.335711   6.186421
    38  H    4.327617   4.576138   8.285696   5.291153   7.515189
    39  H    4.319608   4.552307   8.264447   5.270391   7.497804
    40  H    5.289027   4.399767   7.872652   3.955138   5.657092
    41  H    6.113188   5.604346   9.242450   5.378942   7.079924
    42  H    5.284141   4.379163   7.855004   3.933993   5.641053
                   26         27         28         29         30
    26  S    0.000000
    27  H    2.899742   0.000000
    28  F    1.620493   4.044191   0.000000
    29  F    1.623973   4.167550   2.222692   0.000000
    30  F    1.620747   2.550373   2.291792   2.223059   0.000000
    31  F    1.620693   2.546326   3.235089   2.222937   2.282740
    32  F    1.620491   4.041659   2.283843   2.222701   3.235148
    33  O    9.137082   8.190749   9.083032  10.718447   9.633750
    34  O    7.238915   6.839431   7.070478   8.760058   7.922300
    35  C    8.485195   7.927190   8.309797  10.016007   9.118567
    36  C    9.468915   9.239240   9.132826  10.920165  10.213151
    37  C    9.021904   9.264984   8.525864  10.352666   9.901872
    38  H   10.157785   9.853983   9.730548  11.613272  10.786849
    39  H   10.140292   9.834168   9.917070  11.596891  10.952917
    40  H    8.489044   8.851661   7.845315   9.787679   9.286844
    41  H    9.955099  10.326866   9.386236  11.226287  10.872848
    42  H    8.474726   8.835339   8.083916   9.774899   9.487014
                   31         32         33         34         35
    31  F    0.000000
    32  F    2.291906   0.000000
    33  O    9.656458   9.106982   0.000000
    34  O    7.919928   7.067665   2.242148   0.000000
    35  C    9.129380   8.321514   1.258198   1.261610   0.000000
    36  C   10.221124   9.141582   2.377820   2.400689   1.535036
    37  C    9.909308   8.534332   3.711103   2.781987   2.578154
    38  H   10.976917   9.940773   2.609793   3.119180   2.133190
    39  H   10.775762   9.720796   2.641727   3.084080   2.130295
    40  H    9.509046   8.107080   4.011293   2.766608   2.846356
    41  H   10.878584   9.392711   4.536427   3.867685   3.521820
    42  H    9.280996   7.840827   4.032756   2.731319   2.845931
                   36         37         38         39         40
    36  C    0.000000
    37  C    1.522777   0.000000
    38  H    1.096831   2.171242   0.000000
    39  H    1.097399   2.169766   1.749258   0.000000
    40  H    2.169760   1.094259   2.535796   3.081939   0.000000
    41  H    2.171760   1.096640   2.513231   2.514319   1.775456
    42  H    2.169550   1.093983   3.082490   2.531096   1.761726
                   41         42
    41  H    0.000000
    42  H    1.776009   0.000000
 Stoichiometry    C13H18F5N2O3S(1-)
 Framework group  C1[X(C13H18F5N2O3S)]
 Deg. of freedom   120
 Full point group                 C1      NOp   1
 Largest Abelian subgroup         C1      NOp   1
 Largest concise Abelian subgroup C1      NOp   1
                         Standard orientation:                         
 ---------------------------------------------------------------------
 Center     Atomic      Atomic             Coordinates (Angstroms)
 Number     Number       Type             X           Y           Z
 ---------------------------------------------------------------------
      1          6           0       -7.026608    2.735462    0.037186
      2          6           0       -5.936446    1.667639    0.029837
      3          6           0       -4.545239    2.287875   -0.016479
      4          7           0       -3.535922    1.249385   -0.015414
      5          6           0       -2.224996    1.576798   -0.008041
      6          8           0       -1.819615    2.743145   -0.001418
      7          7           0       -1.386745    0.467947   -0.005910
      8          6           0       -0.009917    0.459760   -0.003031
      9          6           0        0.803861    1.610980   -0.010455
     10          6           0        0.611902   -0.809933    0.007113
     11          6           0        1.989383   -0.930309    0.008820
     12          6           0        2.770796    0.225122    0.000520
     13          6           0        2.187586    1.487275   -0.008921
     14          1           0       -8.023653    2.284028    0.067451
     15          1           0       -6.971080    3.363348   -0.859969
     16          1           0       -6.930354    3.392627    0.909604
     17          1           0       -6.063264    1.001790   -0.832076
     18          1           0       -6.018044    1.035152    0.921888
     19          1           0       -4.397458    2.950714    0.847229
     20          1           0       -4.441427    2.915291   -0.913381
     21          1           0       -3.838713    0.258586   -0.040256
     22          1           0       -1.833147   -0.474003    0.003389
     23          1           0        0.343369    2.588752   -0.016919
     24          1           0       -0.017166   -1.696276    0.013721
     25          1           0        2.445932   -1.914372    0.016589
     26         16           0        4.559659    0.077029    0.001811
     27          1           0        2.800809    2.382384   -0.015138
     28          9           0        4.562202   -1.083394   -1.129299
     29          9           0        6.177868   -0.059667    0.002940
     30          9           0        4.754870    1.200189   -1.150242
     31          9           0        4.755205    1.221662    1.132397
     32          9           0        4.562400   -1.062014    1.154444
     33          8           0       -4.453594   -1.419979   -0.078774
     34          8           0       -2.332186   -2.137347    0.031847
     35          6           0       -3.579142   -2.322566   -0.017683
     36          6           0       -4.093054   -3.768865    0.003532
     37          6           0       -3.007023   -4.836202    0.016834
     38          1           0       -4.750919   -3.890497   -0.865639
     39          1           0       -4.742075   -3.863287    0.883385
     40          1           0       -2.366595   -4.753780   -0.866604
     41          1           0       -3.444981   -5.841489    0.031291
     42          1           0       -2.363488   -4.728524    0.894938
 ---------------------------------------------------------------------
 Rotational constants (GHZ):      0.3497528      0.0820627      0.0683927
 General basis read from cards:  (6D, 7F)
 There are   496 symmetry adapted cartesian basis functions of A   symmetry.
 There are   496 symmetry adapted basis functions of A   symmetry.
   496 basis functions,   864 primitive gaussians,   496 cartesian basis functions
    98 alpha electrons       98 beta electrons
       nuclear repulsion energy      2398.7339325792 Hartrees.
 NAtoms=   42 NActive=   42 NUniq=   42 SFac= 1.00D+00 NAtFMM=   60 NAOKFM=F Big=F
 Integral buffers will be    131072 words long.
 Raffenetti 2 integral format.
 Two-electron integral symmetry is turned on.
 Force inversion solution in PCM.
 ------------------------------------------------------------------------------
 Polarizable Continuum Model (PCM)
 =================================
 Model                : PCM (using non-symmetric T matrix).
 Atomic radii         : SMD-Coulomb.
 Polarization charges : Total charges.
 Charge compensation  : None.
 Solution method      : Matrix inversion.
 Cavity type          : VdW (van der Waals Surface) (Alpha=1.000).
 Cavity algorithm     : GePol (No added spheres)
                        Default sphere list used, NSphG=   42.
                        Lebedev-Laikov grids with approx.  5.0 points / Ang**2.
                        Smoothing algorithm: York/Karplus (Gamma=1.0000).
                        Polarization charges: spherical gaussians, with
                                              point-specific exponents (IZeta= 3).
                        Self-potential: point-specific (ISelfS= 7).
                        Self-field    : sphere-specific E.n sum rule (ISelfD= 2).
 1st derivatives      : Analytical E(r).r(x)/FMM algorithm (CHGder, D1EAlg=3).
                        Cavity 1st derivative terms included.
 2nd derivatives      : Analytical E(r).r(xy)/FMM algorithm (CHGder, D2EAlg=3).
                        Cavity 2nd derivative terms included.
 Solvent              : Water, Eps=  78.355300 Eps(inf)=   1.777849
 ------------------------------------------------------------------------------
 ------------------------------------------------------------------------------
 Atomic radii for non-electrostatic terms: SMD-CDS.
 ------------------------------------------------------------------------------
 Nuclear repulsion after PCM non-electrostatic terms =     2398.7502818882 Hartrees.
 One-electron integrals computed using PRISM.
 NBasis=   496 RedAO= T EigKep=  1.77D-06  NBF=   496
 NBsUse=   494 1.00D-06 EigRej=  8.52D-07 NBFU=   494
 ExpMin= 4.05D-02 ExpMax= 2.19D+04 ExpMxC= 3.30D+03 IAcc=3 IRadAn=         5 AccDes= 0.00D+00
 Harris functional with IExCor= 1009 and IRadAn=       5 diagonalized for initial guess.
 HarFok:  IExCor= 1009 AccDes= 0.00D+00 IRadAn=         5 IDoV= 1 UseB2=F ITyADJ=14
 ICtDFT=  3500011 ScaDFX=  1.000000  1.000000  1.000000  1.000000
 FoFCou: FMM=F IPFlag=           0 FMFlag=      100000 FMFlg1=           0
         NFxFlg=           0 DoJE=T BraDBF=F KetDBF=T FulRan=T
         wScrn=  0.000000 ICntrl=     500 IOpCl=  0 I1Cent=   200000004 NGrid=           0
         NMat0=    1 NMatS0=      1 NMatT0=    0 NMatD0=    1 NMtDS0=    0 NMtDT0=    0
 Petite list used in FoFCou.
 Requested convergence on RMS density matrix=1.00D-08 within 128 cycles.
 Requested convergence on MAX density matrix=1.00D-06.
 Requested convergence on             energy=1.00D-06.
 No special actions if energy rises.
 Inv3:  Mode=1 IEnd=    30051675.
 Iteration    1 A*A^-1 deviation from unit magnitude is 6.66D-15 for   3152.
 Iteration    1 A*A^-1 deviation from orthogonality  is 9.55D-15 for   3150   1482.
 Iteration    1 A^-1*A deviation from unit magnitude is 5.11D-15 for   3129.
 Iteration    1 A^-1*A deviation from orthogonality  is 1.18D-09 for   2647   2643.
 Iteration    2 A*A^-1 deviation from unit magnitude is 3.77D-15 for    185.
 Iteration    2 A*A^-1 deviation from orthogonality  is 5.21D-15 for   3147   1201.
 Iteration    2 A^-1*A deviation from unit magnitude is 1.11D-15 for   2234.
 Iteration    2 A^-1*A deviation from orthogonality  is 8.76D-16 for   3153   1060.
 Error on total polarization charges =  0.06399
 SCF Done:  E(RM062X) =  -1738.40713563     A.U. after   15 cycles
            NFock= 15  Conv=0.22D-08     -V/T= 2.0070
 SMD-CDS (non-electrostatic) energy       (kcal/mol) =      10.26
 (included in total energy above)
 DoSCS=F DFT=T ScalE2(SS,OS)=  1.000000  1.000000
 Range of M.O.s used for correlation:     1   494
 NBasis=   496 NAE=    98 NBE=    98 NFC=     0 NFV=     0
 NROrb=    494 NOA=    98 NOB=    98 NVA=   396 NVB=   396

 **** Warning!!: The largest alpha MO coefficient is  0.11435675D+03

 Symmetrizing basis deriv contribution to polar:
 IMax=3 JMax=2 DiffMx= 0.00D+00
 G2DrvN: will do    43 centers at a time, making    1 passes.
 Calling FoFCou, ICntrl=  3107 FMM=F I1Cent=   0 AccDes= 0.00D+00.
 NEqPCM:  Using equilibrium solvation (IEInf=0, Eps=  78.3553, EpsInf=   1.7778)
 G2PCM: DoFxE=T DoFxN=T DoGrad=T DoDP/DQ/DG/TGxP=FFFF NFrqRd=   0 IEInf=0 SqF1=F DoCFld=F IF1Alg=4.
 End of G2Drv F.D. properties file   721 does not exist.
 End of G2Drv F.D. properties file   722 does not exist.
 End of G2Drv F.D. properties file   788 does not exist.
          IDoAtm=111111111111111111111111111111111111111111
 NEqPCM:  Using equilibrium solvation (IEInf=0, Eps=  78.3553, EpsInf=   1.7778)
          Differentiating once with respect to nuclear coordinates.
          There are   129 degrees of freedom in the 1st order CPHF.  IDoFFX=6 NUNeed=     0.
    123 vectors produced by pass  0 Test12= 3.88D-14 1.00D-09 XBig12= 2.79D-01 1.39D-01.
 AX will form   123 AO Fock derivatives at one time.
    123 vectors produced by pass  1 Test12= 3.88D-14 1.00D-09 XBig12= 2.13D-02 5.41D-02.
    123 vectors produced by pass  2 Test12= 3.88D-14 1.00D-09 XBig12= 8.39D-04 5.60D-03.
    123 vectors produced by pass  3 Test12= 3.88D-14 1.00D-09 XBig12= 1.41D-05 5.04D-04.
    123 vectors produced by pass  4 Test12= 3.88D-14 1.00D-09 XBig12= 1.36D-07 5.65D-05.
    123 vectors produced by pass  5 Test12= 3.88D-14 1.00D-09 XBig12= 6.34D-10 2.77D-06.
     93 vectors produced by pass  6 Test12= 3.88D-14 1.00D-09 XBig12= 2.02D-12 1.96D-07.
     26 vectors produced by pass  7 Test12= 3.88D-14 1.00D-09 XBig12= 8.54D-15 1.50D-08.
     10 vectors produced by pass  8 Test12= 3.88D-14 1.00D-09 XBig12= 3.74D-15 5.74D-09.
     10 vectors produced by pass  9 Test12= 3.88D-14 1.00D-09 XBig12= 3.83D-14 1.79D-08.
      8 vectors produced by pass 10 Test12= 3.88D-14 1.00D-09 XBig12= 1.64D-14 1.17D-08.
      8 vectors produced by pass 11 Test12= 3.88D-14 1.00D-09 XBig12= 2.81D-14 9.54D-09.
      6 vectors produced by pass 12 Test12= 3.88D-14 1.00D-09 XBig12= 6.63D-15 8.56D-09.
      6 vectors produced by pass 13 Test12= 3.88D-14 1.00D-09 XBig12= 1.11D-14 7.36D-09.
      6 vectors produced by pass 14 Test12= 3.88D-14 1.00D-09 XBig12= 1.83D-14 1.06D-08.
      6 vectors produced by pass 15 Test12= 3.88D-14 1.00D-09 XBig12= 1.84D-14 7.62D-09.
      5 vectors produced by pass 16 Test12= 3.88D-14 1.00D-09 XBig12= 3.28D-15 4.37D-09.
      5 vectors produced by pass 17 Test12= 3.88D-14 1.00D-09 XBig12= 1.72D-14 1.08D-08.
      5 vectors produced by pass 18 Test12= 3.88D-14 1.00D-09 XBig12= 1.86D-14 1.28D-08.
      5 vectors produced by pass 19 Test12= 3.88D-14 1.00D-09 XBig12= 6.61D-14 2.12D-08.
      5 vectors produced by pass 20 Test12= 3.88D-14 1.00D-09 XBig12= 1.18D-14 6.49D-09.
      5 vectors produced by pass 21 Test12= 3.88D-14 1.00D-09 XBig12= 6.10D-14 1.62D-08.
      5 vectors produced by pass 22 Test12= 3.88D-14 1.00D-09 XBig12= 8.99D-15 5.63D-09.
      5 vectors produced by pass 23 Test12= 3.88D-14 1.00D-09 XBig12= 1.85D-14 1.02D-08.
      4 vectors produced by pass 24 Test12= 3.88D-14 1.00D-09 XBig12= 1.47D-14 8.32D-09.
      4 vectors produced by pass 25 Test12= 3.88D-14 1.00D-09 XBig12= 1.46D-14 7.13D-09.
      4 vectors produced by pass 26 Test12= 3.88D-14 1.00D-09 XBig12= 3.89D-14 1.51D-08.
      3 vectors produced by pass 27 Test12= 3.88D-14 1.00D-09 XBig12= 1.70D-14 7.65D-09.
      3 vectors produced by pass 28 Test12= 3.88D-14 1.00D-09 XBig12= 1.15D-14 7.97D-09.
      3 vectors produced by pass 29 Test12= 3.88D-14 1.00D-09 XBig12= 2.63D-14 1.23D-08.
      3 vectors produced by pass 30 Test12= 3.88D-14 1.00D-09 XBig12= 1.53D-14 7.76D-09.
      3 vectors produced by pass 31 Test12= 3.88D-14 1.00D-09 XBig12= 2.23D-14 1.03D-08.
      3 vectors produced by pass 32 Test12= 3.88D-14 1.00D-09 XBig12= 9.28D-15 7.23D-09.
      3 vectors produced by pass 33 Test12= 3.88D-14 1.00D-09 XBig12= 9.66D-15 6.11D-09.
      3 vectors produced by pass 34 Test12= 3.88D-14 1.00D-09 XBig12= 1.44D-14 7.27D-09.
      3 vectors produced by pass 35 Test12= 3.88D-14 1.00D-09 XBig12= 1.89D-14 7.50D-09.
      3 vectors produced by pass 36 Test12= 3.88D-14 1.00D-09 XBig12= 1.88D-14 1.03D-08.
      3 vectors produced by pass 37 Test12= 3.88D-14 1.00D-09 XBig12= 1.33D-14 7.60D-09.
      3 vectors produced by pass 38 Test12= 3.88D-14 1.00D-09 XBig12= 2.03D-14 9.80D-09.
      3 vectors produced by pass 39 Test12= 3.88D-14 1.00D-09 XBig12= 2.06D-14 9.09D-09.
      3 vectors produced by pass 40 Test12= 3.88D-14 1.00D-09 XBig12= 1.39D-14 7.38D-09.
      3 vectors produced by pass 41 Test12= 3.88D-14 1.00D-09 XBig12= 3.95D-14 1.26D-08.
      3 vectors produced by pass 42 Test12= 3.88D-14 1.00D-09 XBig12= 2.23D-14 8.23D-09.
      3 vectors produced by pass 43 Test12= 3.88D-14 1.00D-09 XBig12= 2.55D-14 1.13D-08.
      3 vectors produced by pass 44 Test12= 3.88D-14 1.00D-09 XBig12= 3.70D-14 1.29D-08.
      3 vectors produced by pass 45 Test12= 3.88D-14 1.00D-09 XBig12= 2.14D-14 7.21D-09.
      2 vectors produced by pass 46 Test12= 3.88D-14 1.00D-09 XBig12= 1.07D-14 7.14D-09.
 InvSVY:  IOpt=1 It=  1 EMax= 6.66D-16
 Solved reduced A of dimension  1028 with   129 vectors.
 End of Minotr F.D. properties file   721 does not exist.
 End of Minotr F.D. properties file   722 does not exist.
 End of Minotr F.D. properties file   788 does not exist.

 **********************************************************************

            Population analysis using the SCF density.

 **********************************************************************

 Orbital symmetries:
       Occupied  (A) (A) (A) (A) (A) (A) (A) (A) (A) (A) (A) (A)
                 (A) (A) (A) (A) (A) (A) (A) (A) (A) (A) (A) (A)
                 (A) (A) (A) (A) (A) (A) (A) (A) (A) (A) (A) (A)
                 (A) (A) (A) (A) (A) (A) (A) (A) (A) (A) (A) (A)
                 (A) (A) (A) (A) (A) (A) (A) (A) (A) (A) (A) (A)
                 (A) (A) (A) (A) (A) (A) (A) (A) (A) (A) (A) (A)
                 (A) (A) (A) (A) (A) (A) (A) (A) (A) (A) (A) (A)
                 (A) (A) (A) (A) (A) (A) (A) (A) (A) (A) (A) (A)
                 (A) (A)
       Virtual   (A) (A) (A) (A) (A) (A) (A) (A) (A) (A) (A) (A)
                 (A) (A) (A) (A) (A) (A) (A) (A) (A) (A) (A) (A)
                 (A) (A) (A) (A) (A) (A) (A) (A) (A) (A) (A) (A)
                 (A) (A) (A) (A) (A) (A) (A) (A) (A) (A) (A) (A)
                 (A) (A) (A) (A) (A) (A) (A) (A) (A) (A) (A) (A)
                 (A) (A) (A) (A) (A) (A) (A) (A) (A) (A) (A) (A)
                 (A) (A) (A) (A) (A) (A) (A) (A) (A) (A) (A) (A)
                 (A) (A) (A) (A) (A) (A) (A) (A) (A) (A) (A) (A)
                 (A) (A) (A) (A) (A) (A) (A) (A) (A) (A) (A) (A)
                 (A) (A) (A) (A) (A) (A) (A) (A) (A) (A) (A) (A)
                 (A) (A) (A) (A) (A) (A) (A) (A) (A) (A) (A) (A)
                 (A) (A) (A) (A) (A) (A) (A) (A) (A) (A) (A) (A)
                 (A) (A) (A) (A) (A) (A) (A) (A) (A) (A) (A) (A)
                 (A) (A) (A) (A) (A) (A) (A) (A) (A) (A) (A) (A)
                 (A) (A) (A) (A) (A) (A) (A) (A) (A) (A) (A) (A)
                 (A) (A) (A) (A) (A) (A) (A) (A) (A) (A) (A) (A)
                 (A) (A) (A) (A) (A) (A) (A) (A) (A) (A) (A) (A)
                 (A) (A) (A) (A) (A) (A) (A) (A) (A) (A) (A) (A)
                 (A) (A) (A) (A) (A) (A) (A) (A) (A) (A) (A) (A)
                 (A) (A) (A) (A) (A) (A) (A) (A) (A) (A) (A) (A)
                 (A) (A) (A) (A) (A) (A) (A) (A) (A) (A) (A) (A)
                 (A) (A) (A) (A) (A) (A) (A) (A) (A) (A) (A) (A)
                 (A) (A) (A) (A) (A) (A) (A) (A) (A) (A) (A) (A)
                 (A) (A) (A) (A) (A) (A) (A) (A) (A) (A) (A) (A)
                 (A) (A) (A) (A) (A) (A) (A) (A) (A) (A) (A) (A)
                 (A) (A) (A) (A) (A) (A) (A) (A) (A) (A) (A) (A)
                 (A) (A) (A) (A) (A) (A) (A) (A) (A) (A) (A) (A)
                 (A) (A) (A) (A) (A) (A) (A) (A) (A) (A) (A) (A)
                 (A) (A) (A) (A) (A) (A) (A) (A) (A) (A) (A) (A)
                 (A) (A) (A) (A) (A) (A) (A) (A) (A) (A) (A) (A)
                 (A) (A) (A) (A) (A) (A) (A) (A) (A) (A) (A) (A)
                 (A) (A) (A) (A) (A) (A) (A) (A) (A) (A) (A) (A)
                 (A) (A) (A) (A) (A) (A) (A) (A) (A) (A) (A) (A)
 The electronic state is 1-A.
 Alpha  occ. eigenvalues --  -90.32729 -25.30767 -25.30766 -25.30756 -25.30753
 Alpha  occ. eigenvalues --  -25.30548 -19.61939 -19.60852 -19.60596 -14.78614
 Alpha  occ. eigenvalues --  -14.76871 -10.68451 -10.65178 -10.61561 -10.59979
 Alpha  occ. eigenvalues --  -10.57821 -10.57819 -10.57054 -10.56119 -10.55862
 Alpha  occ. eigenvalues --  -10.53819 -10.53542 -10.52798 -10.52563  -8.61410
 Alpha  occ. eigenvalues --   -6.53836  -6.53821  -6.53365  -1.49246  -1.39636
 Alpha  occ. eigenvalues --   -1.39522  -1.36439  -1.35251  -1.17913  -1.17049
 Alpha  occ. eigenvalues --   -1.07503  -1.05619  -1.02182  -0.98486  -0.93029
 Alpha  occ. eigenvalues --   -0.87750  -0.86348  -0.85550  -0.84501  -0.77877
 Alpha  occ. eigenvalues --   -0.73957  -0.73758  -0.73176  -0.72256  -0.71719
 Alpha  occ. eigenvalues --   -0.68363  -0.67693  -0.66199  -0.63569  -0.63056
 Alpha  occ. eigenvalues --   -0.61850  -0.61320  -0.60786  -0.58917  -0.58013
 Alpha  occ. eigenvalues --   -0.56102  -0.55202  -0.55081  -0.55012  -0.54753
 Alpha  occ. eigenvalues --   -0.54149  -0.53869  -0.53537  -0.53053  -0.52792
 Alpha  occ. eigenvalues --   -0.52081  -0.51633  -0.51603  -0.51158  -0.51031
 Alpha  occ. eigenvalues --   -0.50494  -0.49712  -0.48924  -0.46905  -0.46362
 Alpha  occ. eigenvalues --   -0.46153  -0.44625  -0.44502  -0.44137  -0.42076
 Alpha  occ. eigenvalues --   -0.41676  -0.41332  -0.39525  -0.39475  -0.39259
 Alpha  occ. eigenvalues --   -0.38512  -0.35541  -0.34256  -0.33071  -0.32531
 Alpha  occ. eigenvalues --   -0.32186  -0.31877  -0.27105
 Alpha virt. eigenvalues --   -0.01621  -0.00171   0.01051   0.02034   0.03270
 Alpha virt. eigenvalues --    0.03308   0.03804   0.04215   0.04233   0.04459
 Alpha virt. eigenvalues --    0.04707   0.04975   0.05502   0.05949   0.06670
 Alpha virt. eigenvalues --    0.06890   0.07162   0.07711   0.07919   0.08269
 Alpha virt. eigenvalues --    0.08578   0.09123   0.09579   0.09755   0.10016
 Alpha virt. eigenvalues --    0.10091   0.10442   0.10953   0.11566   0.11979
 Alpha virt. eigenvalues --    0.12053   0.12423   0.12829   0.12985   0.13258
 Alpha virt. eigenvalues --    0.13553   0.14046   0.14634   0.15420   0.15512
 Alpha virt. eigenvalues --    0.16276   0.16474   0.17077   0.17231   0.17545
 Alpha virt. eigenvalues --    0.18216   0.18890   0.19200   0.19675   0.19939
 Alpha virt. eigenvalues --    0.20517   0.21115   0.21312   0.21763   0.22853
 Alpha virt. eigenvalues --    0.23144   0.23247   0.23481   0.23723   0.24480
 Alpha virt. eigenvalues --    0.24686   0.24855   0.25170   0.25309   0.25643
 Alpha virt. eigenvalues --    0.25706   0.26257   0.26713   0.27059   0.27236
 Alpha virt. eigenvalues --    0.27319   0.27461   0.28069   0.28392   0.28748
 Alpha virt. eigenvalues --    0.28892   0.29426   0.29979   0.30521   0.30780
 Alpha virt. eigenvalues --    0.31089   0.31616   0.31790   0.31895   0.32520
 Alpha virt. eigenvalues --    0.32593   0.32739   0.33085   0.33126   0.33477
 Alpha virt. eigenvalues --    0.34145   0.34383   0.34696   0.34758   0.35047
 Alpha virt. eigenvalues --    0.35228   0.35495   0.35831   0.36989   0.37108
 Alpha virt. eigenvalues --    0.37439   0.37922   0.38152   0.38467   0.38815
 Alpha virt. eigenvalues --    0.38971   0.39395   0.39643   0.39893   0.40455
 Alpha virt. eigenvalues --    0.40736   0.41146   0.41954   0.43398   0.43794
 Alpha virt. eigenvalues --    0.44125   0.44954   0.45796   0.46135   0.47023
 Alpha virt. eigenvalues --    0.48192   0.49529   0.49565   0.50052   0.50746
 Alpha virt. eigenvalues --    0.51169   0.52102   0.53036   0.53382   0.54866
 Alpha virt. eigenvalues --    0.55553   0.56929   0.57153   0.58318   0.59020
 Alpha virt. eigenvalues --    0.59601   0.60059   0.60575   0.62203   0.66028
 Alpha virt. eigenvalues --    0.67506   0.70073   0.70971   0.71527   0.71772
 Alpha virt. eigenvalues --    0.72014   0.73404   0.74391   0.75242   0.76331
 Alpha virt. eigenvalues --    0.76668   0.76914   0.77540   0.78632   0.79152
 Alpha virt. eigenvalues --    0.80972   0.81166   0.81377   0.81643   0.82116
 Alpha virt. eigenvalues --    0.82427   0.83403   0.85144   0.86053   0.86378
 Alpha virt. eigenvalues --    0.86771   0.87853   0.88476   0.89812   0.91347
 Alpha virt. eigenvalues --    0.92002   0.93519   0.94782   0.95411   0.96296
 Alpha virt. eigenvalues --    0.97714   0.99283   0.99650   1.00334   1.00543
 Alpha virt. eigenvalues --    1.01545   1.02228   1.03142   1.03933   1.05764
 Alpha virt. eigenvalues --    1.06030   1.06152   1.07412   1.08339   1.08879
 Alpha virt. eigenvalues --    1.09271   1.10101   1.11859   1.11980   1.13239
 Alpha virt. eigenvalues --    1.14978   1.17055   1.17697   1.18654   1.18983
 Alpha virt. eigenvalues --    1.20801   1.22354   1.23088   1.24285   1.25421
 Alpha virt. eigenvalues --    1.25690   1.28325   1.29329   1.30863   1.30978
 Alpha virt. eigenvalues --    1.32740   1.34539   1.34954   1.35860   1.36365
 Alpha virt. eigenvalues --    1.37459   1.38302   1.40147   1.40818   1.41803
 Alpha virt. eigenvalues --    1.42539   1.43618   1.44613   1.45167   1.45845
 Alpha virt. eigenvalues --    1.47186   1.47469   1.47774   1.49051   1.50018
 Alpha virt. eigenvalues --    1.50630   1.50999   1.52140   1.52910   1.53155
 Alpha virt. eigenvalues --    1.54967   1.55082   1.57362   1.58097   1.58930
 Alpha virt. eigenvalues --    1.59056   1.60802   1.61554   1.62844   1.63216
 Alpha virt. eigenvalues --    1.65116   1.66491   1.67935   1.72182   1.72269
 Alpha virt. eigenvalues --    1.72420   1.74115   1.75837   1.76195   1.77545
 Alpha virt. eigenvalues --    1.78491   1.79363   1.80121   1.80739   1.81526
 Alpha virt. eigenvalues --    1.82514   1.83415   1.83907   1.84913   1.85411
 Alpha virt. eigenvalues --    1.85766   1.87352   1.87994   1.88155   1.88526
 Alpha virt. eigenvalues --    1.89297   1.89865   1.89956   1.90054   1.90571
 Alpha virt. eigenvalues --    1.91364   1.92299   1.93754   1.94327   1.95448
 Alpha virt. eigenvalues --    1.95618   1.96471   1.96818   1.97316   1.97478
 Alpha virt. eigenvalues --    1.99746   2.00984   2.01568   2.02511   2.03004
 Alpha virt. eigenvalues --    2.04796   2.04808   2.05994   2.06235   2.06331
 Alpha virt. eigenvalues --    2.06771   2.06840   2.07062   2.07402   2.08091
 Alpha virt. eigenvalues --    2.08382   2.09541   2.10658   2.10857   2.11969
 Alpha virt. eigenvalues --    2.13409   2.14109   2.14903   2.16117   2.17212
 Alpha virt. eigenvalues --    2.17610   2.18743   2.21011   2.21728   2.23369
 Alpha virt. eigenvalues --    2.23842   2.24917   2.25496   2.25954   2.26501
 Alpha virt. eigenvalues --    2.28543   2.31167   2.31419   2.32653   2.33049
 Alpha virt. eigenvalues --    2.35904   2.38677   2.39268   2.40150   2.40933
 Alpha virt. eigenvalues --    2.41392   2.41767   2.43159   2.43977   2.45206
 Alpha virt. eigenvalues --    2.45267   2.48313   2.50976   2.52877   2.55635
 Alpha virt. eigenvalues --    2.56043   2.60588   2.62679   2.64738   2.66141
 Alpha virt. eigenvalues --    2.67777   2.69064   2.73905   2.75605   2.75818
 Alpha virt. eigenvalues --    2.76181   2.78390   2.80907   2.81756   2.82613
 Alpha virt. eigenvalues --    2.83631   2.90109   2.91919   2.94146   2.94585
 Alpha virt. eigenvalues --    2.98400   3.00764   3.04684   3.09288   3.11373
 Alpha virt. eigenvalues --    3.13982   3.15636   3.21608   3.28655   3.35433
 Alpha virt. eigenvalues --    3.39146   3.45707   4.25076   4.27049   4.29546
 Alpha virt. eigenvalues --    4.31978   4.33360   4.37160   4.43046   4.44490
 Alpha virt. eigenvalues --    4.44604   4.46524   4.48225   4.50020   4.55205
 Alpha virt. eigenvalues --    4.58611   4.61976   4.69910   4.75720   4.76951
 Alpha virt. eigenvalues --    4.87824   5.90147   5.95823   6.16732   7.09778
 Alpha virt. eigenvalues --    8.89685
          Condensed to atoms (all electrons):
               1          2          3          4          5          6
     1  C    5.861203  -0.212369   0.066024  -0.023824  -0.060325  -0.001921
     2  C   -0.212369   6.346942  -0.565981  -0.054268   0.259074   0.022841
     3  C    0.066024  -0.565981   7.383357   0.313731  -0.867942  -0.116894
     4  N   -0.023824  -0.054268   0.313731   7.748181   0.506334  -0.191255
     5  C   -0.060325   0.259074  -0.867942   0.506334   6.793648   0.513593
     6  O   -0.001921   0.022841  -0.116894  -0.191255   0.513593   8.517765
     7  N   -0.002086   0.020720  -0.159462  -0.333046   0.230575  -0.071250
     8  C   -0.003843   0.009567  -0.272910  -0.117421  -0.259423  -0.310787
     9  C   -0.006996   0.009502  -0.236496  -0.093497   0.129583   0.322096
    10  C   -0.001574  -0.004765   0.002130   0.006855  -0.453691  -0.102235
    11  C    0.000010  -0.001303   0.017971   0.012261   0.003776  -0.024884
    12  C   -0.000572   0.000030  -0.045907  -0.000380  -0.655669   0.013848
    13  C   -0.001111   0.002038  -0.108439  -0.030339  -0.788385   0.154269
    14  H    0.447044  -0.115564   0.024542   0.000673  -0.002163   0.000002
    15  H    0.414496  -0.062012  -0.009603   0.000558   0.003543  -0.000016
    16  H    0.420953  -0.060640  -0.014084   0.000771   0.000296  -0.000025
    17  H   -0.027822   0.430939  -0.093578   0.006686   0.001093  -0.000058
    18  H   -0.026190   0.431257  -0.095644   0.006558   0.001814  -0.000124
    19  H   -0.004634  -0.043179   0.462113  -0.046729  -0.054232   0.002207
    20  H   -0.008972  -0.038510   0.440856  -0.043460  -0.039764   0.001079
    21  H    0.000145   0.000682  -0.024598   0.171069  -0.007908   0.004381
    22  H   -0.000016  -0.000492  -0.005899   0.008554  -0.045697   0.003832
    23  H    0.000000   0.000146   0.000811  -0.000156  -0.012631  -0.005803
    24  H   -0.000004   0.000001  -0.000108   0.001391   0.000631   0.000060
    25  H    0.000000   0.000000   0.000029   0.000023   0.002923  -0.000002
    26  S   -0.000008  -0.000019  -0.001190   0.001176  -0.050999   0.000748
    27  H   -0.000000   0.000001  -0.000041   0.000011  -0.003125   0.000260
    28  F   -0.000000  -0.000000  -0.000009   0.000000  -0.001751  -0.000001
    29  F    0.000000  -0.000000  -0.000000   0.000000  -0.000049   0.000000
    30  F   -0.000000  -0.000000   0.000001   0.000005  -0.000201  -0.000000
    31  F   -0.000000  -0.000000   0.000001   0.000005  -0.000236   0.000001
    32  F   -0.000000   0.000000  -0.000010  -0.000000  -0.001819  -0.000001
    33  O    0.004788   0.002875   0.008940  -0.029158  -0.018783  -0.000390
    34  O   -0.000630  -0.003923   0.010087   0.007620  -0.005119  -0.000056
    35  C   -0.002974  -0.009270   0.016815  -0.014053  -0.006759  -0.001180
    36  C    0.003367  -0.007565   0.034736  -0.020625  -0.017521  -0.000849
    37  C   -0.000465  -0.000754  -0.001617   0.002583  -0.000666   0.000070
    38  H    0.000036   0.000081   0.000102   0.000003  -0.000271  -0.000000
    39  H    0.000028   0.000095   0.000007  -0.000102  -0.000128  -0.000000
    40  H    0.000000   0.000007  -0.000020  -0.000001  -0.000010   0.000000
    41  H   -0.000000   0.000001  -0.000007  -0.000005   0.000020   0.000000
    42  H    0.000001   0.000013  -0.000011  -0.000002  -0.000016   0.000000
               7          8          9         10         11         12
     1  C   -0.002086  -0.003843  -0.006996  -0.001574   0.000010  -0.000572
     2  C    0.020720   0.009567   0.009502  -0.004765  -0.001303   0.000030
     3  C   -0.159462  -0.272910  -0.236496   0.002130   0.017971  -0.045907
     4  N   -0.333046  -0.117421  -0.093497   0.006855   0.012261  -0.000380
     5  C    0.230575  -0.259423   0.129583  -0.453691   0.003776  -0.655669
     6  O   -0.071250  -0.310787   0.322096  -0.102235  -0.024884   0.013848
     7  N    7.898728   0.209751  -0.090645  -0.165294  -0.018069  -0.022752
     8  C    0.209751  14.546313   1.835310   0.577866  -3.245026  -2.947254
     9  C   -0.090645   1.835310  15.357342  -4.509007  -2.381739  -3.761100
    10  C   -0.165294   0.577866  -4.509007  13.126945   1.456811  -1.970000
    11  C   -0.018069  -3.245026  -2.381739   1.456811  12.836113   0.776031
    12  C   -0.022752  -2.947254  -3.761100  -1.970000   0.776031  14.347602
    13  C    0.093315  -3.263839  -0.299587  -2.055307  -4.187693   1.483157
    14  H    0.000016  -0.000032  -0.000010  -0.000000   0.000000  -0.000000
    15  H    0.000031   0.000051  -0.000013   0.000004   0.000000  -0.000000
    16  H    0.000035  -0.000016  -0.000035   0.000008   0.000000  -0.000000
    17  H    0.000596  -0.001283   0.000201  -0.000082  -0.000006  -0.000004
    18  H    0.000037  -0.000413  -0.000019   0.000008  -0.000001  -0.000002
    19  H   -0.000040  -0.004716  -0.000695   0.000086  -0.000001  -0.000035
    20  H   -0.001659  -0.000279  -0.001242   0.000164   0.000001   0.000011
    21  H    0.003169   0.007020   0.000990  -0.005241  -0.000804  -0.000216
    22  H    0.119819   0.019836   0.055825  -0.057430  -0.006041   0.012424
    23  H   -0.014932  -0.046269   0.227813   0.009938  -0.006614   0.080793
    24  H   -0.010917  -0.037349   0.019925   0.214868   0.010137   0.091258
    25  H    0.000653   0.010440  -0.003743  -0.050055   0.344824  -0.022611
    26  S    0.007951  -0.635866  -0.472620   0.102306   0.229604  -0.126904
    27  H   -0.000648  -0.016757  -0.058091  -0.008626  -0.005719  -0.017602
    28  F    0.000022  -0.026178  -0.020451   0.017080   0.053153  -0.081536
    29  F    0.000002  -0.001339   0.002095   0.010944   0.073466  -0.235285
    30  F    0.000299  -0.005635  -0.007842  -0.002105  -0.008715  -0.106136
    31  F    0.000288  -0.005010  -0.006550  -0.001274  -0.007215  -0.106584
    32  F    0.000012  -0.026116  -0.021233   0.019619   0.052802  -0.081986
    33  O    0.003211   0.017542   0.000534  -0.022831  -0.005640  -0.001067
    34  O    0.004039  -0.259295  -0.029471   0.232951   0.051423  -0.001764
    35  C   -0.014446   0.128806  -0.009476  -0.076952  -0.051658  -0.018028
    36  C   -0.020829  -0.058879  -0.024083   0.038626   0.018401   0.000933
    37  C    0.004990  -0.022271  -0.001175   0.012520   0.011172  -0.000938
    38  H    0.000126  -0.000431  -0.000079   0.000530  -0.000081  -0.000009
    39  H    0.000139   0.000035  -0.000012   0.000019  -0.000158  -0.000012
    40  H   -0.000002   0.001401   0.000135  -0.000747  -0.001262  -0.000148
    41  H    0.000004   0.000063   0.000005  -0.000146   0.000027   0.000002
    42  H    0.000087  -0.000112  -0.000027   0.000217  -0.000373  -0.000103
              13         14         15         16         17         18
     1  C   -0.001111   0.447044   0.414496   0.420953  -0.027822  -0.026190
     2  C    0.002038  -0.115564  -0.062012  -0.060640   0.430939   0.431257
     3  C   -0.108439   0.024542  -0.009603  -0.014084  -0.093578  -0.095644
     4  N   -0.030339   0.000673   0.000558   0.000771   0.006686   0.006558
     5  C   -0.788385  -0.002163   0.003543   0.000296   0.001093   0.001814
     6  O    0.154269   0.000002  -0.000016  -0.000025  -0.000058  -0.000124
     7  N    0.093315   0.000016   0.000031   0.000035   0.000596   0.000037
     8  C   -3.263839  -0.000032   0.000051  -0.000016  -0.001283  -0.000413
     9  C   -0.299587  -0.000010  -0.000013  -0.000035   0.000201  -0.000019
    10  C   -2.055307  -0.000000   0.000004   0.000008  -0.000082   0.000008
    11  C   -4.187693   0.000000   0.000000   0.000000  -0.000006  -0.000001
    12  C    1.483157  -0.000000  -0.000000  -0.000000  -0.000004  -0.000002
    13  C   15.168296  -0.000000  -0.000001  -0.000002   0.000008  -0.000000
    14  H   -0.000000   0.479323  -0.025092  -0.025115  -0.002933  -0.002917
    15  H   -0.000001  -0.025092   0.486179  -0.030847  -0.004563   0.003719
    16  H   -0.000002  -0.025115  -0.030847   0.486346   0.003717  -0.004594
    17  H    0.000008  -0.002933  -0.004563   0.003717   0.489597  -0.036628
    18  H   -0.000000  -0.002917   0.003719  -0.004594  -0.036628   0.489478
    19  H   -0.000049  -0.000050  -0.000303   0.002561   0.004047  -0.005537
    20  H   -0.000007  -0.000058   0.002637  -0.000312  -0.005611   0.004068
    21  H   -0.000049  -0.000001  -0.000002  -0.000000   0.000962   0.000417
    22  H    0.012266  -0.000000  -0.000000  -0.000000  -0.000000  -0.000001
    23  H    0.062305   0.000000   0.000000  -0.000000  -0.000000  -0.000000
    24  H   -0.007525  -0.000000   0.000000   0.000000   0.000000   0.000000
    25  H    0.003028  -0.000000   0.000000   0.000000   0.000000  -0.000000
    26  S   -0.189837  -0.000000  -0.000000  -0.000000  -0.000000  -0.000000
    27  H    0.386260  -0.000000   0.000000   0.000000   0.000000   0.000000
    28  F   -0.063100  -0.000000  -0.000000  -0.000000   0.000000  -0.000000
    29  F    0.029867   0.000000   0.000000   0.000000   0.000000   0.000000
    30  F    0.017268  -0.000000  -0.000000   0.000000   0.000000  -0.000000
    31  F    0.014022  -0.000000   0.000000  -0.000000  -0.000000   0.000000
    32  F   -0.063307  -0.000000   0.000000  -0.000000  -0.000000   0.000000
    33  O    0.001292  -0.000068   0.000008   0.000006   0.000090   0.000113
    34  O    0.004269  -0.000000   0.000000   0.000000   0.000043   0.000012
    35  C   -0.002302  -0.000113  -0.000032  -0.000023  -0.000910  -0.001427
    36  C   -0.006176   0.000074  -0.000014  -0.000015  -0.000852  -0.000075
    37  C   -0.000759  -0.000000  -0.000000   0.000000  -0.000037  -0.000047
    38  H   -0.000005  -0.000000   0.000000   0.000000  -0.000000   0.000000
    39  H    0.000000  -0.000000   0.000000   0.000000   0.000000  -0.000000
    40  H    0.000029   0.000000   0.000000  -0.000000   0.000000   0.000000
    41  H    0.000000   0.000000  -0.000000  -0.000000  -0.000000  -0.000000
    42  H    0.000000   0.000000  -0.000000   0.000000  -0.000000   0.000000
              19         20         21         22         23         24
     1  C   -0.004634  -0.008972   0.000145  -0.000016   0.000000  -0.000004
     2  C   -0.043179  -0.038510   0.000682  -0.000492   0.000146   0.000001
     3  C    0.462113   0.440856  -0.024598  -0.005899   0.000811  -0.000108
     4  N   -0.046729  -0.043460   0.171069   0.008554  -0.000156   0.001391
     5  C   -0.054232  -0.039764  -0.007908  -0.045697  -0.012631   0.000631
     6  O    0.002207   0.001079   0.004381   0.003832  -0.005803   0.000060
     7  N   -0.000040  -0.001659   0.003169   0.119819  -0.014932  -0.010917
     8  C   -0.004716  -0.000279   0.007020   0.019836  -0.046269  -0.037349
     9  C   -0.000695  -0.001242   0.000990   0.055825   0.227813   0.019925
    10  C    0.000086   0.000164  -0.005241  -0.057430   0.009938   0.214868
    11  C   -0.000001   0.000001  -0.000804  -0.006041  -0.006614   0.010137
    12  C   -0.000035   0.000011  -0.000216   0.012424   0.080793   0.091258
    13  C   -0.000049  -0.000007  -0.000049   0.012266   0.062305  -0.007525
    14  H   -0.000050  -0.000058  -0.000001  -0.000000   0.000000  -0.000000
    15  H   -0.000303   0.002637  -0.000002  -0.000000   0.000000   0.000000
    16  H    0.002561  -0.000312  -0.000000  -0.000000  -0.000000   0.000000
    17  H    0.004047  -0.005611   0.000962  -0.000000  -0.000000   0.000000
    18  H   -0.005537   0.004068   0.000417  -0.000001  -0.000000   0.000000
    19  H    0.496108  -0.045642   0.001683   0.000005  -0.000000   0.000000
    20  H   -0.045642   0.497193   0.001462   0.000006  -0.000000   0.000000
    21  H    0.001683   0.001462   0.239947   0.007798   0.000002   0.000002
    22  H    0.000005   0.000006   0.007798   0.257902  -0.000167   0.006450
    23  H   -0.000000  -0.000000   0.000002  -0.000167   0.423715  -0.000108
    24  H    0.000000   0.000000   0.000002   0.006450  -0.000108   0.429131
    25  H    0.000000  -0.000000   0.000000  -0.000008   0.000012  -0.003482
    26  S   -0.000000   0.000000  -0.000002   0.000519   0.001054   0.004527
    27  H    0.000000   0.000000  -0.000000   0.000002  -0.003527   0.000013
    28  F    0.000000   0.000000  -0.000000   0.000000   0.000018   0.000027
    29  F    0.000000   0.000000  -0.000000   0.000000  -0.000001  -0.000001
    30  F    0.000000   0.000000  -0.000000   0.000000   0.000004   0.000023
    31  F    0.000000  -0.000000  -0.000000   0.000000   0.000003   0.000023
    32  F   -0.000000   0.000000  -0.000000   0.000000   0.000019   0.000027
    33  O   -0.000017   0.000080   0.064698   0.000704   0.000002   0.000008
    34  O   -0.000006  -0.000008   0.001998   0.084819   0.000003  -0.001101
    35  C    0.000506   0.000652  -0.004793  -0.006724  -0.000010  -0.000422
    36  C    0.000028   0.000088   0.009489   0.011975   0.000001   0.001026
    37  C    0.000002   0.000001  -0.001483  -0.001452  -0.000001  -0.000743
    38  H    0.000000  -0.000000   0.000001  -0.000023   0.000000   0.000000
    39  H   -0.000000   0.000000  -0.000006  -0.000023   0.000000  -0.000000
    40  H   -0.000000   0.000000  -0.000000  -0.000007   0.000000   0.000004
    41  H   -0.000000  -0.000000   0.000000  -0.000000  -0.000000   0.000000
    42  H    0.000000  -0.000000   0.000000  -0.000003   0.000000   0.000013
              25         26         27         28         29         30
[...]
 .10453744,-0.08043898,-0.14813123,0.00024387,0.00049735,-0.00033881,0.
 11479057,0.08619550,0.15975308,0.00000035,0.00000077,0.00000011,-0.000
 00193,-0.00000371,-0.00000042,0.00001045,-0.00000077,0.00000351,0.0000
 3426,0.00005338,0.00000005,-0.00009659,-0.00000083,0.00000152,0.000024
 42,-0.00000258,-0.00000163,-0.00000456,-0.00013073,0.00002252,0.000032
 65,-0.00001038,0.00000291,-0.00001000,-0.00000337,0.00000086,-0.000003
 43,0.00000895,-0.00000376,0.00000112,0.00000076,-0.00000098,-0.0000035
 7,-0.00000087,0.00000032,0.00000158,-0.00000338,-0.00000039,-0.0000003
 7,0.00000049,-0.00000015,-0.00000022,0.00000005,-0.00000009,-0.0000001
 9,0.00000001,-0.00000011,0.00000010,0.00000205,0.00000025,0.00000129,0
 .00000098,-0.00000021,-0.00000174,0.00000207,0.00000005,-0.00000069,0.
 00000097,-0.00000125,-0.00002104,-0.00013565,0.00000724,0.00001701,0.0
 0018703,-0.00003487,0.00000003,-0.00000006,0.00000063,0.00000313,0.000
 00130,0.00000196,-0.00000035,0.00000010,0.00000055,0.00000562,0.000002
 94,0.00000334,-0.00000088,-0.00000023,0.00000031,-0.00000109,-0.000000
 07,-0.00000009,-0.00000048,-0.00000032,-0.00000038,-0.00000104,-0.0000
 0132,0.00000066,-0.00000110,-0.00000203,-0.00000160,-0.00000140,0.0000
 0070,-0.00000177,-0.00024094,0.00191514,-0.00144013,0.00027512,-0.0020
 2424,-0.00008788,-0.00385395,-0.00135548,0.00394818,-0.09630953,0.0019
 5722,0.10691979,-0.01299716,0.00049000,0.02611135,0.00899261,0.0008845
 7,-0.01835916,0.10654870,0.00000131,0.00000316,0.00000127,0.00000295,-
 0.00000781,-0.00000585,-0.00002159,0.00001184,-0.00000166,0.00003552,-
 0.00001845,0.00005063,-0.00017009,0.00007673,-0.00001083,0.00004862,-0
 .00011146,0.00001282,-0.00004780,-0.00046058,0.00013437,0.00016210,-0.
 00001863,0.00001182,-0.00004638,-0.00002057,-0.00000400,-0.00003309,0.
 00003807,-0.00001038,0.00001016,0.00000263,0.00000244,-0.00002152,-0.0
 0000565,-0.00000145,0.00000996,-0.00001164,0.00000134,0.00000167,-0.00
 000055,0.00000032,0.00000019,-0.00000035,0.00000017,0.00000034,-0.0000
 0038,0.00000002,-0.00000193,0.00000209,-0.00000023,0.00000129,-0.00000
 086,0.00000197,0.00000393,-0.00000390,-0.00000020,0.00000734,-0.000004
 20,0.00000229,-0.00003483,0.00009601,-0.00010130,0.00007956,0.00078215
 ,-0.00024333,0.00000097,0.00000130,0.00000024,0.00002422,-0.00000626,0
 .00000226,-0.00000300,-0.00000064,0.00000071,0.00003411,0.00000520,0.0
 0000072,-0.00000386,-0.00000076,0.00000079,-0.00000775,0.00000476,0.00
 000440,-0.00000300,-0.00000047,-0.00000007,-0.00000587,-0.00000638,0.0
 0000567,-0.00000591,-0.00000762,-0.00000462,-0.00000800,0.00000411,-0.
 00000582,0.00004978,-0.00070792,-0.00304457,-0.00278385,-0.00698657,-0
 .00168611,-0.01230157,0.00287069,0.03204345,0.00164841,-0.04525025,0.0
 0346466,0.00740624,-0.00084204,-0.01531920,0.00748165,0.00023870,-0.01
 498560,-0.00365460,0.05044998,0.00000106,-0.00000070,-0.00000073,-0.00
 000330,0.00000531,-0.00000057,0.00001726,-0.00000758,0.00000010,-0.000
 01252,0.00004411,-0.00002672,0.00007353,-0.00004020,0.00000632,-0.0000
 1952,0.00005927,-0.00001068,0.00002959,0.00019482,-0.00003895,-0.00007
 915,0.00001220,0.00000077,0.00002324,0.00000989,-0.00000127,0.00001568
 ,-0.00001993,-0.00000473,-0.00000534,-0.00000101,0.00000188,0.00001105
 ,0.00000341,0.00000095,-0.00000462,0.00000642,-0.00000015,-0.00000249,
 -0.00000036,-0.00000016,-0.00000010,-0.00000014,0.,-0.00000052,0.00000
 077,0.00000047,0.00000087,-0.00000128,0.00000033,-0.00000118,0.0000006
 8,0.00000134,-0.00000346,0.00000290,0.00000039,-0.00000529,0.00000260,
 -0.00000105,0.00001035,-0.00005674,0.00004733,-0.00004484,-0.00034203,
 0.00006286,-0.00000036,-0.00000052,-0.00000027,-0.00001191,0.00000397,
 -0.00000069,0.00000111,-0.00000008,-0.00000038,-0.00001982,-0.00000602
 ,-0.00000128,0.00000200,0.00000042,-0.00000030,0.00000431,-0.00000182,
 -0.00000189,0.00000227,0.00000068,0.00000013,0.00000352,0.00000406,-0.
 00000316,0.00000349,0.00000490,0.00000297,0.00000457,-0.00000167,0.000
 00305,-0.00071856,0.00063289,0.00201534,0.00031710,0.00255459,-0.00011
 466,0.00426045,-0.00331455,-0.00895277,0.10598761,0.00129130,-0.264643
 09,-0.00211552,-0.00027388,0.00390201,0.00858008,0.00056083,-0.0183568
 4,-0.11624850,-0.00121357,0.28388874,0.00000049,-0.00000050,-0.0000002
 0,-0.00000098,0.00000132,0.00000140,0.00000868,-0.00000131,0.00000068,
 0.00000749,0.00004460,-0.00001108,-0.00001523,-0.00000869,0.00000500,0
 .00000371,0.00001682,-0.00000499,0.00000736,0.00002552,-0.00000946,-0.
 00001095,-0.00000076,0.00000087,0.00000321,0.00000179,-0.00000021,0.00
 000290,-0.00000429,-0.00000082,-0.00000126,0.00000052,-0.00000184,0.00
 000221,0.00000061,0.00000039,-0.00000088,0.00000056,-0.00000053,-0.000
 00038,0.00000010,0.00000019,-0.00000044,0.00000064,-0.00000059,-0.0000
 0012,0.00000013,0.00000010,-0.00000057,-0.00000043,0.00000062,0.000000
 48,-0.00000103,-0.00000154,-0.00000188,0.00000163,-0.00000014,-0.00000
 159,0.00000203,-0.00000117,-0.00000179,-0.00006804,0.00001180,-0.00000
 026,-0.00004405,0.00000686,-0.00000014,-0.00000009,0.00000035,-0.00000
 155,0.00000505,0.00000152,0.00000032,-0.00000089,0.00000018,-0.0000024
 5,-0.00000167,0.00000248,0.00000030,0.00000022,0.00000007,0.00000061,-
 0.00000021,-0.00000033,0.00000035,0.00000024,-0.00000028,0.00000037,0.
 00000097,-0.00000114,0.00000050,0.00000076,0.00000010,0.00000047,0.000
 00021,-0.00000050,0.00004641,0.00045838,-0.00042425,0.00092674,0.00016
 585,-0.00045942,-0.00003341,-0.00186883,0.00074661,-0.01320361,0.00080
 869,0.02744558,-0.09837262,0.00286278,0.10541874,0.00119164,-0.0008584
 8,-0.00008794,-0.00481240,0.00348691,-0.00080169,0.10714418,-0.0000002
 1,-0.00000014,0.00000038,0.00000005,0.00000036,-0.00000035,0.00000122,
 -0.00000197,-0.00000055,-0.00000509,-0.00000795,0.00000211,0.00002129,
 -0.00000606,-0.00000151,-0.00000518,0.00000718,0.00000003,0.00000086,0
 .00003166,-0.00000415,-0.00000638,0.00000376,0.00000528,0.00000228,0.0
 0000070,-0.00000074,-0.00000072,-0.00000545,-0.00000360,-0.00000048,-0
 .00000025,0.00000027,0.00000053,0.00000091,0.00000024,0.00000052,0.000
 00200,0.00000036,-0.00000018,0.00000004,-0.00000007,0.00000020,-0.0000
 0020,0.00000019,-0.00000006,0.00000006,-0.00000004,0.00000041,-0.00000
 005,-0.00000028,-0.00000033,0.00000020,0.00000052,-0.00000025,0.000000
 20,0.00000012,-0.00000041,-0.00000009,0.00000014,-0.00000032,0.0000056
 8,0.00000167,-0.00001150,-0.00005272,0.00000423,0.00000024,0.00000013,
 -0.00000046,-0.00000334,-0.00000005,-0.00000361,-0.00000094,-0.0000003
 9,-0.00000036,-0.00000662,-0.00000429,-0.00000228,0.00000034,0.0000001
 5,-0.00000020,0.00000114,0.00000051,0.00000025,0.00000117,0.00000060,0
 .00000023,0.00000131,0.00000157,-0.00000091,0.00000128,0.00000219,0.00
 000152,0.00000137,-0.00000024,0.00000118,-0.00002628,-0.00000423,0.000
 25819,0.00016913,-0.00010135,-0.00013529,-0.00023978,0.00029702,-0.000
 78886,0.00670607,-0.00095084,-0.01502910,0.00221333,-0.04768629,-0.006
 16332,-0.00067409,0.00048267,0.00034792,0.00299375,-0.00109844,0.00040
 510,-0.00548418,0.04742548,-0.00000084,0.00000017,0.00000023,0.0000005
 7,-0.00000029,-0.00000194,-0.00000411,0.00000066,-0.00000054,-0.000011
 24,-0.00002809,0.00001025,0.00001987,-0.00000004,-0.00000149,-0.000005
 11,-0.00000587,0.00000144,-0.00000435,0.00000076,0.00000565,0.00000827
 ,0.00000288,-0.00000179,-0.00000195,-0.00000002,0.00000175,-0.00000309
 ,0.00000129,-0.00000074,0.00000219,-0.00000146,0.00000272,-0.00000192,
 0.00000066,0.00000015,0.00000120,0.00000063,-0.00000058,0.00000026,0.0
 0000018,-0.00000012,0.00000034,-0.00000043,0.00000063,0.00000014,-0.00
 000011,-0.00000014,0.00000026,0.00000051,0.00000011,0.,0.00000037,0.00
 000097,0.00000048,-0.00000057,-0.00000011,0.00000078,-0.00000113,0.000
 00087,0.00000846,0.00003890,-0.00001292,-0.00000801,-0.00000134,-0.000
 00546,0.00000044,0.00000036,-0.00000034,-0.00000013,-0.00000982,-0.000
 00041,-0.00000177,0.00000021,-0.00000053,-0.00000118,-0.00000593,-0.00
 000350,-0.00000004,-0.00000002,-0.00000018,-0.00000030,0.00000162,0.00
 000118,0.00000056,0.00000080,0.00000037,0.00000029,0.00000109,-0.00000
 022,0.00000037,0.00000185,0.00000131,0.00000020,0.00000063,0.00000059,
 -0.00017548,-0.00053153,0.00006992,-0.00114867,0.00058458,0.00036168,0
 .00125891,0.00107008,-0.00017794,-0.00172453,-0.00025983,0.00333983,0.
 10678390,-0.00801436,-0.27122930,0.00046940,-0.00026973,0.00068866,-0.
 00040852,0.00058184,0.00140903,-0.11670194,0.00669896,0.29101046,0.000
 00179,-0.00000073,0.00000007,-0.00000716,0.00000299,0.00000003,0.00004
 249,-0.00000793,0.00000123,0.00006828,0.00022343,-0.00005504,-0.000100
 91,-0.00003499,0.00000681,0.00002718,0.00007214,-0.00001543,0.00004320
 ,0.00006074,-0.00000930,-0.00004870,-0.00000822,0.00000024,0.00001329,
 0.00000760,-0.00000069,0.00001330,-0.00000586,0.00000071,-0.00000336,-
 0.00000038,0.00000028,0.00000799,0.00000127,-0.00000014,-0.00000441,0.
 00000148,-0.00000004,-0.00000211,0.00000048,-0.00000011,-0.00000106,0.
 00000122,-0.00000090,-0.00000105,0.00000148,0.00000028,-0.00000026,-0.
 00000121,0.00000497,-0.00000011,-0.00000327,-0.00000407,-0.00000762,0.
 00000793,0.00000013,-0.00000789,0.00000719,-0.00000358,-0.00004904,-0.
 00034200,0.00008759,-0.00001696,-0.00012332,0.00002616,-0.00000075,-0.
 00000124,-0.00000009,-0.00000747,0.00000478,-0.00000077,0.00000147,0.0
 0000018,-0.00000019,-0.00000876,-0.00000013,-0.00000017,0.00000079,0.0
 0000018,0.,0.00000202,-0.00000164,-0.00000129,0.00000046,-0.00000010,0
 .00000004,0.00000137,0.00000138,-0.00000128,0.00000138,0.00000161,0.00
 000101,0.00000209,-0.00000136,0.00000166,-0.00136116,0.00368150,-0.000
 94965,0.00142615,0.00002029,-0.00014808,-0.00565932,-0.00197496,0.0013
 9741,0.00463560,0.03051842,-0.01035686,-0.05275945,-0.03746174,0.01226
 307,0.00126660,-0.00085105,-0.00010441,0.00124873,-0.00076560,0.000327
 63,-0.00255264,-0.01305440,0.00284785,0.05657631,-0.00000197,0.0000013
 1,-0.00000044,0.00000545,-0.00000403,0.00000110,-0.00003731,0.00000954
 ,-0.00000182,-0.00004141,-0.00016299,0.00004148,0.00004360,0.00005147,
 -0.00001222,-0.00001139,-0.00007902,0.00001825,-0.00004983,-0.00011644
 ,0.00001720,0.00006212,-0.00000135,-0.00000456,-0.00001747,-0.00000972
 ,0.00000270,-0.00001539,0.00001060,0.00000166,0.00000477,0.00000161,-0
 .00000005,-0.00001044,-0.00000353,-0.00000033,0.00000433,-0.00000389,0
 .00000037,0.00000262,0.00000009,0.00000001,0.00000104,-0.00000114,0.00
 000114,0.00000106,-0.00000159,-0.00000057,-0.00000021,0.00000103,-0.00
 000363,-0.00000056,0.00000286,0.00000270,0.00000707,-0.00000722,-0.000
 00041,0.00000734,-0.00000646,0.00000343,0.00002444,0.00028719,-0.00007
 297,0.00005246,0.00024217,-0.00004106,0.00000049,0.00000073,-0.0000004
 3,0.00001097,0.00000170,-0.00000290,-0.00000086,0.00000045,-0.00000004
 ,0.00001974,0.00000458,-0.00000076,-0.00000139,-0.00000042,0.00000011,
 -0.00000439,0.00000181,0.00000231,-0.00000242,-0.00000061,0.00000010,-
 0.00000341,-0.00000371,0.00000321,-0.00000348,-0.00000425,-0.00000232,
 -0.00000451,0.00000145,-0.00000260,0.00136391,-0.00250105,0.00061438,0
 .00017324,-0.00104797,0.00037638,0.00194815,0.00289473,-0.00086682,-0.
 00376547,-0.01366015,0.00441633,-0.03574290,-0.28878097,0.08003516,-0.
 00004680,0.00070860,0.00017325,-0.00026668,0.00038027,-0.00044644,-0.0
 0001719,0.00253863,-0.00036695,0.03794530,0.31206210,0.00000040,-0.000
 00035,-0.00000017,-0.00000086,0.00000112,0.00000079,0.00000657,-0.0000
 0179,0.00000070,0.00000518,0.00002461,-0.00000478,-0.00000268,-0.00001
 189,0.00000209,0.00000076,0.00001567,-0.00000355,0.00001162,0.00002832
 ,0.00000591,-0.00001416,0.00000117,-0.00000109,0.00000389,0.00000229,-
 0.00000006,0.00000332,-0.00000181,-0.00000179,-0.00000102,-0.00000032,
 0.00000190,0.00000239,0.00000081,-0.00000054,-0.00000091,0.00000104,0.
 00000034,-0.00000057,-0.00000006,0.00000005,-0.00000016,0.00000022,-0.
 00000025,-0.00000021,0.00000027,0.00000012,0.00000018,-0.00000018,0.00
 000042,0.00000013,-0.00000039,-0.00000046,-0.00000129,0.00000141,0.000
 00006,-0.00000122,0.00000098,-0.00000066,-0.00000216,-0.00004952,0.000
 01304,-0.00001682,-0.00006189,0.00000326,-0.00000008,-0.00000010,-0.00
 000005,-0.00000227,-0.00000041,-0.00000227,0.00000017,-0.00000022,-0.0
 0000021,-0.00000454,-0.00000113,-0.00000064,0.00000037,0.00000008,-0.0
 0000012,0.00000097,-0.00000028,-0.00000034,0.00000058,0.00000015,0.000
 00005,0.00000078,0.00000082,-0.00000058,0.00000079,0.00000103,0.000000
 60,0.00000109,-0.00000042,0.00000078,-0.00025585,0.00036291,-0.0000078
 0,-0.00018757,0.00042020,0.00010684,0.00018124,-0.00040693,0.00090724,
 0.00049976,0.00023566,-0.00128521,0.01166292,0.08031204,-0.07576884,0.
 00015850,0.00010900,-0.00007857,-0.00033391,-0.00021674,0.00027271,0.0
 0334641,0.02808335,-0.00792811,-0.01319265,-0.08846314,0.07610311,0.00
 000064,-0.00000030,0.00000050,-0.00000097,0.00000051,-0.00000151,0.000
 00917,-0.00000123,-0.00000032,0.00001038,0.00005274,-0.00001017,-0.000
 02154,-0.00001028,0.00000005,0.00000516,0.00001929,-0.00000293,0.00000
 780,0.00002599,-0.00000367,-0.00001132,-0.00000190,-0.00000081,0.00000
 366,0.00000229,-0.00000096,0.00000224,-0.00000359,-0.00000046,-0.00000
 162,0.00000140,-0.00000035,0.00000236,0.00000043,0.00000060,-0.0000011
 0,0.00000081,0.00000068,-0.00000029,-0.00000003,-0.00000016,-0.0000001
 6,0.00000016,-0.00000029,-0.00000049,0.00000091,0.00000034,0.00000049,
 -0.00000045,0.00000204,-0.00000067,-0.00000103,-0.00000079,-0.00000163
 ,0.00000254,0.00000025,-0.00000196,0.00000172,-0.00000080,-0.00000278,
 -0.00007514,0.00002127,-0.00000162,-0.00004524,0.00000011,-0.00000018,
 -0.00000006,-0.00000048,-0.00000120,0.00001012,-0.00000482,0.00000074,
 -0.00000096,-0.00000013,-0.00000217,-0.00000169,-0.00000336,0.00000031
 ,0.00000017,-0.00000013,0.00000036,0.00000029,0.00000057,0.00000013,0.
 00000020,0.00000036,0.00000049,0.00000043,0.00000021,0.00000038,0.0000
 0118,0.00000097,0.00000071,-0.00000025,0.00000092,0.00012344,0.0006770
 5,0.00001624,0.00122441,0.00028306,0.00014290,-0.00025877,-0.00214852,
 0.00062799,-0.01866816,-0.01360445,-0.01926812,-0.15127935,-0.07714408
 ,-0.10709426,-0.00463666,0.00367813,0.00004013,0.00116747,-0.00057700,
 0.00042189,0.00966677,0.00740428,0.00879845,-0.00278029,-0.00163261,-0
 .00186907,0.16544584,0.00000023,-0.00000027,-0.00000016,-0.00000032,0.
 00000036,-0.00000014,0.00000316,-0.00000229,0.00000142,0.00000108,0.00
 000724,-0.00000122,0.00001145,-0.00000870,0.00000514,-0.00000301,0.000
 01072,-0.00000346,0.00000258,0.00002948,-0.00000516,-0.00000730,0.0000
 0159,-0.00000286,0.00000208,0.00000099,-0.00000024,0.00000081,-0.00000
 676,-0.00000232,-0.00000371,0.00000188,0.00000062,0.00000208,0.0000013
 3,-0.00000100,0.00000049,0.00000165,0.00000012,-0.00000033,-0.00000006
 ,0.00000004,-0.00000016,0.00000015,-0.00000013,0.,0.00000007,0.0000001
 1,-0.00000028,0.00000010,0.00000002,0.00000031,-0.00000002,0.00000029,
 -0.00000071,0.00000052,0.00000009,-0.00000057,0.00000041,-0.00000053,-
 0.00000476,-0.00001559,-0.00000008,-0.00000872,-0.00004762,-0.00000153
 ,0.00000013,0.00000009,0.00000039,0.00000072,0.00001153,0.00000039,0.0
 0000007,-0.00000045,0.00000024,-0.00000765,-0.00000128,0.00000198,0.00
 000037,0.00000008,-0.00000007,0.00000165,-0.00000111,-0.00000105,0.000
 00128,0.00000020,-0.00000022,0.00000131,0.00000142,-0.00000159,0.00000
 147,0.00000142,0.00000066,0.00000174,-0.00000024,0.00000025,0.00000101
 ,0.00011314,-0.00032601,0.00071397,-0.00026863,0.00034643,-0.00067415,
 0.00026526,0.00078940,0.01077483,0.00803904,0.01164251,-0.07866844,-0.
 10523582,-0.08139163,0.00312528,-0.00118224,0.00050712,-0.00090594,0.0
 0060471,-0.00007261,0.00047432,-0.00088070,0.00050849,-0.01792146,-0.0
 1280641,-0.02038558,0.08308510,0.11136480,0.00000063,0.00000026,0.0000
 0014,-0.00000044,-0.00000089,-0.00000052,0.00000063,0.00000070,-0.0000
 0060,0.00001143,0.00001823,-0.00000339,-0.00002717,0.00000683,-0.00000
 331,0.00000651,-0.00000331,0.00000213,0.00000440,-0.00002190,-0.000000
 16,-0.00000253,-0.00000496,0.00000211,0.00000027,-0.00000064,-0.000000
 47,0.00000280,0.00000577,-0.00000063,-0.00000071,0.00000161,0.00000172
 ,0.00000069,-0.00000180,-0.00000058,-0.00000147,-0.00000177,0.00000098
 ,0.00000005,-0.00000017,0.,-0.00000009,0.00000003,-0.00000013,-0.00000
 022,0.00000040,0.00000025,0.00000010,0.00000011,0.00000072,-0.00000031
 ,-0.00000023,-0.00000012,0.00000010,0.00000049,0.00000024,0.00000017,0
 .,-0.00000005,-0.00000694,-0.00002083,0.00000526,0.00001197,0.00004264
 ,-0.00001173,-0.00000046,-0.00000046,-0.00000054,0.00000190,0.00000777
 ,-0.00000859,0.00000222,0.00000026,-0.00000075,0.00000639,0.00000792,-
 0.00000460,-0.00000022,-0.00000009,0.00000002,-0.00000123,-0.00000055,
 0.00000091,-0.00000158,-0.00000112,0.00000055,-0.00000129,-0.00000270,
 0.00000257,-0.00000133,-0.00000266,-0.00000092,-0.00000083,-0.00000132
 ,0.00000094,0.00014079,0.00032112,-0.00013693,0.00070892,-0.00026625,0
 .00018914,-0.00087786,-0.00069249,0.00022504,0.00035563,0.00051049,-0.
 00035161,-0.10778111,-0.07992350,-0.16043846,-0.00003430,0.00019721,0.
 00134044,-0.00010032,0.00053133,0.00054362,-0.01847988,-0.01367659,-0.
 01754143,0.00787757,0.00457918,0.00766611,0.11818712,0.08839187,0.1685
 2264\\0.00000088,0.00000543,0.00000137,0.00000058,0.00000415,0.0000007
 4,0.00000033,0.00000359,0.00000184,0.00000232,0.00000332,-0.00000034,0
 .00000118,0.00000193,0.00000129,0.00000245,0.00000055,0.00000368,-0.00
 000026,0.00000418,0.00000073,0.00000125,-0.00000075,0.00000183,0.00000
 159,-0.00000177,0.00000287,-0.00000068,-0.00000142,0.00000007,0.000000
 61,-0.00000327,-0.00000012,0.00000098,-0.00000352,0.00000205,0.0000020
 6,-0.00000162,0.00000325,0.00000046,0.00000607,0.00000067,0.00000139,0
 .00000687,0.00000196,0.00000181,0.00000464,0.00000244,-0.00000049,0.00
 000522,-0.00000067,0.00000005,0.00000273,0.00000016,0.00000186,0.00000
 232,0.00000276,0.00000167,0.00000470,0.00000224,0.00000027,0.00000244,
 -0.00000030,-0.00000102,-0.00000210,0.00000005,0.00000281,-0.00000026,
 0.00000370,-0.00000044,-0.00000192,-0.00000132,-0.00000044,-0.00000358
 ,-0.00000061,0.00000191,-0.00000445,0.00000187,0.00000317,-0.00000255,
 0.00000430,0.00000053,-0.00000339,0.00000093,0.00000191,-0.00000598,0.
 00000274,0.00000250,-0.00000287,0.00000400,0.00000282,-0.00000583,0.00
 000421,0.00000045,-0.00000648,0.00000101,-0.00000344,-0.00000066,-0.00
 000229,0.00000158,-0.00000169,-0.00000346,-0.00000361,0.00000023,-0.00
 000238,-0.00000326,0.00000007,-0.00000490,-0.00000492,-0.00000076,-0.0
 0000723,-0.00000410,0.00000212,-0.00000587,-0.00000369,-0.00000060,-0.
 00000499,-0.00000405,-0.00000075,-0.00000585,-0.00000524,-0.00000147,-
 0.00000741,-0.00000376,-0.00000289,-0.00000500\\\@


 NOT WHAT WE DID SHALL BE THE TEST
 WHEN ACT AND WILL ARE DONE,
 BUT WHAT OUR LORD INFERS WE WOULD-
 HAD WE DIVINER BEEN.
           EMILY DICKINSON  POEMS NO. CLXXV
 Job cpu time:       0 days  7 hours 29 minutes  7.4 seconds.
 File lengths (MBytes):  RWF=   1339 Int=      0 D2E=      0 Chk=     36 Scr=      1
 Normal termination of Gaussian 09 at Fri Mar  1 12:26:14 2019.
WARNING: pbs_rusage is deprecated and values produced may not be accurate


=============================================================================
                                     Resource usage:
                                       CPU time:              28:09:31
   JobId:    6286804.r-man2            Elapsed time:          03:33:19
   Project:             q95            Requested time:        48:00:00
   Service Units:     28.44 
                                       Max physical memory:     1576MB
                                       Max virtual memory:      3337MB
                                       Requested memory:           0MB

                                       Number of cpus:               8

                                       Max jobfs disk use:       1.3GB
                                       Requested jobfs:         24.0GB
=============================================================================

