 Entering Gaussian System, Link 0=/apps/gaussian/g09e01/g09/g09
 AtFile(1): /home/507/hio507/Basis/6-31pGd.gbs
 Initial command:
 /apps/gaussian/g09e01/g09/l1.exe "/jobfs/local/5880699.r-man2/Gau-22125.inp" -scrdir="/jobfs/local/5880699.r-man2/"
 Entering Link 1 = /apps/gaussian/g09e01/g09/l1.exe PID=     22126.
  
 Copyright (c) 1988,1990,1992,1993,1995,1998,2003,2009,2015,
            Gaussian, Inc.  All Rights Reserved.
  
 This is part of the Gaussian(R) 09 program.  It is based on
 the Gaussian(R) 03 system (copyright 2003, Gaussian, Inc.),
 the Gaussian(R) 98 system (copyright 1998, Gaussian, Inc.),
 the Gaussian(R) 94 system (copyright 1995, Gaussian, Inc.),
 the Gaussian 92(TM) system (copyright 1992, Gaussian, Inc.),
 the Gaussian 90(TM) system (copyright 1990, Gaussian, Inc.),
 the Gaussian 88(TM) system (copyright 1988, Gaussian, Inc.),
 the Gaussian 86(TM) system (copyright 1986, Carnegie Mellon
 University), and the Gaussian 82(TM) system (copyright 1983,
 Carnegie Mellon University). Gaussian is a federally registered
 trademark of Gaussian, Inc.
  
 This software contains proprietary and confidential information,
 including trade secrets, belonging to Gaussian, Inc.
  
 This software is provided under written license and may be
 used, copied, transmitted, or stored only in accord with that
 written license.
  
 The following legend is applicable only to US Government
 contracts under FAR:
  
                    RESTRICTED RIGHTS LEGEND
  
 Use, reproduction and disclosure by the US Government is
 subject to restrictions as set forth in subparagraphs (a)
 and (c) of the Commercial Computer Software - Restricted
 Rights clause in FAR 52.227-19.
  
 Gaussian, Inc.
 340 Quinnipiac St., Bldg. 40, Wallingford CT 06492
  
  
 ---------------------------------------------------------------
 Warning -- This program may not be used in any manner that
 competes with the business of Gaussian, Inc. or will provide
 assistance to any competitor of Gaussian, Inc.  The licensee
 of this program is prohibited from giving any competitor of
 Gaussian, Inc. access to this program.  By using this program,
 the user acknowledges that Gaussian, Inc. is engaged in the
 business of creating and licensing software in the field of
 computational chemistry and represents and warrants to the
 licensee that it is not a competitor of Gaussian, Inc. and that
 it will not use this program in any manner prohibited above.
 ---------------------------------------------------------------
  

 Cite this work as:
 Gaussian 09, Revision E.01,
 M. J. Frisch, G. W. Trucks, H. B. Schlegel, G. E. Scuseria, 
 M. A. Robb, J. R. Cheeseman, G. Scalmani, V. Barone, B. Mennucci, 
 G. A. Petersson, H. Nakatsuji, M. Caricato, X. Li, H. P. Hratchian, 
 A. F. Izmaylov, J. Bloino, G. Zheng, J. L. Sonnenberg, M. Hada, 
 M. Ehara, K. Toyota, R. Fukuda, J. Hasegawa, M. Ishida, T. Nakajima, 
 Y. Honda, O. Kitao, H. Nakai, T. Vreven, J. A. Montgomery, Jr., 
 J. E. Peralta, F. Ogliaro, M. Bearpark, J. J. Heyd, E. Brothers, 
 K. N. Kudin, V. N. Staroverov, T. Keith, R. Kobayashi, J. Normand, 
 K. Raghavachari, A. Rendell, J. C. Burant, S. S. Iyengar, J. Tomasi, 
 M. Cossi, N. Rega, J. M. Millam, M. Klene, J. E. Knox, J. B. Cross, 
 V. Bakken, C. Adamo, J. Jaramillo, R. Gomperts, R. E. Stratmann, 
 O. Yazyev, A. J. Austin, R. Cammi, C. Pomelli, J. W. Ochterski, 
 R. L. Martin, K. Morokuma, V. G. Zakrzewski, G. A. Voth, 
 P. Salvador, J. J. Dannenberg, S. Dapprich, A. D. Daniels, 
 O. Farkas, J. B. Foresman, J. V. Ortiz, J. Cioslowski, 
 and D. J. Fox, Gaussian, Inc., Wallingford CT, 2013.
 
 ******************************************
 Gaussian 09:  ES64L-G09RevE.01 30-Nov-2015
                19-Feb-2019 
 ******************************************
 %chk=4SF5_EtO.M062X_6-31pGd_opt_Pentadecane.chk
 %mem=196608000
 %nproc=8
 Will use up to    8 processors via shared memory.
 ----------------------------------------------------------------------
 # M062X/Gen 6D SCF=Tight INT(grid=ultrafine) OPT IOP(2/17=4) SCRF=(SMD
 ,Solvent=n-Pentadecane) maxdisk=3221225472
 ----------------------------------------------------------------------
 1/14=-1,18=20,19=15,26=4,38=1/1,3;
 2/9=110,12=2,17=4,18=5,40=1/2;
 3/5=7,8=2,11=2,16=1,25=1,30=1,70=32201,71=1,72=151,74=-55,75=-5/1,2,3;
 4//1;
 5/5=2,32=2,38=5,53=151/2;
 6/7=2,8=2,9=2,10=2,28=1/1;
 7//1,2,3,16;
 1/14=-1,18=20,19=15,26=4/3(2);
 2/9=110,17=4/2;
 99//99;
 2/9=110,17=4/2;
 3/5=7,6=1,8=2,11=2,16=1,25=1,30=1,70=32205,71=1,72=151,74=-55,75=-5,82=7/1,2,3;
 4/5=5,16=3,69=1/1;
 5/5=2,32=2,38=5,53=151/2;
 7//1,2,3,16;
 1/14=-1,18=20,19=15,26=4/3(-5);
 2/9=110,17=4/2;
 6/7=2,8=2,9=2,10=2,19=2,28=1/1;
 99/9=1/99;
 --------------------------------------
 4SF5_EtO.M062X_6-31pGd_opt_Pentadecane
 --------------------------------------
 Symbolic Z-matrix:
 Charge = -1 Multiplicity = 1
 C                    -2.07415   2.44776  -0.17477 
 C                    -0.75423   1.70244  -0.04871 
 C                     0.45227   2.64183  -0.17011 
 N                     1.68418   1.88306  -0.05982 
 C                     2.9123    2.45424  -0.14453 
 O                     2.98169   3.6565   -0.33161 
 N                     4.04304   1.67545  -0.02427 
 C                     5.40631   2.18239  -0.11332 
 C                     5.77092   3.55462  -0.30373 
 C                     6.45832   1.26168  -0.00586 
 C                     7.79706   1.66333  -0.07613 
 C                     8.14805   3.00944  -0.25499 
 C                     7.117     3.95158  -0.3724 
 H                    -2.91047   1.72182  -0.08894 
 H                    -2.13704   2.95052  -1.16258 
 H                    -2.16938   3.20198   0.63426 
 H                    -0.70048   0.93468  -0.85188 
 H                    -0.72554   1.19013   0.93844 
 H                     0.41523   3.40205   0.64057 
 H                     0.4241    3.15471  -1.15607 
 H                     1.61351   0.77672   0.09759 
 H                     3.87438   0.51186   0.16396 
 H                     5.07266   4.36598  -0.40066 
 H                     6.24423   0.21342   0.13638 
 H                     8.56724   0.91149   0.01503 
 S                     9.9091    3.49838  -0.31832 
 H                     7.35328   5.00195  -0.51354 
 F                     10.25053   2.20145  -1.38136 
 F                     11.55771   3.95636  -0.37559 
 F                     9.61181   4.50366  -1.67109 
 F                     9.6059    4.80703   0.74596 
 F                     10.24437   2.50857   1.04015 
 O                     1.33886  -1.16252   0.71633 
 O                     3.53957  -1.49935   0.73928 
 C                     2.39888  -1.95844   0.89602 
 C                     2.05882  -3.38593   1.29871 
 C                     3.18374  -4.41096   1.377 
 H                     1.31818  -3.78084   0.56765 
 H                     1.55015  -3.33965   2.28755 
 H                     3.62514  -4.57737   0.37318 
 H                     2.74654  -5.38111   1.71397 
 H                     3.96138  -4.11154   2.10554 
 
 Add virtual bond connecting atoms O33        and H21        Dist= 3.88D+00.
 Add virtual bond connecting atoms O34        and H22        Dist= 4.00D+00.

 GradGradGradGradGradGradGradGradGradGradGradGradGradGradGradGradGradGrad
 Berny optimization.
 Initialization pass.
                           ----------------------------
                           !    Initial Parameters    !
                           ! (Angstroms and Degrees)  !
 --------------------------                            --------------------------
 ! Name  Definition              Value          Derivative Info.                !
 --------------------------------------------------------------------------------
 ! R1    R(1,2)                  1.521          estimate D2E/DX2                !
 ! R2    R(1,14)                 1.1108         estimate D2E/DX2                !
 ! R3    R(1,15)                 1.1102         estimate D2E/DX2                !
 ! R4    R(1,16)                 1.1102         estimate D2E/DX2                !
 ! R5    R(2,3)                  1.5339         estimate D2E/DX2                !
 ! R6    R(2,17)                 1.1124         estimate D2E/DX2                !
 ! R7    R(2,18)                 1.1125         estimate D2E/DX2                !
 ! R8    R(3,4)                  1.451          estimate D2E/DX2                !
 ! R9    R(3,19)                 1.112          estimate D2E/DX2                !
 ! R10   R(3,20)                 1.1117         estimate D2E/DX2                !
 ! R11   R(4,5)                  1.3571         estimate D2E/DX2                !
 ! R12   R(4,21)                 1.1197         estimate D2E/DX2                !
 ! R13   R(5,6)                  1.2187         estimate D2E/DX2                !
 ! R14   R(5,7)                  1.3782         estimate D2E/DX2                !
 ! R15   R(7,8)                  1.4572         estimate D2E/DX2                !
 ! R16   R(7,22)                 1.1907         estimate D2E/DX2                !
 ! R17   R(8,9)                  1.4326         estimate D2E/DX2                !
 ! R18   R(8,10)                 1.4021         estimate D2E/DX2                !
 ! R19   R(9,13)                 1.4051         estimate D2E/DX2                !
 ! R20   R(9,23)                 1.0748         estimate D2E/DX2                !
 ! R21   R(10,11)                1.3995         estimate D2E/DX2                !
 ! R22   R(10,24)                1.0793         estimate D2E/DX2                !
 ! R23   R(11,12)                1.4026         estimate D2E/DX2                !
 ! R24   R(11,25)                1.0802         estimate D2E/DX2                !
 ! R25   R(12,13)                1.4016         estimate D2E/DX2                !
 ! R26   R(12,26)                1.8288         estimate D2E/DX2                !
 ! R27   R(13,27)                1.0858         estimate D2E/DX2                !
 ! R28   R(21,33)                2.054          estimate D2E/DX2                !
 ! R29   R(22,34)                2.1185         estimate D2E/DX2                !
 ! R30   R(26,28)                1.7113         estimate D2E/DX2                !
 ! R31   R(26,29)                1.712          estimate D2E/DX2                !
 ! R32   R(26,30)                1.7114         estimate D2E/DX2                !
 ! R33   R(26,31)                1.7138         estimate D2E/DX2                !
 ! R34   R(26,32)                1.7139         estimate D2E/DX2                !
 ! R35   R(33,35)                1.3377         estimate D2E/DX2                !
 ! R36   R(34,35)                1.2396         estimate D2E/DX2                !
 ! R37   R(35,36)                1.5217         estimate D2E/DX2                !
 ! R38   R(36,37)                1.5239         estimate D2E/DX2                !
 ! R39   R(36,38)                1.1131         estimate D2E/DX2                !
 ! R40   R(36,39)                1.113          estimate D2E/DX2                !
 ! R41   R(37,40)                1.1091         estimate D2E/DX2                !
 ! R42   R(37,41)                1.1162         estimate D2E/DX2                !
 ! R43   R(37,42)                1.1069         estimate D2E/DX2                !
 ! A1    A(2,1,14)             109.0698         estimate D2E/DX2                !
 ! A2    A(2,1,15)             110.17           estimate D2E/DX2                !
 ! A3    A(2,1,16)             110.3004         estimate D2E/DX2                !
 ! A4    A(14,1,15)            108.7884         estimate D2E/DX2                !
 ! A5    A(14,1,16)            108.8513         estimate D2E/DX2                !
 ! A6    A(15,1,16)            109.6273         estimate D2E/DX2                !
 ! A7    A(1,2,3)              112.0803         estimate D2E/DX2                !
 ! A8    A(1,2,17)             108.6802         estimate D2E/DX2                !
 ! A9    A(1,2,18)             108.757          estimate D2E/DX2                !
 ! A10   A(3,2,17)             109.1192         estimate D2E/DX2                !
 ! A11   A(3,2,18)             109.3873         estimate D2E/DX2                !
 ! A12   A(17,2,18)            108.7581         estimate D2E/DX2                !
 ! A13   A(2,3,4)              109.9694         estimate D2E/DX2                !
 ! A14   A(2,3,19)             109.5597         estimate D2E/DX2                !
 ! A15   A(2,3,20)             109.4382         estimate D2E/DX2                !
 ! A16   A(4,3,19)             109.2909         estimate D2E/DX2                !
 ! A17   A(4,3,20)             109.2785         estimate D2E/DX2                !
 ! A18   A(19,3,20)            109.2882         estimate D2E/DX2                !
 ! A19   A(3,4,5)              122.9202         estimate D2E/DX2                !
 ! A20   A(3,4,21)             118.2795         estimate D2E/DX2                !
 ! A21   A(5,4,21)             118.7997         estimate D2E/DX2                !
 ! A22   A(4,5,6)              118.4449         estimate D2E/DX2                !
 ! A23   A(4,5,7)              119.9458         estimate D2E/DX2                !
 ! A24   A(6,5,7)              121.6088         estimate D2E/DX2                !
 ! A25   A(5,7,8)              124.4461         estimate D2E/DX2                !
 ! A26   A(5,7,22)             116.7289         estimate D2E/DX2                !
 ! A27   A(8,7,22)             118.825          estimate D2E/DX2                !
 ! A28   A(7,8,9)              125.4134         estimate D2E/DX2                !
 ! A29   A(7,8,10)             117.9569         estimate D2E/DX2                !
 ! A30   A(9,8,10)             116.6297         estimate D2E/DX2                !
 ! A31   A(8,9,13)             121.396          estimate D2E/DX2                !
 ! A32   A(8,9,23)             124.731          estimate D2E/DX2                !
 ! A33   A(13,9,23)            113.8721         estimate D2E/DX2                !
 ! A34   A(8,10,11)            121.6972         estimate D2E/DX2                !
 ! A35   A(8,10,24)            119.9359         estimate D2E/DX2                !
 ! A36   A(11,10,24)           118.3669         estimate D2E/DX2                !
 ! A37   A(10,11,12)           121.4158         estimate D2E/DX2                !
 ! A38   A(10,11,25)           118.5602         estimate D2E/DX2                !
 ! A39   A(12,11,25)           120.0235         estimate D2E/DX2                !
 ! A40   A(11,12,13)           118.1464         estimate D2E/DX2                !
 ! A41   A(11,12,26)           120.1322         estimate D2E/DX2                !
 ! A42   A(13,12,26)           121.72           estimate D2E/DX2                !
 ! A43   A(9,13,12)            120.7131         estimate D2E/DX2                !
 ! A44   A(9,13,27)            119.2167         estimate D2E/DX2                !
 ! A45   A(12,13,27)           120.0697         estimate D2E/DX2                !
 ! A46   A(12,26,28)            90.6312         estimate D2E/DX2                !
 ! A47   A(12,26,30)            90.9822         estimate D2E/DX2                !
 ! A48   A(12,26,31)            90.7038         estimate D2E/DX2                !
 ! A49   A(12,26,32)            90.3736         estimate D2E/DX2                !
 ! A50   A(28,26,29)            89.4173         estimate D2E/DX2                !
 ! A51   A(28,26,30)            89.359          estimate D2E/DX2                !
 ! A52   A(28,26,32)            90.8971         estimate D2E/DX2                !
 ! A53   A(29,26,30)            89.0661         estimate D2E/DX2                !
 ! A54   A(29,26,31)            89.2477         estimate D2E/DX2                !
 ! A55   A(29,26,32)            89.5779         estimate D2E/DX2                !
 ! A56   A(30,26,31)            90.6647         estimate D2E/DX2                !
 ! A57   A(31,26,32)            89.0476         estimate D2E/DX2                !
 ! A58   A(21,33,35)           119.7527         estimate D2E/DX2                !
 ! A59   A(22,34,35)           122.099          estimate D2E/DX2                !
 ! A60   A(33,35,34)           119.4635         estimate D2E/DX2                !
 ! A61   A(33,35,36)           114.6216         estimate D2E/DX2                !
 ! A62   A(34,35,36)           125.9128         estimate D2E/DX2                !
 ! A63   A(35,36,37)           118.6611         estimate D2E/DX2                !
 ! A64   A(35,36,38)           107.9218         estimate D2E/DX2                !
 ! A65   A(35,36,39)           107.3525         estimate D2E/DX2                !
 ! A66   A(37,36,38)           106.6356         estimate D2E/DX2                !
 ! A67   A(37,36,39)           108.6451         estimate D2E/DX2                !
 ! A68   A(38,36,39)           107.1084         estimate D2E/DX2                !
 ! A69   A(36,37,40)           110.3771         estimate D2E/DX2                !
 ! A70   A(36,37,41)           108.1195         estimate D2E/DX2                !
 ! A71   A(36,37,42)           111.7452         estimate D2E/DX2                !
 ! A72   A(40,37,41)           107.3796         estimate D2E/DX2                !
 ! A73   A(40,37,42)           110.8973         estimate D2E/DX2                !
 ! A74   A(41,37,42)           108.1556         estimate D2E/DX2                !
 ! A75   L(4,21,33,1,-1)       175.6715         estimate D2E/DX2                !
 ! A76   L(7,22,34,1,-1)       178.9516         estimate D2E/DX2                !
 ! A77   L(12,26,29,28,-1)     180.0485         estimate D2E/DX2                !
 ! A78   L(28,26,31,12,-1)     181.335          estimate D2E/DX2                !
 ! A79   L(30,26,32,12,-1)     181.3558         estimate D2E/DX2                !
 ! A80   L(4,21,33,1,-2)       189.9737         estimate D2E/DX2                !
 ! A81   L(7,22,34,1,-2)       186.7787         estimate D2E/DX2                !
 ! A82   L(12,26,29,28,-2)     180.0478         estimate D2E/DX2                !
 ! A83   L(28,26,31,12,-2)     179.9534         estimate D2E/DX2                !
 ! A84   L(30,26,32,12,-2)     180.2709         estimate D2E/DX2                !
 ! D1    D(14,1,2,3)           179.5011         estimate D2E/DX2                !
 ! D2    D(14,1,2,17)           58.8197         estimate D2E/DX2                !
 ! D3    D(14,1,2,18)          -59.4297         estimate D2E/DX2                !
 ! D4    D(15,1,2,3)            60.159          estimate D2E/DX2                !
 ! D5    D(15,1,2,17)          -60.5224         estimate D2E/DX2                !
 ! D6    D(15,1,2,18)         -178.7717         estimate D2E/DX2                !
 ! D7    D(16,1,2,3)           -61.0009         estimate D2E/DX2                !
 ! D8    D(16,1,2,17)          178.3177         estimate D2E/DX2                !
 ! D9    D(16,1,2,18)           60.0684         estimate D2E/DX2                !
 ! D10   D(1,2,3,4)           -179.3106         estimate D2E/DX2                !
 ! D11   D(1,2,3,19)            60.5487         estimate D2E/DX2                !
 ! D12   D(1,2,3,20)           -59.2611         estimate D2E/DX2                !
 ! D13   D(17,2,3,4)           -58.8838         estimate D2E/DX2                !
 ! D14   D(17,2,3,19)         -179.0246         estimate D2E/DX2                !
 ! D15   D(17,2,3,20)           61.1656         estimate D2E/DX2                !
 ! D16   D(18,2,3,4)            59.9844         estimate D2E/DX2                !
 ! D17   D(18,2,3,19)          -60.1563         estimate D2E/DX2                !
 ! D18   D(18,2,3,20)         -179.9661         estimate D2E/DX2                !
 ! D19   D(2,3,4,5)            179.3204         estimate D2E/DX2                !
 ! D20   D(2,3,4,21)            -0.4001         estimate D2E/DX2                !
 ! D21   D(19,3,4,5)           -60.3761         estimate D2E/DX2                !
 ! D22   D(19,3,4,21)          119.9034         estimate D2E/DX2                !
 ! D23   D(20,3,4,5)            59.1741         estimate D2E/DX2                !
 ! D24   D(20,3,4,21)         -120.5464         estimate D2E/DX2                !
 ! D25   D(3,4,5,6)             -0.5685         estimate D2E/DX2                !
 ! D26   D(3,4,5,7)            179.6698         estimate D2E/DX2                !
 ! D27   D(21,4,5,6)           179.1507         estimate D2E/DX2                !
 ! D28   D(21,4,5,7)            -0.611          estimate D2E/DX2                !
 ! D29   D(3,4,33,35)         -177.6019         estimate D2E/DX2                !
 ! D30   D(5,4,33,35)           -4.0394         estimate D2E/DX2                !
 ! D31   D(4,5,7,8)            179.3245         estimate D2E/DX2                !
 ! D32   D(4,5,7,22)            -0.6233         estimate D2E/DX2                !
 ! D33   D(6,5,7,8)             -0.4295         estimate D2E/DX2                !
 ! D34   D(6,5,7,22)           179.6227         estimate D2E/DX2                !
 ! D35   D(5,7,8,9)              1.6269         estimate D2E/DX2                !
 ! D36   D(5,7,8,10)          -178.3477         estimate D2E/DX2                !
 ! D37   D(22,7,8,9)          -178.4263         estimate D2E/DX2                !
 ! D38   D(22,7,8,10)            1.599          estimate D2E/DX2                !
 ! D39   D(5,7,34,35)            0.5683         estimate D2E/DX2                !
 ! D40   D(8,7,34,35)          176.1098         estimate D2E/DX2                !
 ! D41   D(7,8,9,13)           179.749          estimate D2E/DX2                !
 ! D42   D(7,8,9,23)             0.1118         estimate D2E/DX2                !
 ! D43   D(10,8,9,13)           -0.2761         estimate D2E/DX2                !
 ! D44   D(10,8,9,23)         -179.9133         estimate D2E/DX2                !
 ! D45   D(7,8,10,11)         -179.7967         estimate D2E/DX2                !
 ! D46   D(7,8,10,24)            0.1109         estimate D2E/DX2                !
 ! D47   D(9,8,10,11)            0.2264         estimate D2E/DX2                !
 ! D48   D(9,8,10,24)         -179.866          estimate D2E/DX2                !
 ! D49   D(8,9,13,12)           -0.0336         estimate D2E/DX2                !
 ! D50   D(8,9,13,27)         -179.752          estimate D2E/DX2                !
 ! D51   D(23,9,13,12)         179.6403         estimate D2E/DX2                !
 ! D52   D(23,9,13,27)          -0.078          estimate D2E/DX2                !
 ! D53   D(8,10,11,12)           0.1344         estimate D2E/DX2                !
 ! D54   D(8,10,11,25)         179.8651         estimate D2E/DX2                !
 ! D55   D(24,10,11,12)       -179.7746         estimate D2E/DX2                !
 ! D56   D(24,10,11,25)         -0.0439         estimate D2E/DX2                !
 ! D57   D(10,11,12,13)         -0.4466         estimate D2E/DX2                !
 ! D58   D(10,11,12,26)        179.1374         estimate D2E/DX2                !
 ! D59   D(25,11,12,13)        179.8266         estimate D2E/DX2                !
 ! D60   D(25,11,12,26)         -0.5894         estimate D2E/DX2                !
 ! D61   D(11,12,13,9)           0.3931         estimate D2E/DX2                !
 ! D62   D(11,12,13,27)       -179.8909         estimate D2E/DX2                !
 ! D63   D(26,12,13,9)        -179.1839         estimate D2E/DX2                !
 ! D64   D(26,12,13,27)          0.5321         estimate D2E/DX2                !
 ! D65   D(11,12,26,28)         45.725          estimate D2E/DX2                !
 ! D66   D(11,12,26,30)        135.0947         estimate D2E/DX2                !
 ! D67   D(11,12,26,31)       -134.2284         estimate D2E/DX2                !
 ! D68   D(11,12,26,32)        -45.1763         estimate D2E/DX2                !
 ! D69   D(13,12,26,28)       -134.7062         estimate D2E/DX2                !
 ! D70   D(13,12,26,30)        -45.3366         estimate D2E/DX2                !
 ! D71   D(13,12,26,31)         45.3404         estimate D2E/DX2                !
 ! D72   D(13,12,26,32)        134.3925         estimate D2E/DX2                !
 ! D73   D(21,33,35,34)          2.9293         estimate D2E/DX2                !
 ! D74   D(21,33,35,36)       -177.5707         estimate D2E/DX2                !
 ! D75   D(22,34,35,33)         -0.9236         estimate D2E/DX2                !
 ! D76   D(22,34,35,36)        179.6377         estimate D2E/DX2                !
 ! D77   D(33,35,36,37)        173.3039         estimate D2E/DX2                !
 ! D78   D(33,35,36,38)         51.9934         estimate D2E/DX2                !
 ! D79   D(33,35,36,39)        -63.1561         estimate D2E/DX2                !
 ! D80   D(34,35,36,37)         -7.2337         estimate D2E/DX2                !
 ! D81   D(34,35,36,38)       -128.5442         estimate D2E/DX2                !
 ! D82   D(34,35,36,39)        116.3063         estimate D2E/DX2                !
 ! D83   D(35,36,37,40)        -64.4554         estimate D2E/DX2                !
 ! D84   D(35,36,37,41)        178.3629         estimate D2E/DX2                !
 ! D85   D(35,36,37,42)         59.4492         estimate D2E/DX2                !
 ! D86   D(38,36,37,40)         57.5046         estimate D2E/DX2                !
 ! D87   D(38,36,37,41)        -59.6771         estimate D2E/DX2                !
 ! D88   D(38,36,37,42)       -178.5909         estimate D2E/DX2                !
 ! D89   D(39,36,37,40)        172.646          estimate D2E/DX2                !
 ! D90   D(39,36,37,41)         55.4643         estimate D2E/DX2                !
 ! D91   D(39,36,37,42)        -63.4495         estimate D2E/DX2                !
 --------------------------------------------------------------------------------
 Trust Radius=3.00D-01 FncErr=1.00D-07 GrdErr=1.00D-06
 Number of steps in this run=    228 maximum allowed number of steps=    252.
 GradGradGradGradGradGradGradGradGradGradGradGradGradGradGradGradGradGrad

                          Input orientation:                          
 ---------------------------------------------------------------------
 Center     Atomic      Atomic             Coordinates (Angstroms)
 Number     Number       Type             X           Y           Z
 ---------------------------------------------------------------------
      1          6           0       -2.074150    2.447760   -0.174770
      2          6           0       -0.754230    1.702440   -0.048710
      3          6           0        0.452270    2.641830   -0.170110
      4          7           0        1.684180    1.883060   -0.059820
      5          6           0        2.912300    2.454240   -0.144530
      6          8           0        2.981690    3.656500   -0.331610
      7          7           0        4.043040    1.675450   -0.024270
      8          6           0        5.406310    2.182390   -0.113320
      9          6           0        5.770920    3.554620   -0.303730
     10          6           0        6.458320    1.261680   -0.005860
     11          6           0        7.797060    1.663330   -0.076130
     12          6           0        8.148050    3.009440   -0.254990
     13          6           0        7.117000    3.951580   -0.372400
     14          1           0       -2.910470    1.721820   -0.088940
     15          1           0       -2.137040    2.950520   -1.162580
     16          1           0       -2.169380    3.201980    0.634260
     17          1           0       -0.700480    0.934680   -0.851880
     18          1           0       -0.725540    1.190130    0.938440
     19          1           0        0.415230    3.402050    0.640570
     20          1           0        0.424100    3.154710   -1.156070
     21          1           0        1.613510    0.776720    0.097590
     22          1           0        3.874380    0.511860    0.163960
     23          1           0        5.072660    4.365980   -0.400660
     24          1           0        6.244230    0.213420    0.136380
     25          1           0        8.567240    0.911490    0.015030
     26         16           0        9.909100    3.498380   -0.318320
     27          1           0        7.353280    5.001950   -0.513540
     28          9           0       10.250530    2.201450   -1.381360
     29          9           0       11.557710    3.956360   -0.375590
     30          9           0        9.611810    4.503660   -1.671090
     31          9           0        9.605900    4.807030    0.745960
     32          9           0       10.244370    2.508570    1.040150
     33          8           0        1.338860   -1.162520    0.716330
     34          8           0        3.539570   -1.499350    0.739280
     35          6           0        2.398880   -1.958440    0.896020
     36          6           0        2.058820   -3.385930    1.298710
     37          6           0        3.183740   -4.410960    1.377000
     38          1           0        1.318180   -3.780840    0.567650
     39          1           0        1.550150   -3.339650    2.287550
     40          1           0        3.625140   -4.577370    0.373180
     41          1           0        2.746540   -5.381110    1.713970
     42          1           0        3.961380   -4.111540    2.105540
 ---------------------------------------------------------------------
                    Distance matrix (angstroms):
                    1          2          3          4          5
     1  C    0.000000
     2  C    1.521046   0.000000
     3  C    2.533867   1.533895   0.000000
     4  N    3.802255   2.445116   1.451033   0.000000
     5  C    4.986546   3.744039   2.467305   1.357093   0.000000
     6  O    5.200689   4.225575   2.730129   2.214157   1.218705
     7  N    6.167587   4.797408   3.721396   2.368245   1.378241
     8  C    7.485418   6.179545   4.975623   3.734530   2.508976
     9  C    7.923818   6.787723   5.398062   4.422109   3.067228
    10  C    8.616169   7.226132   6.164773   4.814711   3.743753
    11  C    9.902820   8.551423   7.410279   6.116850   4.948848
    12  C   10.237934   9.000077   7.705022   6.564178   5.266263
    13  C    9.315459   8.192659   6.795218   5.821685   4.469167
    14  H    1.110760   2.156702   3.487266   4.597571   5.868916
    15  H    1.110176   2.170386   2.790128   4.117921   5.174800
    16  H    1.110156   2.172031   2.798898   4.131733   5.195104
    17  H    2.152872   1.112397   2.169794   2.685775   3.982661
    18  H    2.153977   1.112542   2.173374   2.698782   4.000585
    19  H    2.787913   2.175182   1.111984   2.099550   2.783897
    20  H    2.775605   2.173430   1.111736   2.099204   2.775790
    21  H    4.057757   2.546479   2.213318   1.119714   2.135310
    22  H    6.264779   4.784009   4.044652   2.593693   2.189430
    23  H    7.403208   6.416460   4.936988   4.214601   2.896119
    24  H    8.618848   7.157505   6.287918   4.860067   4.025164
    25  H   10.753387   9.355184   8.299463   6.951695   5.863777
    26  S   12.030074  10.816871   9.496698   8.386023   7.076414
    27  H    9.773182   8.765532   7.301510   6.486296   5.133157
    28  F   12.386051  11.096383   9.882660   8.673534   7.446024
    29  F   13.716552  12.520818  11.184856  10.093804   8.777976
    30  F   11.959405  10.859730   9.466600   8.503591   7.170352
    31  F   11.951463  10.844458   9.450726   8.482484   7.150725
    32  F   12.378435  11.081727   9.867508   8.653210   7.427359
    33  O    5.047457   3.629643   4.005608   3.161837   4.037047
    34  O    6.923079   5.413788   5.244786   3.939763   4.099447
    35  C    6.369395   4.923074   5.107681   4.022630   4.562684
    36  C    7.299625   5.968274   6.408769   5.454192   6.076097
    37  C    8.780401   7.410392   7.719866   6.627807   7.037024
    38  H    7.131237   5.894162   6.522636   5.710292   6.474924
    39  H    7.258973   6.015891   6.559233   5.727548   6.429590
    40  H    9.062815   7.667652   7.904373   6.759584   7.086586
    41  H    9.386032   8.095623   8.554589   7.552689   8.054453
    42  H    9.200644   7.789745   7.943579   6.768283   7.019462
                    6          7          8          9         10
     6  O    0.000000
     7  N    2.268365   0.000000
     8  C    2.845950   1.457197   0.000000
     9  C    2.791229   2.568063   1.432554   0.000000
    10  C    4.234174   2.450535   1.402134   2.412223   0.000000
    11  C    5.217833   3.754398   2.446731   2.781011   1.399459
    12  C    5.207287   4.322484   2.867267   2.439333   2.443751
    13  C    4.146025   3.840728   2.474594   1.405071   2.793523
    14  H    6.206402   6.953965   8.329559   8.875349   9.380451
    15  H    5.233576   6.412093   7.654613   7.977367   8.835745
    16  H    5.260515   6.431028   7.680463   8.003283   8.866325
    17  H    4.608401   4.871823   6.276554   7.003112   7.216031
    18  H    4.630287   4.888937   6.300029   7.024087   7.246010
    19  H    2.756192   4.072366   5.192957   5.440441   6.443446
    20  H    2.733641   4.070124   5.182196   5.429079   6.427936
    21  H    3.217027   2.593295   4.050398   5.016158   4.870120
    22  H    3.306243   1.190722   2.283498   3.615797   2.695888
    23  H    2.209137   2.905295   2.227544   1.074834   3.422367
    24  H    4.766338   2.647372   2.154368   3.403136   1.079313
    25  H    6.233266   4.588416   3.409273   3.860978   2.137899
    26  S    6.929227   6.149813   4.695633   4.138588   4.124117
    27  H    4.577568   4.718334   3.449752   2.154680   3.879215
    28  F    7.487001   6.375837   5.007470   4.802006   4.141983
    29  F    8.581373   7.861059   6.407455   5.801163   5.779427
    30  F    6.816919   6.459256   5.049869   4.186023   4.819536
    31  F    6.809188   6.430043   5.026296   4.168627   4.800208
    32  F    7.479705   6.346934   4.984347   4.786647   4.121049
    33  O    5.198079   3.989380   5.331125   6.552487   5.710269
    34  O    5.295359   3.303914   4.215075   5.622224   4.086272
    35  C    5.777049   4.093330   5.216309   6.572966   5.259431
    36  C    7.287349   5.595085   6.648737   8.032355   6.531293
    37  C    8.248884   6.304470   7.115696   8.542179   6.694327
    38  H    7.673979   6.127506   7.262000   8.625263   7.223362
    39  H    7.606275   6.058898   7.150320   8.488851   7.107890
    40  H    8.288991   6.279360   7.007396   8.437526   6.501160
    41  H    9.269201   7.382237   8.223132   9.647034   7.801396
    42  H    8.200118   6.167010   6.828229   8.237052   6.290009
                   11         12         13         14         15
    11  C    0.000000
    12  C    1.402568   0.000000
    13  C    2.405482   1.401598   0.000000
    14  H   10.707697  11.134469  10.276300   0.000000
    15  H   10.075891  10.325225   9.341507   1.805713   0.000000
    16  H   10.109502  10.357471   9.370812   1.806407   1.814638
    17  H    8.563930   9.108095   8.393127   2.466926   2.494765
    18  H    8.595812   9.136452   8.417205   2.472271   3.083114
    19  H    7.617626   7.794400   6.800133   3.796793   3.157422
    20  H    7.599409   7.777689   6.785577   3.783028   2.569275
    21  H    6.249204   6.914446   6.370952   4.625408   4.514428
    22  H    4.095234   4.967663   4.757514   6.896532   6.621476
    23  H    3.851233   3.364438   2.086109   8.415409   7.386733
    24  H    2.135107   3.405206   3.872264   9.280871   8.912054
    25  H    1.080162   2.156392   3.390493  11.506749  10.960202
    26  S    2.808341   1.828762   2.829158  12.944117  12.088110
    27  H    3.396270   2.160695   1.085830  10.783511   9.731176
    28  F    2.830674   2.518329   3.728266  13.233001  12.412126
    29  F    4.414765   3.540760   4.440714  14.642526  13.754172
    30  F    3.728899   2.525990   2.866263  12.924756  11.861969
    31  F    3.718949   2.521618   2.859571  12.918014  12.041005
    32  F    2.819546   2.514521   3.722636  13.226626  12.583587
    33  O    7.093784   8.044488   7.792705   5.198527   5.703445
    34  O    5.365972   6.523484   6.614112   7.257059   7.459378
    35  C    6.572872   7.684895   7.667978   6.534804   6.993589
    36  C    7.766119   8.966240   9.067351   7.260064   7.988353
    37  C    7.764748   9.075798   9.405478   8.769228   9.431413
    38  H    8.487009   9.666011   9.710836   6.970786   7.761665
    39  H    8.345099   9.503038   9.551292   7.152854   8.066288
    40  H    7.520182   8.854998   9.246186   9.088869   9.603666
    41  H    8.850782  10.171256  10.514417   9.257638  10.076703
    42  H    7.267823   8.591197   9.006222   9.277185   9.886558
                   16         17         18         19         20
    16  H    0.000000
    17  H    3.083331   0.000000
    18  H    2.494943   1.808626   0.000000
    19  H    2.592350   3.091946   2.506526   0.000000
    20  H    3.151770   2.507139   3.093254   1.813607   0.000000
    21  H    4.525501   2.506191   2.519740   2.936505   2.939591
    22  H    6.632116   4.705322   4.713718   4.532778   4.542199
    23  H    7.407638   6.731015   6.745245   4.868776   4.862811
    24  H    8.942495   7.051657   7.083428   6.663243   6.647972
    25  H   10.995672   9.308206   9.342702   8.546897   8.527265
    26  S   12.119610  10.927966  10.954590   9.542658   9.528125
    27  H    9.759016   9.028854   9.050169   7.213057   7.199908
    28  F   12.622121  11.036742  11.264029  10.112505   9.875130
    29  F   13.784843  12.634106  12.659263  11.202442  11.189686
    30  F   12.074993  10.943128  11.164673   9.546434   9.300480
    31  F   11.884691  11.125181  10.947953   9.298037   9.521204
    32  F   12.439725  11.218139  11.049324   9.877751  10.083580
    33  O    5.600299   3.319102   3.137840   4.657696   4.793865
    34  O    7.396326   5.141431   5.046200   5.813344   5.912595
    35  C    6.896916   4.585993   4.435909   5.721449   5.852788
    36  C    7.856190   5.559356   5.368685   7.015070   7.174833
    37  C    9.336188   6.973589   6.844488   8.321665   8.442240
    38  H    7.805593   5.322235   5.387469   7.239789   7.202253
    39  H    7.704622   5.761185   5.245738   7.032148   7.436613
    40  H    9.703758   7.112978   7.246516   8.605008   8.507075
    41  H    9.949949   7.639027   7.472482   9.150470   9.300058
    42  H    9.656006   7.479546   7.171963   8.436549   8.714863
                   21         22         23         24         25
    21  H    0.000000
    22  H    2.277299   0.000000
    23  H    5.009667   4.075403   0.000000
    24  H    4.665017   2.388727   4.347958   0.000000
    25  H    6.955526   4.712199   4.931368   2.428663   0.000000
    26  S    8.740551   6.750536   4.914332   4.942569   2.933208
    27  H    7.153391   5.720372   2.370322   4.958065   4.299413
    28  F    8.877796   6.774808   5.697131   4.722948   2.539167
    29  F   10.450891   8.437372   6.498022   6.519569   4.285642
    30  F    8.999506   7.226339   4.715594   5.745755   4.103390
    31  F    8.974524   7.185926   4.696757   5.724829   4.097353
    32  F    8.853218   6.732855   5.680888   4.699535   2.532647
    33  O    2.054002   3.088288   6.764114   5.127593   7.552670
    34  O    3.049913   2.118503   6.168624   3.257646   5.622646
    35  C    2.955570   2.969073   6.987758   4.481154   6.860124
    36  C    4.355301   4.447098   8.489005   5.641275   7.904124
    37  C    5.569070   5.116894   9.152200   5.682484   7.691912
    38  H    4.591245   5.012424   9.022440   6.356577   8.652874
    39  H    4.663094   4.974516   8.888829   6.267873   8.513289
    40  H    5.726158   5.099623   9.092725   5.465105   7.394607
    41  H    6.466476   6.196906  10.241497   6.783907   8.738636
    42  H    5.782685   5.015290   8.909788   5.272028   7.128465
                   26         27         28         29         30
    26  S    0.000000
    27  H    2.971708   0.000000
    28  F    1.711332   4.121889   0.000000
    29  F    1.711999   4.334688   2.408319   0.000000
    30  F    1.711419   2.586343   2.406674   2.400913   0.000000
    31  F    1.713822   2.588171   3.424921   2.406465   2.436021
    32  F    1.713934   4.121808   2.440916   2.413561   3.425104
    33  O    9.810377   8.699800   9.753690  11.481294  10.307622
    34  O    8.164970   7.640736   7.951731   9.762084   8.872323
    35  C    9.362420   8.659097   9.172761  10.976612  10.018740
    36  C   10.565766  10.083258  10.271597  12.121939  11.318701
    37  C   10.519612  10.467191  10.063401  11.966912  11.405323
    38  H   11.294950  10.711153  10.925809  12.868642  11.934370
    39  H   11.109512  10.540622  10.948119  12.667886  11.923871
    40  H   10.255928  10.317397   9.639845  11.675225  11.067265
    41  H   11.587830  11.575482  11.107932  13.007357  12.501969
    42  H    9.957979  10.070763   9.568998  11.355670  10.973239
                   31         32         33         34         35
    31  F    0.000000
    32  F    2.403562   0.000000
    33  O   10.197076   9.637939   0.000000
    34  O    8.750476   7.817179   2.226456   0.000000
    35  C    9.886113   9.029212   1.337692   1.239558   0.000000
    36  C   11.152961  10.090352   2.408539   2.462675   1.521686
    37  C   11.252275   9.891707   3.793736   3.001795   2.619580
    38  H   11.936063  10.929630   2.622619   3.188923   2.144034
    39  H   11.560277  10.552116   2.693190   3.121159   2.136455
    40  H   11.134425   9.719547   4.123837   3.100896   2.938685
    41  H   12.320149  10.904978   4.557779   4.080071   3.536182
    42  H   10.641896   9.188954   4.183806   2.977940   2.922359
                   36         37         38         39         40
    36  C    0.000000
    37  C    1.523897   0.000000
    38  H    1.113081   2.128946   0.000000
    39  H    1.112965   2.155324   1.790674   0.000000
    40  H    2.174740   1.109135   2.448335   3.082588   0.000000
    41  H    2.150847   1.116192   2.432103   2.434728   1.793224
    42  H    2.190255   1.106864   3.075870   2.538301   1.825137
                   41         42
    41  H    0.000000
    42  H    1.800270   0.000000
 Stoichiometry    C13H18F5N2O3S(1-)
 Framework group  C1[X(C13H18F5N2O3S)]
 Deg. of freedom   120
 Full point group                 C1      NOp   1
 Largest Abelian subgroup         C1      NOp   1
 Largest concise Abelian subgroup C1      NOp   1
                         Standard orientation:                         
 ---------------------------------------------------------------------
 Center     Atomic      Atomic             Coordinates (Angstroms)
 Number     Number       Type             X           Y           Z
 ---------------------------------------------------------------------
      1          6           0        6.648795   -3.497945   -0.013565
      2          6           0        5.718151   -2.295734   -0.060179
      3          6           0        4.242206   -2.705665    0.019686
      4          7           0        3.396676   -1.528201   -0.044777
      5          6           0        2.041474   -1.590534   -0.009515
      6          8           0        1.512609   -2.685646    0.069701
      7          7           0        1.297698   -0.431691   -0.068068
      8          6           0       -0.158670   -0.385320   -0.051778
      9          6           0       -1.024195   -1.521392    0.059661
     10          6           0       -0.777582    0.868718   -0.153346
     11          6           0       -2.170396    1.004426   -0.141555
     12          6           0       -3.012651   -0.110963   -0.024466
     13          6           0       -2.421909   -1.378325    0.071951
     14          1           0        7.700012   -3.146054   -0.083593
     15          1           0        6.441114   -4.176144   -0.867618
     16          1           0        6.517988   -4.049500    0.940963
     17          1           0        5.892812   -1.746648   -1.011716
     18          1           0        5.960954   -1.622142    0.791332
     19          1           0        4.055518   -3.240037    0.976818
     20          1           0        3.998803   -3.379329   -0.830542
     21          1           0        3.888486   -0.526068   -0.132025
     22          1           0        1.903898    0.590836   -0.137194
     23          1           0       -0.690372   -2.539438    0.145754
     24          1           0       -0.176191    1.760566   -0.241961
     25          1           0       -2.593404    1.995160   -0.220687
     26         16           0       -4.827792    0.108998    0.010856
     27          1           0       -3.044506   -2.263364    0.161980
     28          9           0       -4.741254    1.192161   -1.311236
     29          9           0       -6.526978    0.315093    0.045946
     30          9           0       -5.035676   -1.186031   -1.088526
     31          9           0       -4.953943   -0.969854    1.336507
     32          9           0       -4.660344    1.405770    1.118969
     33          8           0        4.916789    1.242612    0.050424
     34          8           0        3.011317    2.392537   -0.012488
     35          6           0        4.249435    2.401941    0.046516
     36          6           0        5.129635    3.640406    0.130063
     37          6           0        4.480118    5.010415   -0.023113
     38          1           0        5.904369    3.564303   -0.665516
     39          1           0        5.659964    3.605375    1.107926
     40          1           0        4.055737    5.124941   -1.041428
     41          1           0        5.273708    5.786160    0.096548
     42          1           0        3.706746    5.186220    0.748984
 ---------------------------------------------------------------------
 Rotational constants (GHZ):      0.3087288      0.0740550      0.0615109
 General basis read from cards:  (6D, 7F)
 There are   496 symmetry adapted cartesian basis functions of A   symmetry.
 There are   496 symmetry adapted basis functions of A   symmetry.
   496 basis functions,   864 primitive gaussians,   496 cartesian basis functions
    98 alpha electrons       98 beta electrons
       nuclear repulsion energy      2304.9052679444 Hartrees.
 NAtoms=   42 NActive=   42 NUniq=   42 SFac= 1.00D+00 NAtFMM=   60 NAOKFM=F Big=F
 Integral buffers will be    131072 words long.
 Raffenetti 2 integral format.
 Two-electron integral symmetry is turned on.
 ------------------------------------------------------------------------------
 Polarizable Continuum Model (PCM)
 =================================
 Model                : PCM (using non-symmetric T matrix).
 Atomic radii         : SMD-Coulomb.
 Polarization charges : Total charges.
 Charge compensation  : None.
 Solution method      : On-the-fly selection.
 Cavity type          : VdW (van der Waals Surface) (Alpha=1.000).
 Cavity algorithm     : GePol (No added spheres)
                        Default sphere list used, NSphG=   42.
                        Lebedev-Laikov grids with approx.  5.0 points / Ang**2.
                        Smoothing algorithm: York/Karplus (Gamma=1.0000).
                        Polarization charges: spherical gaussians, with
                                              point-specific exponents (IZeta= 3).
                        Self-potential: point-specific (ISelfS= 7).
                        Self-field    : sphere-specific E.n sum rule (ISelfD= 2).
 1st derivatives      : Analytical E(r).r(x)/FMM algorithm (CHGder, D1EAlg=3).
                        Cavity 1st derivative terms included.
 Solvent              : n-Pentadecane, Eps=   2.033300 Eps(inf)=   2.049192
 ------------------------------------------------------------------------------
 ------------------------------------------------------------------------------
 Atomic radii for non-electrostatic terms: SMD-CDS.
 ------------------------------------------------------------------------------
 Nuclear repulsion after PCM non-electrostatic terms =     2304.8975012680 Hartrees.
 One-electron integrals computed using PRISM.
 NBasis=   496 RedAO= T EigKep=  1.10D-06  NBF=   496
 NBsUse=   495 1.00D-06 EigRej=  8.66D-07 NBFU=   495
 ExpMin= 4.05D-02 ExpMax= 2.19D+04 ExpMxC= 3.30D+03 IAcc=3 IRadAn=         5 AccDes= 0.00D+00
 Harris functional with IExCor= 1009 and IRadAn=       5 diagonalized for initial guess.
 HarFok:  IExCor= 1009 AccDes= 0.00D+00 IRadAn=         5 IDoV= 1 UseB2=F ITyADJ=14
 ICtDFT=  3500011 ScaDFX=  1.000000  1.000000  1.000000  1.000000
 FoFCou: FMM=F IPFlag=           0 FMFlag=      100000 FMFlg1=           0
         NFxFlg=           0 DoJE=T BraDBF=F KetDBF=T FulRan=T
         wScrn=  0.000000 ICntrl=     500 IOpCl=  0 I1Cent=   200000004 NGrid=           0
         NMat0=    1 NMatS0=      1 NMatT0=    0 NMatD0=    1 NMtDS0=    0 NMtDT0=    0
 Petite list used in FoFCou.
 Requested convergence on RMS density matrix=1.00D-08 within 128 cycles.
 Requested convergence on MAX density matrix=1.00D-06.
 Requested convergence on             energy=1.00D-06.
 No special actions if energy rises.
 Inv3:  Mode=1 IEnd=    34111152.
 Iteration    1 A*A^-1 deviation from unit magnitude is 6.00D-15 for   3366.
 Iteration    1 A*A^-1 deviation from orthogonality  is 2.82D-15 for   2358   2176.
 Iteration    1 A^-1*A deviation from unit magnitude is 5.33D-15 for   3366.
 Iteration    1 A^-1*A deviation from orthogonality  is 5.09D-15 for   1592   1503.
 Error on total polarization charges =  0.02631
 SCF Done:  E(RM062X) =  -1738.29174932     A.U. after   18 cycles
            NFock= 18  Conv=0.31D-08     -V/T= 2.0081
 SMD-CDS (non-electrostatic) energy       (kcal/mol) =      -4.87
 (included in total energy above)

 **********************************************************************

            Population analysis using the SCF density.

 **********************************************************************

 Orbital symmetries:
       Occupied  (A) (A) (A) (A) (A) (A) (A) (A) (A) (A) (A) (A)
                 (A) (A) (A) (A) (A) (A) (A) (A) (A) (A) (A) (A)
                 (A) (A) (A) (A) (A) (A) (A) (A) (A) (A) (A) (A)
                 (A) (A) (A) (A) (A) (A) (A) (A) (A) (A) (A) (A)
                 (A) (A) (A) (A) (A) (A) (A) (A) (A) (A) (A) (A)
                 (A) (A) (A) (A) (A) (A) (A) (A) (A) (A) (A) (A)
                 (A) (A) (A) (A) (A) (A) (A) (A) (A) (A) (A) (A)
                 (A) (A) (A) (A) (A) (A) (A) (A) (A) (A) (A) (A)
                 (A) (A)
       Virtual   (A) (A) (A) (A) (A) (A) (A) (A) (A) (A) (A) (A)
                 (A) (A) (A) (A) (A) (A) (A) (A) (A) (A) (A) (A)
                 (A) (A) (A) (A) (A) (A) (A) (A) (A) (A) (A) (A)
                 (A) (A) (A) (A) (A) (A) (A) (A) (A) (A) (A) (A)
                 (A) (A) (A) (A) (A) (A) (A) (A) (A) (A) (A) (A)
                 (A) (A) (A) (A) (A) (A) (A) (A) (A) (A) (A) (A)
                 (A) (A) (A) (A) (A) (A) (A) (A) (A) (A) (A) (A)
                 (A) (A) (A) (A) (A) (A) (A) (A) (A) (A) (A) (A)
                 (A) (A) (A) (A) (A) (A) (A) (A) (A) (A) (A) (A)
                 (A) (A) (A) (A) (A) (A) (A) (A) (A) (A) (A) (A)
                 (A) (A) (A) (A) (A) (A) (A) (A) (A) (A) (A) (A)
                 (A) (A) (A) (A) (A) (A) (A) (A) (A) (A) (A) (A)
                 (A) (A) (A) (A) (A) (A) (A) (A) (A) (A) (A) (A)
                 (A) (A) (A) (A) (A) (A) (A) (A) (A) (A) (A) (A)
                 (A) (A) (A) (A) (A) (A) (A) (A) (A) (A) (A) (A)
                 (A) (A) (A) (A) (A) (A) (A) (A) (A) (A) (A) (A)
                 (A) (A) (A) (A) (A) (A) (A) (A) (A) (A) (A) (A)
                 (A) (A) (A) (A) (A) (A) (A) (A) (A) (A) (A) (A)
                 (A) (A) (A) (A) (A) (A) (A) (A) (A) (A) (A) (A)
                 (A) (A) (A) (A) (A) (A) (A) (A) (A) (A) (A) (A)
                 (A) (A) (A) (A) (A) (A) (A) (A) (A) (A) (A) (A)
                 (A) (A) (A) (A) (A) (A) (A) (A) (A) (A) (A) (A)
                 (A) (A) (A) (A) (A) (A) (A) (A) (A) (A) (A) (A)
                 (A) (A) (A) (A) (A) (A) (A) (A) (A) (A) (A) (A)
                 (A) (A) (A) (A) (A) (A) (A) (A) (A) (A) (A) (A)
                 (A) (A) (A) (A) (A) (A) (A) (A) (A) (A) (A) (A)
                 (A) (A) (A) (A) (A) (A) (A) (A) (A) (A) (A) (A)
                 (A) (A) (A) (A) (A) (A) (A) (A) (A) (A) (A) (A)
                 (A) (A) (A) (A) (A) (A) (A) (A) (A) (A) (A) (A)
                 (A) (A) (A) (A) (A) (A) (A) (A) (A) (A) (A) (A)
                 (A) (A) (A) (A) (A) (A) (A) (A) (A) (A) (A) (A)
                 (A) (A) (A) (A) (A) (A) (A) (A) (A) (A) (A) (A)
                 (A) (A) (A) (A) (A) (A) (A) (A) (A) (A) (A) (A)
                 (A)
 The electronic state is 1-A.
 Alpha  occ. eigenvalues --  -90.29675 -25.29224 -25.27128 -25.27098 -25.27022
 Alpha  occ. eigenvalues --  -25.26994 -19.54221 -19.52671 -19.49843 -14.75321
 Alpha  occ. eigenvalues --  -14.71421 -10.61710 -10.58526 -10.57392 -10.56743
 Alpha  occ. eigenvalues --  -10.54463 -10.54397 -10.52759 -10.52732 -10.52533
 Alpha  occ. eigenvalues --  -10.49749 -10.49597 -10.48719 -10.48650  -8.58360
 Alpha  occ. eigenvalues --   -6.50694  -6.50676  -6.50276  -1.40354  -1.32993
 Alpha  occ. eigenvalues --   -1.32853  -1.32272  -1.29969  -1.11661  -1.06999
 Alpha  occ. eigenvalues --   -0.97767  -0.95487  -0.94703  -0.93944  -0.89431
 Alpha  occ. eigenvalues --   -0.82954  -0.82060  -0.80394  -0.80267  -0.72634
 Alpha  occ. eigenvalues --   -0.69060  -0.68119  -0.66960  -0.66107  -0.65963
 Alpha  occ. eigenvalues --   -0.63417  -0.62006  -0.59820  -0.56852  -0.56308
 Alpha  occ. eigenvalues --   -0.56133  -0.54944  -0.54183  -0.52174  -0.51656
 Alpha  occ. eigenvalues --   -0.51161  -0.50463  -0.50268  -0.50164  -0.50074
 Alpha  occ. eigenvalues --   -0.49676  -0.49438  -0.49355  -0.48222  -0.47850
 Alpha  occ. eigenvalues --   -0.47396  -0.46610  -0.46227  -0.45712  -0.45421
 Alpha  occ. eigenvalues --   -0.44628  -0.43318  -0.42282  -0.41749  -0.40435
 Alpha  occ. eigenvalues --   -0.40157  -0.40038  -0.38715  -0.38216  -0.37914
 Alpha  occ. eigenvalues --   -0.36994  -0.35136  -0.34711  -0.34456  -0.33539
 Alpha  occ. eigenvalues --   -0.32899  -0.28097  -0.27944  -0.25473  -0.24551
 Alpha  occ. eigenvalues --   -0.23158  -0.22718  -0.21945
 Alpha virt. eigenvalues --   -0.05982   0.03113   0.04999   0.05858   0.06351
 Alpha virt. eigenvalues --    0.06978   0.07225   0.07384   0.07544   0.08338
 Alpha virt. eigenvalues --    0.08509   0.08784   0.09024   0.09729   0.09811
 Alpha virt. eigenvalues --    0.10197   0.10690   0.10916   0.11442   0.11647
 Alpha virt. eigenvalues --    0.11674   0.12311   0.13266   0.13599   0.13691
 Alpha virt. eigenvalues --    0.13861   0.14032   0.14140   0.14449   0.14957
 Alpha virt. eigenvalues --    0.15660   0.15992   0.16156   0.16535   0.16876
 Alpha virt. eigenvalues --    0.17285   0.17635   0.17898   0.18724   0.18840
 Alpha virt. eigenvalues --    0.19267   0.19724   0.19997   0.20093   0.20402
 Alpha virt. eigenvalues --    0.20732   0.21443   0.22188   0.22587   0.23314
 Alpha virt. eigenvalues --    0.23670   0.24185   0.24951   0.25144   0.25859
 Alpha virt. eigenvalues --    0.26318   0.26591   0.27153   0.27406   0.27651
 Alpha virt. eigenvalues --    0.27878   0.28550   0.28668   0.29268   0.29320
 Alpha virt. eigenvalues --    0.29645   0.29809   0.30116   0.30300   0.31039
 Alpha virt. eigenvalues --    0.31306   0.31440   0.31613   0.31969   0.32405
 Alpha virt. eigenvalues --    0.33160   0.33305   0.33796   0.33997   0.34263
 Alpha virt. eigenvalues --    0.34563   0.34744   0.35142   0.35850   0.35993
 Alpha virt. eigenvalues --    0.36258   0.36582   0.36857   0.37110   0.37333
 Alpha virt. eigenvalues --    0.37534   0.37886   0.38267   0.38442   0.39017
 Alpha virt. eigenvalues --    0.39294   0.39654   0.40023   0.40395   0.40638
 Alpha virt. eigenvalues --    0.41034   0.41208   0.41727   0.42275   0.42415
 Alpha virt. eigenvalues --    0.42667   0.42944   0.43319   0.43514   0.43892
 Alpha virt. eigenvalues --    0.43996   0.44561   0.44982   0.45890   0.46331
 Alpha virt. eigenvalues --    0.47347   0.48352   0.48832   0.49947   0.51515
 Alpha virt. eigenvalues --    0.51680   0.51971   0.52535   0.53079   0.53450
 Alpha virt. eigenvalues --    0.53746   0.54065   0.56696   0.57358   0.58567
 Alpha virt. eigenvalues --    0.59323   0.60010   0.60719   0.60922   0.61654
 Alpha virt. eigenvalues --    0.63152   0.63718   0.64187   0.65630   0.66764
 Alpha virt. eigenvalues --    0.69717   0.70976   0.74666   0.74687   0.75292
 Alpha virt. eigenvalues --    0.75548   0.76127   0.77105   0.77769   0.79415
 Alpha virt. eigenvalues --    0.80481   0.80740   0.81321   0.82119   0.82285
 Alpha virt. eigenvalues --    0.82755   0.84083   0.85351   0.85550   0.86144
 Alpha virt. eigenvalues --    0.86586   0.87199   0.88119   0.89373   0.90070
 Alpha virt. eigenvalues --    0.91035   0.92315   0.92506   0.92987   0.93863
 Alpha virt. eigenvalues --    0.94272   0.94617   0.95447   0.96115   0.97114
 Alpha virt. eigenvalues --    0.98217   0.99853   1.02218   1.03129   1.03413
 Alpha virt. eigenvalues --    1.03969   1.05071   1.05797   1.06163   1.07450
 Alpha virt. eigenvalues --    1.07636   1.08816   1.09960   1.10748   1.11393
 Alpha virt. eigenvalues --    1.12073   1.12359   1.13756   1.15083   1.16575
 Alpha virt. eigenvalues --    1.17021   1.19093   1.19480   1.20586   1.21150
 Alpha virt. eigenvalues --    1.21874   1.22782   1.23569   1.24232   1.24935
 Alpha virt. eigenvalues --    1.26415   1.28711   1.29991   1.31673   1.33532
 Alpha virt. eigenvalues --    1.34315   1.36499   1.37600   1.37958   1.39375
 Alpha virt. eigenvalues --    1.40382   1.41871   1.42098   1.45059   1.45504
 Alpha virt. eigenvalues --    1.46132   1.46427   1.49541   1.50019   1.50912
 Alpha virt. eigenvalues --    1.52668   1.52829   1.52992   1.53708   1.53908
 Alpha virt. eigenvalues --    1.54543   1.55343   1.55584   1.57188   1.58122
 Alpha virt. eigenvalues --    1.60264   1.60533   1.61610   1.61703   1.63534
 Alpha virt. eigenvalues --    1.63722   1.64259   1.65728   1.67863   1.68182
 Alpha virt. eigenvalues --    1.69974   1.70454   1.70927   1.71687   1.73862
 Alpha virt. eigenvalues --    1.74873   1.76557   1.77736   1.78124   1.79996
 Alpha virt. eigenvalues --    1.80097   1.81163   1.81551   1.82283   1.84562
 Alpha virt. eigenvalues --    1.85107   1.86902   1.87622   1.87905   1.88777
 Alpha virt. eigenvalues --    1.89139   1.90225   1.90375   1.91416   1.91652
 Alpha virt. eigenvalues --    1.91939   1.93192   1.93411   1.93829   1.94109
 Alpha virt. eigenvalues --    1.94829   1.95293   1.96028   1.96425   1.96459
 Alpha virt. eigenvalues --    1.98140   1.98591   1.99687   1.99982   2.00073
 Alpha virt. eigenvalues --    2.01031   2.01446   2.01720   2.02570   2.03031
 Alpha virt. eigenvalues --    2.03446   2.03600   2.03966   2.03999   2.04320
 Alpha virt. eigenvalues --    2.05640   2.06152   2.08290   2.08987   2.09339
 Alpha virt. eigenvalues --    2.10330   2.11045   2.11625   2.12242   2.12425
 Alpha virt. eigenvalues --    2.15251   2.16823   2.16952   2.17968   2.18139
 Alpha virt. eigenvalues --    2.18920   2.19206   2.20779   2.21426   2.22709
 Alpha virt. eigenvalues --    2.23530   2.24835   2.26444   2.27065   2.27587
 Alpha virt. eigenvalues --    2.29844   2.30649   2.31009   2.32120   2.32434
 Alpha virt. eigenvalues --    2.32634   2.34735   2.35240   2.36666   2.38213
 Alpha virt. eigenvalues --    2.38742   2.40734   2.42178   2.42765   2.44280
 Alpha virt. eigenvalues --    2.44608   2.45759   2.47315   2.52500   2.55965
 Alpha virt. eigenvalues --    2.60261   2.62294   2.63065   2.64486   2.66516
 Alpha virt. eigenvalues --    2.68584   2.70564   2.72373   2.73983   2.78173
 Alpha virt. eigenvalues --    2.79023   2.79368   2.80104   2.80907   2.82542
 Alpha virt. eigenvalues --    2.85018   2.85084   2.85843   2.86538   2.89389
 Alpha virt. eigenvalues --    2.92920   2.95796   2.98128   3.04863   3.10088
 Alpha virt. eigenvalues --    3.13365   3.18535   3.22743   3.24321   3.24747
 Alpha virt. eigenvalues --    3.33886   3.36429   3.43261   4.23983   4.26102
 Alpha virt. eigenvalues --    4.28256   4.31788   4.33308   4.36925   4.39867
 Alpha virt. eigenvalues --    4.45106   4.46641   4.48399   4.49516   4.51173
 Alpha virt. eigenvalues --    4.55904   4.58936   4.64440   4.70722   4.76666
 Alpha virt. eigenvalues --    4.79316   4.83666   5.77150   5.80946   5.95711
 Alpha virt. eigenvalues --    6.87245   8.04214
          Condensed to atoms (all electrons):
               1          2          3          4          5          6
     1  C    5.859850  -0.232061   0.048629  -0.018131  -0.067443  -0.000694
     2  C   -0.232061   6.385069  -0.499303  -0.055450   0.189267   0.021876
     3  C    0.048629  -0.499303   7.206217   0.333959  -0.708556  -0.122743
     4  N   -0.018131  -0.055450   0.333959   7.773573   0.442151  -0.199499
     5  C   -0.067443   0.189267  -0.708556   0.442151   7.046783   0.554998
     6  O   -0.000694   0.021876  -0.122743  -0.199499   0.554998   8.362871
     7  N   -0.003735   0.013896  -0.199883  -0.350974   0.231699  -0.079632
     8  C   -0.009316   0.020877  -0.325601  -0.189715  -0.365300  -0.337541
     9  C   -0.007533  -0.003422  -0.228346  -0.045366  -0.392113   0.276760
    10  C    0.000923   0.006986  -0.022041  -0.027572  -0.697408  -0.072592
    11  C    0.000393   0.000671   0.024153  -0.003337   0.125417  -0.020928
    12  C   -0.000478   0.001420  -0.047807   0.000088  -0.684876   0.015218
    13  C   -0.001245  -0.002650  -0.030435   0.026230  -0.198923   0.232825
    14  H    0.459155  -0.136225   0.029591   0.000281  -0.002014   0.000004
    15  H    0.426127  -0.070789  -0.010698  -0.000007  -0.001387  -0.000037
    16  H    0.415489  -0.066370  -0.004633   0.000213  -0.000900  -0.000045
    17  H   -0.037587   0.418633  -0.065872   0.006038  -0.007641  -0.000218
    18  H   -0.029402   0.422537  -0.075196   0.006052  -0.006275  -0.000150
    19  H   -0.009607  -0.050861   0.447534  -0.057400  -0.024619   0.001624
    20  H   -0.003131  -0.054335   0.460002  -0.057652  -0.036999   0.001493
    21  H    0.001151  -0.000444  -0.051382   0.173068   0.017665   0.005179
    22  H    0.000112   0.000512   0.006940   0.035367  -0.031220   0.003395
    23  H    0.000007   0.000019   0.002245  -0.000124   0.009632  -0.006228
    24  H   -0.000001   0.000006  -0.000024   0.000948  -0.001312   0.000020
    25  H    0.000000   0.000000   0.000024   0.000004   0.003564  -0.000001
    26  S   -0.000008   0.000026  -0.001019   0.000705  -0.049004   0.000943
    27  H   -0.000000   0.000003  -0.000000   0.000013  -0.001487   0.000355
    28  F   -0.000000   0.000000  -0.000004   0.000001  -0.000829  -0.000001
    29  F   -0.000000  -0.000000  -0.000000  -0.000000  -0.000057   0.000000
    30  F   -0.000000   0.000000  -0.000004   0.000001  -0.000891   0.000001
    31  F   -0.000000   0.000000  -0.000005   0.000001  -0.000999  -0.000000
    32  F   -0.000000   0.000000  -0.000004   0.000001  -0.000907  -0.000001
    33  O    0.008579   0.014134  -0.021848  -0.037286   0.010291  -0.000159
    34  O   -0.000128  -0.003025   0.010822   0.008562   0.001803  -0.000173
    35  C   -0.003761  -0.007396   0.002796  -0.007897  -0.006746  -0.000740
    36  C    0.002719   0.000585   0.010865  -0.009888  -0.009596  -0.000459
    37  C   -0.000408  -0.000400  -0.000593   0.002898   0.001223   0.000029
    38  H    0.000028   0.000107  -0.000031  -0.000058  -0.000040  -0.000000
    39  H    0.000020   0.000053   0.000017  -0.000031  -0.000119  -0.000000
    40  H    0.000000   0.000006  -0.000004   0.000001  -0.000027  -0.000000
    41  H   -0.000000   0.000001  -0.000004  -0.000002   0.000013   0.000000
    42  H    0.000000   0.000005  -0.000005  -0.000001   0.000002  -0.000000
               7          8          9         10         11         12
     1  C   -0.003735  -0.009316  -0.007533   0.000923   0.000393  -0.000478
     2  C    0.013896   0.020877  -0.003422   0.006986   0.000671   0.001420
     3  C   -0.199883  -0.325601  -0.228346  -0.022041   0.024153  -0.047807
     4  N   -0.350974  -0.189715  -0.045366  -0.027572  -0.003337   0.000088
     5  C    0.231699  -0.365300  -0.392113  -0.697408   0.125417  -0.684876
     6  O   -0.079632  -0.337541   0.276760  -0.072592  -0.020928   0.015218
     7  N    7.761823   0.145483   0.096112  -0.072012  -0.033166   0.023751
     8  C    0.145483  13.802102  -1.320120  -0.821936  -1.235742  -3.791334
     9  C    0.096112  -1.320120  21.278104  -0.310704  -3.185110   0.644935
    10  C   -0.072012  -0.821936  -0.310704  15.317050  -0.478865  -0.774675
    11  C   -0.033166  -1.235742  -3.185110  -0.478865  13.338122   0.026654
    12  C    0.023751  -3.791334   0.644935  -0.774675   0.026654  16.067711
    13  C   -0.096898   0.805888 -10.765382  -6.337398  -2.764121  -4.871820
    14  H    0.000010  -0.000032  -0.000004   0.000000   0.000000  -0.000000
    15  H    0.000002  -0.000014  -0.000038   0.000001   0.000000  -0.000000
    16  H    0.000006   0.000015  -0.000057   0.000006   0.000000  -0.000000
    17  H   -0.000263  -0.000572  -0.000319   0.000167   0.000010  -0.000002
    18  H   -0.000123  -0.000834  -0.000084   0.000080   0.000005  -0.000002
    19  H   -0.000751   0.000358  -0.001181   0.000163   0.000008  -0.000005
    20  H   -0.000042  -0.001209  -0.003024   0.000352   0.000050  -0.000078
    21  H    0.029042   0.009637  -0.004028   0.003378   0.000882  -0.000341
    22  H    0.163653   0.013367   0.028530  -0.039122  -0.009381   0.007588
    23  H   -0.009579  -0.011410   0.259368   0.022937  -0.005688   0.063121
    24  H   -0.003022  -0.036759   0.023857   0.242904   0.018619   0.073263
    25  H    0.000619   0.005535  -0.052947  -0.210819   0.446918   0.031804
    26  S    0.003590  -0.540574  -1.013034   0.014422   0.267635  -0.254091
    27  H   -0.000813   0.025719  -0.084610  -0.024263  -0.006876  -0.066967
    28  F    0.000039  -0.013032   0.010778  -0.011879  -0.025069   0.075197
    29  F   -0.000005   0.003167  -0.011478  -0.001805   0.034036  -0.167699
    30  F    0.000048  -0.008185  -0.020128   0.028938   0.032651   0.035682
    31  F    0.000053  -0.009779  -0.028702   0.031051   0.034439   0.031956
    32  F    0.000039  -0.013722   0.001003  -0.017457  -0.024591   0.063178
    33  O    0.013862  -0.007321  -0.004863   0.004609   0.000710  -0.000616
    34  O   -0.010758  -0.135370  -0.013978   0.103105   0.036110   0.001278
    35  C   -0.005665   0.033999   0.000743  -0.023534  -0.011542  -0.003160
    36  C   -0.007546  -0.012951  -0.005076   0.004769   0.003467  -0.000595
    37  C    0.001250  -0.008716  -0.000871   0.004702   0.004457   0.000403
    38  H    0.000050  -0.000303  -0.000024   0.000221   0.000022  -0.000001
    39  H    0.000016  -0.000086  -0.000017   0.000068   0.000000  -0.000001
    40  H   -0.000025   0.000132   0.000011  -0.000131  -0.000028  -0.000002
    41  H    0.000003  -0.000001   0.000000   0.000004   0.000000   0.000000
    42  H   -0.000007  -0.000264  -0.000007   0.000119   0.000142  -0.000001
              13         14         15         16         17         18
     1  C   -0.001245   0.459155   0.426127   0.415489  -0.037587  -0.029402
     2  C   -0.002650  -0.136225  -0.070789  -0.066370   0.418633   0.422537
     3  C   -0.030435   0.029591  -0.010698  -0.004633  -0.065872  -0.075196
     4  N    0.026230   0.000281  -0.000007   0.000213   0.006038   0.006052
     5  C   -0.198923  -0.002014  -0.001387  -0.000900  -0.007641  -0.006275
     6  O    0.232825   0.000004  -0.000037  -0.000045  -0.000218  -0.000150
     7  N   -0.096898   0.000010   0.000002   0.000006  -0.000263  -0.000123
     8  C    0.805888  -0.000032  -0.000014   0.000015  -0.000572  -0.000834
     9  C  -10.765382  -0.000004  -0.000038  -0.000057  -0.000319  -0.000084
    10  C   -6.337398   0.000000   0.000001   0.000006   0.000167   0.000080
    11  C   -2.764121   0.000000   0.000000   0.000000   0.000010   0.000005
    12  C   -4.871820  -0.000000  -0.000000  -0.000000  -0.000002  -0.000002
    13  C   30.537064  -0.000000  -0.000004  -0.000004  -0.000019  -0.000008
    14  H   -0.000000   0.498901  -0.025490  -0.025080  -0.003584  -0.003383
    15  H   -0.000004  -0.025490   0.506933  -0.029769  -0.004764   0.003940
    16  H   -0.000004  -0.025080  -0.029769   0.504560   0.004017  -0.004677
    17  H   -0.000019  -0.003584  -0.004764   0.004017   0.490433  -0.027470
    18  H   -0.000008  -0.003383   0.003940  -0.004677  -0.027470   0.477349
    19  H    0.000046  -0.000074  -0.000300   0.002695   0.003911  -0.005092
    20  H   -0.000432  -0.000068   0.002988  -0.000354  -0.005282   0.003854
    21  H    0.000194  -0.000001  -0.000001  -0.000001   0.000664   0.000593
    22  H    0.010398  -0.000000  -0.000000   0.000000   0.000003   0.000003
    23  H   -0.017186   0.000000  -0.000000  -0.000000  -0.000000  -0.000000
    24  H   -0.018284   0.000000   0.000000  -0.000000   0.000000   0.000000
    25  H    0.065640  -0.000000   0.000000   0.000000  -0.000000  -0.000000
    26  S    0.297795  -0.000000  -0.000000  -0.000000  -0.000000  -0.000000
    27  H    0.442690  -0.000000   0.000000   0.000000   0.000000   0.000000
    28  F   -0.068891  -0.000000  -0.000000  -0.000000  -0.000000  -0.000000
    29  F    0.097228   0.000000   0.000000   0.000000   0.000000   0.000000
    30  F   -0.101896  -0.000000  -0.000000   0.000000   0.000000  -0.000000
    31  F   -0.098285  -0.000000   0.000000  -0.000000  -0.000000   0.000000
    32  F   -0.055666  -0.000000   0.000000  -0.000000  -0.000000   0.000000
    33  O    0.002023  -0.000033  -0.000014  -0.000001  -0.001377  -0.002033
    34  O   -0.002711  -0.000000   0.000000   0.000000  -0.000001  -0.000011
    35  C   -0.001469  -0.000107  -0.000014   0.000022   0.000379  -0.000524
    36  C    0.000041   0.000054  -0.000004  -0.000004  -0.000031  -0.000237
    37  C   -0.000594  -0.000001   0.000000   0.000000  -0.000019  -0.000007
    38  H    0.000000  -0.000000  -0.000000   0.000000  -0.000000  -0.000000
    39  H   -0.000001  -0.000000   0.000000  -0.000000   0.000000  -0.000000
    40  H   -0.000002   0.000000  -0.000000  -0.000000  -0.000000  -0.000000
    41  H    0.000000   0.000000  -0.000000  -0.000000  -0.000000  -0.000000
    42  H   -0.000000   0.000000  -0.000000  -0.000000  -0.000000   0.000000
              19         20         21         22         23         24
     1  C   -0.009607  -0.003131   0.001151   0.000112   0.000007  -0.000001
     2  C   -0.050861  -0.054335  -0.000444   0.000512   0.000019   0.000006
     3  C    0.447534   0.460002  -0.051382   0.006940   0.002245  -0.000024
     4  N   -0.057400  -0.057652   0.173068   0.035367  -0.000124   0.000948
     5  C   -0.024619  -0.036999   0.017665  -0.031220   0.009632  -0.001312
     6  O    0.001624   0.001493   0.005179   0.003395  -0.006228   0.000020
     7  N   -0.000751  -0.000042   0.029042   0.163653  -0.009579  -0.003022
     8  C    0.000358  -0.001209   0.009637   0.013367  -0.011410  -0.036759
     9  C   -0.001181  -0.003024  -0.004028   0.028530   0.259368   0.023857
    10  C    0.000163   0.000352   0.003378  -0.039122   0.022937   0.242904
    11  C    0.000008   0.000050   0.000882  -0.009381  -0.005688   0.018619
    12  C   -0.000005  -0.000078  -0.000341   0.007588   0.063121   0.073263
    13  C    0.000046  -0.000432   0.000194   0.010398  -0.017186  -0.018284
    14  H   -0.000074  -0.000068  -0.000001  -0.000000   0.000000   0.000000
    15  H   -0.000300   0.002988  -0.000001  -0.000000  -0.000000   0.000000
    16  H    0.002695  -0.000354  -0.000001   0.000000  -0.000000  -0.000000
    17  H    0.003911  -0.005282   0.000664   0.000003  -0.000000   0.000000
    18  H   -0.005092   0.003854   0.000593   0.000003  -0.000000   0.000000
    19  H    0.519828  -0.041793   0.001734   0.000004  -0.000000  -0.000000
    20  H   -0.041793   0.523443   0.001675   0.000003  -0.000001   0.000000
    21  H    0.001734   0.001675   0.255256   0.004140   0.000001   0.000004
    22  H    0.000004   0.000003   0.004140   0.266107  -0.000062   0.004112
    23  H   -0.000000  -0.000001   0.000001  -0.000062   0.422573  -0.000100
    24  H   -0.000000   0.000000   0.000004   0.004112  -0.000100   0.442146
    25  H   -0.000000  -0.000000  -0.000000  -0.000006   0.000011  -0.004147
    26  S   -0.000000  -0.000001  -0.000006   0.000312  -0.000008   0.003626
    27  H   -0.000000  -0.000000  -0.000000   0.000001  -0.004999   0.000011
    28  F   -0.000000  -0.000000  -0.000000   0.000000   0.000013   0.000046
    29  F   -0.000000   0.000000  -0.000000   0.000000  -0.000001  -0.000001
    30  F   -0.000000   0.000000  -0.000000   0.000000   0.000013   0.000014
    31  F    0.000000  -0.000000  -0.000000   0.000000   0.000015   0.000014
    32  F    0.000000  -0.000000  -0.000000   0.000000   0.000013   0.000042
    33  O   -0.000030  -0.000072   0.053636   0.000680   0.000001  -0.000002
    34  O   -0.000007  -0.000003   0.000024   0.044228   0.000005  -0.001926
    35  C    0.000419   0.000193  -0.004262  -0.003883  -0.000043   0.000001
    36  C    0.000017   0.000016   0.005256   0.006618  -0.000003   0.000983
    37  C   -0.000001   0.000003  -0.001033  -0.000736  -0.000000  -0.000092
    38  H   -0.000000  -0.000000  -0.000002  -0.000006   0.000000  -0.000000
    39  H   -0.000000   0.000000   0.000001  -0.000005   0.000000   0.000000
    40  H   -0.000000   0.000000   0.000000  -0.000000   0.000000   0.000000
    41  H   -0.000000  -0.000000   0.000000   0.000000  -0.000000   0.000000
    42  H    0.000000  -0.000000   0.000000  -0.000001   0.000000   0.000000
              25         26         27         28         29         30
     1  C    0.000000  -0.000008  -0.000000  -0.000000  -0.000000  -0.000000
     2  C    0.000000   0.000026   0.000003   0.000000  -0.000000   0.000000
     3  C    0.000024  -0.001019  -0.000000  -0.000004  -0.000000  -0.000004
     4  N    0.000004   0.000705   0.000013   0.000001  -0.000000   0.000001
     5  C    0.003564  -0.049004  -0.001487  -0.000829  -0.000057  -0.000891
     6  O   -0.000001   0.000943   0.000355  -0.000001   0.000000   0.000001
     7  N    0.000619   0.003590  -0.000813   0.000039  -0.000005   0.000048
     8  C    0.005535  -0.540574   0.025719  -0.013032   0.003167  -0.008185
     9  C   -0.052947  -1.013034  -0.084610   0.010778  -0.011478  -0.020128
    10  C   -0.210819   0.014422  -0.024263  -0.011879  -0.001805   0.028938
    11  C    0.446918   0.267635  -0.006876  -0.025069   0.034036   0.032651
    12  C    0.031804  -0.254091  -0.066967   0.075197  -0.167699   0.035682
    13  C    0.065640   0.297795   0.442690  -0.068891   0.097228  -0.101896
    14  H   -0.000000  -0.000000  -0.000000  -0.000000   0.000000  -0.000000
    15  H    0.000000  -0.000000   0.000000  -0.000000   0.000000  -0.000000
    16  H    0.000000  -0.000000   0.000000  -0.000000   0.000000   0.000000
    17  H   -0.000000  -0.000000   0.000000  -0.000000   0.000000   0.000000
    18  H   -0.000000  -0.000000   0.000000  -0.000000   0.000000  -0.000000
    19  H   -0.000000  -0.000000  -0.000000  -0.000000  -0.000000  -0.000000
    20  H   -0.000000  -0.000001  -0.000000  -0.000000   0.000000   0.000000
    21  H   -0.000000  -0.000006  -0.000000  -0.000000  -0.000000  -0.000000
    22  H   -0.000006   0.000312   0.000001   0.000000   0.000000   0.000000
    23  H    0.000011  -0.000008  -0.004999   0.000013  -0.000001   0.000013
    24  H   -0.004147   0.003626   0.000011   0.000046  -0.000001   0.000014
    25  H    0.447248   0.012919  -0.000138   0.000767  -0.000011   0.000115
    26  S    0.012919  14.893281   0.018011   0.043520   0.134705   0.046463
    27  H   -0.000138   0.018011   0.449170   0.000074  -0.000004   0.002142
    28  F    0.000767   0.043520   0.000074   9.514512  -0.026440  -0.005372
    29  F   -0.000011   0.134705  -0.000004  -0.026440   9.441594  -0.025644
    30  F    0.000115   0.046463   0.002142  -0.005372  -0.025644   9.521402
    31  F    0.000106   0.052069   0.001962  -0.018161  -0.025314  -0.027895
    32  F    0.000625   0.056733   0.000064  -0.025295  -0.026355  -0.017923
    33  O   -0.000000  -0.000010  -0.000000  -0.000000  -0.000000  -0.000000
    34  O   -0.000004  -0.000035  -0.000000   0.000000  -0.000000  -0.000000
    35  C   -0.000017  -0.000096   0.000000  -0.000001   0.000000  -0.000000
    36  C   -0.000005  -0.000035   0.000000  -0.000000   0.000000  -0.000000
    37  C    0.000001   0.000018   0.000000   0.000000  -0.000000   0.000000
    38  H   -0.000000  -0.000000   0.000000  -0.000000  -0.000000  -0.000000
    39  H   -0.000000  -0.000000   0.000000  -0.000000  -0.000000  -0.000000
    40  H   -0.000000  -0.000000  -0.000000   0.000000   0.000000  -0.000000
    41  H   -0.000000   0.000000  -0.000000  -0.000000  -0.000000   0.000000
    42  H   -0.000000   0.000000  -0.000000   0.000000  -0.000000  -0.000000
              31         32         33         34         35         36
     1  C   -0.000000  -0.000000   0.008579  -0.000128  -0.003761   0.002719
     2  C    0.000000   0.000000   0.014134  -0.003025  -0.007396   0.000585
     3  C   -0.000005  -0.000004  -0.021848   0.010822   0.002796   0.010865
     4  N    0.000001   0.000001  -0.037286   0.008562  -0.007897  -0.009888
     5  C   -0.000999  -0.000907   0.010291   0.001803  -0.006746  -0.009596
     6  O   -0.000000  -0.000001  -0.000159  -0.000173  -0.000740  -0.000459
     7  N    0.000053   0.000039   0.013862  -0.010758  -0.005665  -0.007546
     8  C   -0.009779  -0.013722  -0.007321  -0.135370   0.033999  -0.012951
     9  C   -0.028702   0.001003  -0.004863  -0.013978   0.000743  -0.005076
    10  C    0.031051  -0.017457   0.004609   0.103105  -0.023534   0.004769
    11  C    0.034439  -0.024591   0.000710   0.036110  -0.011542   0.003467
    12  C    0.031956   0.063178  -0.000616   0.001278  -0.003160  -0.000595
    13  C   -0.098285  -0.055666   0.002023  -0.002711  -0.001469   0.000041
    14  H   -0.000000  -0.000000  -0.000033  -0.000000  -0.000107   0.000054
    15  H    0.000000   0.000000  -0.000014   0.000000  -0.000014  -0.000004
    16  H   -0.000000  -0.000000  -0.000001   0.000000   0.000022  -0.000004
    17  H   -0.000000  -0.000000  -0.001377  -0.000001   0.000379  -0.000031
    18  H    0.000000   0.000000  -0.002033  -0.000011  -0.000524  -0.000237
    19  H    0.000000   0.000000  -0.000030  -0.000007   0.000419   0.000017
    20  H   -0.000000  -0.000000  -0.000072  -0.000003   0.000193   0.000016
    21  H   -0.000000  -0.000000   0.053636   0.000024  -0.004262   0.005256
    22  H    0.000000   0.000000   0.000680   0.044228  -0.003883   0.006618
    23  H    0.000015   0.000013   0.000001   0.000005  -0.000043  -0.000003
    24  H    0.000014   0.000042  -0.000002  -0.001926   0.000001   0.000983
    25  H    0.000106   0.000625  -0.000000  -0.000004  -0.000017  -0.000005
    26  S    0.052069   0.056733  -0.000010  -0.000035  -0.000096  -0.000035
    27  H    0.001962   0.000064  -0.000000  -0.000000   0.000000   0.000000
    28  F   -0.018161  -0.025295  -0.000000   0.000000  -0.000001  -0.000000
    29  F   -0.025314  -0.026355  -0.000000  -0.000000   0.000000   0.000000
    30  F   -0.027895  -0.017923  -0.000000  -0.000000  -0.000000  -0.000000
    31  F    9.522568  -0.005593  -0.000000  -0.000000  -0.000001  -0.000000
    32  F   -0.005593   9.516123  -0.000000  -0.000000  -0.000002  -0.000000
    33  O   -0.000000  -0.000000   8.644083  -0.190737   0.491331  -0.288525
    34  O   -0.000000  -0.000000  -0.190737   8.562562   0.256514  -0.084991
    35  C   -0.000001  -0.000002   0.491331   0.256514   5.393881  -0.574970
    36  C   -0.000000  -0.000000  -0.288525  -0.084991  -0.574970   7.016781
    37  C    0.000000   0.000000   0.035609   0.060551   0.002338  -0.299709
    38  H   -0.000000  -0.000000  -0.003958   0.001691  -0.074921   0.449380
[...]
 .00000169,-0.00000262,-0.00000136,-0.00000081,0.00000048,0.00000726,0.
 00000260,0.00000009,0.00000923,0.00000419,-0.00000455,-0.00000075,-0.0
 0000011,0.00000207,0.00000064,0.00000119,-0.00000531,-0.00002768,-0.00
 017101,-0.00000583,-0.00001708,0.00030073,-0.00010832,-0.00000408,-0.0
 0000255,0.00000373,0.00001461,0.00003092,0.00001829,0.00000700,0.00000
 706,0.00000609,0.00001213,0.00004916,0.00003635,-0.00000101,-0.0000007
 9,0.00000191,0.00000096,-0.00001745,-0.00001039,-0.00000507,-0.0000065
 7,-0.00000415,-0.00000345,-0.00000836,0.00000066,-0.00000407,-0.000017
 05,-0.00001134,-0.00000376,-0.00000343,-0.00000980,0.00056019,0.001390
 58,-0.00127235,0.00039239,-0.00228689,-0.00050228,-0.00446536,-0.00045
 318,0.00388924,-0.12206521,-0.00995801,0.12070911,-0.01601047,-0.00194
 357,0.02478194,0.00965552,0.00202058,-0.01505930,0.13482986,0.00000130
 ,0.00000329,-0.00000324,0.00000875,-0.00001221,0.00001603,-0.00004998,
 0.00003428,-0.00000192,0.00005308,-0.00001166,0.00005077,-0.00021756,0
 .00011987,0.00000427,0.00006000,-0.00015052,0.00000474,-0.00007124,-0.
 00056409,0.00024143,0.00025950,0.00001275,0.00000397,-0.00005995,-0.00
 003831,-0.00000361,-0.00008282,0.00007116,-0.00001064,0.00003256,-0.00
 000267,0.00000206,-0.00004748,-0.00001930,0.00000085,0.00001466,-0.000
 01455,0.00000377,0.00000604,0.00000019,0.00000261,-0.00000036,0.000000
 54,-0.00000179,0.00000208,-0.00000521,0.00000037,-0.00000578,0.0000015
 8,-0.00001103,-0.00000318,0.00000325,0.00000159,0.00000597,-0.00001217
 ,-0.00000035,0.00001384,-0.00000688,0.00000298,-0.00002708,0.00010910,
 -0.00016611,0.00003698,0.00090150,-0.00047273,0.00000441,0.00000160,0.
 00000108,0.00008709,0.00000750,-0.00000205,-0.00000703,-0.00000155,0.0
 0000124,0.00010818,-0.00000071,0.00000790,-0.00000430,-0.00000169,0.00
 000199,-0.00002477,0.00001805,0.00001091,-0.00001345,-0.00000019,-0.00
 000083,-0.00001949,-0.00001226,0.00001377,-0.00001921,-0.00001936,-0.0
 0001021,-0.00002503,0.00001221,-0.00002068,0.00115406,-0.00055368,-0.0
 0377257,-0.00171815,-0.00643158,-0.00280155,-0.01737787,0.00037560,0.0
 3140090,-0.01071846,-0.04676128,0.02151707,0.00927298,0.00056500,-0.01
 424172,0.00852029,0.00118687,-0.01328094,0.00902938,0.05157930,0.00000
 167,0.00000171,0.00000569,-0.00001316,0.00000633,-0.00002639,0.0000782
 7,-0.00003390,0.00000024,-0.00005959,0.00008033,-0.00000723,0.00015654
 ,-0.00010638,0.00000523,-0.00004307,0.00011432,-0.00001408,0.00001971,
 0.00030547,-0.00006051,-0.00012900,-0.00000012,-0.00000092,0.00003049,
 0.00002128,-0.00000249,0.00003938,-0.00004584,0.00000920,-0.00002277,-
 0.00000287,0.00000292,0.00002205,0.00001932,-0.00000187,-0.00000283,0.
 00001272,-0.00000177,-0.00001696,-0.00000019,-0.00000291,0.00000113,-0
 .00000376,0.00000457,-0.00000172,0.00000275,-0.00000095,0.00001182,0.0
 0000359,-0.00000373,0.00000866,0.00000806,0.00001391,-0.00001232,0.000
 01120,0.00000266,-0.00001641,0.00000276,-0.00000217,0.00001344,-0.0001
 3709,0.00005368,-0.00002628,-0.00046785,0.00011265,-0.00000072,-0.0000
 0049,-0.00000212,-0.00004768,-0.00001188,-0.00000400,-0.00000245,-0.00
 000298,-0.00000157,-0.00011109,-0.00005068,-0.00001060,0.00000226,0.00
 000169,-0.00000140,0.00002211,-0.00000068,-0.00000375,0.00002181,0.000
 00761,0.00000093,0.00002109,0.00001958,-0.00001598,0.00002092,0.000029
 69,0.00001341,0.00002394,-0.00000180,0.00001477,-0.00162094,0.00091044
 ,0.00178678,-0.00032227,0.00181606,0.00002234,0.00489430,-0.00287719,-
 0.00600881,0.11959803,0.01804790,-0.23430279,-0.00380806,-0.00050960,0
 .00524955,0.01288737,0.00250565,-0.02093715,-0.13115645,-0.01939897,0.
 25184347,0.00000235,-0.00000024,-0.00000332,0.00000034,-0.00000052,0.0
 0001567,0.00000136,-0.00000078,0.00000760,0.00002590,0.00006738,-0.000
 04331,-0.00006439,-0.00000815,0.00002069,0.00001649,0.00001959,-0.0000
 1269,-0.00000005,-0.00001178,-0.00002275,0.00002124,0.00000423,0.00000
 509,-0.00000359,0.00000430,-0.00000343,-0.00001659,-0.00000573,-0.0000
 0609,0.00001246,-0.00000322,-0.00000184,-0.00000658,0.00000050,-0.0000
 0172,0.00000229,0.00000273,-0.00000180,0.00000270,-0.00000059,0.000002
 37,-0.00000271,0.00000490,-0.00000461,-0.00000051,-0.00000004,0.000000
 66,-0.00000057,-0.00000368,0.00000703,0.00000182,-0.00000595,-0.000013
 76,-0.00000027,0.00000098,-0.00000067,0.00000009,0.00000742,-0.0000052
 3,-0.00000791,-0.00010516,0.00003677,0.00000535,0.00001344,0.00001910,
 -0.00000032,0.00000162,0.00000254,0.00001903,-0.00000019,0.00001274,-0
 .00000719,-0.00000716,0.00000236,-0.00000195,-0.00002233,0.00002963,-0
 .00000048,0.00000124,0.00000079,0.00000069,0.00000311,-0.00000406,0.00
 000239,0.00000306,-0.00000353,0.00000098,0.00000648,-0.00001024,0.0000
 0106,0.00000367,-0.00000211,-0.00000146,0.00000729,-0.00000939,0.00053
 420,0.00034515,-0.00039280,0.00126369,0.00035184,-0.00058895,-0.001070
 08,-0.00184287,0.00065780,-0.01655849,-0.00150736,0.02603850,-0.125331
 01,-0.01003924,0.12261999,0.00088244,-0.00089304,-0.00008374,-0.004972
 56,0.00331829,-0.00142971,0.13805527,-0.00000042,-0.00000217,0.0000015
 6,-0.00000242,0.00000623,-0.00000417,0.00003539,-0.00001897,0.00000209
 ,-0.00005326,0.00001767,0.00000701,0.00013103,-0.00007844,0.00000547,-
 0.00003386,0.00007041,-0.00001042,-0.00001266,0.00017877,-0.00003711,-
 0.00002213,0.00001970,0.00000024,0.00000327,0.00001011,-0.00000114,-0.
 00000480,-0.00004555,0.00002719,-0.00001801,0.00000087,0.00000324,0.00
 000796,0.00001915,-0.00000353,0.00001050,0.00001406,-0.00000348,-0.000
 00539,-0.00000029,0.,0.00000025,0.00000056,0.00000019,-0.00000064,0.00
 000135,-0.00000033,0.00000426,0.00000012,0.00000152,0.00000189,-0.0000
 0073,0.00000073,-0.00000665,0.00000643,0.00000085,-0.00000650,0.000003
 92,-0.00000262,0.00001741,-0.00005506,0.00000659,-0.00003619,-0.000296
 01,0.00006587,0.00000214,0.00000290,-0.00000216,-0.00003176,-0.0000562
 0,-0.00003410,-0.00001140,-0.00000704,-0.00000291,-0.00011195,-0.00003
 517,-0.00000456,0.00000087,0.00000218,-0.00000064,0.00002396,-0.000004
 80,-0.00000680,0.00002177,0.00000564,0.00000014,0.00002177,0.00001792,
 -0.00001783,0.00002141,0.00002552,0.00001162,0.00002456,-0.00000371,0.
 00001527,-0.00066647,0.00006943,0.00013145,-0.00065699,0.00001124,0.00
 029508,0.00146011,0.00055188,-0.00095337,0.00816960,0.00075564,-0.0138
 7478,-0.01088337,-0.04906999,0.01577240,-0.00074066,0.00048695,0.00027
 808,0.00305531,-0.00122906,0.00049853,0.00892347,0.04907649,-0.0000028
 9,-0.00000228,0.00000138,-0.00000008,0.00000929,-0.00000747,0.00000882
 ,-0.00000622,-0.00000319,-0.00008030,-0.00007352,0.00003041,0.00016114
 ,-0.00002199,-0.00000337,-0.00004165,-0.00000135,0.00000575,-0.0001249
 6,0.00002187,0.00000915,0.00013972,0.00003793,-0.00001015,-0.00003384,
 -0.00000926,0.00000265,-0.00006144,-0.00000504,0.00001783,0.00002250,-
 0.00000297,0.00000796,-0.00003235,0.00001296,-0.00000047,0.00002552,0.
 00000923,-0.00000058,-0.00000312,0.00000046,-0.00000081,0.00000150,-0.
 00000166,0.00000322,0.00000073,-0.00000037,-0.00000141,0.00000015,0.00
 000002,-0.00000331,-0.00000073,0.00000032,0.00000659,-0.00000285,0.000
 00099,-0.00000085,-0.00000276,-0.00000119,0.00000274,0.00001860,0.0000
 8677,-0.00002711,0.00000021,-0.00001699,-0.00002030,0.00000723,0.00000
 528,-0.00000354,0.00001821,-0.00007977,-0.00001763,-0.00002196,-0.0000
 1658,-0.00000601,-0.00002206,-0.00010327,-0.00002503,-0.00000092,0.000
 00169,-0.00000155,-0.00000122,0.00003227,0.00001314,0.00001316,0.00001
 417,0.00000261,0.00000675,0.00001914,-0.00000997,0.00000741,0.00002955
 ,0.00001437,0.00000398,0.00001461,0.00000280,-0.00042897,-0.00057531,-
 0.00002388,-0.00168399,0.00025787,0.00033111,0.00163785,0.00137598,-0.
 00001785,-0.00317086,-0.00086380,0.00483825,0.12370465,0.01400674,-0.2
 4326025,0.00045960,-0.00038966,0.00074990,-0.00107393,0.00085093,0.001
 35160,-0.13440689,-0.01750832,0.26110295,0.00000801,0.00000473,-0.0000
 0014,-0.00001059,-0.00000838,-0.00000163,0.00006049,-0.00001667,0.0000
 0586,0.00012991,0.00034833,-0.00006478,-0.00027985,-0.00004357,0.00000
 747,0.00007329,0.00009499,-0.00001996,0.00014564,0.00000633,0.00000182
 ,-0.00015498,-0.00004351,0.00000884,0.00003790,0.00002201,-0.00000487,
 0.00005728,0.00000053,-0.00000075,-0.00000870,-0.00000126,0.00000045,0
 .00003003,-0.00000399,0.00000093,-0.00002409,-0.00000435,0.00000097,-0
 .00000591,-0.00000122,0.00000031,-0.00000375,0.00000398,-0.00000310,-0
 .00000421,0.00000545,0.00000112,0.00001203,-0.00000013,0.00001821,0.00
 000917,-0.00000883,-0.00001394,-0.00000945,0.00001515,0.00000199,-0.00
 000863,0.00001143,-0.00000804,-0.00006165,-0.00052421,0.00009229,-0.00
 001859,-0.00004930,0.00000728,-0.00000854,-0.00000549,0.00000126,-0.00
 002236,0.00003954,-0.00000781,0.00001373,0.00000572,-0.00000093,0.0000
 0631,0.00002531,-0.00000473,0.00000106,-0.00000041,0.00000011,-0.00000
 053,-0.00000800,-0.00000159,-0.00000670,-0.00000398,0.00000074,-0.0000
 0266,-0.00000481,0.00000407,-0.00000267,-0.00000622,-0.00000191,-0.000
 00063,-0.00000639,0.00000426,-0.00083661,0.00355439,-0.00088919,0.0021
 5776,-0.00032025,0.00008971,-0.00689384,-0.00257971,0.00050448,0.00522
 668,0.03198857,-0.00717994,-0.05338628,-0.03603883,0.00821063,0.001164
 40,-0.00085773,-0.00014911,0.00119450,-0.00071113,0.00051090,-0.002785
 76,-0.01700544,0.00181095,0.05697908,-0.00001077,-0.00000219,-0.000000
 02,0.00001285,0.00000599,0.00000171,-0.00012329,0.00005455,-0.00001371
 ,-0.00005651,-0.00039048,0.00007693,0.00011076,0.00023876,-0.00004996,
 -0.00002673,-0.00026226,0.00005467,-0.00019729,-0.00034394,0.00007854,
 0.00027694,0.00002841,-0.00000544,-0.00006499,-0.00005411,0.00001162,-
 0.00008395,0.00008063,-0.00001542,0.00004978,0.00001188,-0.00000107,-0
 .00005818,-0.00003213,0.00000638,0.00001819,-0.00002203,0.00000486,0.0
 0001338,0.00000477,-0.00000095,0.00000579,-0.00000793,0.00000802,0.000
 00616,-0.00001167,-0.00000419,-0.00001815,-0.00000081,-0.00002806,-0.0
 0001547,0.00001211,0.00002359,0.00001845,-0.00002888,-0.00000653,0.000
 01904,-0.00002193,0.00001865,0.00000146,0.00066887,-0.00012537,0.00010
 987,0.00063814,-0.00014601,0.00000833,0.00000212,-0.00000055,0.0000832
 1,0.00004015,-0.00001666,0.00000530,0.00000486,-0.00000182,0.00025158,
 0.00004781,-0.00000932,-0.00000254,-0.00000386,0.00000096,-0.00005495,
 0.00002429,0.00002175,-0.00004502,-0.00000836,0.00000157,-0.00004591,-
 0.00003434,0.00003626,-0.00004558,-0.00004683,-0.00001879,-0.00005470,
 0.00001232,-0.00003038,0.00171598,-0.00266282,0.00071845,0.00059421,-0
 .00118913,0.00042846,0.00129883,0.00271716,-0.00057496,-0.00427509,-0.
 01341633,0.00274886,-0.03544168,-0.29522456,0.05563156,0.00013346,0.00
 059900,0.00038683,0.00002386,0.00023144,-0.00057059,-0.00048121,-0.000
 91785,0.00033772,0.03790096,0.32190485,0.00000242,0.00000039,-0.000000
 67,-0.00000298,-0.00000054,0.00000401,0.00002767,-0.00001229,0.0000039
 2,0.00001341,0.00008978,-0.00001574,-0.00002666,-0.00005331,0.00000763
 ,0.00000656,0.00005820,-0.00001125,0.00004210,0.00007426,-0.00000231,-
 0.00006048,-0.00000809,-0.00000374,0.00001404,0.00001216,-0.00000126,0
 .00001832,-0.00001420,0.00001790,-0.00001101,-0.00000163,0.00000553,0.
 00001269,0.00000701,-0.00000204,-0.00000394,0.00000477,-0.00000110,-0.
 00000293,-0.00000083,0.00000125,-0.00000126,0.00000259,-0.00000248,-0.
 00000145,0.00000164,0.00000069,0.00000452,-0.00000004,0.00000551,0.000
 00301,-0.00000325,-0.00000652,-0.00000440,0.00000604,0.00000124,-0.000
 00389,0.00000533,-0.00000462,-0.00000141,-0.00015118,0.00002744,-0.000
 02091,-0.00013711,0.00001772,-0.00000184,-0.00000058,-0.00000028,-0.00
 001760,-0.00001610,-0.00003281,-0.00000117,-0.00000195,-0.00000375,-0.
 00005593,-0.00001240,-0.00000369,0.00000053,0.00000083,-0.00000025,0.0
 0001200,-0.00000349,-0.00000320,0.00001010,0.00000205,0.00000021,0.000
 01022,0.00000790,-0.00000767,0.00001015,0.00001045,0.00000463,0.000012
 31,-0.00000355,0.00000884,-0.00035764,0.00064013,-0.00014467,-0.000045
 92,0.00033948,0.00053824,-0.00046997,-0.00057979,0.00076497,0.00094865
 ,0.00309836,-0.00176329,0.00811165,0.05563155,-0.06335744,0.00017179,0
 .00019482,-0.00014070,-0.00020150,-0.00040313,0.00022710,0.00263086,0.
 02769757,-0.00490419,-0.00861800,-0.06237540,0.06186764,0.00000201,0.0
 0000096,0.00000349,0.00000036,-0.00000679,-0.00001566,0.00000194,-0.00
 000243,-0.00000488,0.00002207,0.00008085,0.00001210,-0.00006038,-0.000
 01369,-0.00001671,0.00001593,0.00002007,0.00000426,-0.00001097,-0.0000
 1489,0.00002624,0.00003472,0.00000272,-0.00000640,-0.00000696,0.000003
 69,0.00000176,-0.00002147,-0.00000185,0.00000761,0.00001365,-0.0000024
 9,0.00000258,-0.00000937,0.00000131,0.00000096,0.00000390,0.00000309,0
 .00000047,0.00000225,-0.00000150,-0.00000209,-0.00000016,-0.00000073,-
 0.00000008,-0.00000243,0.00000620,0.00000180,0.00000140,0.00000100,0.0
 0001341,-0.00000154,-0.00000567,-0.00000275,-0.00000015,0.00000852,0.0
 0000081,-0.00000038,0.00000058,0.00000061,-0.00000789,-0.00011444,0.00
 000779,0.00001237,0.00002962,-0.00002616,0.00000023,0.00000073,-0.0000
 0288,0.00002310,-0.00000609,-0.00000869,-0.00000826,-0.00000798,0.0000
 0130,-0.00000010,-0.00003642,-0.00001428,-0.00000061,0.00000086,-0.000
 00120,-0.00000192,0.00001152,0.00000538,0.00000269,0.00000479,0.000001
 55,0.00000091,0.00000483,-0.00000047,0.00000070,0.00001066,0.00000632,
 0.00000005,0.00000584,0.00000074,0.00063072,0.00050451,0.00024489,0.00
 135156,0.00055650,0.00059937,-0.00123631,-0.00192836,0.00002296,-0.016
 34919,-0.01287326,-0.02300970,-0.12289989,-0.06152018,-0.10530807,-0.0
 0496808,0.00360854,-0.00020010,0.00091957,-0.00078511,0.00045760,0.009
 98033,0.00837408,0.01314908,-0.00277032,-0.00155639,-0.00215210,0.1353
 3588,0.00000111,-0.00000104,0.00000003,-0.00000228,0.00000128,-0.00000
 158,0.00002830,-0.00001489,0.00000288,-0.00001313,0.00004496,-0.000010
 35,0.00005019,-0.00006141,0.00001838,-0.00001312,0.00006588,-0.0000154
 8,0.00004442,0.00016166,-0.00003170,-0.00008562,-0.00000169,-0.0000069
 6,0.00001799,0.00001392,-0.00000245,0.00002397,-0.00004320,0.00000489,
 -0.00002631,0.00000240,-0.00000175,0.00002228,0.00001232,-0.00000123,-
 0.00000136,0.00000930,-0.00000181,-0.00000368,-0.00000061,-0.00000006,
 -0.00000093,0.00000112,-0.00000081,-0.00000061,0.00000187,0.00000065,0
 .00000302,0.00000044,0.00000300,0.00000372,-0.00000154,-0.00000261,-0.
 00000462,0.00000544,0.00000142,-0.00000484,0.00000440,-0.00000350,0.00
 000735,-0.00008921,0.00001409,-0.00003209,-0.00027449,0.00005743,-0.00
 000124,0.00000048,0.00000019,-0.00004037,-0.00000800,0.00002676,-0.000
 00054,0.00000080,-0.00000067,-0.00009337,0.00001005,-0.00001444,0.0000
 0127,0.00000108,-0.00000065,0.00002101,-0.00001455,-0.00000718,0.00001
 398,-0.00000067,0.00000174,0.00001656,0.00000749,-0.00000794,0.0000169
 9,0.00001242,0.00000779,0.00002251,-0.00001213,0.00001992,-0.00049526,
 0.00022885,-0.00026973,0.00014603,-0.00014713,-0.00015779,0.00062024,0
 .00022639,0.00084937,0.00845859,0.00739695,0.01264280,-0.06272503,-0.0
 9759708,-0.08756524,0.00317172,-0.00130181,0.00078433,-0.00085854,0.00
 061386,-0.00020415,0.00184852,0.00046592,0.00255376,-0.01577359,-0.012
 64568,-0.02410643,0.06563679,0.10292586,0.00000250,0.00000328,0.000000
 16,0.00000131,-0.00001317,-0.00000261,-0.00002379,0.00001221,-0.000006
 27,0.00009289,0.00006241,0.00000332,-0.00019780,0.00004973,-0.00002477
 ,0.00005133,-0.00002916,0.00001336,0.00010765,-0.00010375,0.00003822,-
 0.00010484,-0.00004382,0.00000611,0.00002626,0.00000299,0.00000163,0.0
 0005363,0.00003459,0.00001355,-0.00001193,0.00000526,0.00000606,0.0000
 2322,-0.00001854,0.00000659,-0.00002620,-0.00001415,0.00000362,0.00000
 508,-0.00000059,-0.00000064,-0.00000025,-0.00000097,-0.00000100,-0.000
 00123,0.00000228,0.00000212,-0.00000091,0.00000278,0.00000451,-0.00000
 201,-0.00000079,-0.00000172,0.00000481,-0.00000005,0.00000142,0.000006
 31,-0.00000410,0.00000176,-0.00002526,-0.00005270,-0.00000138,0.000023
 45,0.00015720,-0.00005717,-0.00000700,-0.00000697,-0.00000113,0.000000
 44,0.00007653,-0.00006265,0.00002388,0.00001344,-0.00001214,0.00006844
 ,0.00008422,-0.00006150,0.00000031,-0.00000289,-0.00000035,-0.00001426
 ,-0.00000644,0.00001209,-0.00002050,-0.00001223,0.00000767,-0.00001601
 ,-0.00002566,0.00003074,-0.00001519,-0.00002914,-0.00000508,-0.0000097
 9,-0.00001913,0.00001703,0.00074305,0.00047199,-0.00007684,0.00191786,
 -0.00017842,0.00056125,-0.00218776,-0.00163228,0.00006300,-0.00087423,
 -0.00048968,-0.00201226,-0.10595506,-0.08567987,-0.19762783,-0.0004207
 3,0.00045429,0.00138704,-0.00006505,0.00046286,0.00069248,-0.01505750,
 -0.01235444,-0.02014548,0.00568576,0.00339780,0.00690921,0.11619913,0.
 09542507,0.21031786\\-0.00000162,-0.00000247,0.00000404,0.00000077,-0.
 00000368,0.00000328,-0.00000086,-0.00000024,0.00000554,-0.00000010,-0.
 00000319,-0.00000397,-0.00000266,-0.00000082,0.00000745,-0.00000057,-0
 .00000035,0.00000338,-0.00000091,0.00000004,-0.00000043,0.00000041,0.0
 0000211,0.00000061,-0.00000030,0.00000032,0.00000202,-0.00000022,0.000
 00374,-0.00000129,-0.00000054,0.00000160,-0.00000156,0.00000052,0.0000
 0268,0.00000026,-0.00000393,0.00000207,0.00000154,-0.00000041,-0.00000
 378,0.00000363,-0.00000149,-0.00000196,0.00000493,-0.00000106,-0.00000
 416,0.00000501,0.00000021,-0.00000187,0.00000202,0.00000067,-0.0000030
 8,0.00000157,-0.00000081,-0.00000231,0.00000362,-0.00000224,-0.0000007
 8,0.00000384,0.00000012,-0.00000107,0.00000169,0.00000165,0.00000061,-
 0.00000044,-0.00000232,0.00000227,0.00000341,0.00000083,-0.00000040,-0
 .00000180,-0.00000012,0.00000220,-0.00000261,-0.00000034,0.00000371,-0
 .00000093,-0.00000192,0.00000291,0.00000291,-0.00000044,0.00000342,-0.
 00000332,-0.00000104,0.00000592,-0.00000096,-0.00000262,0.00000607,-0.
 00000047,-0.00000202,0.00000348,0.00000241,0.00000036,0.00000143,0.000
 00088,-0.00000670,-0.00000015,0.00000153,0.00000051,-0.00000195,-0.000
 00628,0.00000773,-0.00000519,-0.00000140,0.00000179,0.00000089,-0.0000
 0418,0.00000401,-0.00000027,-0.00000516,0.00000315,-0.00000046,-0.0000
 0567,0.00000328,-0.00000407,-0.00000490,0.00000285,-0.00000013,-0.0000
 0655,0.00000386,-0.00000188,-0.00000733,0.00000248,-0.00000123,-0.0000
 0628\\\@


 LORD, MAN... WERE YE BUT WHYLES WHERE I AM, 
 THE GENTILES YE WAD NE'ER ENVY 'EM.        
 IT'S TRUE, THEY NEEDNA STARVE OR SWEAT,     
 THRO' WINTER'S CAULD OR SIMMER'S HEAT...  
 THEY'VE NAE SAIR WARK TO CRAZE THEIR BANES, 
 AND FILL AULD AGE WITH GRIPS AN' GRANES...  
                                             
 BUT HUMAN BODIES ARE SIC FOOLS              
 FOR A' THEIR COLLEGES AND SCHOOLS,           
 THAT WHEN NAE REAL ILLS PERPLEX THEM,       
 THEY MAK ENOW THEMSELVES TO VEX THEM,       
 AN' AYE THE LESS THEY HAE TO STURT THEM,    
 IN LIKE PROPORTION LESS WILL HURT THEM....  
                                             
                (ROBERT BURNS 'THE TWA DOGS')
 Job cpu time:       0 days  7 hours 37 minutes  9.2 seconds.
 File lengths (MBytes):  RWF=   1343 Int=      0 D2E=      0 Chk=     30 Scr=      1
 Normal termination of Gaussian 09 at Tue Feb 19 14:38:11 2019.
WARNING: pbs_rusage is deprecated and values produced may not be accurate


=============================================================================
                                     Resource usage:
                                       CPU time:              28:45:45
   JobId:    5880699.r-man2            Elapsed time:          03:37:25
   Project:             q95            Requested time:        48:00:00
   Service Units:     28.99 
                                       Max physical memory:     1563MB
                                       Max virtual memory:      3150MB
                                       Requested memory:           0MB

                                       Number of cpus:               8

                                       Max jobfs disk use:       1.3GB
                                       Requested jobfs:         24.0GB
=============================================================================

