 Entering Gaussian System, Link 0=/apps/gaussian/g09e01/g09/g09
 AtFile(1): /home/507/hio507/Basis/6-31pGd.gbs
 Initial command:
 /apps/gaussian/g09e01/g09/l1.exe "/jobfs/local/1827711.r-man2/Gau-40886.inp" -scrdir="/jobfs/local/1827711.r-man2/"
 Entering Link 1 = /apps/gaussian/g09e01/g09/l1.exe PID=     40887.
  
 Copyright (c) 1988,1990,1992,1993,1995,1998,2003,2009,2015,
            Gaussian, Inc.  All Rights Reserved.
  
 This is part of the Gaussian(R) 09 program.  It is based on
 the Gaussian(R) 03 system (copyright 2003, Gaussian, Inc.),
 the Gaussian(R) 98 system (copyright 1998, Gaussian, Inc.),
 the Gaussian(R) 94 system (copyright 1995, Gaussian, Inc.),
 the Gaussian 92(TM) system (copyright 1992, Gaussian, Inc.),
 the Gaussian 90(TM) system (copyright 1990, Gaussian, Inc.),
 the Gaussian 88(TM) system (copyright 1988, Gaussian, Inc.),
 the Gaussian 86(TM) system (copyright 1986, Carnegie Mellon
 University), and the Gaussian 82(TM) system (copyright 1983,
 Carnegie Mellon University). Gaussian is a federally registered
 trademark of Gaussian, Inc.
  
 This software contains proprietary and confidential information,
 including trade secrets, belonging to Gaussian, Inc.
  
 This software is provided under written license and may be
 used, copied, transmitted, or stored only in accord with that
 written license.
  
 The following legend is applicable only to US Government
 contracts under FAR:
  
                    RESTRICTED RIGHTS LEGEND
  
 Use, reproduction and disclosure by the US Government is
 subject to restrictions as set forth in subparagraphs (a)
 and (c) of the Commercial Computer Software - Restricted
 Rights clause in FAR 52.227-19.
  
 Gaussian, Inc.
 340 Quinnipiac St., Bldg. 40, Wallingford CT 06492
  
  
 ---------------------------------------------------------------
 Warning -- This program may not be used in any manner that
 competes with the business of Gaussian, Inc. or will provide
 assistance to any competitor of Gaussian, Inc.  The licensee
 of this program is prohibited from giving any competitor of
 Gaussian, Inc. access to this program.  By using this program,
 the user acknowledges that Gaussian, Inc. is engaged in the
 business of creating and licensing software in the field of
 computational chemistry and represents and warrants to the
 licensee that it is not a competitor of Gaussian, Inc. and that
 it will not use this program in any manner prohibited above.
 ---------------------------------------------------------------
  

 Cite this work as:
 Gaussian 09, Revision E.01,
 M. J. Frisch, G. W. Trucks, H. B. Schlegel, G. E. Scuseria, 
 M. A. Robb, J. R. Cheeseman, G. Scalmani, V. Barone, B. Mennucci, 
 G. A. Petersson, H. Nakatsuji, M. Caricato, X. Li, H. P. Hratchian, 
 A. F. Izmaylov, J. Bloino, G. Zheng, J. L. Sonnenberg, M. Hada, 
 M. Ehara, K. Toyota, R. Fukuda, J. Hasegawa, M. Ishida, T. Nakajima, 
 Y. Honda, O. Kitao, H. Nakai, T. Vreven, J. A. Montgomery, Jr., 
 J. E. Peralta, F. Ogliaro, M. Bearpark, J. J. Heyd, E. Brothers, 
 K. N. Kudin, V. N. Staroverov, T. Keith, R. Kobayashi, J. Normand, 
 K. Raghavachari, A. Rendell, J. C. Burant, S. S. Iyengar, J. Tomasi, 
 M. Cossi, N. Rega, J. M. Millam, M. Klene, J. E. Knox, J. B. Cross, 
 V. Bakken, C. Adamo, J. Jaramillo, R. Gomperts, R. E. Stratmann, 
 O. Yazyev, A. J. Austin, R. Cammi, C. Pomelli, J. W. Ochterski, 
 R. L. Martin, K. Morokuma, V. G. Zakrzewski, G. A. Voth, 
 P. Salvador, J. J. Dannenberg, S. Dapprich, A. D. Daniels, 
 O. Farkas, J. B. Foresman, J. V. Ortiz, J. Cioslowski, 
 and D. J. Fox, Gaussian, Inc., Wallingford CT, 2013.
 
 ******************************************
 Gaussian 09:  ES64L-G09RevE.01 30-Nov-2015
                30-Oct-2018 
 ******************************************
 %chk=34TFM.M062X_6-31pGd_opt_water.chk
 %mem=196608000
 %nproc=8
 Will use up to    8 processors via shared memory.
 ----------------------------------------------------------------------
 # M062X/Gen 6D SCF=Tight INT(grid=ultrafine) OPT IOP(2/17=4) SCRF=(SMD
 ,Solvent=h2o) maxdisk=2684354560
 ----------------------------------------------------------------------
 1/14=-1,18=20,19=15,26=4,38=1/1,3;
 2/9=110,12=2,17=4,18=5,40=1/2;
 3/5=7,8=2,11=2,16=1,25=1,30=1,70=32201,71=1,72=1,74=-55,75=-5/1,2,3;
 4//1;
 5/5=2,32=2,38=5,53=1/2;
 6/7=2,8=2,9=2,10=2,28=1/1;
 7//1,2,3,16;
 1/14=-1,18=20,19=15,26=4/3(2);
 2/9=110,17=4/2;
 99//99;
 2/9=110,17=4/2;
 3/5=7,6=1,8=2,11=2,16=1,25=1,30=1,70=32205,71=1,72=1,74=-55,75=-5,82=7/1,2,3;
 4/5=5,16=3,69=1/1;
 5/5=2,32=2,38=5,53=1/2;
 7//1,2,3,16;
 1/14=-1,18=20,19=15,26=4/3(-5);
 2/9=110,17=4/2;
 6/7=2,8=2,9=2,10=2,19=2,28=1/1;
 99/9=1/99;
 -----------------------------
 34TFM.M062X_6-31pGd_opt_water
 -----------------------------
 Symbolic Z-matrix:
 Charge =  0 Multiplicity = 1
 C                    -1.96889   1.89374  -0.09711 
 C                    -0.61309   1.20077   0.00275 
 C                     0.53496   2.21451  -0.06469 
 N                     1.82308   1.54997   0.03386 
 C                     2.99583   2.24445  -0.00104 
 O                     2.96489   3.45872  -0.11949 
 N                     4.182     1.56684   0.09974 
 C                     5.52064   2.10058   0.08678 
 C                     5.84122   3.46984  -0.05409 
 C                     6.57791   1.19325   0.22374 
 C                     7.90075   1.6189    0.22355 
 C                     8.23604   2.97503   0.08553 
 C                     7.18125   3.92905  -0.05791 
 H                    -2.77886   1.13596  -0.04554 
 H                    -2.05346   2.43994  -1.06072 
 H                    -2.09869   2.6106    0.74158 
 H                    -0.51624   0.47499  -0.83395 
 H                    -0.56189   0.64629   0.96512 
 H                     0.43216   2.93917   0.77313 
 H                     0.47979   2.76591  -1.02934 
 H                     1.85028   0.52297   0.13423 
 H                     4.10896   0.54222   0.2007 
 H                     5.06868   4.20213  -0.16362 
 H                     6.37791   0.13441   0.33403 
 H                     8.6789    0.87235   0.33383 
 C                     7.43697   5.42119  -0.21508 
 C                     9.72833   3.28082   0.10514 
 F                     10.04824   4.6138   -0.03105 
 F                     10.34227   2.59504  -0.92796 
 F                     10.26196   2.84249   1.30417 
 F                     6.26539   6.14922  -0.33824 
 F                     8.18542   5.65129  -1.35549 
 F                     8.1048    5.90246   0.89667 
 

 GradGradGradGradGradGradGradGradGradGradGradGradGradGradGradGradGradGrad
 Berny optimization.
 Initialization pass.
                           ----------------------------
                           !    Initial Parameters    !
                           ! (Angstroms and Degrees)  !
 --------------------------                            --------------------------
 ! Name  Definition              Value          Derivative Info.                !
 --------------------------------------------------------------------------------
 ! R1    R(1,2)                  1.5259         estimate D2E/DX2                !
 ! R2    R(1,14)                 1.1104         estimate D2E/DX2                !
 ! R3    R(1,15)                 1.1109         estimate D2E/DX2                !
 ! R4    R(1,16)                 1.1109         estimate D2E/DX2                !
 ! R5    R(2,3)                  1.533          estimate D2E/DX2                !
 ! R6    R(2,17)                 1.1118         estimate D2E/DX2                !
 ! R7    R(2,18)                 1.1119         estimate D2E/DX2                !
 ! R8    R(3,4)                  1.4528         estimate D2E/DX2                !
 ! R9    R(3,19)                 1.1125         estimate D2E/DX2                !
 ! R10   R(3,20)                 1.1125         estimate D2E/DX2                !
 ! R11   R(4,5)                  1.3634         estimate D2E/DX2                !
 ! R12   R(4,21)                 1.0323         estimate D2E/DX2                !
 ! R13   R(5,6)                  1.2204         estimate D2E/DX2                !
 ! R14   R(5,7)                  1.3698         estimate D2E/DX2                !
 ! R15   R(7,8)                  1.4412         estimate D2E/DX2                !
 ! R16   R(7,22)                 1.0322         estimate D2E/DX2                !
 ! R17   R(8,9)                  1.4133         estimate D2E/DX2                !
 ! R18   R(8,10)                 1.3999         estimate D2E/DX2                !
 ! R19   R(9,13)                 1.4165         estimate D2E/DX2                !
 ! R20   R(9,23)                 1.0701         estimate D2E/DX2                !
 ! R21   R(10,11)                1.3896         estimate D2E/DX2                !
 ! R22   R(10,24)                1.0832         estimate D2E/DX2                !
 ! R23   R(11,12)                1.4038         estimate D2E/DX2                !
 ! R24   R(11,25)                1.084          estimate D2E/DX2                !
 ! R25   R(12,13)                1.4294         estimate D2E/DX2                !
 ! R26   R(12,27)                1.5234         estimate D2E/DX2                !
 ! R27   R(13,26)                1.522          estimate D2E/DX2                !
 ! R28   R(26,31)                1.3848         estimate D2E/DX2                !
 ! R29   R(26,32)                1.3834         estimate D2E/DX2                !
 ! R30   R(26,33)                1.3833         estimate D2E/DX2                !
 ! R31   R(27,28)                1.3776         estimate D2E/DX2                !
 ! R32   R(27,29)                1.3837         estimate D2E/DX2                !
 ! R33   R(27,30)                1.3837         estimate D2E/DX2                !
 ! A1    A(2,1,14)             109.5829         estimate D2E/DX2                !
 ! A2    A(2,1,15)             110.347          estimate D2E/DX2                !
 ! A3    A(2,1,16)             110.3319         estimate D2E/DX2                !
 ! A4    A(14,1,15)            108.6815         estimate D2E/DX2                !
 ! A5    A(14,1,16)            108.668          estimate D2E/DX2                !
 ! A6    A(15,1,16)            109.1899         estimate D2E/DX2                !
 ! A7    A(1,2,3)              111.2357         estimate D2E/DX2                !
 ! A8    A(1,2,17)             108.9411         estimate D2E/DX2                !
 ! A9    A(1,2,18)             108.9073         estimate D2E/DX2                !
 ! A10   A(3,2,17)             109.47           estimate D2E/DX2                !
 ! A11   A(3,2,18)             109.4728         estimate D2E/DX2                !
 ! A12   A(17,2,18)            108.7724         estimate D2E/DX2                !
 ! A13   A(2,3,4)              111.0098         estimate D2E/DX2                !
 ! A14   A(2,3,19)             109.1719         estimate D2E/DX2                !
 ! A15   A(2,3,20)             109.1933         estimate D2E/DX2                !
 ! A16   A(4,3,19)             109.1962         estimate D2E/DX2                !
 ! A17   A(4,3,20)             109.2391         estimate D2E/DX2                !
 ! A18   A(19,3,20)            109.0009         estimate D2E/DX2                !
 ! A19   A(3,4,5)              121.866          estimate D2E/DX2                !
 ! A20   A(3,4,21)             119.0163         estimate D2E/DX2                !
 ! A21   A(5,4,21)             119.1177         estimate D2E/DX2                !
 ! A22   A(4,5,6)              119.1752         estimate D2E/DX2                !
 ! A23   A(4,5,7)              119.4064         estimate D2E/DX2                !
 ! A24   A(6,5,7)              121.4183         estimate D2E/DX2                !
 ! A25   A(5,7,8)              128.3507         estimate D2E/DX2                !
 ! A26   A(5,7,22)             115.9116         estimate D2E/DX2                !
 ! A27   A(8,7,22)             115.7375         estimate D2E/DX2                !
 ! A28   A(7,8,9)              124.7772         estimate D2E/DX2                !
 ! A29   A(7,8,10)             117.4246         estimate D2E/DX2                !
 ! A30   A(9,8,10)             117.7983         estimate D2E/DX2                !
 ! A31   A(8,9,13)             121.9323         estimate D2E/DX2                !
 ! A32   A(8,9,23)             120.6267         estimate D2E/DX2                !
 ! A33   A(13,9,23)            117.441          estimate D2E/DX2                !
 ! A34   A(8,10,11)            121.3584         estimate D2E/DX2                !
 ! A35   A(8,10,24)            120.2695         estimate D2E/DX2                !
 ! A36   A(11,10,24)           118.3721         estimate D2E/DX2                !
 ! A37   A(10,11,12)           121.5534         estimate D2E/DX2                !
 ! A38   A(10,11,25)           118.1895         estimate D2E/DX2                !
 ! A39   A(12,11,25)           120.2571         estimate D2E/DX2                !
 ! A40   A(11,12,13)           118.5794         estimate D2E/DX2                !
 ! A41   A(11,12,27)           115.2531         estimate D2E/DX2                !
 ! A42   A(13,12,27)           126.1675         estimate D2E/DX2                !
 ! A43   A(9,13,12)            118.7782         estimate D2E/DX2                !
 ! A44   A(9,13,26)            118.4915         estimate D2E/DX2                !
 ! A45   A(12,13,26)           122.7303         estimate D2E/DX2                !
 ! A46   A(13,26,31)           112.4845         estimate D2E/DX2                !
 ! A47   A(13,26,32)           109.822          estimate D2E/DX2                !
 ! A48   A(13,26,33)           109.8278         estimate D2E/DX2                !
 ! A49   A(31,26,32)           107.2752         estimate D2E/DX2                !
 ! A50   A(31,26,33)           107.2774         estimate D2E/DX2                !
 ! A51   A(32,26,33)           110.0884         estimate D2E/DX2                !
 ! A52   A(12,27,28)           114.862          estimate D2E/DX2                !
 ! A53   A(12,27,29)           108.9985         estimate D2E/DX2                !
 ! A54   A(12,27,30)           108.9865         estimate D2E/DX2                !
 ! A55   A(28,27,29)           107.6215         estimate D2E/DX2                !
 ! A56   A(28,27,30)           107.6161         estimate D2E/DX2                !
 ! A57   A(29,27,30)           108.595          estimate D2E/DX2                !
 ! D1    D(14,1,2,3)           179.9971         estimate D2E/DX2                !
 ! D2    D(14,1,2,17)           59.2385         estimate D2E/DX2                !
 ! D3    D(14,1,2,18)          -59.263          estimate D2E/DX2                !
 ! D4    D(15,1,2,3)            60.3588         estimate D2E/DX2                !
 ! D5    D(15,1,2,17)          -60.3998         estimate D2E/DX2                !
 ! D6    D(15,1,2,18)         -178.9013         estimate D2E/DX2                !
 ! D7    D(16,1,2,3)           -60.3905         estimate D2E/DX2                !
 ! D8    D(16,1,2,17)          178.8509         estimate D2E/DX2                !
 ! D9    D(16,1,2,18)           60.3494         estimate D2E/DX2                !
 ! D10   D(1,2,3,4)            179.8701         estimate D2E/DX2                !
 ! D11   D(1,2,3,19)            59.4434         estimate D2E/DX2                !
 ! D12   D(1,2,3,20)           -59.636          estimate D2E/DX2                !
 ! D13   D(17,2,3,4)           -59.6828         estimate D2E/DX2                !
 ! D14   D(17,2,3,19)          179.8905         estimate D2E/DX2                !
 ! D15   D(17,2,3,20)           60.8111         estimate D2E/DX2                !
 ! D16   D(18,2,3,4)            59.4634         estimate D2E/DX2                !
 ! D17   D(18,2,3,19)          -60.9633         estimate D2E/DX2                !
 ! D18   D(18,2,3,20)          179.9573         estimate D2E/DX2                !
 ! D19   D(2,3,4,5)           -179.95           estimate D2E/DX2                !
 ! D20   D(2,3,4,21)            -0.0223         estimate D2E/DX2                !
 ! D21   D(19,3,4,5)           -59.5377         estimate D2E/DX2                !
 ! D22   D(19,3,4,21)          120.39           estimate D2E/DX2                !
 ! D23   D(20,3,4,5)            59.5832         estimate D2E/DX2                !
 ! D24   D(20,3,4,21)         -120.4891         estimate D2E/DX2                !
 ! D25   D(3,4,5,6)             -0.0623         estimate D2E/DX2                !
 ! D26   D(3,4,5,7)            179.8217         estimate D2E/DX2                !
 ! D27   D(21,4,5,6)          -179.9899         estimate D2E/DX2                !
 ! D28   D(21,4,5,7)            -0.106          estimate D2E/DX2                !
 ! D29   D(4,5,7,8)           -179.9324         estimate D2E/DX2                !
 ! D30   D(4,5,7,22)            -0.1239         estimate D2E/DX2                !
 ! D31   D(6,5,7,8)             -0.0512         estimate D2E/DX2                !
 ! D32   D(6,5,7,22)           179.7574         estimate D2E/DX2                !
 ! D33   D(5,7,8,9)             -0.8168         estimate D2E/DX2                !
 ! D34   D(5,7,8,10)           179.1957         estimate D2E/DX2                !
 ! D35   D(22,7,8,9)           179.3744         estimate D2E/DX2                !
 ! D36   D(22,7,8,10)           -0.6131         estimate D2E/DX2                !
 ! D37   D(7,8,9,13)           179.9611         estimate D2E/DX2                !
 ! D38   D(7,8,9,23)            -0.0966         estimate D2E/DX2                !
 ! D39   D(10,8,9,13)           -0.0515         estimate D2E/DX2                !
 ! D40   D(10,8,9,23)          179.8908         estimate D2E/DX2                !
 ! D41   D(7,8,10,11)         -179.9356         estimate D2E/DX2                !
 ! D42   D(7,8,10,24)            0.0059         estimate D2E/DX2                !
 ! D43   D(9,8,10,11)            0.076          estimate D2E/DX2                !
 ! D44   D(9,8,10,24)         -179.9824         estimate D2E/DX2                !
 ! D45   D(8,9,13,12)           -0.0117         estimate D2E/DX2                !
 ! D46   D(8,9,13,26)          179.9847         estimate D2E/DX2                !
 ! D47   D(23,9,13,12)        -179.9558         estimate D2E/DX2                !
 ! D48   D(23,9,13,26)           0.0406         estimate D2E/DX2                !
 ! D49   D(8,10,11,12)          -0.0372         estimate D2E/DX2                !
 ! D50   D(8,10,11,25)         179.951          estimate D2E/DX2                !
 ! D51   D(24,10,11,12)       -179.9798         estimate D2E/DX2                !
 ! D52   D(24,10,11,25)          0.0084         estimate D2E/DX2                !
 ! D53   D(10,11,12,13)         -0.0284         estimate D2E/DX2                !
 ! D54   D(10,11,12,27)        179.9773         estimate D2E/DX2                !
 ! D55   D(25,11,12,13)        179.9836         estimate D2E/DX2                !
 ! D56   D(25,11,12,27)         -0.0107         estimate D2E/DX2                !
 ! D57   D(11,12,13,9)           0.0515         estimate D2E/DX2                !
 ! D58   D(11,12,13,26)       -179.9448         estimate D2E/DX2                !
 ! D59   D(27,12,13,9)        -179.9548         estimate D2E/DX2                !
 ! D60   D(27,12,13,26)          0.0489         estimate D2E/DX2                !
 ! D61   D(11,12,27,28)        179.9918         estimate D2E/DX2                !
 ! D62   D(11,12,27,29)         59.1672         estimate D2E/DX2                !
 ! D63   D(11,12,27,30)        -59.1994         estimate D2E/DX2                !
 ! D64   D(13,12,27,28)         -0.002          estimate D2E/DX2                !
 ! D65   D(13,12,27,29)       -120.8265         estimate D2E/DX2                !
 ! D66   D(13,12,27,30)        120.8068         estimate D2E/DX2                !
 ! D67   D(9,13,26,31)          -0.0306         estimate D2E/DX2                !
 ! D68   D(9,13,26,32)        -119.4255         estimate D2E/DX2                !
 ! D69   D(9,13,26,33)         119.371          estimate D2E/DX2                !
 ! D70   D(12,13,26,31)        179.9657         estimate D2E/DX2                !
 ! D71   D(12,13,26,32)         60.5708         estimate D2E/DX2                !
 ! D72   D(12,13,26,33)        -60.6327         estimate D2E/DX2                !
 --------------------------------------------------------------------------------
 Trust Radius=3.00D-01 FncErr=1.00D-07 GrdErr=1.00D-06
 Number of steps in this run=    172 maximum allowed number of steps=    198.
 GradGradGradGradGradGradGradGradGradGradGradGradGradGradGradGradGradGrad

                          Input orientation:                          
 ---------------------------------------------------------------------
 Center     Atomic      Atomic             Coordinates (Angstroms)
 Number     Number       Type             X           Y           Z
 ---------------------------------------------------------------------
      1          6           0       -1.968890    1.893740   -0.097110
      2          6           0       -0.613090    1.200770    0.002750
      3          6           0        0.534960    2.214510   -0.064690
      4          7           0        1.823080    1.549970    0.033860
      5          6           0        2.995830    2.244450   -0.001040
      6          8           0        2.964890    3.458720   -0.119490
      7          7           0        4.182000    1.566840    0.099740
      8          6           0        5.520640    2.100580    0.086780
      9          6           0        5.841220    3.469840   -0.054090
     10          6           0        6.577910    1.193250    0.223740
     11          6           0        7.900750    1.618900    0.223550
     12          6           0        8.236040    2.975030    0.085530
     13          6           0        7.181250    3.929050   -0.057910
     14          1           0       -2.778860    1.135960   -0.045540
     15          1           0       -2.053460    2.439940   -1.060720
     16          1           0       -2.098690    2.610600    0.741580
     17          1           0       -0.516240    0.474990   -0.833950
     18          1           0       -0.561890    0.646290    0.965120
     19          1           0        0.432160    2.939170    0.773130
     20          1           0        0.479790    2.765910   -1.029340
     21          1           0        1.850280    0.522970    0.134230
     22          1           0        4.108960    0.542220    0.200700
     23          1           0        5.068680    4.202130   -0.163620
     24          1           0        6.377910    0.134410    0.334030
     25          1           0        8.678900    0.872350    0.333830
     26          6           0        7.436970    5.421190   -0.215080
     27          6           0        9.728330    3.280820    0.105140
     28          9           0       10.048240    4.613800   -0.031050
     29          9           0       10.342270    2.595040   -0.927960
     30          9           0       10.261960    2.842490    1.304170
     31          9           0        6.265390    6.149220   -0.338240
     32          9           0        8.185420    5.651290   -1.355490
     33          9           0        8.104800    5.902460    0.896670
 ---------------------------------------------------------------------
                    Distance matrix (angstroms):
                    1          2          3          4          5
     1  C    0.000000
     2  C    1.525901   0.000000
     3  C    2.524522   1.533048   0.000000
     4  N    3.809773   2.461266   1.452783   0.000000
     5  C    4.978019   3.756805   2.461875   1.363401   0.000000
     6  O    5.176084   4.232638   2.730498   2.229478   1.220426
     7  N    6.162715   4.810021   3.707751   2.359900   1.369785
     8  C    7.494642   6.199949   4.989281   3.738706   2.530430
     9  C    7.967670   6.841785   5.452739   4.454109   3.098490
    10  C    8.581458   7.194399   6.135422   4.771971   3.739899
    11  C    9.878672   8.526961   7.395451   6.081020   4.949747
    12  C   10.263681   9.025628   7.739999   6.569591   5.291601
    13  C    9.373851   8.258264   6.863881   5.863312   4.512078
    14  H    1.110379   2.167278   3.484973   4.621208   5.880287
    15  H    1.110869   2.177424   2.782591   4.125253   5.162990
    16  H    1.110917   2.177268   2.782637   4.123843   5.161365
    17  H    2.160087   1.111847   2.173180   2.716817   4.019871
    18  H    2.159656   1.111857   2.173224   2.715136   4.018078
    19  H    2.759580   2.169808   1.112494   2.100251   2.766655
    20  H    2.761479   2.170083   1.112491   2.100793   2.767631
    21  H    4.064307   2.558299   2.151963   1.032251   2.072215
    22  H    6.233423   4.771858   3.954802   2.503726   2.043855
    23  H    7.406786   6.427935   4.951266   4.196054   2.855810
    24  H    8.541089   7.079615   6.214971   4.779162   4.000376
    25  H   10.705343   9.303685   8.263412   6.895754   5.855944
    26  C   10.046244   9.091912   7.612040   6.823788   5.464542
    27  C   11.780910  10.549031   9.256560   8.092830   6.812627
    28  F   12.321303  11.194368   9.811229   8.777501   7.439839
    29  F   12.359077  11.082875   9.852582   8.636774   7.412980
    30  F   12.347364  11.075001   9.842899   8.631280   7.406610
    31  F    9.272034   8.480384   6.956623   6.405129   5.104014
    32  F   10.900124   9.953176   8.485703   7.696135   6.353970
    33  F   10.887454   9.945179   8.475120   7.690814   6.347322
                    6          7          8          9         10
     6  O    0.000000
     7  N    2.260228   0.000000
     8  C    2.901543   1.441181   0.000000
     9  C    2.877095   2.529443   1.413325   0.000000
    10  C    4.278326   2.428030   1.399938   2.408893   0.000000
    11  C    5.278762   3.721175   2.432210   2.782935   1.389634
    12  C    5.297265   4.291671   2.852729   2.449386   2.437876
    13  C    4.242958   3.821046   2.474240   1.416534   2.815661
    14  H    6.196075   6.975696   8.356417   8.930445   9.360819
    15  H    5.206502   6.402338   7.668045   8.024959   8.815022
    16  H    5.205823   6.399098   7.664403   8.025806   8.806840
    17  H    4.640190   4.912980   6.319352   7.070686   7.208437
    18  H    4.639431   4.909255   6.315347   7.071849   7.198997
    19  H    2.735219   4.049450   5.202590   5.497621   6.412512
    20  H    2.735605   4.052030   5.205627   5.494685   6.421101
    21  H    3.150454   2.554951   3.995328   4.964586   4.775748
    22  H    3.149189   1.032170   2.105779   3.411246   2.553446
    23  H    2.231712   2.792904   2.164135   1.070076   3.388389
    24  H    4.785961   2.632255   2.159136   3.400554   1.083193
    25  H    6.288459   4.556229   3.397674   3.866505   2.128205
    26  C    4.884662   5.054696   3.845763   2.525887   4.336591
    27  C    6.769507   5.805130   4.370121   3.894959   3.781159
    28  F    7.177456   6.611645   5.179703   4.359839   4.879372
    29  F    7.471633   6.329478   4.952000   4.667802   4.178736
    30  F    7.460146   6.328021   4.951019   4.667053   4.178462
    31  F    4.263794   5.052776   4.138451   2.727588   4.997512
    32  F    5.795601   5.901508   4.667841   3.456536   4.995215
    33  F    5.781273   5.900937   4.667772   3.456209   4.996087
                   11         12         13         14         15
    11  C    0.000000
    12  C    1.403765   0.000000
    13  C    2.435917   1.429444   0.000000
    14  H   10.693910  11.168141  10.344336   0.000000
    15  H   10.070241  10.366968   9.407600   1.804760   0.000000
    16  H   10.061840  10.361943   9.407166   1.804647   1.810927
    17  H    8.559939   9.148664   8.472551   2.485542   2.505095
    18  H    8.550566   9.143319   8.472268   2.485189   3.089658
    19  H    7.604274   7.834196   6.871732   3.772590   3.128984
    20  H    7.612885   7.838755   6.870672   3.774043   2.554329
    21  H    6.149571   6.840534   6.329103   4.673009   4.510196
    22  H    3.941755   4.792141   4.580007   6.917747   6.570231
    23  H    3.852739   3.405880   2.132768   8.426104   7.391548
    24  H    2.129544   3.403457   3.898495   9.219198   8.851486
    25  H    1.083982   2.163109   3.426344  11.467069  10.935523
    26  C    3.855502   2.590864   1.522031  11.079491   9.983547
    27  C    2.473064   1.523424   2.633326  12.690663  11.869157
    28  F    3.694044   2.446064   2.947751  13.290225  12.338437
    29  F    2.870513   2.368071   3.539579  13.231464  12.397411
    30  F    2.870579   2.367911   3.539301  13.221080  12.546885
    31  F    4.849104   3.760123   2.417962  10.344898   9.136958
    32  F    4.339882   3.039978   2.378693  11.929778  10.734725
    33  F    4.340923   3.040562   2.378763  11.918949  10.909201
                   16         17         18         19         20
    16  H    0.000000
    17  H    3.089866   0.000000
    18  H    2.504044   1.807783   0.000000
    19  H    2.552284   3.091011   2.506451   0.000000
    20  H    3.131906   2.505707   3.091239   1.811404   0.000000
    21  H    4.507930   2.557360   2.554242   2.873548   2.874529
    22  H    6.565491   4.739989   4.734132   4.426274   4.430426
    23  H    7.397537   6.747759   6.754359   4.895905   4.885705
    24  H    8.840269   7.000677   6.987211   6.588735   6.600863
    25  H   10.924478   9.277511   9.265087   8.513134   8.524624
    26  C    9.987163   9.386237   9.390117   7.496956   7.491054
    27  C   11.863079  10.663292  10.656873   9.326399   9.332077
    28  F   12.335221  11.374649  11.371383   9.793880   9.796250
    29  F   12.552493  11.063936  11.237530  10.060935   9.864481
    30  F   12.375619  11.240383  11.049614   9.844609  10.056937
    31  F    9.145801   8.856248   8.865255   6.750269   6.737772
    32  F   10.927324  10.138292  10.341697   8.485261   8.234593
    33  F   10.722481  10.333190  10.136248   8.225920   8.466891
                   21         22         23         24         25
    21  H    0.000000
    22  H    2.259740   0.000000
    23  H    4.897247   3.801149   0.000000
    24  H    4.548663   2.309160   4.302102   0.000000
    25  H    6.840465   4.583782   4.936454   2.416425   0.000000
    26  C    7.438124   5.920547   2.664123   5.419702   4.747172
    27  C    8.346871   6.251910   4.757455   4.601913   2.637106
    28  F    9.163447   7.204618   4.998306   5.802546   4.000835
    29  F    8.805431   6.658986   5.565762   4.833577   2.706765
    30  F    8.803709   6.660953   5.565356   4.833292   2.707229
    31  F    7.167364   6.031509   2.292110   6.053309   5.841410
    32  F    8.285706   6.718768   3.637951   6.046283   5.092700
    33  F    8.284881   6.721851   3.637769   6.047240   5.093956
                   26         27         28         29         30
    26  C    0.000000
    27  C    3.151834   0.000000
    28  F    2.739430   1.377580   0.000000
    29  F    4.115348   1.383659   2.228518   0.000000
    30  F    4.115627   1.383679   2.228459   2.247240   0.000000
    31  F    1.384845   4.518435   4.094122   5.440672   5.441006
    32  F    1.383350   3.183259   2.510105   3.765030   4.390349
    33  F    1.383331   3.183609   2.509635   4.390282   3.766007
                   31         32         33
    31  F    0.000000
    32  F    2.229181   0.000000
    33  F    2.229198   2.267556   0.000000
 Stoichiometry    C12H12F6N2O
 Framework group  C1[X(C12H12F6N2O)]
 Deg. of freedom    93
 Full point group                 C1      NOp   1
 Largest Abelian subgroup         C1      NOp   1
 Largest concise Abelian subgroup C1      NOp   1
                         Standard orientation:                         
 ---------------------------------------------------------------------
 Center     Atomic      Atomic             Coordinates (Angstroms)
 Number     Number       Type             X           Y           Z
 ---------------------------------------------------------------------
      1          6           0       -7.803417    0.564264    0.015798
      2          6           0       -6.647111   -0.431213   -0.003014
      3          6           0       -5.293938    0.289259    0.005859
      4          7           0       -4.196781   -0.662897   -0.009040
      5          6           0       -2.894197   -0.260268   -0.003672
      6          8           0       -2.640512    0.933384    0.012988
      7          7           0       -1.899205   -1.201640   -0.014640
      8          6           0       -0.472880   -0.995289   -0.010258
      9          6           0        0.158741    0.269046   -0.009711
     10          6           0        0.343172   -2.132774   -0.006533
     11          6           0        1.728886   -2.028625   -0.000849
     12          6           0        2.371746   -0.780713    0.000633
     13          6           0        1.569008    0.402037   -0.004479
     14          1           0       -8.768053    0.014383    0.008826
     15          1           0       -7.761961    1.221390   -0.878908
     16          1           0       -7.758124    1.191235    0.931764
     17          1           0       -6.726518   -1.059380   -0.916964
     18          1           0       -6.722954   -1.088450    0.890582
     19          1           0       -5.220574    0.917597    0.920983
     20          1           0       -5.222686    0.944702   -0.890218
     21          1           0       -4.410338   -1.672720   -0.022976
     22          1           0       -2.209656   -2.185965   -0.024630
     23          1           0       -0.421357    1.168229   -0.014213
     24          1           0       -0.098680   -3.121750   -0.007089
     25          1           0        2.311103   -2.942970    0.002658
     26          6           0        2.166270    1.801986   -0.004623
     27          6           0        3.894225   -0.833935    0.007584
     28          9           0        4.516721    0.394976    0.008816
     29          9           0        4.326041   -1.521089   -1.113070
     30          9           0        4.315624   -1.517935    1.134143
     31          9           0        1.197169    2.791228   -0.010801
     32          9           0        2.942812    1.980572   -1.135440
     33          9           0        2.933052    1.985107    1.132090
 ---------------------------------------------------------------------
 Rotational constants (GHZ):      0.6778720      0.1150104      0.1023830
 General basis read from cards:  (6D, 7F)
 There are   423 symmetry adapted cartesian basis functions of A   symmetry.
 There are   423 symmetry adapted basis functions of A   symmetry.
   423 basis functions,   720 primitive gaussians,   423 cartesian basis functions
    80 alpha electrons       80 beta electrons
       nuclear repulsion energy      1752.3870866664 Hartrees.
 NAtoms=   33 NActive=   33 NUniq=   33 SFac= 1.00D+00 NAtFMM=   60 NAOKFM=F Big=F
 Integral buffers will be    131072 words long.
 Raffenetti 2 integral format.
 Two-electron integral symmetry is turned on.
 ------------------------------------------------------------------------------
 Polarizable Continuum Model (PCM)
 =================================
 Model                : PCM (using non-symmetric T matrix).
 Atomic radii         : SMD-Coulomb.
 Polarization charges : Total charges.
 Charge compensation  : None.
 Solution method      : On-the-fly selection.
 Cavity type          : VdW (van der Waals Surface) (Alpha=1.000).
 Cavity algorithm     : GePol (No added spheres)
                        Default sphere list used, NSphG=   33.
                        Lebedev-Laikov grids with approx.  5.0 points / Ang**2.
                        Smoothing algorithm: York/Karplus (Gamma=1.0000).
                        Polarization charges: spherical gaussians, with
                                              point-specific exponents (IZeta= 3).
                        Self-potential: point-specific (ISelfS= 7).
                        Self-field    : sphere-specific E.n sum rule (ISelfD= 2).
 1st derivatives      : Analytical E(r).r(x)/FMM algorithm (CHGder, D1EAlg=3).
                        Cavity 1st derivative terms included.
 Solvent              : Water, Eps=  78.355300 Eps(inf)=   1.777849
 ------------------------------------------------------------------------------
 ------------------------------------------------------------------------------
 Atomic radii for non-electrostatic terms: SMD-CDS.
 ------------------------------------------------------------------------------
 Nuclear repulsion after PCM non-electrostatic terms =     1752.4008490703 Hartrees.
 One-electron integrals computed using PRISM.
 NBasis=   423 RedAO= T EigKep=  1.01D-06  NBF=   423
 NBsUse=   422 1.00D-06 EigRej=  2.30D-07 NBFU=   422
 ExpMin= 4.38D-02 ExpMax= 7.00D+03 ExpMxC= 1.05D+03 IAcc=3 IRadAn=         5 AccDes= 0.00D+00
 Harris functional with IExCor= 1009 and IRadAn=       5 diagonalized for initial guess.
 HarFok:  IExCor= 1009 AccDes= 0.00D+00 IRadAn=         5 IDoV= 1 UseB2=F ITyADJ=14
 ICtDFT=  3500011 ScaDFX=  1.000000  1.000000  1.000000  1.000000
 FoFCou: FMM=F IPFlag=           0 FMFlag=      100000 FMFlg1=           0
         NFxFlg=           0 DoJE=T BraDBF=F KetDBF=T FulRan=T
         wScrn=  0.000000 ICntrl=     500 IOpCl=  0 I1Cent=   200000004 NGrid=           0
         NMat0=    1 NMatS0=      1 NMatT0=    0 NMatD0=    1 NMtDS0=    0 NMtDT0=    0
 Petite list used in FoFCou.
 Requested convergence on RMS density matrix=1.00D-08 within 128 cycles.
 Requested convergence on MAX density matrix=1.00D-06.
 Requested convergence on             energy=1.00D-06.
 No special actions if energy rises.
 Inv3:  Mode=1 IEnd=    18780012.
 Iteration    1 A*A^-1 deviation from unit magnitude is 6.00D-15 for   2498.
 Iteration    1 A*A^-1 deviation from orthogonality  is 3.91D-15 for   1122    490.
 Iteration    1 A^-1*A deviation from unit magnitude is 5.77D-15 for   2498.
 Iteration    1 A^-1*A deviation from orthogonality  is 7.44D-10 for   2065   2055.
 Iteration    2 A*A^-1 deviation from unit magnitude is 7.99D-15 for    304.
 Iteration    2 A*A^-1 deviation from orthogonality  is 3.76D-15 for   2266    303.
 Iteration    2 A^-1*A deviation from unit magnitude is 8.88D-16 for    149.
 Iteration    2 A^-1*A deviation from orthogonality  is 3.77D-16 for   1931    618.
 Error on total polarization charges =  0.04622
 SCF Done:  E(RM062X) =  -1247.91491618     A.U. after   15 cycles
            NFock= 15  Conv=0.49D-08     -V/T= 2.0087
 SMD-CDS (non-electrostatic) energy       (kcal/mol) =       8.64
 (included in total energy above)

 **********************************************************************

            Population analysis using the SCF density.

 **********************************************************************

 Orbital symmetries:
       Occupied  (A) (A) (A) (A) (A) (A) (A) (A) (A) (A) (A) (A)
                 (A) (A) (A) (A) (A) (A) (A) (A) (A) (A) (A) (A)
                 (A) (A) (A) (A) (A) (A) (A) (A) (A) (A) (A) (A)
                 (A) (A) (A) (A) (A) (A) (A) (A) (A) (A) (A) (A)
                 (A) (A) (A) (A) (A) (A) (A) (A) (A) (A) (A) (A)
                 (A) (A) (A) (A) (A) (A) (A) (A) (A) (A) (A) (A)
                 (A) (A) (A) (A) (A) (A) (A) (A)
       Virtual   (A) (A) (A) (A) (A) (A) (A) (A) (A) (A) (A) (A)
                 (A) (A) (A) (A) (A) (A) (A) (A) (A) (A) (A) (A)
                 (A) (A) (A) (A) (A) (A) (A) (A) (A) (A) (A) (A)
                 (A) (A) (A) (A) (A) (A) (A) (A) (A) (A) (A) (A)
                 (A) (A) (A) (A) (A) (A) (A) (A) (A) (A) (A) (A)
                 (A) (A) (A) (A) (A) (A) (A) (A) (A) (A) (A) (A)
                 (A) (A) (A) (A) (A) (A) (A) (A) (A) (A) (A) (A)
                 (A) (A) (A) (A) (A) (A) (A) (A) (A) (A) (A) (A)
                 (A) (A) (A) (A) (A) (A) (A) (A) (A) (A) (A) (A)
                 (A) (A) (A) (A) (A) (A) (A) (A) (A) (A) (A) (A)
                 (A) (A) (A) (A) (A) (A) (A) (A) (A) (A) (A) (A)
                 (A) (A) (A) (A) (A) (A) (A) (A) (A) (A) (A) (A)
                 (A) (A) (A) (A) (A) (A) (A) (A) (A) (A) (A) (A)
                 (A) (A) (A) (A) (A) (A) (A) (A) (A) (A) (A) (A)
                 (A) (A) (A) (A) (A) (A) (A) (A) (A) (A) (A) (A)
                 (A) (A) (A) (A) (A) (A) (A) (A) (A) (A) (A) (A)
                 (A) (A) (A) (A) (A) (A) (A) (A) (A) (A) (A) (A)
                 (A) (A) (A) (A) (A) (A) (A) (A) (A) (A) (A) (A)
                 (A) (A) (A) (A) (A) (A) (A) (A) (A) (A) (A) (A)
                 (A) (A) (A) (A) (A) (A) (A) (A) (A) (A) (A) (A)
                 (A) (A) (A) (A) (A) (A) (A) (A) (A) (A) (A) (A)
                 (A) (A) (A) (A) (A) (A) (A) (A) (A) (A) (A) (A)
                 (A) (A) (A) (A) (A) (A) (A) (A) (A) (A) (A) (A)
                 (A) (A) (A) (A) (A) (A) (A) (A) (A) (A) (A) (A)
                 (A) (A) (A) (A) (A) (A) (A) (A) (A) (A) (A) (A)
                 (A) (A) (A) (A) (A) (A) (A) (A) (A) (A) (A) (A)
                 (A) (A) (A) (A) (A) (A) (A) (A) (A) (A) (A) (A)
                 (A) (A) (A) (A) (A) (A) (A) (A) (A) (A) (A) (A)
                 (A) (A) (A) (A) (A) (A)
 The electronic state is 1-A.
 Alpha  occ. eigenvalues --  -25.31545 -25.31486 -25.31244 -25.31243 -25.31176
 Alpha  occ. eigenvalues --  -25.31174 -19.62053 -14.81344 -14.78761 -10.83688
 Alpha  occ. eigenvalues --  -10.83435 -10.69358 -10.63623 -10.61665 -10.60760
 Alpha  occ. eigenvalues --  -10.58488 -10.58303 -10.58133 -10.57691 -10.54589
 Alpha  occ. eigenvalues --  -10.53464  -1.45741  -1.45216  -1.37887  -1.37618
 Alpha  occ. eigenvalues --   -1.37426  -1.37239  -1.19352  -1.05883  -1.02826
 Alpha  occ. eigenvalues --   -0.99026  -0.90475  -0.89746  -0.87313  -0.82925
 Alpha  occ. eigenvalues --   -0.81033  -0.77504  -0.73904  -0.73483  -0.69658
 Alpha  occ. eigenvalues --   -0.69166  -0.68913  -0.68893  -0.67902  -0.67540
 Alpha  occ. eigenvalues --   -0.66862  -0.64645  -0.62901  -0.59302  -0.58261
 Alpha  occ. eigenvalues --   -0.58023  -0.57456  -0.57441  -0.55837  -0.55643
 Alpha  occ. eigenvalues --   -0.55291  -0.54516  -0.53944  -0.53713  -0.52846
 Alpha  occ. eigenvalues --   -0.52797  -0.52400  -0.52314  -0.51598  -0.51026
 Alpha  occ. eigenvalues --   -0.50547  -0.48946  -0.47434  -0.46177  -0.45236
 Alpha  occ. eigenvalues --   -0.45098  -0.43632  -0.41708  -0.39655  -0.39490
 Alpha  occ. eigenvalues --   -0.38810  -0.35921  -0.33627  -0.32654  -0.29069
 Alpha virt. eigenvalues --   -0.02322  -0.00584   0.01457   0.02418   0.02953
 Alpha virt. eigenvalues --    0.03903   0.03980   0.04062   0.04650   0.05198
 Alpha virt. eigenvalues --    0.05539   0.05772   0.06761   0.06873   0.07333
 Alpha virt. eigenvalues --    0.07558   0.08049   0.08952   0.08962   0.09185
 Alpha virt. eigenvalues --    0.09791   0.10177   0.10450   0.11236   0.11968
 Alpha virt. eigenvalues --    0.12218   0.12512   0.12552   0.13276   0.13358
 Alpha virt. eigenvalues --    0.13790   0.14173   0.14465   0.15232   0.15964
 Alpha virt. eigenvalues --    0.16549   0.16997   0.17582   0.17922   0.18860
 Alpha virt. eigenvalues --    0.19191   0.19502   0.19966   0.20006   0.20713
 Alpha virt. eigenvalues --    0.20754   0.20948   0.21224   0.22327   0.22493
 Alpha virt. eigenvalues --    0.22629   0.22955   0.23431   0.23888   0.23917
 Alpha virt. eigenvalues --    0.24495   0.24698   0.24920   0.25616   0.25888
 Alpha virt. eigenvalues --    0.26079   0.27039   0.27424   0.27724   0.28300
 Alpha virt. eigenvalues --    0.28440   0.29099   0.29556   0.29987   0.30042
 Alpha virt. eigenvalues --    0.30591   0.31143   0.31273   0.31611   0.32241
 Alpha virt. eigenvalues --    0.32485   0.32836   0.33591   0.33632   0.33730
 Alpha virt. eigenvalues --    0.34538   0.35247   0.35932   0.35970   0.36802
 Alpha virt. eigenvalues --    0.36902   0.37572   0.37847   0.38688   0.38825
 Alpha virt. eigenvalues --    0.39456   0.40066   0.40143   0.40392   0.41007
 Alpha virt. eigenvalues --    0.41584   0.41792   0.42656   0.43231   0.43487
 Alpha virt. eigenvalues --    0.44175   0.44655   0.45530   0.46069   0.46537
 Alpha virt. eigenvalues --    0.46780   0.47294   0.48857   0.49956   0.50440
 Alpha virt. eigenvalues --    0.51346   0.51791   0.52940   0.53973   0.54982
 Alpha virt. eigenvalues --    0.57599   0.58687   0.60254   0.63904   0.66485
 Alpha virt. eigenvalues --    0.69406   0.70023   0.70708   0.72794   0.73835
 Alpha virt. eigenvalues --    0.74092   0.75530   0.76446   0.76512   0.77461
 Alpha virt. eigenvalues --    0.78566   0.79432   0.79862   0.81071   0.81418
 Alpha virt. eigenvalues --    0.82342   0.83165   0.84716   0.84782   0.85624
 Alpha virt. eigenvalues --    0.87265   0.87916   0.89425   0.89549   0.90393
 Alpha virt. eigenvalues --    0.91158   0.92624   0.94179   0.96035   0.98334
 Alpha virt. eigenvalues --    0.99324   1.00526   1.01811   1.03115   1.04160
 Alpha virt. eigenvalues --    1.04859   1.05815   1.06098   1.09727   1.11146
 Alpha virt. eigenvalues --    1.11456   1.12444   1.13465   1.15069   1.16269
 Alpha virt. eigenvalues --    1.17183   1.18136   1.19149   1.19459   1.20183
 Alpha virt. eigenvalues --    1.20939   1.23462   1.24229   1.24595   1.28296
 Alpha virt. eigenvalues --    1.28784   1.30299   1.30955   1.32847   1.34056
 Alpha virt. eigenvalues --    1.36305   1.38269   1.39192   1.40843   1.41913
 Alpha virt. eigenvalues --    1.42740   1.45439   1.45968   1.48253   1.48558
 Alpha virt. eigenvalues --    1.48812   1.51533   1.51611   1.52543   1.54746
 Alpha virt. eigenvalues --    1.56609   1.58074   1.60786   1.62130   1.63575
 Alpha virt. eigenvalues --    1.64324   1.65308   1.65938   1.66756   1.67649
 Alpha virt. eigenvalues --    1.68229   1.70273   1.72225   1.72499   1.72618
 Alpha virt. eigenvalues --    1.73427   1.74963   1.75300   1.75644   1.76019
 Alpha virt. eigenvalues --    1.77112   1.78158   1.79999   1.80068   1.80622
 Alpha virt. eigenvalues --    1.81995   1.82641   1.84349   1.84695   1.85656
 Alpha virt. eigenvalues --    1.86369   1.86489   1.86736   1.86910   1.88168
 Alpha virt. eigenvalues --    1.88261   1.88538   1.88921   1.89121   1.91374
 Alpha virt. eigenvalues --    1.91570   1.92346   1.92486   1.93769   1.95784
 Alpha virt. eigenvalues --    1.96164   1.96743   1.97545   1.98798   2.00276
 Alpha virt. eigenvalues --    2.01720   2.01969   2.03058   2.04066   2.04678
 Alpha virt. eigenvalues --    2.04765   2.05435   2.06065   2.07019   2.07199
 Alpha virt. eigenvalues --    2.07405   2.08692   2.09442   2.10071   2.13191
 Alpha virt. eigenvalues --    2.14112   2.14486   2.15292   2.16504   2.19295
 Alpha virt. eigenvalues --    2.20468   2.20934   2.22887   2.24265   2.24515
 Alpha virt. eigenvalues --    2.25612   2.28289   2.28852   2.30040   2.30126
 Alpha virt. eigenvalues --    2.33572   2.36163   2.37234   2.37734   2.38870
 Alpha virt. eigenvalues --    2.40510   2.41285   2.42594   2.43375   2.44985
 Alpha virt. eigenvalues --    2.49884   2.52972   2.54896   2.55099   2.55956
 Alpha virt. eigenvalues --    2.62436   2.63103   2.64265   2.66276   2.67942
 Alpha virt. eigenvalues --    2.71301   2.72927   2.74287   2.74938   2.76310
 Alpha virt. eigenvalues --    2.79273   2.79387   2.80008   2.83639   2.84885
 Alpha virt. eigenvalues --    2.87692   2.89570   2.93188   2.99936   3.02762
 Alpha virt. eigenvalues --    3.11430   3.12678   3.14613   3.17433   3.25617
 Alpha virt. eigenvalues --    3.27206   3.28165   3.29521   3.34649   3.38440
 Alpha virt. eigenvalues --    3.41791   4.15077   4.26239   4.26884   4.32669
 Alpha virt. eigenvalues --    4.36318   4.40662   4.42367   4.44491   4.47521
 Alpha virt. eigenvalues --    4.50200   4.58020   4.60761   4.62971   4.69084
 Alpha virt. eigenvalues --    4.80990   5.40941   5.86811   6.22042   6.40831
 Alpha virt. eigenvalues --    6.92156   7.10997
          Condensed to atoms (all electrons):
               1          2          3          4          5          6
     1  C    5.644793  -0.052911   0.021044  -0.003745  -0.038588  -0.004174
     2  C   -0.052911   6.127334  -0.339932  -0.081289   0.108367   0.017766
     3  C    0.021044  -0.339932   6.747489   0.283698  -0.474277  -0.100267
     4  N   -0.003745  -0.081289   0.283698   7.541896   0.484773  -0.208880
     5  C   -0.038588   0.108367  -0.474277   0.484773   6.338234   0.588373
     6  O   -0.004174   0.017766  -0.100267  -0.208880   0.588373   8.503776
     7  N   -0.002808   0.010039  -0.098220  -0.312553   0.157249  -0.094591
     8  C   -0.009723   0.011449  -0.418919  -0.162528  -1.318693  -0.329664
     9  C    0.001473   0.003798   0.014402   0.021762   0.961371   0.389554
    10  C   -0.001721   0.006787  -0.078145  -0.066024  -1.490911  -0.092414
    11  C    0.000014  -0.000910   0.007464   0.004535   0.100368   0.006673
    12  C   -0.000301   0.001453  -0.049969  -0.019383  -0.483881  -0.006592
    13  C    0.000493  -0.000624   0.016193   0.027263   0.211398   0.053830
    14  H    0.413623  -0.087715   0.027090   0.000480  -0.002404   0.000007
    15  H    0.416784  -0.064199  -0.008143   0.000408  -0.000831  -0.000053
    16  H    0.417013  -0.064479  -0.008226   0.000410  -0.000697  -0.000053
    17  H   -0.035330   0.426812  -0.074625   0.006114  -0.006950  -0.000185
    18  H   -0.035267   0.426734  -0.073695   0.006138  -0.007799  -0.000187
    19  H    0.003401  -0.043240   0.428974  -0.053886  -0.026159   0.004138
    20  H    0.002477  -0.042165   0.424262  -0.053555  -0.022683   0.004020
    21  H   -0.003911   0.001802  -0.066147   0.246644   0.019408   0.009137
    22  H   -0.000109   0.000659  -0.006718   0.009121  -0.042654   0.007048
    23  H   -0.000005   0.000070   0.000492  -0.000294  -0.018670  -0.000077
    24  H   -0.000001   0.000003  -0.000345   0.000793  -0.010743   0.000000
    25  H    0.000000   0.000000   0.000034   0.000014   0.004242  -0.000000
    26  C    0.000115  -0.000158   0.012794   0.008983   0.145256   0.003166
    27  C   -0.000017   0.000127  -0.004842  -0.000990  -0.201109   0.000488
    28  F    0.000000   0.000000   0.000003   0.000001   0.000577   0.000003
    29  F   -0.000000   0.000000  -0.000001  -0.000000   0.000034  -0.000000
    30  F   -0.000000   0.000000  -0.000001  -0.000000   0.000088  -0.000001
    31  F   -0.000000   0.000012  -0.000035  -0.000018  -0.001016  -0.000574
    32  F    0.000000  -0.000001   0.000000   0.000002  -0.000014   0.000001
    33  F    0.000000  -0.000001   0.000003   0.000002   0.000240   0.000003
               7          8          9         10         11         12
     1  C   -0.002808  -0.009723   0.001473  -0.001721   0.000014  -0.000301
     2  C    0.010039   0.011449   0.003798   0.006787  -0.000910   0.001453
     3  C   -0.098220  -0.418919   0.014402  -0.078145   0.007464  -0.049969
     4  N   -0.312553  -0.162528   0.021762  -0.066024   0.004535  -0.019383
     5  C    0.157249  -1.318693   0.961371  -1.490911   0.100368  -0.483881
     6  O   -0.094591  -0.329664   0.389554  -0.092414   0.006673  -0.006592
     7  N    7.710403  -0.235508  -0.208145   0.319939   0.073216   0.000690
     8  C   -0.235508  18.269577  -3.986109   0.979463   0.137600  -1.315868
     9  C   -0.208145  -3.986109  15.069423  -6.667543   0.387189  -2.602319
    10  C    0.319939   0.979463  -6.667543  16.690634  -1.536745  -1.431214
    11  C    0.073216   0.137600   0.387189  -1.536745  16.677537   1.986851
    12  C    0.000690  -1.315868  -2.602319  -1.431214   1.986851  27.507841
    13  C    0.094571  -3.974629   1.335793  -0.039313 -10.237374 -10.906774
    14  H    0.000007  -0.000046   0.000001  -0.000002   0.000000  -0.000000
    15  H    0.000011  -0.000017  -0.000030   0.000000   0.000000  -0.000000
    16  H    0.000014  -0.000014  -0.000025  -0.000000   0.000000  -0.000000
    17  H    0.000065  -0.000817  -0.000081   0.000082   0.000002  -0.000003
    18  H   -0.000015  -0.000797  -0.000160   0.000083   0.000004  -0.000004
    19  H   -0.000185  -0.005720   0.003305  -0.000904  -0.000027  -0.000002
    20  H   -0.000339  -0.004492   0.002964  -0.000758  -0.000034   0.000019
    21  H    0.019147   0.017926   0.000380   0.000257  -0.000280   0.000293
    22  H    0.245804  -0.002319   0.042589  -0.040491   0.016448   0.002810
    23  H   -0.016903   0.138179   0.264776   0.079581  -0.042995  -0.053712
    24  H   -0.011324   0.006058   0.044784   0.309947  -0.044991  -0.038205
    25  H    0.000697  -0.003267  -0.007053  -0.101261   0.219334   0.088856
    26  C    0.008574  -1.451258   1.049899   0.594289  -0.417022  -2.700592
    27  C   -0.016832  -0.416243  -1.217798  -0.091434  -1.635856  -2.579940
    28  F    0.000012   0.019176   0.063181  -0.002579   0.048247   0.017289
    29  F   -0.000005   0.003703  -0.003998   0.028985  -0.081079   0.238295
    30  F   -0.000006   0.004263  -0.003177   0.028132  -0.079738   0.239390
    31  F   -0.001302   0.129350   0.044106   0.003700   0.014538   0.051726
    32  F    0.000161   0.028501  -0.004295  -0.009012  -0.003052  -0.170285
    33  F    0.000173   0.029236  -0.001837  -0.010419  -0.002058  -0.171765
              13         14         15         16         17         18
     1  C    0.000493   0.413623   0.416784   0.417013  -0.035330  -0.035267
     2  C   -0.000624  -0.087715  -0.064199  -0.064479   0.426812   0.426734
     3  C    0.016193   0.027090  -0.008143  -0.008226  -0.074625  -0.073695
     4  N    0.027263   0.000480   0.000408   0.000410   0.006114   0.006138
     5  C    0.211398  -0.002404  -0.000831  -0.000697  -0.006950  -0.007799
     6  O    0.053830   0.000007  -0.000053  -0.000053  -0.000185  -0.000187
     7  N    0.094571   0.000007   0.000011   0.000014   0.000065  -0.000015
     8  C   -3.974629  -0.000046  -0.000017  -0.000014  -0.000817  -0.000797
     9  C    1.335793   0.000001  -0.000030  -0.000025  -0.000081  -0.000160
    10  C   -0.039313  -0.000002   0.000000  -0.000000   0.000082   0.000083
    11  C  -10.237374   0.000000   0.000000   0.000000   0.000002   0.000004
    12  C  -10.906774  -0.000000  -0.000000  -0.000000  -0.000003  -0.000004
    13  C   30.076630  -0.000000   0.000001   0.000001   0.000002   0.000000
    14  H   -0.000000   0.480789  -0.023762  -0.023780  -0.002991  -0.002994
    15  H    0.000001  -0.023762   0.486639  -0.028331  -0.004547   0.003765
    16  H    0.000001  -0.023780  -0.028331   0.486647   0.003762  -0.004558
    17  H    0.000002  -0.002991  -0.004547   0.003762   0.489010  -0.030587
    18  H    0.000000  -0.002994   0.003765  -0.004558  -0.030587   0.489078
    19  H    0.000156  -0.000056  -0.000330   0.002617   0.003648  -0.005291
    20  H    0.000173  -0.000057   0.002606  -0.000325  -0.005311   0.003647
    21  H   -0.000310  -0.000003   0.000000   0.000000   0.000587   0.000583
    22  H    0.001539  -0.000000  -0.000000  -0.000000   0.000001   0.000001
    23  H   -0.053999  -0.000000   0.000000  -0.000000  -0.000000  -0.000000
    24  H    0.040173   0.000000  -0.000000  -0.000000   0.000000   0.000000
    25  H    0.160738  -0.000000   0.000000   0.000000   0.000000   0.000000
    26  C   -1.742357   0.000000   0.000000   0.000000   0.000000   0.000000
    27  C    1.924515  -0.000000  -0.000000  -0.000000  -0.000000  -0.000000
    28  F   -0.096147  -0.000000  -0.000000  -0.000000  -0.000000  -0.000000
    29  F   -0.108608  -0.000000  -0.000000  -0.000000  -0.000000  -0.000000
    30  F   -0.108705  -0.000000  -0.000000  -0.000000  -0.000000  -0.000000
    31  F   -0.255956   0.000000   0.000000   0.000000  -0.000000  -0.000000
    32  F    0.223296   0.000000   0.000000   0.000000   0.000000  -0.000000
    33  F    0.222936   0.000000   0.000000   0.000000  -0.000000   0.000000
              19         20         21         22         23         24
     1  C    0.003401   0.002477  -0.003911  -0.000109  -0.000005  -0.000001
     2  C   -0.043240  -0.042165   0.001802   0.000659   0.000070   0.000003
     3  C    0.428974   0.424262  -0.066147  -0.006718   0.000492  -0.000345
     4  N   -0.053886  -0.053555   0.246644   0.009121  -0.000294   0.000793
     5  C   -0.026159  -0.022683   0.019408  -0.042654  -0.018670  -0.010743
     6  O    0.004138   0.004020   0.009137   0.007048  -0.000077   0.000000
     7  N   -0.000185  -0.000339   0.019147   0.245804  -0.016903  -0.011324
     8  C   -0.005720  -0.004492   0.017926  -0.002319   0.138179   0.006058
     9  C    0.003305   0.002964   0.000380   0.042589   0.264776   0.044784
    10  C   -0.000904  -0.000758   0.000257  -0.040491   0.079581   0.309947
    11  C   -0.000027  -0.000034  -0.000280   0.016448  -0.042995  -0.044991
    12  C   -0.000002   0.000019   0.000293   0.002810  -0.053712  -0.038205
    13  C    0.000156   0.000173  -0.000310   0.001539  -0.053999   0.040173
    14  H   -0.000056  -0.000057  -0.000003  -0.000000  -0.000000   0.000000
    15  H   -0.000330   0.002606   0.000000  -0.000000   0.000000  -0.000000
    16  H    0.002617  -0.000325   0.000000  -0.000000  -0.000000  -0.000000
    17  H    0.003648  -0.005311   0.000587   0.000001  -0.000000   0.000000
    18  H   -0.005291   0.003647   0.000583   0.000001  -0.000000   0.000000
    19  H    0.492958  -0.038271   0.002052   0.000005   0.000000   0.000000
    20  H   -0.038271   0.492886   0.002047   0.000005  -0.000000   0.000000
    21  H    0.002052   0.002047   0.264965   0.002047  -0.000000   0.000003
    22  H    0.000005   0.000005   0.002047   0.252936  -0.000137   0.004505
    23  H    0.000000  -0.000000  -0.000000  -0.000137   0.408750  -0.000101
    24  H    0.000000   0.000000   0.000003   0.004505  -0.000101   0.418030
    25  H   -0.000000  -0.000000  -0.000000  -0.000007   0.000011  -0.003221
    26  C   -0.000010  -0.000012  -0.000024   0.000496  -0.019369   0.006200
    27  C   -0.000000   0.000000   0.000012   0.000916   0.009592  -0.000174
    28  F   -0.000000  -0.000000   0.000000  -0.000000   0.000046   0.000010
    29  F    0.000000  -0.000000   0.000000   0.000000   0.000011   0.000001
    30  F   -0.000000   0.000000   0.000000   0.000000   0.000011   0.000001
    31  F   -0.000000  -0.000000   0.000000  -0.000001   0.007988  -0.000001
    32  F   -0.000000   0.000000  -0.000000  -0.000000  -0.000193   0.000001
    33  F    0.000000  -0.000000  -0.000000  -0.000000  -0.000191   0.000001
              25         26         27         28         29         30
     1  C    0.000000   0.000115  -0.000017   0.000000  -0.000000  -0.000000
     2  C    0.000000  -0.000158   0.000127   0.000000   0.000000   0.000000
     3  C    0.000034   0.012794  -0.004842   0.000003  -0.000001  -0.000001
     4  N    0.000014   0.008983  -0.000990   0.000001  -0.000000  -0.000000
     5  C    0.004242   0.145256  -0.201109   0.000577   0.000034   0.000088
     6  O   -0.000000   0.003166   0.000488   0.000003  -0.000000  -0.000001
     7  N    0.000697   0.008574  -0.016832   0.000012  -0.000005  -0.000006
     8  C   -0.003267  -1.451258  -0.416243   0.019176   0.003703   0.004263
     9  C   -0.007053   1.049899  -1.217798   0.063181  -0.003998  -0.003177
    10  C   -0.101261   0.594289  -0.091434  -0.002579   0.028985   0.028132
    11  C    0.219334  -0.417022  -1.635856   0.048247  -0.081079  -0.079738
    12  C    0.088856  -2.700592  -2.579940   0.017289   0.238295   0.239390
    13  C    0.160738  -1.742357   1.924515  -0.096147  -0.108608  -0.108705
    14  H   -0.000000   0.000000  -0.000000  -0.000000  -0.000000  -0.000000
    15  H    0.000000   0.000000  -0.000000  -0.000000  -0.000000  -0.000000
    16  H    0.000000   0.000000  -0.000000  -0.000000  -0.000000  -0.000000
    17  H    0.000000   0.000000  -0.000000  -0.000000  -0.000000  -0.000000
    18  H    0.000000   0.000000  -0.000000  -0.000000  -0.000000  -0.000000
    19  H   -0.000000  -0.000010  -0.000000  -0.000000   0.000000  -0.000000
    20  H   -0.000000  -0.000012   0.000000  -0.000000  -0.000000   0.000000
    21  H   -0.000000  -0.000024   0.000012   0.000000   0.000000   0.000000
    22  H   -0.000007   0.000496   0.000916  -0.000000   0.000000   0.000000
    23  H    0.000011  -0.019369   0.009592   0.000046   0.000011   0.000011
    24  H   -0.003221   0.006200  -0.000174   0.000010   0.000001   0.000001
    25  H    0.403625   0.007463  -0.063055   0.000587  -0.000533  -0.000541
    26  C    0.007463  10.731213  -2.198731   0.174167   0.012303   0.012653
    27  C   -0.063055  -2.198731  10.785680  -0.104050   0.042483   0.039372
    28  F    0.000587   0.174167  -0.104050   9.298716  -0.035543  -0.035573
    29  F   -0.000533   0.012303   0.042483  -0.035543   9.226489  -0.048648
    30  F   -0.000541   0.012653   0.039372  -0.035573  -0.048648   9.226460
    31  F    0.000008   0.123289   0.009130   0.000285  -0.000004  -0.000004
    32  F   -0.000002   0.012334   0.062285  -0.012302  -0.000892   0.000196
    33  F   -0.000002   0.013015   0.060356  -0.012382   0.000195  -0.000897
              31         32         33
     1  C   -0.000000   0.000000   0.000000
     2  C    0.000012  -0.000001  -0.000001
     3  C   -0.000035   0.000000   0.000003
     4  N   -0.000018   0.000002   0.000002
     5  C   -0.001016  -0.000014   0.000240
     6  O   -0.000574   0.000001   0.000003
     7  N   -0.001302   0.000161   0.000173
     8  C    0.129350   0.028501   0.029236
     9  C    0.044106  -0.004295  -0.001837
    10  C    0.003700  -0.009012  -0.010419
    11  C    0.014538  -0.003052  -0.002058
    12  C    0.051726  -0.170285  -0.171765
    13  C   -0.255956   0.223296   0.222936
    14  H    0.000000   0.000000   0.000000
    15  H    0.000000   0.000000   0.000000
    16  H    0.000000   0.000000   0.000000
    17  H   -0.000000   0.000000  -0.000000
    18  H   -0.000000  -0.000000   0.000000
    19  H   -0.000000  -0.000000   0.000000
    20  H   -0.000000   0.000000  -0.000000
    21  H    0.000000  -0.000000  -0.000000
    22  H   -0.000001  -0.000000  -0.000000
    23  H    0.007988  -0.000193  -0.000191
    24  H   -0.000001   0.000001   0.000001
    25  H    0.000008  -0.000002  -0.000002
    26  C    0.123289   0.012334   0.013015
    27  C    0.009130   0.062285   0.060356
    28  F    0.000285  -0.012302  -0.012382
    29  F   -0.000004  -0.000892   0.000195
    30  F   -0.000004   0.000196  -0.000897
    31  F    9.281636  -0.034090  -0.034233
    32  F   -0.034090   9.223383  -0.045661
    33  F   -0.034233  -0.045661   9.223614
 Mulliken charges:
               1
     1  C   -0.732616
     2  C   -0.365591
     3  C   -0.181436
     4  N   -0.679891
     5  C    1.028099
     6  O   -0.750271
     7  N   -0.642037
     8  C   -0.137848
     9  C    1.001821
    10  C   -1.380991
    11  C    0.402140
    12  C   -1.604707
    13  C   -0.864904
    14  H    0.221813
    15  H    0.220026
    16  H    0.220025
    17  H    0.231344
    18  H    0.231320
    19  H    0.232825
    20  H    0.232896
    21  H    0.483385
    22  H    0.505505
    23  H    0.297138
    24  H    0.278595
    25  H    0.293335
    26  C    1.613326
    27  C    1.596114
    28  F   -0.323725
    29  F   -0.273188
    30  F   -0.273276
    31  F   -0.338533
    32  F   -0.270365
    33  F   -0.270328
 Sum of Mulliken charges =  -0.00000
 Mulliken charges with hydrogens summed into heavy atoms:
               1
     1  C   -0.070752
     2  C    0.097073
     3  C    0.284285
     4  N   -0.196506
     5  C    1.028099
     6  O   -0.750271
     7  N   -0.136532
     8  C   -0.137848
     9  C    1.298959
    10  C   -1.102396
    11  C    0.695475
    12  C   -1.604707
    13  C   -0.864904
    26  C    1.613326
    27  C    1.596114
    28  F   -0.323725
    29  F   -0.273188
    30  F   -0.273276
    31  F   -0.338533
    32  F   -0.270365
    33  F   -0.270328
 Electronic spatial extent (au):  <R**2>=           9830.7138
 Charge=             -0.0000 electrons
 Dipole moment (field-independent basis, Debye):
    X=             -8.6761    Y=             -9.3395    Z=             -0.0915  Tot=             12.7479
 Quadrupole moment (field-independent basis, Debye-Ang):
   XX=           -110.3681   YY=           -111.1070   ZZ=           -124.9761
   XY=             14.4034   XZ=              0.2136   YZ=              0.0661
 Traceless Quadrupole moment (field-independent basis, Debye-Ang):
   XX=              5.1156   YY=              4.3767   ZZ=             -9.4924
   XY=             14.4034   XZ=              0.2136   YZ=              0.0661
 Octapole moment (field-independent basis, Debye-Ang**2):
  XXX=           -170.0786  YYY=            -40.7814  ZZZ=              0.1637  XYY=              8.4075
  XXY=            -55.7358  XXZ=             -0.7835  XZZ=             23.1600  YZZ=             13.4280
  YYZ=             -0.3569  XYZ=             -0.1431
 Hexadecapole moment (field-independent basis, Debye-Ang**3):
 XXXX=          -9747.6593 YYYY=          -1328.2080 ZZZZ=           -294.1049 XXXY=            313.0874
 XXXZ=              3.5953 YYYX=             74.7931 YYYZ=              0.3199 ZZZX=              0.1969
 ZZZY=             -0.2213 XXYY=          -1956.8201 XXZZ=          -1823.8656 YYZZ=           -305.9690
 XXYZ=              0.3789 YYXZ=              1.5626 ZZXY=             10.2157
 N-N= 1.752400849070D+03 E-N=-6.437084239756D+03  KE= 1.237101757388D+03
 D1PCM: PCM CHGder 1st derivatives, ID1Alg=3 FixD1E=F DoIter=F DoCFld=F I1PDM=0.
 Calling FoFJK, ICntrl=      2127 FMM=F ISym2X=0 I1Cent= 0 IOpClX= 0 NMat=1 NMatS=1 NMatT=0.
 ***** Axes restored to original set *****
 -------------------------------------------------------------------
 Center     Atomic                   Forces (Hartrees/Bohr)
 Number     Number              X              Y              Z
 -------------------------------------------------------------------
      1        6          -0.004909563    0.001795762   -0.000278341
      2        6           0.004517452   -0.005545285    0.000643125
      3        6          -0.006395031    0.006732681   -0.000727918
      4        7           0.019566411   -0.028546195    0.003205849
      5        6          -0.016563513   -0.007053909    0.000437766
      6        8           0.002659241    0.036553186   -0.003530464
      7        7           0.024314026   -0.016441169    0.002155041
      8        6          -0.017921057    0.000437908   -0.000553067
      9        6           0.015046714    0.001571320    0.000295119
     10        6           0.000953889    0.000021097    0.000073025
     11        6          -0.004101517    0.009187611   -0.001207079
     12        6          -0.006753697    0.013855116   -0.001807335
     13        6          -0.003300226   -0.023237663    0.002485176
     14        1           0.006086714    0.009012160   -0.000716665
     15        1          -0.001060994   -0.003879774    0.009460312
     16        1          -0.000591465   -0.005604984   -0.008630211
     17        1           0.001027748    0.004677516    0.008847573
     18        1           0.001546112    0.002918742   -0.009507653
     19        1           0.000794778   -0.004566196   -0.009497464
     20        1           0.000287508   -0.002711835    0.010216682
     21        1          -0.002186151    0.014259551   -0.001433103
     22        1           0.005648007    0.012352720   -0.001058835
     23        1          -0.007259910    0.003265869   -0.000594889
     24        1          -0.002115128   -0.002007536    0.000141681
     25        1           0.002168306    0.000276691    0.000041096
     26        6          -0.002337149    0.003002910   -0.000427985
     27        6          -0.001103535    0.003399465   -0.000394259
     28        9          -0.000296184   -0.040284969    0.004442114
     29        9          -0.004707470    0.017828610    0.028621256
     30        9          -0.002509444    0.011085725   -0.032089703
     31        9           0.036018607   -0.016753204    0.003176966
     32        9          -0.019398639    0.005770433    0.031211774
     33        9          -0.017124843   -0.001372357   -0.032999581
 -------------------------------------------------------------------
 Cartesian Forces:  Max     0.040284969 RMS     0.012286942

 GradGradGradGradGradGradGradGradGradGradGradGradGradGradGradGradGradGrad
 Berny optimization.
 FormGI is forming the generalized inverse of G from B-inverse, IUseBI=4.
 GSVD:  received Info=                   1 from GESDD.
 Internal  Forces:  Max     0.039557981 RMS     0.010278126
 Search for a local minimum.
 Step number   1 out of a maximum of  172
 All quantities printed in internal units (Hartrees-Bohrs-Radians)
 Mixed Optimization -- RFO/linear search
 Second derivative matrix not updated -- first step.
 ITU=  0
     Eigenvalues ---    0.00329   0.00423   0.00456   0.00475   0.00994
     Eigenvalues ---    0.01147   0.01249   0.01299   0.01467   0.01620
     Eigenvalues ---    0.01727   0.01803   0.01892   0.01970   0.02091
     Eigenvalues ---    0.02115   0.02121   0.02133   0.02165   0.02176
     Eigenvalues ---    0.03755   0.04435   0.04933   0.05553   0.05673
     Eigenvalues ---    0.05783   0.08033   0.09179   0.10331   0.10838
     Eigenvalues ---    0.11121   0.11402   0.11975   0.12669   0.16000
     Eigenvalues ---    0.16000   0.16000   0.16000   0.16000   0.16000
     Eigenvalues ---    0.16000   0.16000   0.21964   0.22000   0.22000
     Eigenvalues ---    0.22004   0.22360   0.23482   0.24591   0.25000
     Eigenvalues ---    0.25000   0.25000   0.25000   0.25000   0.25000
     Eigenvalues ---    0.25000   0.25000   0.25000   0.25000   0.25000
     Eigenvalues ---    0.29144   0.29805   0.30039   0.30172   0.32337
     Eigenvalues ---    0.32338   0.32404   0.32405   0.32503   0.32508
     Eigenvalues ---    0.32560   0.35518   0.35611   0.37220   0.37883
     Eigenvalues ---    0.39392   0.39424   0.40328   0.42440   0.42452
     Eigenvalues ---    0.42703   0.44384   0.44843   0.46670   0.48227
     Eigenvalues ---    0.48436   0.48439   0.48495   0.48498   0.49547
     Eigenvalues ---    0.51018   0.52266   0.95195
 RFO step:  Lambda=-3.98097042D-02 EMin= 3.28787594D-03
 Linear search not attempted -- first point.
 Maximum step size (   0.300) exceeded in Quadratic search.
    -- Step size scaled by   0.939
 Iteration  1 RMS(Cart)=  0.08129095 RMS(Int)=  0.00138708
 Iteration  2 RMS(Cart)=  0.00303442 RMS(Int)=  0.00027954
 Iteration  3 RMS(Cart)=  0.00000342 RMS(Int)=  0.00027953
 Iteration  4 RMS(Cart)=  0.00000000 RMS(Int)=  0.00027953
 Variable       Old X    -DE/DX   Delta X   Delta X   Delta X     New X
                                 (Linear)    (Quad)   (Total)
    R1        2.88353   0.00102   0.00000   0.00284   0.00284   2.88637
    R2        2.09831  -0.01062   0.00000  -0.02728  -0.02728   2.07103
    R3        2.09924  -0.01003   0.00000  -0.02581  -0.02581   2.07343
    R4        2.09933  -0.01007   0.00000  -0.02590  -0.02590   2.07343
    R5        2.89704  -0.00717   0.00000  -0.02033  -0.02033   2.87671
    R6        2.10109  -0.00962   0.00000  -0.02481  -0.02481   2.07627
    R7        2.10110  -0.00961   0.00000  -0.02479  -0.02479   2.07631
    R8        2.74536   0.00012   0.00000   0.00028   0.00028   2.74564
    R9        2.10231  -0.01020   0.00000  -0.02637  -0.02637   2.07594
   R10        2.10230  -0.01022   0.00000  -0.02641  -0.02641   2.07589
   R11        2.57646  -0.01018   0.00000  -0.01698  -0.01698   2.55947
   R12        1.95067  -0.01438   0.00000  -0.02908  -0.02908   1.92159
   R13        2.30627   0.03664   0.00000   0.03468   0.03468   2.34095
   R14        2.58852   0.00486   0.00000   0.00830   0.00830   2.59682
   R15        2.72344  -0.03743   0.00000  -0.08095  -0.08095   2.64249
   R16        1.95052  -0.01277   0.00000  -0.02581  -0.02581   1.92471
   R17        2.67080  -0.01499   0.00000  -0.02985  -0.02985   2.64095
   R18        2.64550  -0.00549   0.00000  -0.00955  -0.00957   2.63593
   R19        2.67686  -0.02149   0.00000  -0.04401  -0.04398   2.63288
   R20        2.02215   0.00754   0.00000   0.01717   0.01717   2.03933
   R21        2.62603  -0.00634   0.00000  -0.01061  -0.01063   2.61539
   R22        2.04694   0.00237   0.00000   0.00561   0.00561   2.05254
   R23        2.65273  -0.00950   0.00000  -0.01799  -0.01800   2.63473
   R24        2.04843   0.00137   0.00000   0.00325   0.00325   2.05168
   R25        2.70126  -0.01745   0.00000  -0.03727  -0.03725   2.66401
   R26        2.87885  -0.01003   0.00000  -0.02768  -0.02768   2.85118
   R27        2.87622  -0.00974   0.00000  -0.02676  -0.02676   2.84946
   R28        2.61698  -0.03956   0.00000  -0.07112  -0.07112   2.54586
   R29        2.61415  -0.03526   0.00000  -0.06308  -0.06308   2.55108
   R30        2.61412  -0.03527   0.00000  -0.06308  -0.06308   2.55104
   R31        2.60325  -0.03948   0.00000  -0.06924  -0.06924   2.53401
   R32        2.61474  -0.03230   0.00000  -0.05783  -0.05783   2.55690
   R33        2.61477  -0.03229   0.00000  -0.05782  -0.05782   2.55696
    A1        1.91258   0.00278   0.00000   0.01385   0.01377   1.92635
    A2        1.92592   0.00209   0.00000   0.00942   0.00937   1.93529
    A3        1.92566   0.00209   0.00000   0.00944   0.00938   1.93504
    A4        1.89685  -0.00228   0.00000  -0.00995  -0.01003   1.88682
    A5        1.89662  -0.00226   0.00000  -0.00982  -0.00989   1.88672
    A6        1.90572  -0.00257   0.00000  -0.01362  -0.01364   1.89208
    A7        1.94143  -0.00181   0.00000  -0.00430  -0.00428   1.93715
    A8        1.90138   0.00183   0.00000   0.01198   0.01197   1.91335
    A9        1.90079   0.00189   0.00000   0.01242   0.01240   1.91319
   A10        1.91061  -0.00013   0.00000  -0.00346  -0.00347   1.90715
   A11        1.91066  -0.00017   0.00000  -0.00363  -0.00363   1.90703
   A12        1.89844  -0.00160   0.00000  -0.01315  -0.01324   1.88519
   A13        1.93749  -0.00449   0.00000  -0.01432  -0.01428   1.92321
   A14        1.90541   0.00184   0.00000   0.00802   0.00804   1.91345
   A15        1.90578   0.00181   0.00000   0.00772   0.00774   1.91352
   A16        1.90583   0.00161   0.00000   0.00690   0.00693   1.91276
   A17        1.90658   0.00157   0.00000   0.00647   0.00650   1.91308
   A18        1.90242  -0.00232   0.00000  -0.01496  -0.01498   1.88745
   A19        2.12696  -0.00312   0.00000  -0.01126  -0.01126   2.11570
   A20        2.07723  -0.00020   0.00000  -0.00265  -0.00265   2.07458
   A21        2.07900   0.00332   0.00000   0.01391   0.01391   2.09290
   A22        2.08000   0.01737   0.00000   0.05627   0.05627   2.13627
   A23        2.08403  -0.02647   0.00000  -0.08573  -0.08573   1.99831
   A24        2.11915   0.00910   0.00000   0.02947   0.02946   2.14861
   A25        2.24014  -0.00431   0.00000  -0.01557  -0.01557   2.22458
   A26        2.02304   0.00680   0.00000   0.02959   0.02959   2.05263
   A27        2.02000  -0.00249   0.00000  -0.01403  -0.01403   2.00597
   A28        2.17777  -0.00397   0.00000  -0.01376  -0.01375   2.16402
   A29        2.04945  -0.00202   0.00000  -0.00744  -0.00744   2.04201
   A30        2.05597   0.00598   0.00000   0.02120   0.02119   2.07716
   A31        2.12812  -0.00485   0.00000  -0.01908  -0.01905   2.10907
   A32        2.10533  -0.00023   0.00000  -0.00296  -0.00297   2.10236
   A33        2.04973   0.00509   0.00000   0.02203   0.02202   2.07175
   A34        2.11810  -0.00656   0.00000  -0.01938  -0.01943   2.09868
   A35        2.09910   0.00153   0.00000   0.00148   0.00151   2.10060
   A36        2.06598   0.00503   0.00000   0.01790   0.01792   2.08390
   A37        2.12151  -0.00118   0.00000  -0.00118  -0.00121   2.12030
   A38        2.06280   0.00234   0.00000   0.00880   0.00882   2.07161
   A39        2.09888  -0.00116   0.00000  -0.00763  -0.00761   2.09127
   A40        2.06960  -0.00079   0.00000  -0.00298  -0.00297   2.06663
   A41        2.01155  -0.00833   0.00000  -0.02678  -0.02679   1.98476
   A42        2.20204   0.00913   0.00000   0.02976   0.02976   2.23179
   A43        2.07307   0.00740   0.00000   0.02141   0.02146   2.09453
   A44        2.06807  -0.01453   0.00000  -0.04579  -0.04581   2.02226
   A45        2.14205   0.00713   0.00000   0.02438   0.02435   2.16640
   A46        1.96322   0.00104   0.00000  -0.00006  -0.00007   1.96315
   A47        1.91676   0.01722   0.00000   0.05748   0.05630   1.97305
   A48        1.91686   0.01726   0.00000   0.05757   0.05639   1.97325
   A49        1.87231  -0.01119   0.00000  -0.03956  -0.03958   1.83273
   A50        1.87234  -0.01123   0.00000  -0.03972  -0.03974   1.83261
   A51        1.92140  -0.01493   0.00000  -0.04158  -0.04360   1.87780
   A52        2.00472   0.01118   0.00000   0.03938   0.03847   2.04319
   A53        1.90238   0.01299   0.00000   0.04056   0.03983   1.94221
   A54        1.90217   0.01301   0.00000   0.04067   0.03993   1.94210
   A55        1.87835  -0.01201   0.00000  -0.03591  -0.03672   1.84163
   A56        1.87826  -0.01201   0.00000  -0.03584  -0.03665   1.84160
   A57        1.89534  -0.01532   0.00000  -0.05636  -0.05683   1.83851
    D1        3.14154  -0.00000   0.00000  -0.00008  -0.00008   3.14146
    D2        1.03391   0.00010   0.00000  -0.00093  -0.00091   1.03300
    D3       -1.03433  -0.00012   0.00000   0.00084   0.00082  -1.03351
    D4        1.05346  -0.00024   0.00000  -0.00237  -0.00238   1.05108
    D5       -1.05417  -0.00013   0.00000  -0.00321  -0.00321  -1.05738
    D6       -3.12242  -0.00035   0.00000  -0.00144  -0.00148  -3.12389
    D7       -1.05401   0.00025   0.00000   0.00236   0.00238  -1.05163
    D8        3.12154   0.00035   0.00000   0.00152   0.00155   3.12309
    D9        1.05330   0.00014   0.00000   0.00329   0.00328   1.05658
   D10        3.13933   0.00004   0.00000   0.00049   0.00049   3.13981
   D11        1.03748  -0.00032   0.00000  -0.00429  -0.00428   1.03320
   D12       -1.04084   0.00034   0.00000   0.00453   0.00453  -1.03632
   D13       -1.04166   0.00109   0.00000   0.01042   0.01041  -1.03125
   D14        3.13968   0.00073   0.00000   0.00564   0.00564  -3.13786
   D15        1.06135   0.00138   0.00000   0.01447   0.01445   1.07580
   D16        1.03783  -0.00105   0.00000  -0.00988  -0.00987   1.02796
   D17       -1.06401  -0.00141   0.00000  -0.01466  -0.01464  -1.07865
   D18        3.14085  -0.00076   0.00000  -0.00583  -0.00583   3.13502
   D19       -3.14072  -0.00003   0.00000  -0.00033  -0.00033  -3.14105
   D20       -0.00039  -0.00002   0.00000  -0.00020  -0.00020  -0.00059
   D21       -1.03913   0.00047   0.00000   0.00511   0.00510  -1.03403
   D22        2.10120   0.00048   0.00000   0.00524   0.00524   2.10644
   D23        1.03992  -0.00046   0.00000  -0.00511  -0.00511   1.03482
   D24       -2.10293  -0.00046   0.00000  -0.00498  -0.00497  -2.10791
   D25       -0.00109  -0.00002   0.00000  -0.00035  -0.00035  -0.00144
   D26        3.13848   0.00006   0.00000   0.00096   0.00097   3.13945
   D27       -3.14142  -0.00003   0.00000  -0.00047  -0.00047   3.14130
   D28       -0.00185   0.00005   0.00000   0.00084   0.00085  -0.00100
   D29       -3.14041  -0.00005   0.00000  -0.00074  -0.00074  -3.14115
   D30       -0.00216  -0.00007   0.00000  -0.00104  -0.00103  -0.00320
   D31       -0.00089   0.00004   0.00000   0.00062   0.00062  -0.00027
   D32        3.13736   0.00002   0.00000   0.00033   0.00032   3.13768
   D33       -0.01426  -0.00002   0.00000  -0.00044  -0.00044  -0.01469
   D34        3.12756   0.00000   0.00000  -0.00000  -0.00000   3.12755
   D35        3.13067  -0.00002   0.00000  -0.00022  -0.00022   3.13045
   D36       -0.01070   0.00001   0.00000   0.00022   0.00022  -0.01048
   D37        3.14091   0.00002   0.00000   0.00040   0.00040   3.14131
   D38       -0.00169   0.00003   0.00000   0.00056   0.00056  -0.00113
[...]
 .00276588,-0.00264279,-0.05533756,-0.21268156,-0.07540212,0.04194065,0
 .33285706,-0.00000287,-0.00000723,-0.00000007,-0.00000434,0.00001543,-
 0.00000204,0.00003959,-0.00002981,0.00000010,-0.00021257,-0.00004712,0
 .00000998,0.00048877,-0.00034093,0.00003140,-0.00011342,0.00016488,-0.
 00000303,-0.00080373,-0.00003088,-0.00000661,0.00054639,0.00054746,-0.
 00008528,-0.00054751,-0.00034459,-0.00007684,0.00021704,-0.00099839,0.
 00016325,-0.00304247,0.00077103,-0.00075313,-0.00168517,-0.01304430,0.
 00429913,0.00163160,0.00003976,0.00072286,-0.00000355,0.00000086,-0.00
 000020,-0.00000004,0.00000016,-0.00000011,-0.00000040,0.00000070,0.000
 00044,0.00000023,-0.00000064,0.00000002,0.,-0.00000179,0.00000104,-0.0
 0001355,0.00000496,0.00000163,-0.00001403,0.00000466,-0.00000241,0.000
 00218,0.00002085,-0.00000649,-0.00000087,0.00004608,-0.00001129,-0.000
 00210,-0.00003846,-0.00003627,-0.00033206,-0.00005409,0.00002582,0.000
 04749,0.00005848,0.00005050,0.00124224,-0.00075487,-0.00259726,-0.0305
 9582,-0.07305170,-0.10247864,0.02704405,0.12811199,0.14822175,-0.00001
 685,-0.00004308,0.00000352,-0.00002476,0.00010001,-0.00001078,0.000248
 63,-0.00016776,-0.00001447,-0.00132305,-0.00031319,0.00002359,0.003266
 46,-0.00229823,0.00043004,-0.00053474,0.00113683,-0.00008277,-0.005777
 37,-0.00051266,0.00000501,0.00421223,0.00256230,0.00001008,-0.00287552
 ,-0.00327789,-0.00113679,-0.00235357,-0.00036338,-0.00196857,-0.001723
 92,0.00435442,0.00068872,-0.02183450,-0.00780652,0.03924101,0.00410166
 ,-0.00180085,0.00081829,-0.00002212,0.00000524,-0.00000090,-0.00000160
 ,0.00000220,-0.00000178,-0.00000126,0.00000266,0.00000134,0.00000131,-
 0.00000866,-0.00000265,0.00000200,-0.00000795,0.00000422,-0.00008257,0
 .00002788,0.00000754,-0.00009995,0.00002758,-0.00001537,0.00001402,0.0
 0013668,-0.00002459,-0.00011890,0.00031636,-0.00012988,-0.00006226,-0.
 00014829,-0.00016672,-0.00044547,-0.00025781,-0.00014485,0.00013576,0.
 00005449,0.00090292,-0.00005253,-0.00292727,0.00116455,-0.11650753,-0.
 00945203,0.07797748,0.01272510,0.00705865,0.00580941,0.11444085,-0.000
 00375,-0.00000999,0.00000045,-0.00000586,0.00002335,-0.00000224,0.0000
 5934,-0.00003894,-0.00000159,-0.00031026,-0.00007862,0.00000188,0.0007
 6606,-0.00053530,0.00009210,-0.00011054,0.00026133,-0.00001080,-0.0013
 4669,-0.00017295,0.00002778,0.00077441,0.00135515,-0.00014043,-0.00141
 463,-0.00096159,-0.00045066,0.00001862,0.00043488,-0.00049170,0.000937
 05,0.00025164,-0.00061416,-0.00900098,0.00996459,0.00820007,0.00059007
 ,-0.00138193,0.00143264,-0.00000509,0.00000126,-0.00000022,-0.00000041
 ,0.00000047,-0.00000053,-0.00000042,0.00000072,0.00000046,0.00000043,-
 0.00000186,-0.00000040,0.00000062,-0.00000190,0.00000096,-0.00001935,0
 .00000700,0.00000232,-0.00002382,0.00000620,-0.00000361,0.00000293,0.0
 0003229,-0.00000758,-0.00003814,0.00007368,-0.00002954,-0.00006777,-0.
 00011338,-0.00015801,0.00002949,-0.00003319,0.00006837,0.00014587,0.00
 011448,0.00022425,-0.00280998,-0.00103062,0.00161458,-0.00890692,-0.06
 639985,0.01641883,0.01291754,-0.00920212,-0.05106509,0.00306196,0.0808
 5286,0.00000999,0.00002570,-0.00000267,0.00001505,-0.00005973,0.000005
 88,-0.00014781,0.00010110,0.00000530,0.00078483,0.00018629,-0.00001010
 ,-0.00192109,0.00132714,-0.00024434,0.00035550,-0.00064825,0.00004808,
 0.00336852,0.00030341,0.00002435,-0.00248360,-0.00173314,0.00000131,0.
 00215039,0.00158096,0.00056695,0.00134244,0.00025466,0.00083854,0.0013
 7192,-0.00220830,-0.00015820,0.01602397,0.00381552,-0.01310042,-0.0019
 6597,0.00179343,-0.00077733,0.00001327,-0.00000324,0.00000043,0.000001
 27,-0.00000162,0.00000141,0.00000055,-0.00000120,-0.00000058,-0.000000
 88,0.00000586,0.00000204,-0.00000118,0.00000423,-0.00000212,0.00004849
 ,-0.00001599,-0.00000385,0.00006005,-0.00001690,0.00000958,-0.00000783
 ,-0.00008205,0.00001161,0.00006545,-0.00018935,0.00006863,0.00009785,0
 .00015073,0.00009461,0.00031691,0.00016184,0.00005762,-0.00017895,-0.0
 0036231,-0.00042657,0.00100675,0.00188802,-0.00279365,0.08115820,0.014
 91695,-0.20839536,0.01233088,-0.03813034,-0.06182249,-0.10721429,-0.02
 183644,0.35000500,-0.00001246,-0.00003184,0.00000263,-0.00001813,0.000
 07305,-0.00000925,0.00018383,-0.00013319,-0.00000244,-0.00095760,-0.00
 024653,0.00004589,0.00225922,-0.00141032,0.00023046,-0.00064787,0.0006
 5979,-0.00003353,-0.00370380,-0.00039579,-0.00018231,0.00256907,0.0022
 1585,-0.00039049,-0.00337825,0.00079794,0.00026439,-0.00078950,0.00101
 115,0.00010177,-0.00162482,0.00099181,-0.00062879,-0.03189826,0.035333
 16,-0.02390434,-0.00308532,-0.00693815,-0.00082443,-0.00001655,0.00000
 378,-0.00000077,-0.00000098,0.00000157,-0.00000110,-0.00000083,0.00000
 212,0.00000097,0.00000074,-0.00000648,-0.00000164,0.00000057,-0.000006
 34,0.00000360,-0.00006093,0.00001913,0.00000378,-0.00006618,0.00002265
 ,-0.00001320,0.00000748,0.00009620,-0.00001199,-0.00010930,0.00020982,
 -0.00006788,-0.00045239,-0.00042491,0.00036929,-0.00016581,-0.00017887
 ,-0.00005108,-0.00333246,-0.00087548,-0.00053682,0.00063104,-0.0038892
 3,0.00055768,-0.15533218,0.07218236,-0.05585686,0.01149218,0.01727421,
 0.00433563,0.01725047,-0.00184593,-0.00499531,0.17154923,0.00000418,0.
 00001044,-0.00000092,0.00000476,-0.00002456,0.00000312,-0.00006442,0.0
 0003781,0.00000376,0.00033084,0.00010166,-0.00001837,-0.00086279,0.000
 50552,-0.00009671,0.00020250,-0.00025087,0.00001763,0.00141331,0.00031
 671,0.00006532,-0.00145857,-0.00072631,0.00017133,0.00075055,0.0001857
 4,-0.00022263,0.00037854,0.00101590,-0.00055936,-0.00336201,-0.0044127
 5,-0.00037363,0.00824132,-0.00225192,0.00668121,-0.00007490,0.00213281
 ,0.00056430,0.00000562,-0.00000124,0.00000026,0.00000023,-0.00000049,0
 .00000009,0.00000017,-0.00000072,-0.00000011,-0.00000027,0.00000230,0.
 00000084,0.00000003,0.00000226,-0.00000150,0.00002242,-0.00000600,-0.0
 0000064,0.00002453,-0.00000744,0.00000404,-0.00000154,-0.00003519,0.00
 000384,0.00006346,-0.00007853,0.00003552,0.00012558,0.00010651,-0.0001
 6448,0.00011522,0.00004442,0.00001324,-0.00317999,0.00133974,-0.000447
 02,-0.00253609,0.00117507,-0.00061549,0.08283898,-0.14968771,0.0601276
 2,0.02795467,-0.08430875,0.00691753,0.00406311,-0.00964132,0.03980138,
 -0.11740763,0.24583041,-0.00000269,-0.00000687,0.00000110,-0.00000386,
 0.00001529,-0.00000206,0.00003995,-0.00002953,-0.00000573,-0.00021176,
 -0.00006243,0.00000599,0.00050976,-0.00030040,0.00003881,-0.00015344,0
 .00014418,0.00001590,-0.00082062,-0.00010824,-0.00002524,0.00076654,0.
 00003961,0.00007669,-0.00032474,0.00073488,-0.00046448,-0.00050461,-0.
 00013483,0.00019327,0.00118983,0.00196758,0.00010254,-0.00877199,0.010
 41141,0.00152804,-0.00162822,-0.00175219,0.00133187,-0.00000363,0.0000
 0082,-0.00000016,-0.00000018,0.00000008,0.00000005,-0.00000033,0.00000
 065,0.00000026,0.00000008,-0.00000096,-0.00000037,0.00000016,-0.000001
 64,0.00000124,-0.00001209,0.00000550,0.00000127,-0.00001548,0.00000396
 ,-0.00000136,0.00000084,0.00002108,-0.00000832,-0.00002610,0.00004211,
 -0.00001203,-0.00014366,-0.00019094,-0.00014632,-0.00008555,-0.0000285
 7,0.00000419,-0.00001793,-0.00047980,0.00013749,0.00089139,-0.00109572
 ,-0.00015556,-0.06145212,0.05714012,-0.10775316,0.00566720,-0.00255994
 ,0.01625978,-0.01604326,0.04778937,-0.06638944,0.08212822,-0.11269588,
 0.15501211,0.00000089,0.00000282,-0.00000061,0.00000416,-0.00000806,0.
 00000128,-0.00002111,0.00001600,0.00000130,0.00010009,-0.00000368,0.00
 000466,-0.00023071,0.00034789,-0.00004557,-0.00009516,-0.00010887,0.00
 002010,0.00048105,0.00015047,-0.00003310,0.00097283,-0.00045843,0.0006
 4326,-0.00395830,-0.00299063,0.00144241,-0.00012248,-0.00012446,-0.000
 10037,-0.00051923,0.00043971,0.00008765,0.00259063,0.00090191,-0.00073
 052,-0.00682455,0.00801031,-0.00759693,0.00000102,-0.00000104,0.000000
 12,0.00000080,0.00000008,0.00000083,0.00000035,0.00000026,-0.00000056,
 -0.00000049,0.00000038,-0.00000038,-0.00000120,-0.00000045,0.00000089,
 0.00000747,-0.00000168,-0.00000206,0.00000917,-0.00000290,0.00000381,-
 0.00000424,-0.00001114,-0.00000426,0.00001386,-0.00002427,-0.00002319,
 0.00187905,-0.00328545,0.00081228,0.00017081,-0.00006996,-0.00001985,0
 .00011078,0.00030219,0.00006594,-0.17464126,0.08379066,-0.06652600,0.0
 0153169,-0.00256507,0.00079031,-0.00063022,0.00098468,-0.00045365,-0.0
 0054548,0.00078387,-0.00004773,-0.00058246,0.00064629,-0.00037535,0.28
 807974,-0.00000791,-0.00002219,0.00000231,-0.00001527,0.00004995,-0.00
 000662,0.00012713,-0.00010450,0.00000048,-0.00065321,-0.00014868,0.000
 02076,0.00151425,-0.00084579,0.00011862,-0.00064926,0.00043975,-0.0000
 1181,-0.00202307,-0.00025176,0.00000979,0.00268912,0.00150786,-0.00039
 171,-0.00045776,-0.00410343,0.00120635,0.00026881,-0.00074045,0.000311
 53,0.00205268,-0.00216400,-0.00012874,-0.00623706,-0.00438064,0.002128
 02,0.03721421,-0.02305056,0.02199162,-0.00001097,0.00000325,-0.0000005
 7,-0.00000129,0.00000104,-0.00000170,-0.00000098,0.00000133,0.00000139
 ,0.00000045,-0.00000388,-0.00000054,0.00000066,-0.00000372,0.00000144,
 -0.00003877,0.00001459,0.00000378,-0.00004452,0.00001606,-0.00001039,0
 .00000835,0.00005992,-0.00001160,-0.00008835,0.00013682,-0.00000408,-0
 .00004432,-0.00391573,0.00153193,-0.00006665,-0.00012401,0.00006166,-0
 .00027341,-0.00078769,-0.00013449,0.07148006,-0.13799668,0.05017068,-0
 .00365839,0.00027425,-0.00006763,0.00067786,0.00039821,0.00033192,0.00
 089394,-0.00000328,-0.00055921,0.00114875,-0.00044155,0.00038928,-0.11
 002947,0.14658120,0.00000278,0.00000756,-0.00000132,0.00000575,-0.0000
 1721,0.00000177,-0.00004278,0.00003662,-0.00000111,0.00022893,0.000048
 70,0.00000121,-0.00053589,0.00032271,-0.00003918,0.00020635,-0.0001788
 4,0.00000573,0.00074261,0.00009545,0.00003289,-0.00081580,-0.00015781,
 0.00018095,-0.00111057,-0.00007385,0.00019609,0.00030397,0.00015657,-0
 .00001450,-0.00126028,0.00034766,-0.00031193,0.00253906,0.00249403,0.0
 0045500,-0.01501577,0.01061765,-0.00030037,0.00000360,-0.00000132,0.00
 000019,0.00000084,-0.00000054,0.00000087,0.00000005,-0.00000008,-0.000
 00024,-0.00000009,0.00000216,0.00000034,-0.00000078,0.00000034,0.00000
 015,0.00001284,-0.00000472,-0.00000139,0.00001637,-0.00000598,0.000004
 80,-0.00000257,-0.00002019,-0.00000268,0.00003203,-0.00005682,0.000002
 19,0.00025629,0.00128489,-0.00016747,0.00005552,0.00002787,-0.00003337
 ,0.00013809,0.00029625,-0.00016279,-0.06192899,0.05445933,-0.10700111,
 0.00149170,-0.00057314,-0.00030088,-0.00041498,0.00036149,0.00013187,-
 0.00042339,-0.00001156,0.00043371,-0.00053497,0.00032732,-0.00017523,0
 .11457949,-0.06535009,0.14429069,-0.00000547,-0.00001382,0.00000129,-0
 .00000827,0.00002978,-0.00000264,0.00007510,-0.00006509,-0.00000003,-0
 .00037435,-0.00010362,0.00001176,0.00079986,-0.00029546,0.00003579,-0.
 00043228,0.00011865,0.00001719,-0.00066493,-0.00053718,0.00003576,0.00
 003974,0.00040486,-0.00126534,0.00152103,-0.00355187,0.00178074,0.0005
 0284,-0.00051965,0.00027551,-0.00037438,-0.00151562,-0.00059435,-0.000
 75603,0.00101580,-0.00071449,-0.01688545,-0.00667489,0.01839939,-0.000
 00734,0.00000136,-0.00000026,-0.00000035,0.00000106,-0.00000044,0.0000
 0006,0.00000087,0.00000003,-0.00000031,-0.00000335,-0.00000103,0.00000
 013,-0.00000267,0.00000143,-0.00001941,0.00000902,0.00000067,-0.000023
 27,0.00001045,-0.00000401,0.00000372,0.00003788,-0.00000424,-0.0001547
 2,0.00005523,0.00002412,0.00080542,0.00043703,0.00041140,0.00003524,-0
 .00004512,0.00012560,-0.00001557,-0.00018836,0.00004523,-0.18863877,-0
 .04360877,0.09504751,-0.00202613,-0.00618917,0.00348091,-0.00157607,0.
 00450069,-0.00441513,-0.00221729,0.00536803,-0.00182608,0.00027236,0.0
 0095840,-0.00052729,-0.08481885,0.01589768,0.01511544,0.29300815,-0.00
 000706,-0.00001859,0.00000141,-0.00001239,0.00004086,-0.00000415,0.000
 10117,-0.00008738,0.00000098,-0.00051696,-0.00011085,0.00001369,0.0011
 7889,-0.00064217,0.00008051,-0.00046752,0.00031022,0.00000776,-0.00128
 525,-0.00074040,-0.00003618,-0.00014999,-0.00006846,-0.00154117,0.0022
 4010,-0.00512141,0.00266097,-0.00048830,-0.00046632,0.00028687,-0.0003
 1095,-0.00004809,-0.00041954,-0.00035389,0.00115378,-0.00089984,-0.034
 27687,-0.00302862,0.02284963,-0.00000923,0.00000237,-0.00000047,-0.000
 00080,0.00000093,-0.00000111,-0.00000052,0.00000125,0.00000089,0.00000
 019,-0.00000344,-0.00000063,0.00000039,-0.00000338,0.00000155,-0.00002
 986,0.00001261,0.00000280,-0.00003368,0.00001352,-0.00000709,0.0000088
 0,0.00005138,-0.00000794,-0.00020921,0.00008819,0.00000023,0.00018092,
 0.00035056,0.00053052,-0.00003848,-0.00006122,0.00005075,0.00003916,-0
 .00011175,0.00001643,-0.03628518,-0.08727552,0.03007655,-0.00189599,0.
 00027035,-0.00059879,0.00230615,-0.00029727,0.00248546,0.00412398,-0.0
 0393095,0.00031508,0.00070250,-0.00047165,0.00036093,0.02472444,0.0107
 1907,-0.00838067,0.02420001,0.07955596,0.00000502,0.00001278,-0.000001
 72,0.00000818,-0.00002750,0.00000325,-0.00006943,0.00005812,-0.0000016
 5,0.00035948,0.00008853,-0.00000551,-0.00080885,0.00037624,-0.00006195
 ,0.00034728,-0.00017750,-0.00000409,0.00082237,0.00061554,-0.00001056,
 0.00055781,-0.00074802,0.00046639,-0.00124949,0.00448198,-0.00166586,-
 0.00013479,0.00026541,-0.00011807,0.00015635,0.00049126,-0.00001740,0.
 00019228,-0.00169788,0.00113974,0.02138272,0.00352925,-0.00446735,0.00
 000654,-0.00000152,0.00000021,0.00000065,-0.00000103,0.00000071,-0.000
 00005,-0.00000050,-0.00000004,0.00000015,0.00000338,0.00000107,-0.0000
 0026,0.00000169,-0.00000086,0.00001927,-0.00000835,-0.00000053,0.00002
 421,-0.00000973,0.00000500,-0.00000566,-0.00003538,0.00000256,0.000171
 12,-0.00006059,0.00000687,-0.00034281,-0.00010511,-0.00006748,0.000000
 94,0.00005973,-0.00001847,-0.00000769,0.00009094,-0.00004849,0.0917763
 9,0.03680136,-0.13604600,0.00105336,-0.00069951,-0.00298662,-0.0034925
 9,0.00317621,-0.00337091,-0.00030359,-0.00079272,0.00157236,-0.0004625
 1,0.00039378,0.00014546,0.00406848,-0.00584715,0.01704330,-0.15403937,
 -0.02396638,0.19706380,-0.00000185,-0.00000512,0.00000013,-0.00000234,
 0.00001045,-0.00000119,0.00002633,-0.00002037,0.00000382,-0.00012526,-
 0.00004038,0.00000383,0.00025988,-0.00007796,0.00000792,-0.00013713,0.
 00002779,0.00000576,-0.00023280,-0.00005722,-0.00003253,0.00044083,0.0
 0092539,0.00045947,0.00019705,0.00025317,0.00044534,0.00084282,-0.0004
 3502,0.00003052,-0.00042758,-0.00113019,0.00079084,-0.00156012,-0.0002
 8031,-0.00088230,0.00829415,-0.00993328,-0.00892000,-0.00000262,0.0000
 0028,-0.00000011,-0.00000002,0.00000038,-0.00000002,-0.00000001,0.0000
 0052,0.00000013,0.00000007,-0.00000104,-0.00000028,-0.00000018,-0.0000
 0128,0.00000088,-0.00000669,0.00000300,0.00000023,-0.00000756,0.000002
 81,-0.00000109,-0.00000100,0.00001215,-0.00000395,-0.00000753,0.000014
 96,-0.00003312,0.00020237,0.00008533,-0.00033474,0.00001196,-0.0000330
 7,-0.00006191,-0.00005577,-0.00012965,0.00015081,-0.07406478,-0.024861
 59,-0.03161217,-0.00129423,-0.00332885,-0.00135530,-0.00454064,0.00573
 898,0.00083867,0.00022274,0.00045426,0.00026842,0.00001990,0.00080348,
 -0.00006907,-0.02295866,-0.00967328,-0.05364487,0.00193558,0.01656544,
 0.03996448,0.09297307,-0.00000852,-0.00002307,0.00000156,-0.00001605,0
 .00005085,-0.00000697,0.00012628,-0.00011105,0.00000495,-0.00064839,-0
 .00014450,0.00002567,0.00144004,-0.00076680,0.00005777,-0.00062437,0.0
 0037564,0.00002334,-0.00158410,-0.00049162,0.00012494,0.00072977,0.001
 07196,0.00216009,0.00290047,-0.00384806,-0.00004787,0.00034487,-0.0011
 6235,-0.00007359,-0.00120678,-0.00105380,0.00177640,-0.00171055,0.0014
 1006,-0.00012500,-0.01272326,-0.02598004,-0.03730545,-0.00001159,0.000
 00300,-0.00000059,-0.00000078,0.00000090,-0.00000109,-0.00000111,0.000
 00182,0.00000141,0.00000042,-0.00000366,-0.00000040,0.00000036,-0.0000
 0471,0.00000218,-0.00003693,0.00001630,0.00000381,-0.00004160,0.000015
 97,-0.00000824,0.00000960,0.00006330,-0.00001446,-0.00015115,0.0000976
 8,-0.00004834,0.00029915,-0.00017987,-0.00113931,-0.00005484,-0.000111
 57,-0.00017302,0.00000407,-0.00026352,0.00014976,-0.02417308,-0.144339
 80,-0.08758819,-0.00337860,-0.00055243,-0.00098162,0.00405290,-0.00158
 497,0.00028766,0.00145726,0.00015792,-0.00078425,0.00104483,-0.0004603
 2,0.00038109,-0.00141639,0.01888525,0.00394623,0.01026785,0.00991640,-
 0.01626732,0.02511025,0.14901509,-0.00000404,-0.00001089,0.00000061,-0
 .00000726,0.00002342,-0.00000315,0.00006163,-0.00005308,-0.00000729,-0
 .00031417,-0.00008069,0.00001683,0.00069530,-0.00033574,0.00003113,-0.
 00033394,0.00016122,0.00003396,-0.00078648,-0.00028854,0.00006207,0.00
 029731,0.00031897,0.00053632,0.00090575,-0.00194349,0.00016376,0.00019
 293,-0.00028869,-0.00005667,-0.00007913,-0.00075816,0.00061651,-0.0012
 3487,0.00004370,-0.00008172,-0.00446035,-0.01090652,-0.00540698,-0.000
 00557,0.00000139,-0.00000036,0.00000012,0.00000010,0.00000005,-0.00000
 089,0.00000134,0.00000086,0.00000015,-0.00000071,0.00000020,-0.0000003
 6,-0.00000310,0.00000189,-0.00001869,0.00000891,0.00000239,-0.00001921
 ,0.00000723,-0.00000241,0.00000284,0.00002969,-0.00001039,-0.00009640,
 0.00004552,-0.00002088,0.00050751,0.00000061,-0.00036823,-0.00001501,-
 0.00007086,-0.00005170,-0.00003266,-0.00018753,0.00005891,-0.03038946,
 -0.09216117,-0.18336223,-0.00156897,-0.00102456,-0.00208145,-0.0003621
 1,0.00167926,0.00133350,0.00059694,-0.00025678,0.00037971,0.00046540,0
 .00006461,0.00028339,-0.04656268,-0.00575524,-0.05426818,0.02858493,-0
 .02387907,-0.06855716,0.05398142,0.13561885,0.31075671\\0.00000243,-0.
 00000621,-0.00000256,-0.00000138,-0.00000477,-0.00000497,-0.00000279,0
 .00000100,-0.00000153,0.00000503,-0.00000085,-0.00000096,0.00000359,-0
 .00001000,0.00000762,-0.00000568,0.00000115,-0.00000749,-0.00000772,0.
 00000214,0.00000639,-0.00000036,0.00000318,0.00000121,0.00000149,0.000
 00956,-0.00000238,0.00000229,0.00000006,0.00000449,0.00000020,0.000004
 10,0.00000649,-0.00000499,0.00000005,0.00000291,0.00000781,0.00000097,
 0.00000064,0.00000084,-0.00000603,-0.00000343,0.00000093,-0.00000687,-
 0.00000574,-0.00000055,-0.00000371,-0.00000590,0.00000268,-0.00000582,
 0.00000155,0.00000208,-0.00000137,0.00000146,0.00000116,-0.00000167,-0
 .00000491,0.00000031,-0.00000647,-0.00000483,0.00000183,-0.00000230,0.
 00000136,0.00000160,-0.00000010,0.00000184,0.00000013,-0.00000204,-0.0
 0000322,0.00000064,0.00000338,0.00000739,0.00000063,0.00000422,0.00000
 741,0.00000158,-0.00000277,-0.00000965,-0.00000601,0.00001705,-0.00002
 383,-0.00000149,0.00000826,0.00000309,-0.00000032,0.00000049,0.0000182
 5,0.00000716,-0.00000090,0.00001419,-0.00000590,-0.00000329,-0.0000140
 5,-0.00000862,-0.00000074,0.00000254,0.00000141,0.00001031,0.00000662\
 \\@


 A MUSTACHE HAIR ACROSS A CHIP IS LIKE A REDWOOD
 TREE FALLING THROUGH A HOUSING PROJECT.
 - AN IBM MANAGER IN EAST FISHKILL, NEW YORK
   AS QUOTED IN "FROM SANDS TO CIRCUITS", IBM INNOVATION JANUARY 1985.
 Job cpu time:       0 days  4 hours 39 minutes 53.6 seconds.
 File lengths (MBytes):  RWF=    760 Int=      0 D2E=      0 Chk=     23 Scr=      1
 Normal termination of Gaussian 09 at Tue Oct 30 14:17:37 2018.
WARNING: pbs_rusage is deprecated and values produced may not be accurate


=============================================================================
                                     Resource usage:
                                       CPU time:              34:35:21
   JobId:    1827711.r-man2            Elapsed time:          04:26:30
   Project:             q95            Requested time:        42:00:00
   Service Units:     35.53 
                                       Max physical memory:     1506MB
                                       Max virtual memory:      2615MB
                                       Requested memory:           0MB

                                       Number of cpus:               8

                                       Max jobfs disk use:       0.7GB
                                       Requested jobfs:         20.0GB
=============================================================================

