 Entering Gaussian System, Link 0=/apps/gaussian/g09e01/g09/g09
 AtFile(1): /home/507/hio507/Basis/6-31pGd.gbs
 Initial command:
 /apps/gaussian/g09e01/g09/l1.exe "/jobfs/local/5363858.r-man2/Gau-47789.inp" -scrdir="/jobfs/local/5363858.r-man2/"
 Entering Link 1 = /apps/gaussian/g09e01/g09/l1.exe PID=     47794.
  
 Copyright (c) 1988,1990,1992,1993,1995,1998,2003,2009,2015,
            Gaussian, Inc.  All Rights Reserved.
  
 This is part of the Gaussian(R) 09 program.  It is based on
 the Gaussian(R) 03 system (copyright 2003, Gaussian, Inc.),
 the Gaussian(R) 98 system (copyright 1998, Gaussian, Inc.),
 the Gaussian(R) 94 system (copyright 1995, Gaussian, Inc.),
 the Gaussian 92(TM) system (copyright 1992, Gaussian, Inc.),
 the Gaussian 90(TM) system (copyright 1990, Gaussian, Inc.),
 the Gaussian 88(TM) system (copyright 1988, Gaussian, Inc.),
 the Gaussian 86(TM) system (copyright 1986, Carnegie Mellon
 University), and the Gaussian 82(TM) system (copyright 1983,
 Carnegie Mellon University). Gaussian is a federally registered
 trademark of Gaussian, Inc.
  
 This software contains proprietary and confidential information,
 including trade secrets, belonging to Gaussian, Inc.
  
 This software is provided under written license and may be
 used, copied, transmitted, or stored only in accord with that
 written license.
  
 The following legend is applicable only to US Government
 contracts under FAR:
  
                    RESTRICTED RIGHTS LEGEND
  
 Use, reproduction and disclosure by the US Government is
 subject to restrictions as set forth in subparagraphs (a)
 and (c) of the Commercial Computer Software - Restricted
 Rights clause in FAR 52.227-19.
  
 Gaussian, Inc.
 340 Quinnipiac St., Bldg. 40, Wallingford CT 06492
  
  
 ---------------------------------------------------------------
 Warning -- This program may not be used in any manner that
 competes with the business of Gaussian, Inc. or will provide
 assistance to any competitor of Gaussian, Inc.  The licensee
 of this program is prohibited from giving any competitor of
 Gaussian, Inc. access to this program.  By using this program,
 the user acknowledges that Gaussian, Inc. is engaged in the
 business of creating and licensing software in the field of
 computational chemistry and represents and warrants to the
 licensee that it is not a competitor of Gaussian, Inc. and that
 it will not use this program in any manner prohibited above.
 ---------------------------------------------------------------
  

 Cite this work as:
 Gaussian 09, Revision E.01,
 M. J. Frisch, G. W. Trucks, H. B. Schlegel, G. E. Scuseria, 
 M. A. Robb, J. R. Cheeseman, G. Scalmani, V. Barone, B. Mennucci, 
 G. A. Petersson, H. Nakatsuji, M. Caricato, X. Li, H. P. Hratchian, 
 A. F. Izmaylov, J. Bloino, G. Zheng, J. L. Sonnenberg, M. Hada, 
 M. Ehara, K. Toyota, R. Fukuda, J. Hasegawa, M. Ishida, T. Nakajima, 
 Y. Honda, O. Kitao, H. Nakai, T. Vreven, J. A. Montgomery, Jr., 
 J. E. Peralta, F. Ogliaro, M. Bearpark, J. J. Heyd, E. Brothers, 
 K. N. Kudin, V. N. Staroverov, T. Keith, R. Kobayashi, J. Normand, 
 K. Raghavachari, A. Rendell, J. C. Burant, S. S. Iyengar, J. Tomasi, 
 M. Cossi, N. Rega, J. M. Millam, M. Klene, J. E. Knox, J. B. Cross, 
 V. Bakken, C. Adamo, J. Jaramillo, R. Gomperts, R. E. Stratmann, 
 O. Yazyev, A. J. Austin, R. Cammi, C. Pomelli, J. W. Ochterski, 
 R. L. Martin, K. Morokuma, V. G. Zakrzewski, G. A. Voth, 
 P. Salvador, J. J. Dannenberg, S. Dapprich, A. D. Daniels, 
 O. Farkas, J. B. Foresman, J. V. Ortiz, J. Cioslowski, 
 and D. J. Fox, Gaussian, Inc., Wallingford CT, 2013.
 
 ******************************************
 Gaussian 09:  ES64L-G09RevE.01 30-Nov-2015
                 4-Feb-2019 
 ******************************************
 %chk=4Ketone_a1.M062X_6-31pGd_opt.chk
 %mem=196608000
 %nproc=4
 Will use up to    4 processors via shared memory.
 ----------------------------------------------------------------------
 # M062X/Gen 6D SCF=Tight INT(grid=ultrafine) OPT=calcfc IOP(2/17=4) ma
 xdisk=2147483648
 ----------------------------------------------------------------------
 1/10=4,14=-1,18=20,19=15,26=4,38=1/1,3;
 2/9=110,12=2,17=4,18=5,40=1/2;
 3/5=7,8=2,11=2,16=1,25=1,30=1,71=2,74=-55,75=-5,140=1/1,2,3;
 4//1;
 5/5=2,32=2,38=5/2;
 8/6=4,10=90,11=11/1;
 11/6=1,8=1,9=11,15=111,16=1/1,2,10;
 10/6=1,13=1/2;
 6/7=2,8=2,9=2,10=2,28=1/1;
 7/10=1,18=20,25=1/1,2,3,16;
 1/10=4,14=-1,18=20,19=15,26=4/3(2);
 2/9=110,17=4/2;
 99//99;
 2/9=110,17=4/2;
 3/5=7,6=1,8=2,11=2,16=1,25=1,30=1,71=1,74=-55,75=-5,82=7/1,2,3;
 4/5=5,16=3,69=1/1;
 5/5=2,32=2,38=5/2;
 7//1,2,3,16;
 1/14=-1,18=20,19=15,26=4/3(-5);
 2/9=110,17=4/2;
 6/7=2,8=2,9=2,10=2,19=2,28=1/1;
 99/9=1/99;
 ----------------------------
 4Ketone_a1.M062X_6-31pGd_opt
 ----------------------------
 Symbolic Z-matrix:
 Charge = -1 Multiplicity = 1
 C                    -2.09741   2.07026   0.01493 
 C                    -0.79459   1.29404   0.18382 
 C                     0.42286   2.19143  -0.06662 
 N                     1.66024   1.44771   0.09538 
 C                     2.8794    2.03295  -0.07662 
 O                     2.93646   3.21516  -0.3752 
 N                     4.01429   1.28505   0.08846 
 C                     5.38302   1.71066  -0.04647 
 C                     5.78644   3.02236  -0.38456 
 C                     6.38909   0.7545    0.17348 
 C                     7.74108   1.08345   0.06318 
 C                     8.14522   2.38795  -0.27313 
 C                     7.14227   3.35147  -0.49498 
 H                    -2.95941   1.39581   0.20207 
 H                    -2.177     2.47095  -1.01813 
 H                    -2.14143   2.9127    0.73773 
 H                    -0.78422   0.44613  -0.5353 
 H                    -0.7487    0.88711   1.21751 
 H                     0.40744   3.03819   0.65477 
 H                     0.37182   2.59634  -1.10155 
 H                     1.61445   0.44784   0.34785 
 H                     5.09448   3.82257  -0.57168 
 H                     6.12558  -0.26307   0.43476 
 H                     8.47241   0.30546   0.24391 
 C                     9.60904   2.69502  -0.38023 
 H                     7.3749    4.37029  -0.75595 
 O                     10.41631   1.8007   -0.17179 
 C                     10.17488   4.04684  -0.73177 
 H                     9.41941   4.82875  -0.913 
 H                     10.82563   4.39564   0.09744 
 H                     10.78993   3.95575  -1.65163 
 

 GradGradGradGradGradGradGradGradGradGradGradGradGradGradGradGradGradGrad
 Berny optimization.
 Initialization pass.
                           ----------------------------
                           !    Initial Parameters    !
                           ! (Angstroms and Degrees)  !
 --------------------------                            --------------------------
 ! Name  Definition              Value          Derivative Info.                !
 --------------------------------------------------------------------------------
 ! R1    R(1,2)                  1.5259         calculate D2E/DX2 analytically  !
 ! R2    R(1,14)                 1.1104         calculate D2E/DX2 analytically  !
 ! R3    R(1,15)                 1.1109         calculate D2E/DX2 analytically  !
 ! R4    R(1,16)                 1.1109         calculate D2E/DX2 analytically  !
 ! R5    R(2,3)                  1.533          calculate D2E/DX2 analytically  !
 ! R6    R(2,17)                 1.1118         calculate D2E/DX2 analytically  !
 ! R7    R(2,18)                 1.1119         calculate D2E/DX2 analytically  !
 ! R8    R(3,4)                  1.4527         calculate D2E/DX2 analytically  !
 ! R9    R(3,19)                 1.1125         calculate D2E/DX2 analytically  !
 ! R10   R(3,20)                 1.1125         calculate D2E/DX2 analytically  !
 ! R11   R(4,5)                  1.3632         calculate D2E/DX2 analytically  !
 ! R12   R(4,21)                 1.0323         calculate D2E/DX2 analytically  !
 ! R13   R(5,6)                  1.2207         calculate D2E/DX2 analytically  !
 ! R14   R(5,7)                  1.3692         calculate D2E/DX2 analytically  !
 ! R15   R(7,8)                  1.4397         calculate D2E/DX2 analytically  !
 ! R16   R(8,9)                  1.4134         calculate D2E/DX2 analytically  !
 ! R17   R(8,10)                 1.4053         calculate D2E/DX2 analytically  !
 ! R18   R(9,13)                 1.3996         calculate D2E/DX2 analytically  !
 ! R19   R(9,22)                 1.0743         calculate D2E/DX2 analytically  !
 ! R20   R(10,11)                1.3958         calculate D2E/DX2 analytically  !
 ! R21   R(10,23)                1.0831         calculate D2E/DX2 analytically  !
 ! R22   R(11,12)                1.4065         calculate D2E/DX2 analytically  !
 ! R23   R(11,24)                1.0829         calculate D2E/DX2 analytically  !
 ! R24   R(12,13)                1.4084         calculate D2E/DX2 analytically  !
 ! R25   R(12,25)                1.4995         calculate D2E/DX2 analytically  !
 ! R26   R(13,26)                1.0771         calculate D2E/DX2 analytically  !
 ! R27   R(25,27)                1.2227         calculate D2E/DX2 analytically  !
 ! R28   R(25,28)                1.507          calculate D2E/DX2 analytically  !
 ! R29   R(28,29)                1.1023         calculate D2E/DX2 analytically  !
 ! R30   R(28,30)                1.1103         calculate D2E/DX2 analytically  !
 ! R31   R(28,31)                1.1103         calculate D2E/DX2 analytically  !
 ! A1    A(2,1,14)             109.5833         calculate D2E/DX2 analytically  !
 ! A2    A(2,1,15)             110.3392         calculate D2E/DX2 analytically  !
 ! A3    A(2,1,16)             110.3396         calculate D2E/DX2 analytically  !
 ! A4    A(14,1,15)            108.6746         calculate D2E/DX2 analytically  !
 ! A5    A(14,1,16)            108.6751         calculate D2E/DX2 analytically  !
 ! A6    A(15,1,16)            109.1894         calculate D2E/DX2 analytically  !
 ! A7    A(1,2,3)              111.2344         calculate D2E/DX2 analytically  !
 ! A8    A(1,2,17)             108.9241         calculate D2E/DX2 analytically  !
 ! A9    A(1,2,18)             108.9244         calculate D2E/DX2 analytically  !
 ! A10   A(3,2,17)             109.4719         calculate D2E/DX2 analytically  !
 ! A11   A(3,2,18)             109.4717         calculate D2E/DX2 analytically  !
 ! A12   A(17,2,18)            108.7729         calculate D2E/DX2 analytically  !
 ! A13   A(2,3,4)              111.0094         calculate D2E/DX2 analytically  !
 ! A14   A(2,3,19)             109.1841         calculate D2E/DX2 analytically  !
 ! A15   A(2,3,20)             109.1833         calculate D2E/DX2 analytically  !
 ! A16   A(4,3,19)             109.2174         calculate D2E/DX2 analytically  !
 ! A17   A(4,3,20)             109.2169         calculate D2E/DX2 analytically  !
 ! A18   A(19,3,20)            109.0002         calculate D2E/DX2 analytically  !
 ! A19   A(3,4,5)              121.8625         calculate D2E/DX2 analytically  !
 ! A20   A(3,4,21)             119.0363         calculate D2E/DX2 analytically  !
 ! A21   A(5,4,21)             119.1012         calculate D2E/DX2 analytically  !
 ! A22   A(4,5,6)              119.2381         calculate D2E/DX2 analytically  !
 ! A23   A(4,5,7)              119.444          calculate D2E/DX2 analytically  !
 ! A24   A(6,5,7)              121.3179         calculate D2E/DX2 analytically  !
 ! A25   A(5,7,8)              127.97           calculate D2E/DX2 analytically  !
 ! A26   A(7,8,9)              124.6202         calculate D2E/DX2 analytically  !
 ! A27   A(7,8,10)             117.6982         calculate D2E/DX2 analytically  !
 ! A28   A(9,8,10)             117.6816         calculate D2E/DX2 analytically  !
 ! A29   A(8,9,13)             120.9054         calculate D2E/DX2 analytically  !
 ! A30   A(8,9,22)             123.3049         calculate D2E/DX2 analytically  !
 ! A31   A(13,9,22)            115.7897         calculate D2E/DX2 analytically  !
 ! A32   A(8,10,11)            121.3814         calculate D2E/DX2 analytically  !
 ! A33   A(8,10,23)            120.1861         calculate D2E/DX2 analytically  !
 ! A34   A(11,10,23)           118.4325         calculate D2E/DX2 analytically  !
 ! A35   A(10,11,12)           121.0514         calculate D2E/DX2 analytically  !
 ! A36   A(10,11,24)           118.1398         calculate D2E/DX2 analytically  !
 ! A37   A(12,11,24)           120.8088         calculate D2E/DX2 analytically  !
 ! A38   A(11,12,13)           117.8772         calculate D2E/DX2 analytically  !
 ! A39   A(11,12,25)           119.1775         calculate D2E/DX2 analytically  !
 ! A40   A(13,12,25)           122.9453         calculate D2E/DX2 analytically  !
 ! A41   A(9,13,12)            121.1031         calculate D2E/DX2 analytically  !
 ! A42   A(9,13,26)            116.7924         calculate D2E/DX2 analytically  !
 ! A43   A(12,13,26)           122.1046         calculate D2E/DX2 analytically  !
 ! A44   A(12,25,27)           118.8535         calculate D2E/DX2 analytically  !
 ! A45   A(12,25,28)           124.5327         calculate D2E/DX2 analytically  !
 ! A46   A(27,25,28)           116.6138         calculate D2E/DX2 analytically  !
 ! A47   A(25,28,29)           114.6658         calculate D2E/DX2 analytically  !
 ! A48   A(25,28,30)           109.1261         calculate D2E/DX2 analytically  !
 ! A49   A(25,28,31)           109.1267         calculate D2E/DX2 analytically  !
 ! A50   A(29,28,30)           107.5571         calculate D2E/DX2 analytically  !
 ! A51   A(29,28,31)           107.5571         calculate D2E/DX2 analytically  !
 ! A52   A(30,28,31)           108.6538         calculate D2E/DX2 analytically  !
 ! D1    D(14,1,2,3)           179.9995         calculate D2E/DX2 analytically  !
 ! D2    D(14,1,2,17)           59.2505         calculate D2E/DX2 analytically  !
 ! D3    D(14,1,2,18)          -59.2516         calculate D2E/DX2 analytically  !
 ! D4    D(15,1,2,3)            60.3743         calculate D2E/DX2 analytically  !
 ! D5    D(15,1,2,17)          -60.3747         calculate D2E/DX2 analytically  !
 ! D6    D(15,1,2,18)         -178.8769         calculate D2E/DX2 analytically  !
 ! D7    D(16,1,2,3)           -60.3743         calculate D2E/DX2 analytically  !
 ! D8    D(16,1,2,17)          178.8767         calculate D2E/DX2 analytically  !
 ! D9    D(16,1,2,18)           60.3746         calculate D2E/DX2 analytically  !
 ! D10   D(1,2,3,4)           -179.9984         calculate D2E/DX2 analytically  !
 ! D11   D(1,2,3,19)            59.541          calculate D2E/DX2 analytically  !
 ! D12   D(1,2,3,20)           -59.5388         calculate D2E/DX2 analytically  !
 ! D13   D(17,2,3,4)           -59.572          calculate D2E/DX2 analytically  !
 ! D14   D(17,2,3,19)          179.9673         calculate D2E/DX2 analytically  !
 ! D15   D(17,2,3,20)           60.8875         calculate D2E/DX2 analytically  !
 ! D16   D(18,2,3,4)            59.5751         calculate D2E/DX2 analytically  !
 ! D17   D(18,2,3,19)          -60.8855         calculate D2E/DX2 analytically  !
 ! D18   D(18,2,3,20)         -179.9653         calculate D2E/DX2 analytically  !
 ! D19   D(2,3,4,5)            179.9976         calculate D2E/DX2 analytically  !
 ! D20   D(2,3,4,21)            -0.0006         calculate D2E/DX2 analytically  !
 ! D21   D(19,3,4,5)           -59.5615         calculate D2E/DX2 analytically  !
 ! D22   D(19,3,4,21)          120.4403         calculate D2E/DX2 analytically  !
 ! D23   D(20,3,4,5)            59.5579         calculate D2E/DX2 analytically  !
 ! D24   D(20,3,4,21)         -120.4403         calculate D2E/DX2 analytically  !
 ! D25   D(3,4,5,6)              0.0013         calculate D2E/DX2 analytically  !
 ! D26   D(3,4,5,7)           -179.9976         calculate D2E/DX2 analytically  !
 ! D27   D(21,4,5,6)           179.9995         calculate D2E/DX2 analytically  !
 ! D28   D(21,4,5,7)             0.0006         calculate D2E/DX2 analytically  !
 ! D29   D(4,5,7,8)            179.9977         calculate D2E/DX2 analytically  !
 ! D30   D(6,5,7,8)             -0.0012         calculate D2E/DX2 analytically  !
 ! D31   D(5,7,8,9)              0.0066         calculate D2E/DX2 analytically  !
 ! D32   D(5,7,8,10)          -179.9934         calculate D2E/DX2 analytically  !
 ! D33   D(7,8,9,13)          -179.999          calculate D2E/DX2 analytically  !
 ! D34   D(7,8,9,22)             0.0009         calculate D2E/DX2 analytically  !
 ! D35   D(10,8,9,13)            0.0009         calculate D2E/DX2 analytically  !
 ! D36   D(10,8,9,22)         -179.9991         calculate D2E/DX2 analytically  !
 ! D37   D(7,8,10,11)          179.9991         calculate D2E/DX2 analytically  !
 ! D38   D(7,8,10,23)           -0.0006         calculate D2E/DX2 analytically  !
 ! D39   D(9,8,10,11)           -0.0009         calculate D2E/DX2 analytically  !
 ! D40   D(9,8,10,23)          179.9994         calculate D2E/DX2 analytically  !
 ! D41   D(8,9,13,12)           -0.0003         calculate D2E/DX2 analytically  !
 ! D42   D(8,9,13,26)          179.9991         calculate D2E/DX2 analytically  !
 ! D43   D(22,9,13,12)         179.9998         calculate D2E/DX2 analytically  !
 ! D44   D(22,9,13,26)          -0.0008         calculate D2E/DX2 analytically  !
 ! D45   D(8,10,11,12)           0.0002         calculate D2E/DX2 analytically  !
 ! D46   D(8,10,11,24)        -179.9992         calculate D2E/DX2 analytically  !
 ! D47   D(23,10,11,12)        179.9999         calculate D2E/DX2 analytically  !
 ! D48   D(23,10,11,24)          0.0005         calculate D2E/DX2 analytically  !
 ! D49   D(10,11,12,13)          0.0005         calculate D2E/DX2 analytically  !
 ! D50   D(10,11,12,25)       -179.9991         calculate D2E/DX2 analytically  !
 ! D51   D(24,11,12,13)        179.9998         calculate D2E/DX2 analytically  !
 ! D52   D(24,11,12,25)          0.0002         calculate D2E/DX2 analytically  !
 ! D53   D(11,12,13,9)          -0.0004         calculate D2E/DX2 analytically  !
 ! D54   D(11,12,13,26)       -179.9998         calculate D2E/DX2 analytically  !
 ! D55   D(25,12,13,9)         179.9991         calculate D2E/DX2 analytically  !
 ! D56   D(25,12,13,26)         -0.0002         calculate D2E/DX2 analytically  !
 ! D57   D(11,12,25,27)         -0.0005         calculate D2E/DX2 analytically  !
 ! D58   D(11,12,25,28)        179.9987         calculate D2E/DX2 analytically  !
 ! D59   D(13,12,25,27)       -180.0            calculate D2E/DX2 analytically  !
 ! D60   D(13,12,25,28)         -0.0008         calculate D2E/DX2 analytically  !
 ! D61   D(12,25,28,29)          0.0006         calculate D2E/DX2 analytically  !
 ! D62   D(12,25,28,30)        120.7039         calculate D2E/DX2 analytically  !
 ! D63   D(12,25,28,31)       -120.7031         calculate D2E/DX2 analytically  !
 ! D64   D(27,25,28,29)        179.9998         calculate D2E/DX2 analytically  !
 ! D65   D(27,25,28,30)        -59.2969         calculate D2E/DX2 analytically  !
 ! D66   D(27,25,28,31)         59.2961         calculate D2E/DX2 analytically  !
 --------------------------------------------------------------------------------
 Trust Radius=3.00D-01 FncErr=1.00D-07 GrdErr=1.00D-06
 Number of steps in this run=    159 maximum allowed number of steps=    186.
 GradGradGradGradGradGradGradGradGradGradGradGradGradGradGradGradGradGrad

                          Input orientation:                          
 ---------------------------------------------------------------------
 Center     Atomic      Atomic             Coordinates (Angstroms)
 Number     Number       Type             X           Y           Z
 ---------------------------------------------------------------------
      1          6           0       -2.097410    2.070260    0.014930
      2          6           0       -0.794590    1.294040    0.183820
      3          6           0        0.422860    2.191430   -0.066620
      4          7           0        1.660240    1.447710    0.095380
      5          6           0        2.879400    2.032950   -0.076620
      6          8           0        2.936460    3.215160   -0.375200
      7          7           0        4.014290    1.285050    0.088460
      8          6           0        5.383020    1.710660   -0.046470
      9          6           0        5.786440    3.022360   -0.384560
     10          6           0        6.389090    0.754500    0.173480
     11          6           0        7.741080    1.083450    0.063180
     12          6           0        8.145220    2.387950   -0.273130
     13          6           0        7.142270    3.351470   -0.494980
     14          1           0       -2.959410    1.395810    0.202070
     15          1           0       -2.177000    2.470950   -1.018130
     16          1           0       -2.141430    2.912700    0.737730
     17          1           0       -0.784220    0.446130   -0.535300
     18          1           0       -0.748700    0.887110    1.217510
     19          1           0        0.407440    3.038190    0.654770
     20          1           0        0.371820    2.596340   -1.101550
     21          1           0        1.614450    0.447840    0.347850
     22          1           0        5.094480    3.822570   -0.571680
     23          1           0        6.125580   -0.263070    0.434760
     24          1           0        8.472410    0.305460    0.243910
     25          6           0        9.609040    2.695020   -0.380230
     26          1           0        7.374900    4.370290   -0.755950
     27          8           0       10.416310    1.800700   -0.171790
     28          6           0       10.174880    4.046840   -0.731770
     29          1           0        9.419410    4.828750   -0.913000
     30          1           0       10.825630    4.395640    0.097440
     31          1           0       10.789930    3.955750   -1.651630
 ---------------------------------------------------------------------
                    Distance matrix (angstroms):
                    1          2          3          4          5
     1  C    0.000000
     2  C    1.525903   0.000000
     3  C    2.524499   1.533041   0.000000
     4  N    3.809721   2.461225   1.452747   0.000000
     5  C    4.977792   3.756597   2.461667   1.363246   0.000000
     6  O    5.177146   4.233667   2.731562   2.230261   1.220666
     7  N    6.162373   4.809834   3.707283   2.359673   1.369153
     8  C    7.489320   6.195924   4.983446   3.734750   2.524459
     9  C    7.951175   6.827891   5.436867   4.442453   3.086202
    10  C    8.589356   7.203920   6.141524   4.780027   3.743649
    11  C    9.887973   8.539120   7.402757   6.091825   4.955505
    12  C   10.251604   9.018073   7.727620   6.563141   5.281430
    13  C    9.342012   8.227243   6.832251   5.833136   4.481694
    14  H    1.110382   2.167288   3.484961   4.621173   5.880078
    15  H    1.110901   2.177351   2.782584   4.124480   5.161925
    16  H    1.110893   2.177350   2.782587   4.124500   5.161963
    17  H    2.159866   1.111842   2.173195   2.715935   4.018768
    18  H    2.159875   1.111851   2.173199   2.715960   4.018810
    19  H    2.760536   2.169961   1.112494   2.100488   2.766952
    20  H    2.760504   2.169948   1.112491   2.100481   2.766920
    21  H    4.064602   2.558600   2.152157   1.032268   2.071919
    22  H    7.425495   6.453324   4.973906   4.228349   2.890399
    23  H    8.557935   7.097627   6.228721   4.793872   4.008853
    24  H   10.718584   9.319774   8.273365   6.908868   5.862484
    25  C   11.729768  10.512679   9.205317   8.060112   6.768942
    26  H    9.777988   8.779923   7.318023   6.474842   5.112159
    27  O   12.518016  11.227976  10.001639   8.767254   7.541088
    28  C   12.452852  11.346607   9.949214   8.940847   7.596644
    29  H   11.878866  10.863838   9.413274   8.523672   7.161547
    30  H   13.130848  12.027340  10.634993   9.627807   8.291874
    31  H   13.130728  12.027247  10.634906   9.627749   8.291821
                    6          7          8          9         10
     6  O    0.000000
     7  N    2.258766   0.000000
     8  C    2.890889   1.439712   0.000000
     9  C    2.856509   2.526363   1.413368   0.000000
    10  C    4.275108   2.434828   1.405275   2.412008   0.000000
    11  C    5.274537   3.732324   2.442512   2.789348   1.395798
    12  C    5.275024   4.290888   2.853041   2.445145   2.439593
    13  C    4.209723   3.794042   2.447117   1.399565   2.785385
    14  H    6.197141   6.975505   8.352068   8.915138   9.370515
    15  H    5.207176   6.400232   7.660030   8.007611   8.817258
    16  H    5.207213   6.400288   7.660106   8.007664   8.817368
    17  H    4.640756   4.911065   6.314494   7.059267   7.214835
    18  H    4.640792   4.911129   6.314576   7.059318   7.214959
    19  H    2.736439   4.050133   5.197160   5.478512   6.420827
    20  H    2.736403   4.050086   5.197090   5.478474   6.420718
    21  H    3.150964   2.554885   3.994036   4.956821   4.787654
    22  H    2.250467   2.835772   2.195282   1.074318   3.412379
    23  H    4.787965   2.640861   2.163004   3.402992   1.083122
    24  H    6.284616   4.567121   3.406353   3.871815   2.132327
    25  C    6.692824   5.788688   4.351966   3.836592   3.800038
    26  H    4.602070   4.639551   3.397732   2.116141   3.861295
    27  O    7.615132   6.428023   5.035655   4.793060   4.175194
    28  C    7.294762   6.800965   5.374876   4.519792   5.098155
    29  H    6.702353   6.540341   5.173568   4.091548   5.192571
    30  H    7.990990   7.488004   6.070571   5.245156   5.739910
    31  H    7.990916   7.487980   6.070555   5.245150   5.739897
                   11         12         13         14         15
    11  C    0.000000
    12  C    1.406469   0.000000
    13  C    2.411230   1.408367   0.000000
    14  H   10.705949  11.158986  10.312828   0.000000
    15  H   10.072869  10.349403   9.375382   1.804710   0.000000
    16  H   10.072992  10.349511   9.375456   1.804710   1.810926
    17  H    8.570011   9.141898   8.442267   2.485369   2.504567
    18  H    8.570145   9.142010   8.442340   2.485384   3.089770
    19  H    7.612704   7.820297   6.839445   3.773331   3.130445
    20  H    7.612583   7.820195   6.839382   3.773300   2.553266
    21  H    6.166087   6.841096   6.300653   4.673339   4.509320
    22  H    3.861388   3.384417   2.102680   8.447070   7.409495
    23  H    2.135656   3.407046   3.868200   9.238131   8.861072
    24  H    1.082948   2.170518   3.404909  11.483776  10.940385
    25  C    2.506600   1.499510   2.555200  12.648832  11.805417
    26  H    3.407107   2.180867   1.077133  10.796448   9.742434
    27  O    2.779661   2.347974   3.637125  13.387068  12.639501
    28  C    3.916249   2.661163   3.120310  13.431664  12.455295
    29  H    4.218648   2.826747   2.746355  12.894326  11.834145
    30  H    4.526171   3.369383   3.874067  14.108056  13.191562
    31  H    4.526165   3.369384   3.874070  14.107936  13.067028
                   16         17         18         19         20
    16  H    0.000000
    17  H    3.089756   0.000000
    18  H    2.504576   1.807780   0.000000
    19  H    2.553305   3.091132   2.506089   0.000000
    20  H    3.130409   2.506087   3.091128   1.811397   0.000000
    21  H    4.509343   2.556086   2.556119   2.874193   2.874185
    22  H    7.409508   6.779438   6.779445   4.907930   4.907945
    23  H    8.861194   7.013510   7.013654   6.606349   6.606226
    24  H   10.940528   9.290434   9.290591   8.525278   8.525136
    25  C   11.805540  10.634914  10.635041   9.265983   9.265866
    26  H    9.742494   9.056432   9.056487   7.232574   7.232528
    27  O   12.639644  11.287997  11.288146  10.118896  10.118759
    28  C   12.455408  11.537139  11.537252   9.916791   9.916687
    29  H   11.834238  11.111439  11.111528   9.320923   9.320842
    30  H   13.067277  12.279561  12.146170  10.521025  10.675074
    31  H   13.191553  12.145969  12.279597  10.675088  10.520817
                   21         22         23         24         25
    21  H    0.000000
    22  H    4.934060   0.000000
    23  H    4.567630   4.332268   0.000000
    24  H    6.860225   4.944255   2.422243   0.000000
    25  C    8.336269   4.657174   4.642090   2.718727   0.000000
    26  H    7.055974   2.352502   4.944352   4.327481   2.817637
    27  O    8.920370   5.706991   4.799731   2.487428   1.222678
    28  C    9.348762   5.087867   6.027682   4.224722   1.507041
    29  H    9.038778   4.453529   6.212278   4.763969   2.207398
    30  H   10.024653   5.798466   6.626299   4.721088   2.144847
    31  H   10.024609   5.798464   6.626283   4.721079   2.144854
                   26         27         28         29         30
    26  H    0.000000
    27  O    4.024203   0.000000
    28  C    2.818704   2.327447   0.000000
    29  H    2.101160   3.272963   1.102253   0.000000
    30  H    3.554779   2.640784   1.110282   1.784945   0.000000
    31  H    3.554788   2.640788   1.110282   1.784945   1.803891
                   31
    31  H    0.000000
 Stoichiometry    C12H15N2O2(1-)
 Framework group  C1[X(C12H15N2O2)]
 Deg. of freedom    87
 Full point group                 C1      NOp   1
 Largest Abelian subgroup         C1      NOp   1
 Largest concise Abelian subgroup C1      NOp   1
                         Standard orientation:                         
 ---------------------------------------------------------------------
 Center     Atomic      Atomic             Coordinates (Angstroms)
 Number     Number       Type             X           Y           Z
 ---------------------------------------------------------------------
      1          6           0       -6.895921   -0.463996    0.000203
      2          6           0       -5.667733    0.441507    0.000057
      3          6           0       -4.372848   -0.379156    0.000012
      4          7           0       -3.206939    0.487520   -0.000089
      5          6           0       -1.938658   -0.012385   -0.000095
      6          8           0       -1.774562   -1.221971   -0.000038
      7          7           0       -0.875282    0.850062   -0.000141
      8          6           0        0.527607    0.526530   -0.000109
      9          6           0        1.048679   -0.787279   -0.000156
     10          6           0        1.443699    1.592163   -0.000026
     11          6           0        2.821137    1.366521    0.000029
     12          6           0        3.342274    0.060163   -0.000002
     13          6           0        2.429959   -1.012767   -0.000100
     14          1           0       -7.816290    0.157187    0.000242
     15          1           0       -6.901081   -1.107526    0.905710
     16          1           0       -6.901222   -1.107635   -0.905216
     17          1           0       -5.696534    1.088361    0.903906
     18          1           0       -5.696663    1.088256   -0.903874
     19          1           0       -4.349261   -1.024795   -0.905657
     20          1           0       -4.349159   -1.024705    0.905740
     21          1           0       -3.343263    1.510747   -0.000129
     22          1           0        0.431535   -1.666649   -0.000234
     23          1           0        1.088758    2.615477    0.000003
     24          1           0        3.479538    2.226336    0.000106
     25          6           0        4.829196   -0.133727    0.000080
     26          1           0        2.754234   -2.039929   -0.000125
     27          8           0        5.552741    0.851881    0.000163
     28          6           0        5.515801   -1.475273    0.000086
     29          1           0        4.833694   -2.341121    0.000013
     30          1           0        6.158393   -1.555057   -0.901821
     31          1           0        6.158278   -1.555119    0.902070
 ---------------------------------------------------------------------
 Rotational constants (GHZ):      2.4918919      0.1524814      0.1442296
 General basis read from cards:  (6D, 7F)
 There are   334 symmetry adapted cartesian basis functions of A   symmetry.
 There are   334 symmetry adapted basis functions of A   symmetry.
   334 basis functions,   572 primitive gaussians,   334 cartesian basis functions
    59 alpha electrons       59 beta electrons
       nuclear repulsion energy       985.1626656546 Hartrees.
 NAtoms=   31 NActive=   31 NUniq=   31 SFac= 1.00D+00 NAtFMM=   60 NAOKFM=F Big=F
 Integral buffers will be    131072 words long.
 Raffenetti 2 integral format.
 Two-electron integral symmetry is turned on.
 One-electron integrals computed using PRISM.
 NBasis=   334 RedAO= T EigKep=  1.49D-06  NBF=   334
 NBsUse=   333 1.00D-06 EigRej=  7.93D-07 NBFU=   333
 ExpMin= 4.38D-02 ExpMax= 5.48D+03 ExpMxC= 8.25D+02 IAcc=3 IRadAn=         5 AccDes= 0.00D+00
 Harris functional with IExCor= 1009 and IRadAn=       5 diagonalized for initial guess.
 HarFok:  IExCor= 1009 AccDes= 0.00D+00 IRadAn=         5 IDoV= 1 UseB2=F ITyADJ=14
 ICtDFT=  3500011 ScaDFX=  1.000000  1.000000  1.000000  1.000000
 FoFCou: FMM=F IPFlag=           0 FMFlag=      100000 FMFlg1=           0
         NFxFlg=           0 DoJE=T BraDBF=F KetDBF=T FulRan=T
         wScrn=  0.000000 ICntrl=     500 IOpCl=  0 I1Cent=   200000004 NGrid=           0
         NMat0=    1 NMatS0=      1 NMatT0=    0 NMatD0=    1 NMtDS0=    0 NMtDT0=    0
 Petite list used in FoFCou.
 Requested convergence on RMS density matrix=1.00D-08 within 128 cycles.
 Requested convergence on MAX density matrix=1.00D-06.
 Requested convergence on             energy=1.00D-06.
 No special actions if energy rises.
 SCF Done:  E(RM062X) =  -726.032077724     A.U. after   16 cycles
            NFock= 16  Conv=0.83D-08     -V/T= 2.0091
 DoSCS=F DFT=T ScalE2(SS,OS)=  1.000000  1.000000
 Range of M.O.s used for correlation:     1   333
 NBasis=   334 NAE=    59 NBE=    59 NFC=     0 NFV=     0
 NROrb=    333 NOA=    59 NOB=    59 NVA=   274 NVB=   274

 **** Warning!!: The largest alpha MO coefficient is  0.12271370D+03

 Symmetrizing basis deriv contribution to polar:
 IMax=3 JMax=2 DiffMx= 0.00D+00
 G2DrvN: will do    32 centers at a time, making    1 passes.
 Calling FoFCou, ICntrl=  3107 FMM=F I1Cent=   0 AccDes= 0.00D+00.
 End of G2Drv F.D. properties file   721 does not exist.
 End of G2Drv F.D. properties file   722 does not exist.
 End of G2Drv F.D. properties file   788 does not exist.
          IDoAtm=1111111111111111111111111111111
          Differentiating once with respect to nuclear coordinates.
          There are    96 degrees of freedom in the 1st order CPHF.  IDoFFX=6 NUNeed=     0.
     90 vectors produced by pass  0 Test12= 1.68D-14 1.04D-09 XBig12= 2.19D-01 1.02D-01.
 AX will form    90 AO Fock derivatives at one time.
     90 vectors produced by pass  1 Test12= 1.68D-14 1.04D-09 XBig12= 1.85D-02 2.74D-02.
     90 vectors produced by pass  2 Test12= 1.68D-14 1.04D-09 XBig12= 4.89D-04 3.46D-03.
     90 vectors produced by pass  3 Test12= 1.68D-14 1.04D-09 XBig12= 3.60D-06 2.10D-04.
     90 vectors produced by pass  4 Test12= 1.68D-14 1.04D-09 XBig12= 1.99D-08 1.62D-05.
     90 vectors produced by pass  5 Test12= 1.68D-14 1.04D-09 XBig12= 8.69D-11 1.11D-06.
     70 vectors produced by pass  6 Test12= 1.68D-14 1.04D-09 XBig12= 3.44D-13 6.06D-08.
     30 vectors produced by pass  7 Test12= 1.68D-14 1.04D-09 XBig12= 2.07D-15 5.40D-09.
     20 vectors produced by pass  8 Test12= 1.68D-14 1.04D-09 XBig12= 2.20D-15 4.56D-09.
     20 vectors produced by pass  9 Test12= 1.68D-14 1.04D-09 XBig12= 3.60D-15 6.33D-09.
     16 vectors produced by pass 10 Test12= 1.68D-14 1.04D-09 XBig12= 2.12D-15 4.94D-09.
     15 vectors produced by pass 11 Test12= 1.68D-14 1.04D-09 XBig12= 3.32D-15 5.37D-09.
     13 vectors produced by pass 12 Test12= 1.68D-14 1.04D-09 XBig12= 3.52D-15 5.84D-09.
     12 vectors produced by pass 13 Test12= 1.68D-14 1.04D-09 XBig12= 3.11D-15 5.02D-09.
     12 vectors produced by pass 14 Test12= 1.68D-14 1.04D-09 XBig12= 5.67D-15 6.42D-09.
     12 vectors produced by pass 15 Test12= 1.68D-14 1.04D-09 XBig12= 6.51D-15 6.97D-09.
     11 vectors produced by pass 16 Test12= 1.68D-14 1.04D-09 XBig12= 4.98D-15 5.14D-09.
      9 vectors produced by pass 17 Test12= 1.68D-14 1.04D-09 XBig12= 3.16D-15 5.06D-09.
      6 vectors produced by pass 18 Test12= 1.68D-14 1.04D-09 XBig12= 1.82D-15 3.72D-09.
      5 vectors produced by pass 19 Test12= 1.68D-14 1.04D-09 XBig12= 1.17D-15 3.35D-09.
      5 vectors produced by pass 20 Test12= 1.68D-14 1.04D-09 XBig12= 3.51D-15 4.74D-09.
      5 vectors produced by pass 21 Test12= 1.68D-14 1.04D-09 XBig12= 3.01D-15 4.99D-09.
      5 vectors produced by pass 22 Test12= 1.68D-14 1.04D-09 XBig12= 1.42D-15 3.07D-09.
      5 vectors produced by pass 23 Test12= 1.68D-14 1.04D-09 XBig12= 3.95D-15 6.90D-09.
      5 vectors produced by pass 24 Test12= 1.68D-14 1.04D-09 XBig12= 4.19D-15 5.68D-09.
      5 vectors produced by pass 25 Test12= 1.68D-14 1.04D-09 XBig12= 2.72D-15 4.63D-09.
      5 vectors produced by pass 26 Test12= 1.68D-14 1.04D-09 XBig12= 4.44D-15 7.59D-09.
      4 vectors produced by pass 27 Test12= 1.68D-14 1.04D-09 XBig12= 3.39D-15 6.84D-09.
      4 vectors produced by pass 28 Test12= 1.68D-14 1.04D-09 XBig12= 3.50D-15 5.35D-09.
      3 vectors produced by pass 29 Test12= 1.68D-14 1.04D-09 XBig12= 7.34D-16 2.05D-09.
      3 vectors produced by pass 30 Test12= 1.68D-14 1.04D-09 XBig12= 2.27D-15 3.65D-09.
      3 vectors produced by pass 31 Test12= 1.68D-14 1.04D-09 XBig12= 3.38D-15 5.61D-09.
      2 vectors produced by pass 32 Test12= 1.68D-14 1.04D-09 XBig12= 1.31D-15 4.90D-09.
 InvSVY:  IOpt=1 It=  1 EMax= 6.11D-16
 Solved reduced A of dimension   845 with    96 vectors.
 End of Minotr F.D. properties file   721 does not exist.
 End of Minotr F.D. properties file   722 does not exist.
 End of Minotr F.D. properties file   788 does not exist.

 **********************************************************************

            Population analysis using the SCF density.

 **********************************************************************

 Orbital symmetries:
       Occupied  (A) (A) (A) (A) (A) (A) (A) (A) (A) (A) (A) (A)
                 (A) (A) (A) (A) (A) (A) (A) (A) (A) (A) (A) (A)
                 (A) (A) (A) (A) (A) (A) (A) (A) (A) (A) (A) (A)
                 (A) (A) (A) (A) (A) (A) (A) (A) (A) (A) (A) (A)
                 (A) (A) (A) (A) (A) (A) (A) (A) (A) (A) (A)
       Virtual   (A) (A) (A) (A) (A) (A) (A) (A) (A) (A) (A) (A)
                 (A) (A) (A) (A) (A) (A) (A) (A) (A) (A) (A) (A)
                 (A) (A) (A) (A) (A) (A) (A) (A) (A) (A) (A) (A)
                 (A) (A) (A) (A) (A) (A) (A) (A) (A) (A) (A) (A)
                 (A) (A) (A) (A) (A) (A) (A) (A) (A) (A) (A) (A)
                 (A) (A) (A) (A) (A) (A) (A) (A) (A) (A) (A) (A)
                 (A) (A) (A) (A) (A) (A) (A) (A) (A) (A) (A) (A)
                 (A) (A) (A) (A) (A) (A) (A) (A) (A) (A) (A) (A)
                 (A) (A) (A) (A) (A) (A) (A) (A) (A) (A) (A) (A)
                 (A) (A) (A) (A) (A) (A) (A) (A) (A) (A) (A) (A)
                 (A) (A) (A) (A) (A) (A) (A) (A) (A) (A) (A) (A)
                 (A) (A) (A) (A) (A) (A) (A) (A) (A) (A) (A) (A)
                 (A) (A) (A) (A) (A) (A) (A) (A) (A) (A) (A) (A)
                 (A) (A) (A) (A) (A) (A) (A) (A) (A) (A) (A) (A)
                 (A) (A) (A) (A) (A) (A) (A) (A) (A) (A) (A) (A)
                 (A) (A) (A) (A) (A) (A) (A) (A) (A) (A) (A) (A)
                 (A) (A) (A) (A) (A) (A) (A) (A) (A) (A) (A) (A)
                 (A) (A) (A) (A) (A) (A) (A) (A) (A) (A) (A) (A)
                 (A) (A) (A) (A) (A) (A) (A) (A) (A) (A) (A) (A)
                 (A) (A) (A) (A) (A) (A) (A) (A) (A) (A) (A) (A)
                 (A) (A) (A) (A) (A) (A) (A) (A) (A) (A) (A) (A)
                 (A) (A) (A) (A) (A) (A) (A) (A) (A) (A) (A) (A)
                 (A) (A) (A) (A) (A) (A) (A) (A) (A) (A)
 The electronic state is 1-A.
 Alpha  occ. eigenvalues --  -19.50491 -19.43182 -14.63843 -14.55650 -10.51868
 Alpha  occ. eigenvalues --  -10.49792 -10.47226 -10.46758 -10.46455 -10.45055
 Alpha  occ. eigenvalues --  -10.45047 -10.42710 -10.42319 -10.42038 -10.40839
 Alpha  occ. eigenvalues --  -10.39943  -1.03774  -1.00357  -0.88275  -0.83288
 Alpha  occ. eigenvalues --   -0.79284  -0.77795  -0.73323  -0.70277  -0.69206
 Alpha  occ. eigenvalues --   -0.66043  -0.58615  -0.56783  -0.54912  -0.51296
 Alpha  occ. eigenvalues --   -0.49983  -0.46218  -0.45619  -0.43886  -0.41223
 Alpha  occ. eigenvalues --   -0.40499  -0.40134  -0.38480  -0.38403  -0.37983
 Alpha  occ. eigenvalues --   -0.36041  -0.35345  -0.34356  -0.33976  -0.33441
 Alpha  occ. eigenvalues --   -0.32762  -0.32046  -0.30554  -0.30438  -0.29829
 Alpha  occ. eigenvalues --   -0.28372  -0.26547  -0.20397  -0.19694  -0.19243
 Alpha  occ. eigenvalues --   -0.17280  -0.16757  -0.12220  -0.08664
 Alpha virt. eigenvalues --    0.09507   0.10560   0.10889   0.10970   0.13074
 Alpha virt. eigenvalues --    0.13283   0.13707   0.14005   0.14866   0.14967
 Alpha virt. eigenvalues --    0.15522   0.15795   0.16080   0.16149   0.16768
 Alpha virt. eigenvalues --    0.17486   0.17710   0.18060   0.18104   0.18985
 Alpha virt. eigenvalues --    0.19690   0.20367   0.21035   0.21292   0.21838
 Alpha virt. eigenvalues --    0.22986   0.23163   0.24064   0.24656   0.25334
 Alpha virt. eigenvalues --    0.26125   0.26463   0.27061   0.27547   0.28584
 Alpha virt. eigenvalues --    0.28802   0.28901   0.29126   0.29999   0.30258
 Alpha virt. eigenvalues --    0.30521   0.31270   0.31839   0.32231   0.32570
 Alpha virt. eigenvalues --    0.33112   0.33866   0.34014   0.34105   0.34772
 Alpha virt. eigenvalues --    0.35341   0.36528   0.37013   0.37313   0.37539
 Alpha virt. eigenvalues --    0.37689   0.37896   0.38608   0.39234   0.39242
 Alpha virt. eigenvalues --    0.40094   0.40104   0.40534   0.40923   0.41451
 Alpha virt. eigenvalues --    0.41652   0.42573   0.43406   0.43537   0.43907
 Alpha virt. eigenvalues --    0.44266   0.44760   0.45161   0.46072   0.46898
 Alpha virt. eigenvalues --    0.47111   0.48036   0.48621   0.49055   0.49863
 Alpha virt. eigenvalues --    0.50331   0.50838   0.51741   0.52567   0.52807
 Alpha virt. eigenvalues --    0.54244   0.55790   0.55863   0.57053   0.59614
 Alpha virt. eigenvalues --    0.61088   0.61971   0.64995   0.66968   0.70117
 Alpha virt. eigenvalues --    0.71341   0.74589   0.77027   0.77483   0.79729
 Alpha virt. eigenvalues --    0.80429   0.82587   0.83327   0.83989   0.85010
 Alpha virt. eigenvalues --    0.85942   0.87234   0.88052   0.89882   0.90023
 Alpha virt. eigenvalues --    0.90445   0.90514   0.90755   0.93927   0.95277
 Alpha virt. eigenvalues --    0.95617   0.96478   0.97328   0.97489   0.98228
 Alpha virt. eigenvalues --    0.98983   0.99177   1.00019   1.01989   1.03075
 Alpha virt. eigenvalues --    1.06520   1.08179   1.10027   1.10293   1.10616
 Alpha virt. eigenvalues --    1.10767   1.13582   1.14207   1.15463   1.16552
 Alpha virt. eigenvalues --    1.16967   1.18404   1.18765   1.20864   1.22380
 Alpha virt. eigenvalues --    1.23398   1.24449   1.24975   1.25998   1.26528
 Alpha virt. eigenvalues --    1.27034   1.27059   1.28383   1.29556   1.30949
 Alpha virt. eigenvalues --    1.32282   1.32717   1.37601   1.39534   1.40309
 Alpha virt. eigenvalues --    1.43899   1.44784   1.45693   1.46155   1.47433
 Alpha virt. eigenvalues --    1.48877   1.50426   1.50448   1.52094   1.52336
 Alpha virt. eigenvalues --    1.54175   1.54543   1.56475   1.57693   1.58293
 Alpha virt. eigenvalues --    1.59733   1.60552   1.61533   1.61708   1.64197
 Alpha virt. eigenvalues --    1.65008   1.65845   1.67913   1.68346   1.69190
 Alpha virt. eigenvalues --    1.70300   1.72144   1.74097   1.77198   1.85931
 Alpha virt. eigenvalues --    1.89225   1.92119   1.93058   1.93504   1.95961
 Alpha virt. eigenvalues --    1.97312   1.98276   2.00424   2.01465   2.03218
 Alpha virt. eigenvalues --    2.05015   2.06487   2.07699   2.08016   2.09704
 Alpha virt. eigenvalues --    2.13252   2.13804   2.13940   2.14312   2.16517
 Alpha virt. eigenvalues --    2.19013   2.19398   2.20530   2.22220   2.25139
 Alpha virt. eigenvalues --    2.26423   2.26974   2.27385   2.31424   2.31519
 Alpha virt. eigenvalues --    2.31822   2.32046   2.35310   2.38414   2.39806
 Alpha virt. eigenvalues --    2.40599   2.43189   2.44142   2.44355   2.46282
 Alpha virt. eigenvalues --    2.48071   2.48962   2.49856   2.52060   2.54843
 Alpha virt. eigenvalues --    2.55732   2.60969   2.60989   2.67644   2.70053
 Alpha virt. eigenvalues --    2.72587   2.75668   2.77789   2.78927   2.80934
 Alpha virt. eigenvalues --    2.83586   2.85452   2.87176   2.91236   2.92595
 Alpha virt. eigenvalues --    2.92858   2.96533   2.99574   3.03845   3.11575
 Alpha virt. eigenvalues --    3.14037   3.20585   3.28096   3.30485   3.36060
 Alpha virt. eigenvalues --    3.44435   3.50574   3.59272   4.29398   4.35605
 Alpha virt. eigenvalues --    4.37271   4.40807   4.43529   4.47075   4.50505
 Alpha virt. eigenvalues --    4.56689   4.57371   4.59663   4.64568   4.65302
 Alpha virt. eigenvalues --    4.71372   4.76337   4.83348   4.94735
          Condensed to atoms (all electrons):
               1          2          3          4          5          6
     1  C    5.648379  -0.122994   0.115969  -0.011511  -0.095883  -0.004674
     2  C   -0.122994   6.662701  -1.119112  -0.088484   0.389373   0.041016
     3  C    0.115969  -1.119112   8.508812   0.409912  -1.189025  -0.154368
     4  N   -0.011511  -0.088484   0.409912   8.008055   0.358606  -0.271264
     5  C   -0.095883   0.389373  -1.189025   0.358606   7.359308   0.534487
     6  O   -0.004674   0.041016  -0.154368  -0.271264   0.534487   8.577549
     7  N   -0.005899   0.042341  -0.208291  -0.400211   0.397108  -0.110872
     8  C   -0.015131   0.075454  -0.759873  -0.402783  -1.237415  -0.369029
     9  C    0.002617  -0.036464   0.163480   0.197439   0.916146   0.484915
    10  C   -0.003524   0.034685  -0.272440  -0.250690  -1.777292  -0.186068
    11  C    0.000429  -0.003126   0.051184   0.037217   0.424590   0.028787
    12  C   -0.000203   0.000976  -0.031273  -0.014043  -0.296777   0.030334
    13  C   -0.000054   0.000028  -0.029109   0.006985  -0.266245   0.063764
    14  H    0.418623  -0.108536   0.038917   0.000594  -0.001813   0.000007
    15  H    0.424605  -0.064653  -0.011280  -0.000065  -0.003177  -0.000064
    16  H    0.424600  -0.064656  -0.011273  -0.000065  -0.003176  -0.000064
    17  H   -0.033271   0.417411  -0.061145   0.002968  -0.013603  -0.000297
    18  H   -0.033260   0.417407  -0.061144   0.002968  -0.013610  -0.000297
    19  H    0.001110  -0.058695   0.434596  -0.064770  -0.007885  -0.000090
    20  H    0.001140  -0.058719   0.434684  -0.064775  -0.007958  -0.000090
    21  H   -0.005799   0.018849  -0.166082   0.218282   0.101266   0.012555
    22  H    0.000009  -0.000126   0.006587   0.001469   0.051869  -0.007728
    23  H   -0.000001   0.000029  -0.001434  -0.001275  -0.035659   0.000139
    24  H    0.000000  -0.000000   0.000043   0.000022   0.005432  -0.000000
    25  C   -0.000012   0.000051  -0.004969  -0.002428  -0.167337   0.004196
    26  H   -0.000000   0.000002  -0.000146  -0.000029  -0.008565   0.000420
    27  O   -0.000000   0.000000  -0.000003  -0.000002  -0.000330   0.000004
    28  C    0.000001   0.000003   0.000301   0.000126   0.010944  -0.000162
    29  H   -0.000000   0.000000  -0.000002  -0.000000  -0.000402   0.000002
    30  H    0.000000  -0.000000   0.000000   0.000000   0.000027   0.000000
    31  H    0.000000  -0.000000   0.000000   0.000000   0.000026   0.000000
               7          8          9         10         11         12
     1  C   -0.005899  -0.015131   0.002617  -0.003524   0.000429  -0.000203
     2  C    0.042341   0.075454  -0.036464   0.034685  -0.003126   0.000976
     3  C   -0.208291  -0.759873   0.163480  -0.272440   0.051184  -0.031273
     4  N   -0.400211  -0.402783   0.197439  -0.250690   0.037217  -0.014043
     5  C    0.397108  -1.237415   0.916146  -1.777292   0.424590  -0.296777
     6  O   -0.110872  -0.369029   0.484915  -0.186068   0.028787   0.030334
     7  N    7.531450   0.753881  -0.369527  -0.249270   0.173234  -0.026800
     8  C    0.753881  10.549015  -0.977352   0.049992   0.366735  -0.950983
     9  C   -0.369527  -0.977352  10.216482  -5.737434   1.481461  -0.170517
    10  C   -0.249270   0.049992  -5.737434  17.712019  -5.657576   0.563573
    11  C    0.173234   0.366735   1.481461  -5.657576  12.999193  -0.682808
    12  C   -0.026800  -0.950983  -0.170517   0.563573  -0.682808  12.450965
    13  C   -0.046882  -0.890673  -0.104347   2.197257  -3.879465  -0.593614
    14  H    0.000008  -0.000043   0.000005  -0.000003  -0.000000  -0.000000
    15  H    0.000004  -0.000070  -0.000026  -0.000001   0.000000  -0.000000
    16  H    0.000004  -0.000070  -0.000026  -0.000001   0.000000  -0.000000
    17  H   -0.000504  -0.001082  -0.000093  -0.000015   0.000011  -0.000005
    18  H   -0.000504  -0.001082  -0.000093  -0.000015   0.000011  -0.000005
    19  H   -0.000992  -0.004199   0.001904  -0.000865   0.000008  -0.000003
    20  H   -0.000992  -0.004208   0.001901  -0.000868   0.000008  -0.000003
    21  H    0.041089   0.030987  -0.006154   0.007588  -0.000526   0.000256
    22  H   -0.006482  -0.044481   0.380351  -0.009284  -0.003623   0.003057
    23  H   -0.011328   0.088458   0.024612   0.361854  -0.142899   0.012821
    24  H    0.001032   0.047435   0.016765  -0.159389   0.376296   0.056045
    25  C   -0.016686  -0.336797  -0.743465   0.436215  -0.265409  -4.113479
    26  H   -0.001450   0.001677  -0.130209  -0.034511   0.091156   0.067404
    27  O   -0.000161   0.020231  -0.018115   0.036704   0.250886  -0.331798
    28  C    0.001091   0.005742   0.012840  -0.052957  -0.021338  -0.645162
    29  H   -0.000016  -0.005461  -0.000456   0.008400  -0.023053   0.070452
    30  H    0.000000   0.001130   0.004350  -0.003979  -0.003245   0.018183
    31  H    0.000000   0.001128   0.004345  -0.003976  -0.003254   0.018142
              13         14         15         16         17         18
     1  C   -0.000054   0.418623   0.424605   0.424600  -0.033271  -0.033260
     2  C    0.000028  -0.108536  -0.064653  -0.064656   0.417411   0.417407
     3  C   -0.029109   0.038917  -0.011280  -0.011273  -0.061145  -0.061144
     4  N    0.006985   0.000594  -0.000065  -0.000065   0.002968   0.002968
     5  C   -0.266245  -0.001813  -0.003177  -0.003176  -0.013603  -0.013610
     6  O    0.063764   0.000007  -0.000064  -0.000064  -0.000297  -0.000297
     7  N   -0.046882   0.000008   0.000004   0.000004  -0.000504  -0.000504
     8  C   -0.890673  -0.000043  -0.000070  -0.000070  -0.001082  -0.001082
     9  C   -0.104347   0.000005  -0.000026  -0.000026  -0.000093  -0.000093
    10  C    2.197257  -0.000003  -0.000001  -0.000001  -0.000015  -0.000015
    11  C   -3.879465  -0.000000   0.000000   0.000000   0.000011   0.000011
    12  C   -0.593614  -0.000000  -0.000000  -0.000000  -0.000005  -0.000005
    13  C    9.100138   0.000000  -0.000001  -0.000001  -0.000005  -0.000005
    14  H    0.000000   0.522268  -0.026673  -0.026673  -0.003149  -0.003149
    15  H   -0.000001  -0.026673   0.504980  -0.028743  -0.004933   0.004138
    16  H   -0.000001  -0.026673  -0.028743   0.504978   0.004138  -0.004933
    17  H   -0.000005  -0.003149  -0.004933   0.004138   0.524180  -0.034709
    18  H   -0.000005  -0.003149   0.004138  -0.004933  -0.034709   0.524183
    19  H    0.000118  -0.000076  -0.000349   0.002830   0.004327  -0.006383
    20  H    0.000117  -0.000076   0.002830  -0.000349  -0.006383   0.004328
    21  H   -0.000333  -0.000002  -0.000000  -0.000000   0.000372   0.000372
    22  H   -0.070144   0.000000   0.000000   0.000000  -0.000000  -0.000000
    23  H   -0.002338  -0.000000   0.000000   0.000000  -0.000000  -0.000000
    24  H   -0.000759  -0.000000   0.000000   0.000000   0.000000   0.000000
    25  C    1.545765  -0.000000  -0.000000  -0.000000  -0.000000  -0.000000
    26  H    0.269824  -0.000000   0.000000   0.000000   0.000000   0.000000
    27  O   -0.153355  -0.000000  -0.000000  -0.000000  -0.000000  -0.000000
    28  C   -0.111890  -0.000000   0.000000   0.000000   0.000000   0.000000
    29  H    0.010572   0.000000   0.000000   0.000000   0.000000   0.000000
    30  H   -0.004388   0.000000   0.000000   0.000000  -0.000000   0.000000
    31  H   -0.004374   0.000000   0.000000   0.000000   0.000000  -0.000000
              19         20         21         22         23         24
     1  C    0.001110   0.001140  -0.005799   0.000009  -0.000001   0.000000
     2  C   -0.058695  -0.058719   0.018849  -0.000126   0.000029  -0.000000
     3  C    0.434596   0.434684  -0.166082   0.006587  -0.001434   0.000043
     4  N   -0.064770  -0.064775   0.218282   0.001469  -0.001275   0.000022
     5  C   -0.007885  -0.007958   0.101266   0.051869  -0.035659   0.005432
     6  O   -0.000090  -0.000090   0.012555  -0.007728   0.000139  -0.000000
     7  N   -0.000992  -0.000992   0.041089  -0.006482  -0.011328   0.001032
     8  C   -0.004199  -0.004208   0.030987  -0.044481   0.088458   0.047435
     9  C    0.001904   0.001901  -0.006154   0.380351   0.024612   0.016765
    10  C   -0.000865  -0.000868   0.007588  -0.009284   0.361854  -0.159389
    11  C    0.000008   0.000008  -0.000526  -0.003623  -0.142899   0.376296
    12  C   -0.000003  -0.000003   0.000256   0.003057   0.012821   0.056045
    13  C    0.000118   0.000117  -0.000333  -0.070144  -0.002338  -0.000759
    14  H   -0.000076  -0.000076  -0.000002   0.000000  -0.000000  -0.000000
    15  H   -0.000349   0.002830  -0.000000   0.000000   0.000000   0.000000
    16  H    0.002830  -0.000349  -0.000000   0.000000   0.000000   0.000000
    17  H    0.004327  -0.006383   0.000372  -0.000000  -0.000000   0.000000
    18  H   -0.006383   0.004328   0.000372  -0.000000  -0.000000   0.000000
    19  H    0.537480  -0.043389   0.002636  -0.000001  -0.000000  -0.000000
    20  H   -0.043389   0.537476   0.002636  -0.000001  -0.000000  -0.000000
    21  H    0.002636   0.002636   0.335156  -0.000000   0.000005  -0.000000
    22  H   -0.000001  -0.000001  -0.000000   0.459099  -0.000109   0.000011
    23  H   -0.000000  -0.000000   0.000005  -0.000109   0.513902  -0.004199
    24  H   -0.000000  -0.000000  -0.000000   0.000011  -0.004199   0.494953
    25  C   -0.000000  -0.000000   0.000010   0.000911   0.008949  -0.056527
    26  H   -0.000000  -0.000000   0.000000  -0.005172   0.000017  -0.000138
    27  O   -0.000000  -0.000000   0.000000   0.000030   0.000099   0.004357
    28  C    0.000000   0.000000  -0.000000   0.000842  -0.000084   0.007840
    29  H    0.000000   0.000000  -0.000000  -0.000007   0.000000   0.000005
    30  H   -0.000000   0.000000  -0.000000  -0.000000  -0.000000  -0.000005
    31  H    0.000000  -0.000000  -0.000000  -0.000000  -0.000000  -0.000005
              25         26         27         28         29         30
     1  C   -0.000012  -0.000000  -0.000000   0.000001  -0.000000   0.000000
     2  C    0.000051   0.000002   0.000000   0.000003   0.000000  -0.000000
     3  C   -0.004969  -0.000146  -0.000003   0.000301  -0.000002   0.000000
     4  N   -0.002428  -0.000029  -0.000002   0.000126  -0.000000   0.000000
     5  C   -0.167337  -0.008565  -0.000330   0.010944  -0.000402   0.000027
     6  O    0.004196   0.000420   0.000004  -0.000162   0.000002   0.000000
     7  N   -0.016686  -0.001450  -0.000161   0.001091  -0.000016   0.000000
     8  C   -0.336797   0.001677   0.020231   0.005742  -0.005461   0.001130
     9  C   -0.743465  -0.130209  -0.018115   0.012840  -0.000456   0.004350
    10  C    0.436215  -0.034511   0.036704  -0.052957   0.008400  -0.003979
    11  C   -0.265409   0.091156   0.250886  -0.021338  -0.023053  -0.003245
    12  C   -4.113479   0.067404  -0.331798  -0.645162   0.070452   0.018183
    13  C    1.545765   0.269824  -0.153355  -0.111890   0.010572  -0.004388
    14  H   -0.000000  -0.000000  -0.000000  -0.000000   0.000000   0.000000
    15  H   -0.000000   0.000000  -0.000000   0.000000   0.000000   0.000000
    16  H   -0.000000   0.000000  -0.000000   0.000000   0.000000   0.000000
    17  H   -0.000000   0.000000  -0.000000   0.000000   0.000000  -0.000000
    18  H   -0.000000   0.000000  -0.000000   0.000000   0.000000   0.000000
    19  H   -0.000000  -0.000000  -0.000000   0.000000   0.000000  -0.000000
    20  H   -0.000000  -0.000000  -0.000000   0.000000   0.000000   0.000000
    21  H    0.000010   0.000000   0.000000  -0.000000  -0.000000  -0.000000
    22  H    0.000911  -0.005172   0.000030   0.000842  -0.000007  -0.000000
    23  H    0.008949   0.000017   0.000099  -0.000084   0.000000  -0.000000
    24  H   -0.056527  -0.000138   0.004357   0.007840   0.000005  -0.000005
    25  C    9.772423   0.049908   0.440039  -0.263134  -0.132803  -0.099655
    26  H    0.049908   0.555237  -0.000002  -0.022555   0.003301  -0.000010
    27  O    0.440039  -0.000002   8.346315  -0.130785   0.010375  -0.005016
    28  C   -0.263134  -0.022555  -0.130785   6.687329   0.402735   0.438686
    29  H   -0.132803   0.003301   0.010375   0.402735   0.509964  -0.028212
    30  H   -0.099655  -0.000010  -0.005016   0.438686  -0.028212   0.480488
    31  H   -0.099602  -0.000010  -0.005017   0.438676  -0.028212  -0.022103
              31
     1  C    0.000000
     2  C   -0.000000
     3  C    0.000000
     4  N    0.000000
     5  C    0.000026
     6  O    0.000000
     7  N    0.000000
     8  C    0.001128
     9  C    0.004345
    10  C   -0.003976
    11  C   -0.003254
    12  C    0.018142
    13  C   -0.004374
    14  H    0.000000
    15  H    0.000000
    16  H    0.000000
    17  H    0.000000
    18  H   -0.000000
    19  H    0.000000
    20  H   -0.000000
    21  H   -0.000000
    22  H   -0.000000
    23  H   -0.000000
    24  H   -0.000005
    25  C   -0.099602
    26  H   -0.000010
    27  O   -0.005017
    28  C    0.438676
    29  H   -0.028212
    30  H   -0.022103
    31  H    0.480485
 Mulliken charges:
               1
     1  C   -0.705265
     2  C   -0.374762
     3  C   -0.083515
     4  N   -0.672250
     5  C    0.576968
     6  O   -0.673110
     7  N   -0.484375
     8  C    0.008866
     9  C    0.384663
    10  C   -1.008128
    11  C    0.405112
    12  C    0.565264
    13  C   -1.036586
    14  H    0.189770
    15  H    0.203477
    16  H    0.203478
    17  H    0.205786
    18  H    0.205783
    19  H    0.202688
    20  H    0.202690
    21  H    0.406838
    22  H    0.242919
    23  H    0.188444
    24  H    0.210785
    25  C    0.043838
    26  H    0.163851
    27  O   -0.464457
    28  C   -0.759091
    29  H    0.202817
    30  H    0.223750
    31  H    0.223751
 Sum of Mulliken charges =  -1.00000
 Mulliken charges with hydrogens summed into heavy atoms:
               1
     1  C   -0.108541
     2  C    0.036807
     3  C    0.321863
     4  N   -0.265412
     5  C    0.576968
     6  O   -0.673110
     7  N   -0.484375
     8  C    0.008866
     9  C    0.627582
    10  C   -0.819684
    11  C    0.615898
    12  C    0.565264
    13  C   -0.872736
    25  C    0.043838
    27  O   -0.464457
    28  C   -0.108773
 APT charges:
               1
     1  C   -2.656738
     2  C   -0.445649
     3  C   -0.179243
     4  N   -0.162856
     5  C    0.571826
     6  O   -0.701045
     7  N   -0.836889
     8  C   -1.073417
     9  C   -0.397919
    10  C   -0.328601
    11  C   -0.408630
    12  C    0.799607
    13  C   -1.028786
    14  H    0.996196
    15  H    0.374017
    16  H    0.374091
    17  H    0.414497
    18  H    0.414550
    19  H    0.337011
    20  H    0.336968
    21  H    0.653253
    22  H    0.411473
    23  H    0.497620
    24  H    0.783404
    25  C    0.310819
    26  H    0.523419
    27  O   -0.166882
    28  C   -2.142463
    29  H    0.112171
    30  H    0.809116
    31  H    0.809078
 Sum of APT charges =  -1.00000
 APT charges with hydrogens summed into heavy atoms:
               1
     1  C   -0.912434
     2  C    0.383399
     3  C    0.494736
     4  N    0.490397
     5  C    0.571826
     6  O   -0.701045
     7  N   -0.836889
     8  C   -1.073417
     9  C    0.013555
    10  C    0.169019
    11  C    0.374774
    12  C    0.799607
    13  C   -0.505367
    25  C    0.310819
    27  O   -0.166882
    28  C   -0.412099
 Electronic spatial extent (au):  <R**2>=           7308.5377
 Charge=             -1.0000 electrons
 Dipole moment (field-independent basis, Debye):
    X=             -4.4789    Y=             -1.3948    Z=              0.0001  Tot=              4.6910
 Quadrupole moment (field-independent basis, Debye-Ang):
   XX=           -148.1472   YY=           -105.8838   ZZ=           -102.8341
   XY=            -17.9108   XZ=             -0.0014   YZ=              0.0002
 Traceless Quadrupole moment (field-independent basis, Debye-Ang):
   XX=            -29.1922   YY=             13.0712   ZZ=             16.1209
   XY=            -17.9108   XZ=             -0.0014   YZ=              0.0002
 Octapole moment (field-independent basis, Debye-Ang**2):
  XXX=           -229.7655  YYY=              4.0103  ZZZ=              0.0025  XYY=              3.3514
  XXY=            -55.6638  XXZ=             -0.0093  XZZ=             -3.9233  YZZ=             -3.8376
  YYZ=              0.0003  XYZ=             -0.0024
 Hexadecapole moment (field-independent basis, Debye-Ang**3):
 XXXX=         -11229.9138 YYYY=           -698.0736 ZZZZ=           -150.2115 XXXY=           -491.2783
 XXXZ=             -0.0361 YYYX=             -4.0624 YYYZ=              0.0037 ZZZX=              0.0051
 ZZZY=              0.0000 XXYY=          -1742.4000 XXZZ=          -1576.0744 YYZZ=           -150.6489
 XXYZ=             -0.0079 YYXZ=              0.0020 ZZXY=              5.1106
 N-N= 9.851626656546D+02 E-N=-3.675319841075D+03  KE= 7.195027363156D+02
  Exact polarizability:   0.000   0.000   0.000   0.000   0.000   0.000
 Approx polarizability: 326.828  -0.542 210.731   0.007   0.002 139.354
 Calling FoFJK, ICntrl=    100147 FMM=F ISym2X=0 I1Cent= 0 IOpClX= 0 NMat=1 NMatS=1 NMatT=0.
 ***** Axes restored to original set *****
 -------------------------------------------------------------------
 Center     Atomic                   Forces (Hartrees/Bohr)
 Number     Number              X              Y              Z
 -------------------------------------------------------------------
      1        6          -0.006426319    0.000132122    0.000092748
      2        6           0.004596786   -0.002736883    0.000600733
      3        6           0.006021101   -0.001174659    0.000173096
      4        7          -0.019900035   -0.035687518    0.009383667
      5        6           0.071324291   -0.002096082   -0.000923808
      6        8          -0.021728885    0.052685197   -0.012812399
      7        7           0.030125059   -0.030921839    0.007164247
      8        6          -0.090108856    0.001634318    0.001424688
      9        6           0.026619502    0.013592210   -0.003960740
     10        6           0.025049233   -0.001887144   -0.000035698
     11        6          -0.019011372   -0.004298966    0.001468832
     12        6           0.019286475    0.018351748   -0.005009158
     13        6          -0.014691960   -0.016848501    0.004536449
     14        1           0.005119420    0.008512631   -0.002244868
     15        1          -0.000858771   -0.001975017    0.010129139
     16        1          -0.001225336   -0.006520104   -0.007945773
     17        1           0.001432890    0.004937516    0.007780234
     18        1           0.001087099    0.000657457   -0.009243318
     19        1          -0.000408615   -0.003807531   -0.008961469
     20        1          -0.000029423    0.000889874    0.009703274
     21        1           0.004269065    0.018311676   -0.004693772
     22        1          -0.011285315   -0.002878696    0.000953295
     23        1          -0.005287184   -0.000514926    0.000237015
     24        1           0.004851596    0.001621374   -0.000506388
     25        6          -0.020629140   -0.018873101    0.005165632
     26        1           0.004865869    0.006168085   -0.001649930
     27        8           0.013210421   -0.006395766    0.001339575
     28        6          -0.001140232    0.020542986   -0.005142178
     29        1           0.003355969   -0.005096031    0.001213133
     30        1          -0.004427000   -0.005448021   -0.008208429
     31        1          -0.004056331   -0.000876407    0.009972171
 -------------------------------------------------------------------
 Cartesian Forces:  Max     0.090108856 RMS     0.016926916
 FormGI is forming the generalized inverse of G from B-inverse, IUseBI=4.
 GSVD:  received Info=                   1 from GESDD.

 GradGradGradGradGradGradGradGradGradGradGradGradGradGradGradGradGradGrad
 Berny optimization.
 Internal  Forces:  Max     0.070300609 RMS     0.010986866
 Search for a local minimum.
 Step number   1 out of a maximum of  159
 All quantities printed in internal units (Hartrees-Bohrs-Radians)
 Mixed Optimization -- RFO/linear search
 Second derivative matrix not updated -- analytic derivatives used.
 ITU=  0
     Eigenvalues ---   -0.00302  -0.00065  -0.00022   0.00179   0.00195
     Eigenvalues ---    0.00330   0.00482   0.00967   0.01156   0.01500
     Eigenvalues ---    0.01634   0.01888   0.02071   0.02159   0.02243
     Eigenvalues ---    0.02638   0.02798   0.03076   0.03644   0.03708
     Eigenvalues ---    0.04010   0.04539   0.04638   0.04696   0.05127
     Eigenvalues ---    0.05458   0.05715   0.06703   0.07909   0.07972
     Eigenvalues ---    0.10173   0.10528   0.10867   0.10985   0.11207
     Eigenvalues ---    0.11957   0.12129   0.12773   0.13207   0.13590
     Eigenvalues ---    0.13785   0.13907   0.14699   0.16160   0.17018
     Eigenvalues ---    0.17572   0.18265   0.18725   0.18876   0.19951
     Eigenvalues ---    0.22316   0.23306   0.24447   0.24886   0.27717
     Eigenvalues ---    0.29676   0.30067   0.30295   0.30512   0.30801
     Eigenvalues ---    0.30863   0.31177   0.31468   0.31484   0.31571
     Eigenvalues ---    0.31633   0.32025   0.32422   0.33184   0.34601
     Eigenvalues ---    0.36284   0.37120   0.37616   0.38144   0.38630
     Eigenvalues ---    0.39403   0.40042   0.41431   0.42063   0.43070
     Eigenvalues ---    0.45666   0.46115   0.49364   0.50422   0.62453
     Eigenvalues ---    0.85122   0.89467
 RFO step:  Lambda=-4.68649569D-02 EMin=-3.02471543D-03
 Linear search not attempted -- first point.
 Maximum step size (   0.300) exceeded in Quadratic search.
    -- Step size scaled by   0.765
 Iteration  1 RMS(Cart)=  0.14945798 RMS(Int)=  0.00812990
 Iteration  2 RMS(Cart)=  0.01607806 RMS(Int)=  0.00298487
 Iteration  3 RMS(Cart)=  0.00006972 RMS(Int)=  0.00298454
 Iteration  4 RMS(Cart)=  0.00000054 RMS(Int)=  0.00298454
 Variable       Old X    -DE/DX   Delta X   Delta X   Delta X     New X
                                 (Linear)    (Quad)   (Total)
    R1        2.88354   0.00296   0.00000   0.00401   0.00401   2.88755
    R2        2.09832  -0.00952   0.00000  -0.01973  -0.01973   2.07859
    R3        2.09930  -0.01007   0.00000  -0.02025  -0.02025   2.07905
    R4        2.09928  -0.01007   0.00000  -0.02016  -0.02016   2.07912
    R5        2.89703  -0.00485   0.00000  -0.00967  -0.00967   2.88736
    R6        2.10108  -0.00878   0.00000  -0.01795  -0.01795   2.08313
    R7        2.10109  -0.00879   0.00000  -0.01856  -0.01856   2.08253
    R8        2.74529  -0.00850   0.00000  -0.01753  -0.01753   2.72776
    R9        2.10231  -0.00870   0.00000  -0.01862  -0.01862   2.08369
   R10        2.10230  -0.00870   0.00000  -0.01471  -0.01471   2.08760
   R11        2.57616   0.01419   0.00000   0.02795   0.02795   2.60412
   R12        1.95070  -0.01907   0.00000  -0.03225  -0.03225   1.91846
   R13        2.30673   0.05314   0.00000   0.02942   0.02942   2.33615
   R14        2.58733  -0.01725   0.00000  -0.02042  -0.02042   2.56690
   R15        2.72066  -0.07030   0.00000  -0.15755  -0.15755   2.56311
   R16        2.67088   0.00533   0.00000   0.02547   0.02551   2.69638
   R17        2.65558   0.00977   0.00000   0.03597   0.03598   2.69157
   R18        2.64479  -0.00844   0.00000  -0.02110  -0.02108   2.62371
   R19        2.03017   0.00496   0.00000   0.00795   0.00795   2.03811
   R20        2.63768  -0.01224   0.00000  -0.02988  -0.02990   2.60777
   R21        2.04680   0.00183   0.00000   0.00479   0.00479   2.05160
   R22        2.65784   0.00013   0.00000   0.00979   0.00975   2.66759
   R23        2.04647   0.00203   0.00000   0.00502   0.00502   2.05150
   R24        2.66143   0.00024   0.00000   0.00305   0.00303   2.66446
   R25        2.83366  -0.01698   0.00000  -0.05273  -0.05273   2.78094
   R26        2.03549   0.00729   0.00000   0.01268   0.01268   2.04816
   R27        2.31053   0.01363   0.00000   0.01301   0.01301   2.32354
   R28        2.84789   0.00634   0.00000   0.02130   0.02130   2.86919
   R29        2.08296  -0.00611   0.00000  -0.01556  -0.01556   2.06740
   R30        2.09813  -0.01044   0.00000  -0.02258  -0.02258   2.07555
   R31        2.09813  -0.01044   0.00000  -0.01917  -0.01917   2.07896
    A1        1.91259   0.00469   0.00000   0.01910   0.01901   1.93160
    A2        1.92578   0.00182   0.00000   0.00586   0.00581   1.93159
    A3        1.92579   0.00182   0.00000   0.00527   0.00523   1.93102
    A4        1.89673  -0.00283   0.00000  -0.00870  -0.00879   1.88794
    A5        1.89674  -0.00283   0.00000  -0.00887  -0.00896   1.88778
    A6        1.90571  -0.00283   0.00000  -0.01320  -0.01320   1.89252
    A7        1.94141   0.00106   0.00000   0.00658   0.00656   1.94797
    A8        1.90108   0.00087   0.00000   0.00498   0.00498   1.90607
    A9        1.90109   0.00087   0.00000   0.00711   0.00712   1.90821
   A10        1.91064  -0.00073   0.00000  -0.00237  -0.00242   1.90823
   A11        1.91064  -0.00073   0.00000  -0.00466  -0.00471   1.90593
   A12        1.89844  -0.00138   0.00000  -0.01199  -0.01203   1.88642
   A13        1.93748  -0.00361   0.00000  -0.00561  -0.00564   1.93184
   A14        1.90562   0.00165   0.00000   0.00150   0.00150   1.90713
   A15        1.90561   0.00165   0.00000   0.00890   0.00887   1.91448
   A16        1.90620   0.00174   0.00000   0.00089   0.00089   1.90710
   A17        1.90619   0.00174   0.00000   0.01532   0.01530   1.92150
   A18        1.90241  -0.00320   0.00000  -0.02143  -0.02140   1.88101
   A19        2.12690  -0.00214   0.00000   0.00001  -0.01991   2.10699
   A20        2.07758   0.00441   0.00000   0.02212   0.00040   2.07797
   A21        2.07871  -0.00227   0.00000  -0.02214  -0.04194   2.03677
   A22        2.08110  -0.00636   0.00000  -0.00844  -0.00844   2.07266
   A23        2.08469  -0.04320   0.00000  -0.09803  -0.09803   1.98666
   A24        2.11740   0.04956   0.00000   0.10647   0.10647   2.22386
   A25        2.23350  -0.04134   0.00000  -0.07285  -0.07285   2.16065
   A26        2.17503   0.00969   0.00000   0.04454   0.04451   2.21954
   A27        2.05422  -0.00669   0.00000  -0.01599  -0.01602   2.03820
   A28        2.05393  -0.00301   0.00000  -0.02855  -0.02849   2.02544
   A29        2.11020  -0.00227   0.00000   0.00331   0.00337   2.11356
   A30        2.15208  -0.00961   0.00000  -0.04695  -0.04698   2.10510
   A31        2.02091   0.01188   0.00000   0.04364   0.04361   2.06453
   A32        2.11851   0.00159   0.00000   0.01657   0.01657   2.13508
   A33        2.09764  -0.00591   0.00000  -0.03699  -0.03699   2.06065
   A34        2.06704   0.00431   0.00000   0.02042   0.02042   2.08746
   A35        2.11275   0.00072   0.00000   0.00525   0.00520   2.11794
   A36        2.06193   0.00447   0.00000   0.02298   0.02301   2.08493
   A37        2.10851  -0.00520   0.00000  -0.02823  -0.02820   2.08031
   A38        2.05735  -0.00094   0.00000  -0.01509  -0.01516   2.04218
   A39        2.08004  -0.00031   0.00000  -0.00133  -0.00131   2.07873
   A40        2.14580   0.00125   0.00000   0.01643   0.01645   2.16225
   A41        2.11365   0.00391   0.00000   0.01851   0.01851   2.13216
   A42        2.03841   0.00148   0.00000   0.00346   0.00346   2.04187
   A43        2.13113  -0.00538   0.00000  -0.02197  -0.02197   2.10916
   A44        2.07438   0.01641   0.00000   0.04442   0.04440   2.11879
   A45        2.17351  -0.01986   0.00000  -0.04675  -0.04677   2.12673
   A46        2.03529   0.00345   0.00000   0.00233   0.00232   2.03761
   A47        2.00130  -0.00015   0.00000   0.00261   0.00261   2.00391
   A48        1.90461  -0.00175   0.00000  -0.01134  -0.01140   1.89321
   A49        1.90462  -0.00175   0.00000  -0.00786  -0.00793   1.89669
   A50        1.87722   0.00214   0.00000   0.01866   0.01867   1.89590
   A51        1.87722   0.00214   0.00000   0.00636   0.00636   1.88358
   A52        1.89637  -0.00058   0.00000  -0.00862  -0.00877   1.88760
    D1        3.14158   0.00000   0.00000  -0.00005  -0.00005   3.14154
    D2        1.03412  -0.00033   0.00000  -0.00451  -0.00452   1.02960
    D3       -1.03414   0.00033   0.00000   0.00296   0.00298  -1.03116
    D4        1.05373  -0.00059   0.00000  -0.00496  -0.00499   1.04874
    D5       -1.05374  -0.00092   0.00000  -0.00942  -0.00946  -1.06320
    D6       -3.12199  -0.00026   0.00000  -0.00195  -0.00197  -3.12396
    D7       -1.05373   0.00058   0.00000   0.00429   0.00431  -1.04942
    D8        3.12199   0.00026   0.00000  -0.00017  -0.00016   3.12183
    D9        1.05373   0.00092   0.00000   0.00730   0.00734   1.06107
   D10       -3.14156  -0.00000   0.00000  -0.02149  -0.02150   3.12013
   D11        1.03919  -0.00096   0.00000  -0.02003  -0.02004   1.01915
   D12       -1.03915   0.00096   0.00000  -0.00020  -0.00019  -1.03934
   D13       -1.03973   0.00128   0.00000  -0.01263  -0.01265  -1.05238
   D14        3.14102   0.00032   0.00000  -0.01118  -0.01120   3.12983
   D15        1.06269   0.00224   0.00000   0.00866   0.00865   1.07134
   D16        1.03978  -0.00128   0.00000  -0.03150  -0.03148   1.00830
   D17       -1.06265  -0.00224   0.00000  -0.03004  -0.03002  -1.09268
   D18       -3.14099  -0.00032   0.00000  -0.01020  -0.01018   3.13202
   D19        3.14155   0.00000   0.00000  -0.17930  -0.17969   2.96186
   D20       -0.00001   0.00000   0.00000   0.20135   0.20176   0.20175
   D21       -1.03954   0.00091   0.00000  -0.18040  -0.18079  -1.22033
   D22        2.10208   0.00091   0.00000   0.20026   0.20066   2.30274
   D23        1.03948  -0.00091   0.00000  -0.19679  -0.19721   0.84228
   D24       -2.10208  -0.00091   0.00000   0.18387   0.18424  -1.91784
   D25        0.00002   0.00000   0.00000   0.20750   0.20343   0.20345
   D26       -3.14155  -0.00000   0.00000   0.20492   0.20091  -2.94064
   D27        3.14158   0.00000   0.00000  -0.17339  -0.16939   2.97220
   D28        0.00001  -0.00000   0.00000  -0.17598  -0.17190  -0.17189
   D29        3.14155   0.00000   0.00000   0.02569   0.02576  -3.11587
   D30       -0.00002   0.00000   0.00000   0.02305   0.02299   0.02297
   D31        0.00012  -0.00000   0.00000  -0.00630  -0.00626  -0.00615
   D32       -3.14148  -0.00000   0.00000  -0.00982  -0.00985   3.13186
   D33       -3.14158  -0.00000   0.00000  -0.00683  -0.00686   3.13475
   D34        0.00002  -0.00000   0.00000  -0.00451  -0.00459  -0.00457
   D35        0.00002  -0.00000   0.00000  -0.00331  -0.00329  -0.00327
   D36       -3.14158  -0.00000   0.00000  -0.00098  -0.00102   3.14059
   D37        3.14158   0.00000   0.00000   0.00461   0.00452  -3.13709
   D38       -0.00001   0.00000   0.00000   0.00305   0.00299   0.00298
   D39       -0.00002   0.00000   0.00000   0.00133   0.00133   0.00132
   D40        3.14158   0.00000   0.00000  -0.00022  -0.00019   3.14139
   D41       -0.00001   0.00000   0.00000   0.00159   0.00160   0.00159
   D42        3.14158   0.00000   0.00000  -0.00041  -0.00042   3.14116
   D43        3.14159   0.00000   0.00000  -0.00057  -0.00062   3.14097
   D44       -0.00001   0.00000   0.00000  -0.00257  -0.00264  -0.00265
   D45        0.00000  -0.00000   0.00000   0.00243   0.00241   0.00241
   D46       -3.14158  -0.00000   0.00000   0.00009   0.00003  -3.14154
   D47        3.14159   0.00000   0.00000   0.00396   0.00396  -3.13764
   D48        0.00001  -0.00000   0.00000   0.00162   0.00158   0.00159
   D49        0.00001  -0.00000   0.00000  -0.00413  -0.00410  -0.00409
   D50       -3.14158  -0.00000   0.00000   0.00381   0.00376  -3.13782
   D51        3.14159   0.00000   0.00000  -0.00173  -0.00173   3.13986
   D52        0.00000  -0.00000   0.00000   0.00621   0.00612   0.00613
   D53       -0.00001   0.00000   0.00000   0.00214   0.00213   0.00212
   D54       -3.14159  -0.00000   0.00000   0.00425   0.00422  -3.13737
   D55        3.14158   0.00000   0.00000  -0.00611  -0.00614   3.13544
   D56       -0.00000  -0.00000   0.00000  -0.00401  -0.00405  -0.00405
   D57       -0.00001  -0.00000   0.00000   0.00821   0.00825   0.00824
   D58        3.14157   0.00000   0.00000  -0.00310  -0.00322   3.13835
   D59       -3.14159  -0.00000   0.00000   0.01657   0.01668  -3.12491
   D60       -0.00001   0.00000   0.00000   0.00526   0.00521   0.00520
   D61        0.00001  -0.00000   0.00000   0.15570   0.15564   0.15566
   D62        2.10668   0.00137   0.00000   0.17317   0.17305   2.27973
   D63       -2.10667  -0.00137   0.00000   0.15155   0.15155  -1.95511
   D64        3.14159   0.00000   0.00000   0.14462   0.14468  -2.99692
   D65       -1.03493   0.00137   0.00000   0.16210   0.16209  -0.87284
   D66        1.03491  -0.00137   0.00000   0.14047   0.14059   1.17550
         Item               Value     Threshold  Converged?
 Maximum Force            0.070301     0.000450     NO 
 RMS     Force            0.010987     0.000300     NO 
 Maximum Displacement     0.520105     0.001800     NO 
 RMS     Displacement     0.154338     0.001200     NO 
 Predicted change in Energy=-2.470448D-02
 GradGradGradGradGradGradGradGradGradGradGradGradGradGradGradGradGradGrad

                          Input orientation:                          
 ---------------------------------------------------------------------
 Center     Atomic      Atomic             Coordinates (Angstroms)
 Number     Number       Type             X           Y           Z
 ---------------------------------------------------------------------
      1          6           0       -2.015649    1.959235   -0.142198
      2          6           0       -0.683040    1.273712    0.156266
      3          6           0        0.490555    2.243070    0.023705
      4          7           0        1.735219    1.582812    0.337507
      5          6           0        2.941958    2.197801    0.083416
      6          8           0        2.947210    3.398476   -0.210915
      7          7           0        4.013798    1.371139    0.196966
      8          6           0        5.297484    1.771463    0.019363
      9          6           0        5.753617    3.081625   -0.314346
     10          6           0        6.307512    0.781255    0.186725
     11          6           0        7.650036    1.064006    0.038366
     12          6           0        8.095260    2.363360   -0.287438
     13          6           0        7.107252    3.354587   -0.458701
[...]
 .00025393,0.01117179,0.01951228,-0.00119742,-0.07776632,-0.06949675,0.
 00450937,-0.00000718,0.00000119,0.00000021,-0.00000004,-0.00000013,-0.
 00000153,-0.00000020,0.00000490,-0.00000034,0.00000173,0.00000257,0.00
 000070,0.00000144,-0.00000073,0.00000137,-0.00000551,0.00000980,-0.000
 00007,-0.00001494,-0.00000228,-0.00001539,0.00006883,0.00003227,0.0000
 0261,0.00096009,0.00036443,-0.00028414,0.00008211,-0.00008501,-0.00003
 563,0.00046193,0.00122485,-0.00003633,0.00103446,0.00060330,-0.0002204
 7,0.08334827,-0.00000849,-0.00001229,0.00001256,-0.00001348,0.00001281
 ,-0.00002650,0.00012012,-0.00007794,0.00003425,-0.00039805,0.00000057,
 0.00008731,0.00087229,-0.00057449,0.00000454,-0.00024254,0.00042759,-0
 .00003005,-0.00091471,-0.00047872,-0.00000853,-0.00043143,0.00211245,0
 .00029525,-0.00056225,-0.00391522,0.00040064,0.00013142,0.00082435,-0.
 00007346,0.00499379,-0.00163183,0.00005501,-0.00847330,-0.01789362,0.0
 0119953,-0.06899110,-0.31584772,0.01434939,-0.00001749,0.00000010,0.00
 000369,0.00000028,0.00000036,-0.00000521,0.00000187,0.00000724,-0.0000
 0166,-0.00000050,-0.00000191,0.00000200,0.00000445,0.00000064,0.000001
 66,0.00000994,0.00001355,-0.00000089,-0.00004296,0.00000208,-0.0000382
 8,0.00004410,0.00002601,-0.00002001,-0.00013723,0.00105820,-0.00024775
 ,-0.00011640,-0.00008939,-0.00002470,-0.00057405,-0.00122284,0.0001068
 7,-0.00289237,-0.00172013,0.00005537,0.07882725,0.33705861,0.00000080,
 0.00000064,-0.00000021,-0.00000333,-0.00000061,0.00000319,-0.00000511,
 0.00000102,0.00004822,0.00002775,-0.00003679,-0.00001848,-0.00005561,0
 .00004997,0.00028687,-0.00001802,-0.00004065,0.00000369,-0.00001228,0.
 00004729,-0.00131277,0.00068700,0.00028698,0.00929142,0.00043966,0.001
 77861,0.00521183,-0.00003228,-0.00006725,-0.00093487,0.00019620,0.0001
 5483,0.00531602,-0.00005149,-0.00004395,0.00213286,0.00449786,0.014373
 00,-0.03844616,0.00000127,0.00000059,-0.00000078,-0.00000127,-0.000001
 24,-0.00000176,0.00000001,-0.00000052,0.00000152,-0.00000040,-0.000000
 67,-0.00000065,0.00000025,0.00000078,-0.00000405,0.00000237,0.00000367
 ,0.00000277,0.00000477,-0.00000253,-0.00000223,-0.00002151,0.00002051,
 -0.00004941,-0.00021367,-0.00031118,-0.00527071,-0.00003841,-0.0000293
 7,-0.00083692,0.00003717,0.00002558,0.00078601,-0.00007772,-0.00010108
 ,-0.00358426,-0.00566312,-0.01613820,0.02647133,-0.00010123,-0.0001303
 3,0.00013773,-0.00009990,0.00020049,-0.00027282,0.00153662,-0.00095268
 ,0.00010130,-0.00510456,-0.00059843,0.00171487,0.01111614,-0.00755288,
 -0.00042348,-0.00197464,0.00433495,-0.00015979,-0.01588467,0.00041253,
 0.00049930,0.01180393,0.00619322,-0.00090357,-0.00977904,-0.00532786,0
 .00057104,-0.00760720,0.00369446,0.00017401,0.00809684,0.01170569,-0.0
 0085660,-0.07524105,0.03547746,0.00291448,0.00744189,-0.01229387,0.000
 46310,-0.00022111,-0.00000616,0.00006009,0.00000559,0.00001235,-0.0000
 7083,0.00003632,0.00005481,-0.00002476,-0.00002302,-0.00008221,0.00001
 633,0.00006244,0.00001923,0.00001212,0.00016582,0.00011806,-0.00001076
 ,-0.00058809,0.00007985,-0.00047005,0.00022262,0.00028689,-0.00036303,
 -0.00072040,-0.00036005,0.00000446,-0.00026068,-0.00044008,0.00004353,
 -0.00155454,-0.00102954,0.00009958,-0.37564371,0.29412955,0.00276055,0
 .00039300,0.00117572,-0.00004581,0.43739705,0.00005405,0.00006527,-0.0
 0007310,0.00004843,-0.00011931,0.00014226,-0.00080319,0.00049677,-0.00
 001440,0.00273545,0.00032023,-0.00099038,-0.00636776,0.00456401,0.0002
 5805,0.00083472,-0.00247061,0.00009544,0.00915194,-0.00008765,-0.00026
 694,-0.00751188,-0.00259863,0.00044943,0.00401201,0.00542013,-0.000443
 56,0.00640627,0.00050528,-0.00032235,-0.00808494,-0.01225749,0.0008408
 8,0.03679811,0.01699096,-0.00158963,-0.00942397,0.00320606,0.00051352,
 0.00011436,0.00000232,-0.00003112,-0.00000277,-0.00000765,0.00003677,-
 0.00001970,-0.00002090,0.00001308,0.00001353,0.00005427,-0.00000716,-0
 .00003388,-0.00001214,-0.00000588,-0.00008407,-0.00005891,0.00000674,0
 .00032213,-0.00005025,0.00024623,-0.00010099,-0.00017924,0.00020498,0.
 00007754,0.00003970,-0.00003676,0.00035137,0.00018730,-0.00002312,-0.0
 0109043,0.00342880,-0.00009430,0.27790871,-0.40845872,0.00020553,-0.00
 070024,0.00049983,0.00003056,-0.34093926,0.45417104,0.00000244,0.00000
 261,-0.00000500,0.00000655,-0.00001141,0.00000410,-0.00004814,0.000023
 93,-0.00002548,0.00012134,0.00000159,-0.00008257,-0.00024341,0.0001986
 6,0.00010530,0.00003747,-0.00010575,0.00008871,0.00038032,-0.00000302,
 0.00028416,-0.00025508,-0.00019339,-0.00033611,0.00022716,-0.00003754,
 -0.00137327,0.00006978,-0.00020941,-0.00044622,-0.00008054,-0.00007112
 ,-0.00070348,0.00286227,-0.00158543,0.01854824,0.00031712,0.00067374,0
 .00572127,0.00000443,-0.00000054,-0.00000093,0.00000167,0.00000073,0.0
 0000531,-0.00000056,-0.00000170,-0.00000040,-0.00000045,0.00000050,-0.
 00000098,-0.00000299,0.00000141,0.00000469,-0.00000054,-0.00000012,-0.
 00000249,0.00001643,0.00000547,0.00002428,-0.00001024,-0.00001177,-0.0
 0001043,0.00000685,-0.00002909,-0.00085148,0.00000636,0.00001923,0.000
 14391,0.00009557,-0.00009801,-0.00017384,0.00338702,-0.00049768,-0.069
 83040,0.00003020,-0.00005376,0.00050028,-0.00576458,-0.00076310,0.0269
 7185,-0.00000404,-0.00000615,0.00000605,-0.00000630,0.00000450,-0.0000
 1482,0.00006833,-0.00003990,0.00002036,-0.00019601,-0.00001690,0.00003
 737,0.00032570,-0.00008885,0.00002258,-0.00018361,0.00014210,-0.000014
 61,-0.00035885,0.00003781,0.00002297,0.00016065,-0.00011725,-0.0000538
 5,0.00028843,-0.00030190,-0.00006180,0.00032309,-0.00201779,0.00005954
 ,-0.00617334,0.00073843,0.00039507,-0.00294251,-0.02885134,0.00195848,
 -0.00280647,-0.00043263,0.00008875,-0.00000987,-0.00000022,0.00000237,
 0.00000030,0.00000006,-0.00000326,0.00000123,0.00000465,-0.00000087,-0
 .00000047,-0.00000050,0.00000107,0.00000210,0.00000023,0.00000087,0.00
 000902,0.00000657,-0.00000055,-0.00001971,-0.00000068,-0.00002183,0.00
 002116,0.00000342,-0.00000952,-0.00001373,0.00001996,0.00000116,-0.000
 49016,-0.00013883,-0.00000120,0.00012531,-0.00020489,0.00000116,-0.110
 68151,-0.04798077,0.00298687,-0.00258152,-0.00162002,0.00024703,0.0114
 2858,0.03458649,-0.00077660,0.60398340,-0.00001316,-0.00001984,0.00001
 767,-0.00001471,0.00002238,-0.00003613,0.00020848,-0.00013121,0.000018
 96,-0.00066510,-0.00004462,0.00020615,0.00147445,-0.00115085,-0.000039
 04,-0.00027078,0.00074350,-0.00003630,-0.00226020,0.00029287,0.0000723
 0,0.00190684,-0.00035157,-0.00007799,-0.00055735,-0.00062411,0.0000045
 4,-0.00164437,0.00064150,0.00001990,0.00182227,0.00265205,-0.00005300,
 -0.00778707,-0.00643204,0.00115051,0.00021526,-0.00122330,-0.00000250,
 -0.00002922,-0.00000084,0.00000758,0.00000053,0.00000113,-0.00000925,0
 .00000424,0.00001118,-0.00000295,-0.00000192,-0.00000519,0.00000269,0.
 00000796,0.00000119,0.00000164,0.00002045,0.00001772,-0.00000071,-0.00
 007686,0.00000841,-0.00006311,0.00003935,0.00003260,-0.00004138,-0.000
 02324,0.00003576,-0.00000064,-0.00000409,0.00002578,-0.00002354,0.0002
 5904,0.00024718,-0.00002577,-0.04422888,-0.16129279,0.00503193,-0.0006
 0225,0.00018447,0.00007702,0.01330207,-0.05414522,0.00239692,-0.038804
 23,0.48044903,0.00000075,0.00000068,0.00000115,0.00000187,0.00000031,0
 .00000098,-0.00001014,0.00001008,0.00000234,0.00003123,0.00000539,-0.0
 0003244,-0.00006829,0.00003576,-0.00005302,0.00001319,-0.00002838,-0.0
 0001989,0.00010604,-0.00001644,0.00017882,-0.00006052,0.00003504,0.000
 29103,-0.00004641,-0.00001209,-0.00127391,0.00001099,0.00004856,-0.000
 60626,0.00037314,0.00001782,0.00354169,0.00109917,0.00212407,0.0140849
 1,0.00008088,0.00001159,-0.00107436,0.00000234,0.00000047,-0.00000067,
 -0.00000091,-0.00000072,-0.00000090,-0.00000030,-0.00000055,0.00000092
 ,0.00000037,-0.00000022,-0.00000005,-0.00000063,-0.00000008,-0.0000026
 5,0.00000039,0.00000052,0.00000019,0.00000100,0.00000183,0.00000031,0.
 00000034,-0.00000707,0.00001288,0.00000277,-0.00000297,-0.00001002,-0.
 00000466,-0.00002327,-0.00064103,-0.00001809,-0.00000182,-0.00005135,0
 .00283297,0.00517793,-0.08597001,0.00020533,0.00012798,0.00148731,0.00
 006220,0.00142624,0.02379557,-0.00129682,0.00395191,0.54112547,-0.0000
 0070,-0.00000147,0.00000012,-0.00000185,0.00000090,-0.00000114,0.00000
 530,-0.00000445,0.00000157,-0.00002896,0.00001431,0.00001974,0.0001300
 7,-0.00025605,0.00003390,0.00002996,0.00015182,-0.00001938,-0.00033737
 ,0.00011774,-0.00010496,0.00037274,-0.00040875,0.00004333,-0.00002571,
 0.00008066,0.00030383,-0.00058507,0.00023757,0.00016363,0.00055668,0.0
 0064712,-0.00051467,-0.00150050,-0.00056370,-0.00078526,-0.00045196,-0
 .00067702,0.00012990,-0.00000005,0.00000029,-0.00000037,-0.00000007,0.
 00000017,0.00000063,-0.00000025,0.00000029,0.00000003,0.00000050,0.000
 00036,-0.00000020,0.00000039,0.00000008,0.00000027,-0.00000172,0.00000
 047,0.,-0.00000446,0.00000059,-0.00000149,0.00000153,0.00000532,-0.000
 00502,-0.00002931,0.00001492,-0.00003301,0.00001059,0.00002228,0.00005
 372,0.00001164,0.00003330,0.00000741,0.00435530,-0.00063696,0.00989354
 ,-0.00135267,-0.00025069,0.00054569,0.00072755,-0.00029375,-0.00075485
 ,-0.08784827,0.04415569,-0.08497530,0.09184938,-0.00000226,-0.00000313
 ,0.00000337,-0.00000330,0.00000466,-0.00000676,0.00004245,-0.00002519,
 0.00000250,-0.00014079,-0.00000500,0.00004844,0.00034212,-0.00031180,0
 .00001745,-0.00002354,0.00016928,-0.00001625,-0.00052797,0.00004201,-0
 .00000133,0.00035264,0.00022447,-0.00017482,-0.00051830,-0.00028937,0.
 00014809,-0.00021545,0.00025194,0.00023943,0.00018177,0.00007688,-0.00
 086067,-0.00141428,-0.00023501,-0.00188672,0.00034655,0.00013464,-0.00
 040172,-0.00000513,0.00000006,0.00000110,-0.00000028,0.00000006,-0.000
 00205,0.00000068,0.00000134,-0.00000034,-0.00000027,-0.00000185,0.0000
 0046,0.00000199,0.00000039,-0.00000048,0.00000267,0.00000314,0.0000004
 5,-0.00001903,0.00000183,-0.00001467,0.00000605,0.00000890,-0.00000586
 ,-0.00001551,0.00000541,0.00002164,-0.00000224,-0.00000788,0.00012371,
 0.00008974,0.00009364,-0.00000756,0.01714042,-0.00822246,0.02692071,-0
 .00031714,0.00022635,0.00007214,-0.00181756,-0.00680363,-0.00375142,0.
 04566107,-0.09880768,0.10385819,-0.05111133,0.10501414,0.00000036,0.00
 000178,-0.00000031,0.00000065,-0.00000094,0.00000051,-0.00000823,0.000
 00773,0.00000441,0.00002735,-0.00001705,-0.00000962,-0.00011492,0.0002
 2543,0.00000704,-0.00003178,-0.00013503,0.00000983,0.00023662,-0.00011
 271,-0.00005080,-0.00027344,-0.00004439,0.00005651,0.00024147,-0.00032
 636,0.00013784,0.00010789,-0.00012203,-0.00002656,0.00011992,-0.000168
 11,0.00005200,0.00044002,0.00055294,0.00012178,-0.00080129,0.00117113,
 0.00043143,-0.00000008,-0.00000046,0.00000034,0.00000033,0.00000020,0.
 00000025,0.00000035,-0.00000129,-0.00000038,-0.00000060,-0.00000147,0.
 00000003,-0.00000049,0.00000064,0.00000056,0.00000173,-0.00000038,-0.0
 0000104,0.00000548,-0.00000079,0.00000371,-0.00000194,-0.00000098,-0.0
 0000229,0.00004944,0.00001249,-0.00001623,0.00002103,-0.00000620,-0.00
 000344,-0.00004142,-0.00008307,0.00002178,-0.00103851,-0.00174106,0.00
 044779,0.00016175,-0.00065878,-0.00034830,0.00082234,-0.00011134,-0.00
 060449,-0.08440451,0.09931375,-0.22376810,0.09412070,-0.10788345,0.242
 04726,-0.00000087,-0.00000096,0.00000105,-0.00000115,0.00000209,-0.000
 00064,0.00000362,-0.00000781,-0.00000711,-0.00003056,0.00001844,0.0000
 0988,0.00014095,-0.00027504,-0.00005133,0.00003395,0.00016589,0.000003
 22,-0.00034934,0.00013364,0.00011505,0.00039225,-0.00040423,0.00000475
 ,-0.00006801,0.00008590,-0.00028800,-0.00060841,0.00023483,-0.00014452
 ,0.00058817,0.00070126,0.00041732,-0.00144619,-0.00055367,0.00091809,-
 0.00038588,-0.00079372,0.00001308,0.00000032,0.00000043,-0.00000039,-0
 .00000014,-0.00000003,0.00000011,-0.00000029,0.00000039,0.00000004,0.0
 0000057,0.00000078,0.00000015,0.00000024,-0.00000049,-0.00000005,-0.00
 000210,0.00000029,0.00000027,-0.00000515,0.00000128,-0.00000247,0.0000
 0337,0.00000129,0.00000197,-0.00003321,0.00001717,0.00003220,0.0000042
 3,0.00001818,-0.00005464,0.00001425,0.00003946,-0.00001071,0.00348018,
 -0.00119743,-0.00999995,-0.00140520,-0.00021175,-0.00043660,0.00072181
 ,-0.00022247,0.00064688,-0.07413587,0.04075315,0.06888993,0.00344435,-
 0.00731438,-0.01087913,0.07661527,-0.00000338,-0.00000348,0.00000468,-
 0.00000326,0.00000595,-0.00000929,0.00003754,-0.00002754,-0.00000292,-
 0.00014370,-0.00000748,0.00005717,0.00035214,-0.00032695,-0.00004541,-
 0.00002224,0.00017631,0.00000122,-0.00054511,0.00005203,0.00002559,0.0
 0038974,0.00024456,0.00014482,-0.00055045,-0.00027647,-0.00006701,-0.0
 0024710,0.00024278,-0.00024358,0.00024839,0.00016244,0.00083736,-0.001
 26642,-0.00014416,0.00200327,0.00044368,0.00007120,0.00039621,-0.00000
 564,-0.00000010,0.00000122,0.00000037,0.00000046,-0.00000098,0.0000008
 1,0.00000145,-0.00000094,-0.00000027,-0.00000184,0.00000047,0.00000159
 ,0.00000066,0.00000136,0.00000298,0.00000369,-0.00000091,-0.00001647,0
 .00000351,-0.00001067,0.00000664,0.00000952,-0.00001437,-0.00002041,0.
 00000183,-0.00002272,-0.00001420,-0.00001848,-0.00012175,0.00009277,0.
 00009996,-0.00000885,0.01473239,-0.01012203,-0.02748852,-0.00032714,0.
 00026472,-0.00008943,-0.00150692,-0.00649990,0.00435823,0.04178191,-0.
 11555663,-0.11666541,-0.00531530,0.00857434,0.01272022,-0.04751076,0.1
 2288471,-0.00000042,-0.00000159,-0.00000039,-0.00000071,0.00000023,-0.
 00000056,0.00000277,-0.00000579,-0.00000384,-0.00001284,0.00001215,0.0
 0001250,0.00007373,-0.00017170,0.00002036,0.00003080,0.00010368,-0.000
 00307,-0.00016407,0.00009654,-0.00005811,0.00021079,0.00006319,0.00002
 852,-0.00018410,0.00035178,0.00015977,-0.00003352,0.00008114,0.0000026
 7,-0.00019107,0.00009245,-0.00005102,-0.00019787,-0.00048224,-0.000045
 65,0.00084254,-0.00107074,0.00042970,0.00000005,0.00000019,-0.00000027
 ,0.00000013,0.00000019,0.00000067,-0.00000030,0.00000117,-0.00000006,0
 .00000047,0.00000155,-0.00000011,0.00000016,-0.00000050,0.00000081,-0.
 00000211,0.00000038,0.00000004,-0.00000148,0.00000096,0.00000012,-0.00
 000009,0.00000292,-0.00000510,-0.00004612,-0.00001597,-0.00001423,-0.0
 0002079,0.00000576,0.00001185,0.00003471,0.00007357,0.00001236,-0.0003
 7716,0.00268353,0.00326125,-0.00004888,0.00062711,-0.00034766,-0.00082
 531,0.00058898,-0.00093220,0.06822520,-0.11200454,-0.22053683,0.009129
 04,-0.01448612,-0.02140039,-0.07612268,0.12211045,0.23925437,-0.000005
 60,-0.00000723,0.00000809,-0.00000549,0.00000994,-0.00001482,0.0000873
 2,-0.00005205,0.00001208,-0.00027593,-0.00003844,0.00008232,0.00054746
 ,-0.00026183,-0.00002527,-0.00015541,0.00017396,-0.00000562,-0.0006884
 6,0.00000959,0.00001889,0.00049455,0.00015175,-0.00003123,-0.00011899,
 -0.00027261,0.00002469,-0.00020111,-0.00022250,0.00001311,-0.00044481,
 0.00042953,0.00002376,0.00051049,-0.00229904,0.00011557,0.00064213,0.0
 0005254,-0.00002175,-0.00001356,-0.00000072,0.00000399,0.00000041,0.00
 000061,-0.00000455,0.00000232,0.00000364,-0.00000153,-0.00000158,-0.00
 000432,0.00000115,0.00000340,0.00000111,0.00000061,0.00001118,0.000007
 23,-0.00000066,-0.00003084,0.00000319,-0.00002613,0.00001582,0.0000131
 1,-0.00001857,0.00000031,-0.00000675,0.00000039,-0.00008293,-0.0000338
 9,0.00000253,0.00004587,-0.00009587,0.00000381,-0.01347953,0.00216369,
 0.00046762,0.00012234,-0.00028245,-0.00001122,0.00364764,0.00226419,-0
 .00028189,-0.32828508,-0.00718633,0.01276719,-0.00932704,-0.00071939,0
 .00123887,-0.00697116,-0.00059220,-0.00032088,0.35395629,-0.00000113,-
 0.00000158,0.00000162,-0.00000202,0.00000214,-0.00000376,0.00001826,-0
 .00001313,0.00000098,-0.00006252,0.00000197,0.00002051,0.00014887,-0.0
 0016397,0.00000319,-0.00001645,0.00011112,-0.00000674,-0.00027065,0.00
 011269,0.00000273,0.00034235,-0.00013427,-0.00001411,-0.00011900,0.000
 41663,-0.00000433,-0.00014045,-0.00044884,0.00002223,-0.00162415,0.000
 36788,0.00007483,0.00052744,-0.00593534,0.00025644,0.00096356,-0.00126
 390,0.00001634,-0.00000223,0.00000012,0.00000040,-0.00000002,0.0000001
 1,-0.00000061,0.00000013,0.00000084,-0.00000021,0.00000010,-0.00000041
 ,0.00000020,0.00000071,0.00000005,0.00000023,0.00000082,0.00000181,-0.
 00000008,-0.00000745,0.00000084,-0.00000609,0.00000472,0.00000279,-0.0
 0000379,-0.00005504,-0.00000948,0.00000257,-0.00015061,-0.00003383,0.0
 0000563,0.00004342,-0.00001061,-0.00000003,-0.03652932,-0.00209069,0.0
 0166379,0.00030906,0.00074618,-0.00005971,0.00184051,0.00381828,-0.000
 25876,-0.00236435,-0.04558084,-0.00007537,0.01403560,-0.00012047,-0.00
 259042,0.01631826,0.00018493,0.00134128,0.00679156,0.05003897,0.000000
 35,0.00000033,-0.00000058,0.00000007,-0.00000068,0.00000117,-0.0000041
 7,0.00000284,0.00000172,0.00001486,0.00000039,-0.00000347,-0.00003022,
 0.00002045,0.00002625,0.00000736,-0.00001338,-0.00000086,0.00004051,-0
 .00000566,-0.00004921,-0.00003507,-0.00000124,0.00002741,0.00001816,0.
 00000240,0.00019420,0.00000987,0.00002332,-0.00011970,0.00010448,-0.00
 001607,0.00048172,0.00001135,0.00038556,0.00115816,-0.00006150,0.00005
 582,0.00012846,0.00000076,0.00000006,-0.00000021,-0.00000003,-0.000000
 06,0.00000004,-0.00000011,-0.00000020,0.00000009,0.00000013,0.00000025
 ,0.00000004,-0.00000026,-0.00000018,-0.00000014,-0.00000066,-0.0000002
 8,-0.00000022,0.00000199,-0.00000019,0.00000121,-0.00000156,0.00000032
 ,-0.00000049,0.00000218,0.00000047,-0.00000415,0.00000664,-0.00000018,
 -0.00006896,-0.00000163,0.00000669,0.00004672,0.00196285,-0.00006722,-
 0.00150535,-0.00003637,-0.00003538,-0.00038413,-0.00026563,-0.00028554
 ,-0.00081789,0.01258334,0.00014335,-0.05048209,-0.02725139,-0.00195746
 ,0.00288889,0.02694423,0.00213044,0.00020449,-0.01402053,-0.00038897,0
 .04827690\\-0.00000023,-0.00000139,0.00000061,-0.00000008,0.00000061,-
 0.00000107,0.00000027,-0.00000103,0.00000528,0.00000136,-0.00000085,-0
 .00000762,0.00000228,0.00000266,0.00000206,-0.00000094,0.00000173,0.00
 000032,-0.00000176,-0.00000366,-0.00000064,-0.00000188,0.00000170,0.00
 000055,0.00000159,0.00000149,-0.00000002,0.00000271,-0.00000038,-0.000
 00147,-0.00000185,-0.00000090,-0.00000079,0.00000447,0.00000284,-0.000
 00021,-0.00000236,-0.00000067,0.00000035,0.00000016,-0.00000071,-0.000
 00001,-0.00000006,0.00000066,0.00000059,0.00000001,-0.00000087,0.00000
 097,0.00000002,-0.00000064,0.00000002,0.00000074,-0.00000254,-0.000000
 24,0.00000035,-0.00000122,-0.00000040,-0.00000104,0.00000244,-0.000001
 03,-0.00000028,-0.00000105,0.00000208,-0.00000112,-0.00000052,0.000001
 11,-0.00000044,0.00000015,-0.00000188,0.00000056,0.00000065,-0.0000018
 2,-0.00000582,-0.00000053,0.00000183,-0.00000219,-0.00000083,0.0000013
 9,0.00000149,0.00000108,-0.00000226,-0.00000133,0.00000187,-0.00000145
 ,0.00000349,0.00000021,0.00000153,0.00000176,-0.00000154,0.00000078,0.
 00000012,0.00000123,0.00000142\\\@


 We find comfort among those who agree with us -- growth among those who don't.
 -- Frank A. Clark
 Job cpu time:       0 days  2 hours 24 minutes 16.8 seconds.
 File lengths (MBytes):  RWF=    377 Int=      0 D2E=      0 Chk=     10 Scr=      1
 Normal termination of Gaussian 09 at Mon Feb  4 12:58:38 2019.
WARNING: pbs_rusage is deprecated and values produced may not be accurate


=============================================================================
                                     Resource usage:
                                       CPU time:              12:00:32
   JobId:    5363858.r-man2            Elapsed time:          03:00:32
   Project:             q95            Requested time:        32:00:00
   Service Units:     12.04 
                                       Max physical memory:      595MB
                                       Max virtual memory:      1260MB
                                       Requested memory:           0MB

                                       Number of cpus:               4

                                       Max jobfs disk use:       0.4GB
                                       Requested jobfs:         16.0GB
=============================================================================

