 Entering Gaussian System, Link 0=/apps/gaussian/g09e01/g09/g09
 AtFile(1): /home/507/hio507/Basis/6-31pGd.gbs
 Initial command:
 /apps/gaussian/g09e01/g09/l1.exe "/jobfs/local/5363853.r-man2/Gau-20440.inp" -scrdir="/jobfs/local/5363853.r-man2/"
 Entering Link 1 = /apps/gaussian/g09e01/g09/l1.exe PID=     20442.
  
 Copyright (c) 1988,1990,1992,1993,1995,1998,2003,2009,2015,
            Gaussian, Inc.  All Rights Reserved.
  
 This is part of the Gaussian(R) 09 program.  It is based on
 the Gaussian(R) 03 system (copyright 2003, Gaussian, Inc.),
 the Gaussian(R) 98 system (copyright 1998, Gaussian, Inc.),
 the Gaussian(R) 94 system (copyright 1995, Gaussian, Inc.),
 the Gaussian 92(TM) system (copyright 1992, Gaussian, Inc.),
 the Gaussian 90(TM) system (copyright 1990, Gaussian, Inc.),
 the Gaussian 88(TM) system (copyright 1988, Gaussian, Inc.),
 the Gaussian 86(TM) system (copyright 1986, Carnegie Mellon
 University), and the Gaussian 82(TM) system (copyright 1983,
 Carnegie Mellon University). Gaussian is a federally registered
 trademark of Gaussian, Inc.
  
 This software contains proprietary and confidential information,
 including trade secrets, belonging to Gaussian, Inc.
  
 This software is provided under written license and may be
 used, copied, transmitted, or stored only in accord with that
 written license.
  
 The following legend is applicable only to US Government
 contracts under FAR:
  
                    RESTRICTED RIGHTS LEGEND
  
 Use, reproduction and disclosure by the US Government is
 subject to restrictions as set forth in subparagraphs (a)
 and (c) of the Commercial Computer Software - Restricted
 Rights clause in FAR 52.227-19.
  
 Gaussian, Inc.
 340 Quinnipiac St., Bldg. 40, Wallingford CT 06492
  
  
 ---------------------------------------------------------------
 Warning -- This program may not be used in any manner that
 competes with the business of Gaussian, Inc. or will provide
 assistance to any competitor of Gaussian, Inc.  The licensee
 of this program is prohibited from giving any competitor of
 Gaussian, Inc. access to this program.  By using this program,
 the user acknowledges that Gaussian, Inc. is engaged in the
 business of creating and licensing software in the field of
 computational chemistry and represents and warrants to the
 licensee that it is not a competitor of Gaussian, Inc. and that
 it will not use this program in any manner prohibited above.
 ---------------------------------------------------------------
  

 Cite this work as:
 Gaussian 09, Revision E.01,
 M. J. Frisch, G. W. Trucks, H. B. Schlegel, G. E. Scuseria, 
 M. A. Robb, J. R. Cheeseman, G. Scalmani, V. Barone, B. Mennucci, 
 G. A. Petersson, H. Nakatsuji, M. Caricato, X. Li, H. P. Hratchian, 
 A. F. Izmaylov, J. Bloino, G. Zheng, J. L. Sonnenberg, M. Hada, 
 M. Ehara, K. Toyota, R. Fukuda, J. Hasegawa, M. Ishida, T. Nakajima, 
 Y. Honda, O. Kitao, H. Nakai, T. Vreven, J. A. Montgomery, Jr., 
 J. E. Peralta, F. Ogliaro, M. Bearpark, J. J. Heyd, E. Brothers, 
 K. N. Kudin, V. N. Staroverov, T. Keith, R. Kobayashi, J. Normand, 
 K. Raghavachari, A. Rendell, J. C. Burant, S. S. Iyengar, J. Tomasi, 
 M. Cossi, N. Rega, J. M. Millam, M. Klene, J. E. Knox, J. B. Cross, 
 V. Bakken, C. Adamo, J. Jaramillo, R. Gomperts, R. E. Stratmann, 
 O. Yazyev, A. J. Austin, R. Cammi, C. Pomelli, J. W. Ochterski, 
 R. L. Martin, K. Morokuma, V. G. Zakrzewski, G. A. Voth, 
 P. Salvador, J. J. Dannenberg, S. Dapprich, A. D. Daniels, 
 O. Farkas, J. B. Foresman, J. V. Ortiz, J. Cioslowski, 
 and D. J. Fox, Gaussian, Inc., Wallingford CT, 2013.
 
 ******************************************
 Gaussian 09:  ES64L-G09RevE.01 30-Nov-2015
                 4-Feb-2019 
 ******************************************
 %chk=4Ketone_a1.M062X_6-31pGd_opt_water.chk
 %mem=196608000
 %nproc=4
 Will use up to    4 processors via shared memory.
 ----------------------------------------------------------------------
 # M062X/Gen 6D SCF=Tight INT(grid=ultrafine) OPT=calcfc IOP(2/17=4) SC
 RF=(SMD,Solvent=h2o) maxdisk=2147483648
 ----------------------------------------------------------------------
 1/10=4,14=-1,18=20,19=15,26=4,38=1/1,3;
 2/9=110,12=2,17=4,18=5,40=1/2;
 3/5=7,8=2,11=2,16=1,25=1,30=1,70=32201,71=2,72=1,74=-55,75=-5,140=1/1,2,3;
 4//1;
 5/5=2,32=2,38=5,53=1/2;
 8/6=4,10=90,11=11/1;
 11/6=1,8=1,9=11,15=111,16=1/1,2,10;
 10/6=1,13=1/2;
 6/7=2,8=2,9=2,10=2,28=1/1;
 7/10=1,18=20,25=1/1,2,3,16;
 1/10=4,14=-1,18=20,19=15,26=4/3(2);
 2/9=110,17=4/2;
 99//99;
 2/9=110,17=4/2;
 3/5=7,6=1,8=2,11=2,16=1,25=1,30=1,70=32205,71=1,72=1,74=-55,75=-5,82=7/1,2,3;
 4/5=5,16=3,69=1/1;
 5/5=2,32=2,38=5,53=1/2;
 7//1,2,3,16;
 1/14=-1,18=20,19=15,26=4/3(-5);
 2/9=110,17=4/2;
 6/7=2,8=2,9=2,10=2,19=2,28=1/1;
 99/9=1/99;
 ----------------------------------
 4Ketone_a1.M062X_6-31pGd_opt_water
 ----------------------------------
 Symbolic Z-matrix:
 Charge = -1 Multiplicity = 1
 C                    -2.09741   2.07026   0.01493 
 C                    -0.79459   1.29404   0.18382 
 C                     0.42286   2.19143  -0.06662 
 N                     1.66024   1.44771   0.09538 
 C                     2.8794    2.03295  -0.07662 
 O                     2.93646   3.21516  -0.3752 
 N                     4.01429   1.28505   0.08846 
 C                     5.38302   1.71066  -0.04647 
 C                     5.78644   3.02236  -0.38456 
 C                     6.38909   0.7545    0.17348 
 C                     7.74108   1.08345   0.06318 
 C                     8.14522   2.38795  -0.27313 
 C                     7.14227   3.35147  -0.49498 
 H                    -2.95941   1.39581   0.20207 
 H                    -2.177     2.47095  -1.01813 
 H                    -2.14143   2.9127    0.73773 
 H                    -0.78422   0.44613  -0.5353 
 H                    -0.7487    0.88711   1.21751 
 H                     0.40744   3.03819   0.65477 
 H                     0.37182   2.59634  -1.10155 
 H                     1.61445   0.44784   0.34785 
 H                     5.09448   3.82257  -0.57168 
 H                     6.12558  -0.26307   0.43476 
 H                     8.47241   0.30546   0.24391 
 C                     9.60904   2.69502  -0.38023 
 H                     7.3749    4.37029  -0.75595 
 O                     10.41631   1.8007   -0.17179 
 C                     10.17488   4.04684  -0.73177 
 H                     9.41941   4.82875  -0.913 
 H                     10.82563   4.39564   0.09744 
 H                     10.78993   3.95575  -1.65163 
 

 GradGradGradGradGradGradGradGradGradGradGradGradGradGradGradGradGradGrad
 Berny optimization.
 Initialization pass.
                           ----------------------------
                           !    Initial Parameters    !
                           ! (Angstroms and Degrees)  !
 --------------------------                            --------------------------
 ! Name  Definition              Value          Derivative Info.                !
 --------------------------------------------------------------------------------
 ! R1    R(1,2)                  1.5259         calculate D2E/DX2 analytically  !
 ! R2    R(1,14)                 1.1104         calculate D2E/DX2 analytically  !
 ! R3    R(1,15)                 1.1109         calculate D2E/DX2 analytically  !
 ! R4    R(1,16)                 1.1109         calculate D2E/DX2 analytically  !
 ! R5    R(2,3)                  1.533          calculate D2E/DX2 analytically  !
 ! R6    R(2,17)                 1.1118         calculate D2E/DX2 analytically  !
 ! R7    R(2,18)                 1.1119         calculate D2E/DX2 analytically  !
 ! R8    R(3,4)                  1.4527         calculate D2E/DX2 analytically  !
 ! R9    R(3,19)                 1.1125         calculate D2E/DX2 analytically  !
 ! R10   R(3,20)                 1.1125         calculate D2E/DX2 analytically  !
 ! R11   R(4,5)                  1.3632         calculate D2E/DX2 analytically  !
 ! R12   R(4,21)                 1.0323         calculate D2E/DX2 analytically  !
 ! R13   R(5,6)                  1.2207         calculate D2E/DX2 analytically  !
 ! R14   R(5,7)                  1.3692         calculate D2E/DX2 analytically  !
 ! R15   R(7,8)                  1.4397         calculate D2E/DX2 analytically  !
 ! R16   R(8,9)                  1.4134         calculate D2E/DX2 analytically  !
 ! R17   R(8,10)                 1.4053         calculate D2E/DX2 analytically  !
 ! R18   R(9,13)                 1.3996         calculate D2E/DX2 analytically  !
 ! R19   R(9,22)                 1.0743         calculate D2E/DX2 analytically  !
 ! R20   R(10,11)                1.3958         calculate D2E/DX2 analytically  !
 ! R21   R(10,23)                1.0831         calculate D2E/DX2 analytically  !
 ! R22   R(11,12)                1.4065         calculate D2E/DX2 analytically  !
 ! R23   R(11,24)                1.0829         calculate D2E/DX2 analytically  !
 ! R24   R(12,13)                1.4084         calculate D2E/DX2 analytically  !
 ! R25   R(12,25)                1.4995         calculate D2E/DX2 analytically  !
 ! R26   R(13,26)                1.0771         calculate D2E/DX2 analytically  !
 ! R27   R(25,27)                1.2227         calculate D2E/DX2 analytically  !
 ! R28   R(25,28)                1.507          calculate D2E/DX2 analytically  !
 ! R29   R(28,29)                1.1023         calculate D2E/DX2 analytically  !
 ! R30   R(28,30)                1.1103         calculate D2E/DX2 analytically  !
 ! R31   R(28,31)                1.1103         calculate D2E/DX2 analytically  !
 ! A1    A(2,1,14)             109.5833         calculate D2E/DX2 analytically  !
 ! A2    A(2,1,15)             110.3392         calculate D2E/DX2 analytically  !
 ! A3    A(2,1,16)             110.3396         calculate D2E/DX2 analytically  !
 ! A4    A(14,1,15)            108.6746         calculate D2E/DX2 analytically  !
 ! A5    A(14,1,16)            108.6751         calculate D2E/DX2 analytically  !
 ! A6    A(15,1,16)            109.1894         calculate D2E/DX2 analytically  !
 ! A7    A(1,2,3)              111.2344         calculate D2E/DX2 analytically  !
 ! A8    A(1,2,17)             108.9241         calculate D2E/DX2 analytically  !
 ! A9    A(1,2,18)             108.9244         calculate D2E/DX2 analytically  !
 ! A10   A(3,2,17)             109.4719         calculate D2E/DX2 analytically  !
 ! A11   A(3,2,18)             109.4717         calculate D2E/DX2 analytically  !
 ! A12   A(17,2,18)            108.7729         calculate D2E/DX2 analytically  !
 ! A13   A(2,3,4)              111.0094         calculate D2E/DX2 analytically  !
 ! A14   A(2,3,19)             109.1841         calculate D2E/DX2 analytically  !
 ! A15   A(2,3,20)             109.1833         calculate D2E/DX2 analytically  !
 ! A16   A(4,3,19)             109.2174         calculate D2E/DX2 analytically  !
 ! A17   A(4,3,20)             109.2169         calculate D2E/DX2 analytically  !
 ! A18   A(19,3,20)            109.0002         calculate D2E/DX2 analytically  !
 ! A19   A(3,4,5)              121.8625         calculate D2E/DX2 analytically  !
 ! A20   A(3,4,21)             119.0363         calculate D2E/DX2 analytically  !
 ! A21   A(5,4,21)             119.1012         calculate D2E/DX2 analytically  !
 ! A22   A(4,5,6)              119.2381         calculate D2E/DX2 analytically  !
 ! A23   A(4,5,7)              119.444          calculate D2E/DX2 analytically  !
 ! A24   A(6,5,7)              121.3179         calculate D2E/DX2 analytically  !
 ! A25   A(5,7,8)              127.97           calculate D2E/DX2 analytically  !
 ! A26   A(7,8,9)              124.6202         calculate D2E/DX2 analytically  !
 ! A27   A(7,8,10)             117.6982         calculate D2E/DX2 analytically  !
 ! A28   A(9,8,10)             117.6816         calculate D2E/DX2 analytically  !
 ! A29   A(8,9,13)             120.9054         calculate D2E/DX2 analytically  !
 ! A30   A(8,9,22)             123.3049         calculate D2E/DX2 analytically  !
 ! A31   A(13,9,22)            115.7897         calculate D2E/DX2 analytically  !
 ! A32   A(8,10,11)            121.3814         calculate D2E/DX2 analytically  !
 ! A33   A(8,10,23)            120.1861         calculate D2E/DX2 analytically  !
 ! A34   A(11,10,23)           118.4325         calculate D2E/DX2 analytically  !
 ! A35   A(10,11,12)           121.0514         calculate D2E/DX2 analytically  !
 ! A36   A(10,11,24)           118.1398         calculate D2E/DX2 analytically  !
 ! A37   A(12,11,24)           120.8088         calculate D2E/DX2 analytically  !
 ! A38   A(11,12,13)           117.8772         calculate D2E/DX2 analytically  !
 ! A39   A(11,12,25)           119.1775         calculate D2E/DX2 analytically  !
 ! A40   A(13,12,25)           122.9453         calculate D2E/DX2 analytically  !
 ! A41   A(9,13,12)            121.1031         calculate D2E/DX2 analytically  !
 ! A42   A(9,13,26)            116.7924         calculate D2E/DX2 analytically  !
 ! A43   A(12,13,26)           122.1046         calculate D2E/DX2 analytically  !
 ! A44   A(12,25,27)           118.8535         calculate D2E/DX2 analytically  !
 ! A45   A(12,25,28)           124.5327         calculate D2E/DX2 analytically  !
 ! A46   A(27,25,28)           116.6138         calculate D2E/DX2 analytically  !
 ! A47   A(25,28,29)           114.6658         calculate D2E/DX2 analytically  !
 ! A48   A(25,28,30)           109.1261         calculate D2E/DX2 analytically  !
 ! A49   A(25,28,31)           109.1267         calculate D2E/DX2 analytically  !
 ! A50   A(29,28,30)           107.5571         calculate D2E/DX2 analytically  !
 ! A51   A(29,28,31)           107.5571         calculate D2E/DX2 analytically  !
 ! A52   A(30,28,31)           108.6538         calculate D2E/DX2 analytically  !
 ! D1    D(14,1,2,3)           179.9995         calculate D2E/DX2 analytically  !
 ! D2    D(14,1,2,17)           59.2505         calculate D2E/DX2 analytically  !
 ! D3    D(14,1,2,18)          -59.2516         calculate D2E/DX2 analytically  !
 ! D4    D(15,1,2,3)            60.3743         calculate D2E/DX2 analytically  !
 ! D5    D(15,1,2,17)          -60.3747         calculate D2E/DX2 analytically  !
 ! D6    D(15,1,2,18)         -178.8769         calculate D2E/DX2 analytically  !
 ! D7    D(16,1,2,3)           -60.3743         calculate D2E/DX2 analytically  !
 ! D8    D(16,1,2,17)          178.8767         calculate D2E/DX2 analytically  !
 ! D9    D(16,1,2,18)           60.3746         calculate D2E/DX2 analytically  !
 ! D10   D(1,2,3,4)           -179.9984         calculate D2E/DX2 analytically  !
 ! D11   D(1,2,3,19)            59.541          calculate D2E/DX2 analytically  !
 ! D12   D(1,2,3,20)           -59.5388         calculate D2E/DX2 analytically  !
 ! D13   D(17,2,3,4)           -59.572          calculate D2E/DX2 analytically  !
 ! D14   D(17,2,3,19)          179.9673         calculate D2E/DX2 analytically  !
 ! D15   D(17,2,3,20)           60.8875         calculate D2E/DX2 analytically  !
 ! D16   D(18,2,3,4)            59.5751         calculate D2E/DX2 analytically  !
 ! D17   D(18,2,3,19)          -60.8855         calculate D2E/DX2 analytically  !
 ! D18   D(18,2,3,20)         -179.9653         calculate D2E/DX2 analytically  !
 ! D19   D(2,3,4,5)            179.9976         calculate D2E/DX2 analytically  !
 ! D20   D(2,3,4,21)            -0.0006         calculate D2E/DX2 analytically  !
 ! D21   D(19,3,4,5)           -59.5615         calculate D2E/DX2 analytically  !
 ! D22   D(19,3,4,21)          120.4403         calculate D2E/DX2 analytically  !
 ! D23   D(20,3,4,5)            59.5579         calculate D2E/DX2 analytically  !
 ! D24   D(20,3,4,21)         -120.4403         calculate D2E/DX2 analytically  !
 ! D25   D(3,4,5,6)              0.0013         calculate D2E/DX2 analytically  !
 ! D26   D(3,4,5,7)           -179.9976         calculate D2E/DX2 analytically  !
 ! D27   D(21,4,5,6)           179.9995         calculate D2E/DX2 analytically  !
 ! D28   D(21,4,5,7)             0.0006         calculate D2E/DX2 analytically  !
 ! D29   D(4,5,7,8)            179.9977         calculate D2E/DX2 analytically  !
 ! D30   D(6,5,7,8)             -0.0012         calculate D2E/DX2 analytically  !
 ! D31   D(5,7,8,9)              0.0066         calculate D2E/DX2 analytically  !
 ! D32   D(5,7,8,10)          -179.9934         calculate D2E/DX2 analytically  !
 ! D33   D(7,8,9,13)          -179.999          calculate D2E/DX2 analytically  !
 ! D34   D(7,8,9,22)             0.0009         calculate D2E/DX2 analytically  !
 ! D35   D(10,8,9,13)            0.0009         calculate D2E/DX2 analytically  !
 ! D36   D(10,8,9,22)         -179.9991         calculate D2E/DX2 analytically  !
 ! D37   D(7,8,10,11)          179.9991         calculate D2E/DX2 analytically  !
 ! D38   D(7,8,10,23)           -0.0006         calculate D2E/DX2 analytically  !
 ! D39   D(9,8,10,11)           -0.0009         calculate D2E/DX2 analytically  !
 ! D40   D(9,8,10,23)          179.9994         calculate D2E/DX2 analytically  !
 ! D41   D(8,9,13,12)           -0.0003         calculate D2E/DX2 analytically  !
 ! D42   D(8,9,13,26)          179.9991         calculate D2E/DX2 analytically  !
 ! D43   D(22,9,13,12)         179.9998         calculate D2E/DX2 analytically  !
 ! D44   D(22,9,13,26)          -0.0008         calculate D2E/DX2 analytically  !
 ! D45   D(8,10,11,12)           0.0002         calculate D2E/DX2 analytically  !
 ! D46   D(8,10,11,24)        -179.9992         calculate D2E/DX2 analytically  !
 ! D47   D(23,10,11,12)        179.9999         calculate D2E/DX2 analytically  !
 ! D48   D(23,10,11,24)          0.0005         calculate D2E/DX2 analytically  !
 ! D49   D(10,11,12,13)          0.0005         calculate D2E/DX2 analytically  !
 ! D50   D(10,11,12,25)       -179.9991         calculate D2E/DX2 analytically  !
 ! D51   D(24,11,12,13)        179.9998         calculate D2E/DX2 analytically  !
 ! D52   D(24,11,12,25)          0.0002         calculate D2E/DX2 analytically  !
 ! D53   D(11,12,13,9)          -0.0004         calculate D2E/DX2 analytically  !
 ! D54   D(11,12,13,26)       -179.9998         calculate D2E/DX2 analytically  !
 ! D55   D(25,12,13,9)         179.9991         calculate D2E/DX2 analytically  !
 ! D56   D(25,12,13,26)         -0.0002         calculate D2E/DX2 analytically  !
 ! D57   D(11,12,25,27)         -0.0005         calculate D2E/DX2 analytically  !
 ! D58   D(11,12,25,28)        179.9987         calculate D2E/DX2 analytically  !
 ! D59   D(13,12,25,27)       -180.0            calculate D2E/DX2 analytically  !
 ! D60   D(13,12,25,28)         -0.0008         calculate D2E/DX2 analytically  !
 ! D61   D(12,25,28,29)          0.0006         calculate D2E/DX2 analytically  !
 ! D62   D(12,25,28,30)        120.7039         calculate D2E/DX2 analytically  !
 ! D63   D(12,25,28,31)       -120.7031         calculate D2E/DX2 analytically  !
 ! D64   D(27,25,28,29)        179.9998         calculate D2E/DX2 analytically  !
 ! D65   D(27,25,28,30)        -59.2969         calculate D2E/DX2 analytically  !
 ! D66   D(27,25,28,31)         59.2961         calculate D2E/DX2 analytically  !
 --------------------------------------------------------------------------------
 Trust Radius=3.00D-01 FncErr=1.00D-07 GrdErr=1.00D-06
 Number of steps in this run=    159 maximum allowed number of steps=    186.
 GradGradGradGradGradGradGradGradGradGradGradGradGradGradGradGradGradGrad

                          Input orientation:                          
 ---------------------------------------------------------------------
 Center     Atomic      Atomic             Coordinates (Angstroms)
 Number     Number       Type             X           Y           Z
 ---------------------------------------------------------------------
      1          6           0       -2.097410    2.070260    0.014930
      2          6           0       -0.794590    1.294040    0.183820
      3          6           0        0.422860    2.191430   -0.066620
      4          7           0        1.660240    1.447710    0.095380
      5          6           0        2.879400    2.032950   -0.076620
      6          8           0        2.936460    3.215160   -0.375200
      7          7           0        4.014290    1.285050    0.088460
      8          6           0        5.383020    1.710660   -0.046470
      9          6           0        5.786440    3.022360   -0.384560
     10          6           0        6.389090    0.754500    0.173480
     11          6           0        7.741080    1.083450    0.063180
     12          6           0        8.145220    2.387950   -0.273130
     13          6           0        7.142270    3.351470   -0.494980
     14          1           0       -2.959410    1.395810    0.202070
     15          1           0       -2.177000    2.470950   -1.018130
     16          1           0       -2.141430    2.912700    0.737730
     17          1           0       -0.784220    0.446130   -0.535300
     18          1           0       -0.748700    0.887110    1.217510
     19          1           0        0.407440    3.038190    0.654770
     20          1           0        0.371820    2.596340   -1.101550
     21          1           0        1.614450    0.447840    0.347850
     22          1           0        5.094480    3.822570   -0.571680
     23          1           0        6.125580   -0.263070    0.434760
     24          1           0        8.472410    0.305460    0.243910
     25          6           0        9.609040    2.695020   -0.380230
     26          1           0        7.374900    4.370290   -0.755950
     27          8           0       10.416310    1.800700   -0.171790
     28          6           0       10.174880    4.046840   -0.731770
     29          1           0        9.419410    4.828750   -0.913000
     30          1           0       10.825630    4.395640    0.097440
     31          1           0       10.789930    3.955750   -1.651630
 ---------------------------------------------------------------------
                    Distance matrix (angstroms):
                    1          2          3          4          5
     1  C    0.000000
     2  C    1.525903   0.000000
     3  C    2.524499   1.533041   0.000000
     4  N    3.809721   2.461225   1.452747   0.000000
     5  C    4.977792   3.756597   2.461667   1.363246   0.000000
     6  O    5.177146   4.233667   2.731562   2.230261   1.220666
     7  N    6.162373   4.809834   3.707283   2.359673   1.369153
     8  C    7.489320   6.195924   4.983446   3.734750   2.524459
     9  C    7.951175   6.827891   5.436867   4.442453   3.086202
    10  C    8.589356   7.203920   6.141524   4.780027   3.743649
    11  C    9.887973   8.539120   7.402757   6.091825   4.955505
    12  C   10.251604   9.018073   7.727620   6.563141   5.281430
    13  C    9.342012   8.227243   6.832251   5.833136   4.481694
    14  H    1.110382   2.167288   3.484961   4.621173   5.880078
    15  H    1.110901   2.177351   2.782584   4.124480   5.161925
    16  H    1.110893   2.177350   2.782587   4.124500   5.161963
    17  H    2.159866   1.111842   2.173195   2.715935   4.018768
    18  H    2.159875   1.111851   2.173199   2.715960   4.018810
    19  H    2.760536   2.169961   1.112494   2.100488   2.766952
    20  H    2.760504   2.169948   1.112491   2.100481   2.766920
    21  H    4.064602   2.558600   2.152157   1.032268   2.071919
    22  H    7.425495   6.453324   4.973906   4.228349   2.890399
    23  H    8.557935   7.097627   6.228721   4.793872   4.008853
    24  H   10.718584   9.319774   8.273365   6.908868   5.862484
    25  C   11.729768  10.512679   9.205317   8.060112   6.768942
    26  H    9.777988   8.779923   7.318023   6.474842   5.112159
    27  O   12.518016  11.227976  10.001639   8.767254   7.541088
    28  C   12.452852  11.346607   9.949214   8.940847   7.596644
    29  H   11.878866  10.863838   9.413274   8.523672   7.161547
    30  H   13.130848  12.027340  10.634993   9.627807   8.291874
    31  H   13.130728  12.027247  10.634906   9.627749   8.291821
                    6          7          8          9         10
     6  O    0.000000
     7  N    2.258766   0.000000
     8  C    2.890889   1.439712   0.000000
     9  C    2.856509   2.526363   1.413368   0.000000
    10  C    4.275108   2.434828   1.405275   2.412008   0.000000
    11  C    5.274537   3.732324   2.442512   2.789348   1.395798
    12  C    5.275024   4.290888   2.853041   2.445145   2.439593
    13  C    4.209723   3.794042   2.447117   1.399565   2.785385
    14  H    6.197141   6.975505   8.352068   8.915138   9.370515
    15  H    5.207176   6.400232   7.660030   8.007611   8.817258
    16  H    5.207213   6.400288   7.660106   8.007664   8.817368
    17  H    4.640756   4.911065   6.314494   7.059267   7.214835
    18  H    4.640792   4.911129   6.314576   7.059318   7.214959
    19  H    2.736439   4.050133   5.197160   5.478512   6.420827
    20  H    2.736403   4.050086   5.197090   5.478474   6.420718
    21  H    3.150964   2.554885   3.994036   4.956821   4.787654
    22  H    2.250467   2.835772   2.195282   1.074318   3.412379
    23  H    4.787965   2.640861   2.163004   3.402992   1.083122
    24  H    6.284616   4.567121   3.406353   3.871815   2.132327
    25  C    6.692824   5.788688   4.351966   3.836592   3.800038
    26  H    4.602070   4.639551   3.397732   2.116141   3.861295
    27  O    7.615132   6.428023   5.035655   4.793060   4.175194
    28  C    7.294762   6.800965   5.374876   4.519792   5.098155
    29  H    6.702353   6.540341   5.173568   4.091548   5.192571
    30  H    7.990990   7.488004   6.070571   5.245156   5.739910
    31  H    7.990916   7.487980   6.070555   5.245150   5.739897
                   11         12         13         14         15
    11  C    0.000000
    12  C    1.406469   0.000000
    13  C    2.411230   1.408367   0.000000
    14  H   10.705949  11.158986  10.312828   0.000000
    15  H   10.072869  10.349403   9.375382   1.804710   0.000000
    16  H   10.072992  10.349511   9.375456   1.804710   1.810926
    17  H    8.570011   9.141898   8.442267   2.485369   2.504567
    18  H    8.570145   9.142010   8.442340   2.485384   3.089770
    19  H    7.612704   7.820297   6.839445   3.773331   3.130445
    20  H    7.612583   7.820195   6.839382   3.773300   2.553266
    21  H    6.166087   6.841096   6.300653   4.673339   4.509320
    22  H    3.861388   3.384417   2.102680   8.447070   7.409495
    23  H    2.135656   3.407046   3.868200   9.238131   8.861072
    24  H    1.082948   2.170518   3.404909  11.483776  10.940385
    25  C    2.506600   1.499510   2.555200  12.648832  11.805417
    26  H    3.407107   2.180867   1.077133  10.796448   9.742434
    27  O    2.779661   2.347974   3.637125  13.387068  12.639501
    28  C    3.916249   2.661163   3.120310  13.431664  12.455295
    29  H    4.218648   2.826747   2.746355  12.894326  11.834145
    30  H    4.526171   3.369383   3.874067  14.108056  13.191562
    31  H    4.526165   3.369384   3.874070  14.107936  13.067028
                   16         17         18         19         20
    16  H    0.000000
    17  H    3.089756   0.000000
    18  H    2.504576   1.807780   0.000000
    19  H    2.553305   3.091132   2.506089   0.000000
    20  H    3.130409   2.506087   3.091128   1.811397   0.000000
    21  H    4.509343   2.556086   2.556119   2.874193   2.874185
    22  H    7.409508   6.779438   6.779445   4.907930   4.907945
    23  H    8.861194   7.013510   7.013654   6.606349   6.606226
    24  H   10.940528   9.290434   9.290591   8.525278   8.525136
    25  C   11.805540  10.634914  10.635041   9.265983   9.265866
    26  H    9.742494   9.056432   9.056487   7.232574   7.232528
    27  O   12.639644  11.287997  11.288146  10.118896  10.118759
    28  C   12.455408  11.537139  11.537252   9.916791   9.916687
    29  H   11.834238  11.111439  11.111528   9.320923   9.320842
    30  H   13.067277  12.279561  12.146170  10.521025  10.675074
    31  H   13.191553  12.145969  12.279597  10.675088  10.520817
                   21         22         23         24         25
    21  H    0.000000
    22  H    4.934060   0.000000
    23  H    4.567630   4.332268   0.000000
    24  H    6.860225   4.944255   2.422243   0.000000
    25  C    8.336269   4.657174   4.642090   2.718727   0.000000
    26  H    7.055974   2.352502   4.944352   4.327481   2.817637
    27  O    8.920370   5.706991   4.799731   2.487428   1.222678
    28  C    9.348762   5.087867   6.027682   4.224722   1.507041
    29  H    9.038778   4.453529   6.212278   4.763969   2.207398
    30  H   10.024653   5.798466   6.626299   4.721088   2.144847
    31  H   10.024609   5.798464   6.626283   4.721079   2.144854
                   26         27         28         29         30
    26  H    0.000000
    27  O    4.024203   0.000000
    28  C    2.818704   2.327447   0.000000
    29  H    2.101160   3.272963   1.102253   0.000000
    30  H    3.554779   2.640784   1.110282   1.784945   0.000000
    31  H    3.554788   2.640788   1.110282   1.784945   1.803891
                   31
    31  H    0.000000
 Stoichiometry    C12H15N2O2(1-)
 Framework group  C1[X(C12H15N2O2)]
 Deg. of freedom    87
 Full point group                 C1      NOp   1
 Largest Abelian subgroup         C1      NOp   1
 Largest concise Abelian subgroup C1      NOp   1
                         Standard orientation:                         
 ---------------------------------------------------------------------
 Center     Atomic      Atomic             Coordinates (Angstroms)
 Number     Number       Type             X           Y           Z
 ---------------------------------------------------------------------
      1          6           0       -6.895921   -0.463996    0.000203
      2          6           0       -5.667733    0.441507    0.000057
      3          6           0       -4.372848   -0.379156    0.000012
      4          7           0       -3.206939    0.487520   -0.000089
      5          6           0       -1.938658   -0.012385   -0.000095
      6          8           0       -1.774562   -1.221971   -0.000038
      7          7           0       -0.875282    0.850062   -0.000141
      8          6           0        0.527607    0.526530   -0.000109
      9          6           0        1.048679   -0.787279   -0.000156
     10          6           0        1.443699    1.592163   -0.000026
     11          6           0        2.821137    1.366521    0.000029
     12          6           0        3.342274    0.060163   -0.000002
     13          6           0        2.429959   -1.012767   -0.000100
     14          1           0       -7.816290    0.157187    0.000242
     15          1           0       -6.901081   -1.107526    0.905710
     16          1           0       -6.901222   -1.107635   -0.905216
     17          1           0       -5.696534    1.088361    0.903906
     18          1           0       -5.696663    1.088256   -0.903874
     19          1           0       -4.349261   -1.024795   -0.905657
     20          1           0       -4.349159   -1.024705    0.905740
     21          1           0       -3.343263    1.510747   -0.000129
     22          1           0        0.431535   -1.666649   -0.000234
     23          1           0        1.088758    2.615477    0.000003
     24          1           0        3.479538    2.226336    0.000106
     25          6           0        4.829196   -0.133727    0.000080
     26          1           0        2.754234   -2.039929   -0.000125
     27          8           0        5.552741    0.851881    0.000163
     28          6           0        5.515801   -1.475273    0.000086
     29          1           0        4.833694   -2.341121    0.000013
     30          1           0        6.158393   -1.555057   -0.901821
     31          1           0        6.158278   -1.555119    0.902070
 ---------------------------------------------------------------------
 Rotational constants (GHZ):      2.4918919      0.1524814      0.1442296
 General basis read from cards:  (6D, 7F)
 There are   334 symmetry adapted cartesian basis functions of A   symmetry.
 There are   334 symmetry adapted basis functions of A   symmetry.
   334 basis functions,   572 primitive gaussians,   334 cartesian basis functions
    59 alpha electrons       59 beta electrons
       nuclear repulsion energy       985.1626656546 Hartrees.
 NAtoms=   31 NActive=   31 NUniq=   31 SFac= 1.00D+00 NAtFMM=   60 NAOKFM=F Big=F
 Integral buffers will be    131072 words long.
 Raffenetti 2 integral format.
 Two-electron integral symmetry is turned on.
 Force inversion solution in PCM.
 ------------------------------------------------------------------------------
 Polarizable Continuum Model (PCM)
 =================================
 Model                : PCM (using non-symmetric T matrix).
 Atomic radii         : SMD-Coulomb.
 Polarization charges : Total charges.
 Charge compensation  : None.
 Solution method      : Matrix inversion.
 Cavity type          : VdW (van der Waals Surface) (Alpha=1.000).
 Cavity algorithm     : GePol (No added spheres)
                        Default sphere list used, NSphG=   31.
                        Lebedev-Laikov grids with approx.  5.0 points / Ang**2.
                        Smoothing algorithm: York/Karplus (Gamma=1.0000).
                        Polarization charges: spherical gaussians, with
                                              point-specific exponents (IZeta= 3).
                        Self-potential: point-specific (ISelfS= 7).
                        Self-field    : sphere-specific E.n sum rule (ISelfD= 2).
 1st derivatives      : Analytical E(r).r(x)/FMM algorithm (CHGder, D1EAlg=3).
                        Cavity 1st derivative terms included.
 2nd derivatives      : Analytical E(r).r(xy)/FMM algorithm (CHGder, D2EAlg=3).
                        Cavity 2nd derivative terms included.
 Solvent              : Water, Eps=  78.355300 Eps(inf)=   1.777849
 ------------------------------------------------------------------------------
 ------------------------------------------------------------------------------
 Atomic radii for non-electrostatic terms: SMD-CDS.
 ------------------------------------------------------------------------------
 Nuclear repulsion after PCM non-electrostatic terms =      985.1709753602 Hartrees.
 One-electron integrals computed using PRISM.
 NBasis=   334 RedAO= T EigKep=  1.49D-06  NBF=   334
 NBsUse=   333 1.00D-06 EigRej=  7.93D-07 NBFU=   333
 ExpMin= 4.38D-02 ExpMax= 5.48D+03 ExpMxC= 8.25D+02 IAcc=3 IRadAn=         5 AccDes= 0.00D+00
 Harris functional with IExCor= 1009 and IRadAn=       5 diagonalized for initial guess.
 HarFok:  IExCor= 1009 AccDes= 0.00D+00 IRadAn=         5 IDoV= 1 UseB2=F ITyADJ=14
 ICtDFT=  3500011 ScaDFX=  1.000000  1.000000  1.000000  1.000000
 FoFCou: FMM=F IPFlag=           0 FMFlag=      100000 FMFlg1=           0
         NFxFlg=           0 DoJE=T BraDBF=F KetDBF=T FulRan=T
         wScrn=  0.000000 ICntrl=     500 IOpCl=  0 I1Cent=   200000004 NGrid=           0
         NMat0=    1 NMatS0=      1 NMatT0=    0 NMatD0=    1 NMtDS0=    0 NMtDT0=    0
 Petite list used in FoFCou.
 Requested convergence on RMS density matrix=1.00D-08 within 128 cycles.
 Requested convergence on MAX density matrix=1.00D-06.
 Requested convergence on             energy=1.00D-06.
 No special actions if energy rises.
 Inv3:  Mode=1 IEnd=    17337648.
 Iteration    1 A*A^-1 deviation from unit magnitude is 4.22D-15 for   2402.
 Iteration    1 A*A^-1 deviation from orthogonality  is 2.45D-15 for   1986     11.
 Iteration    1 A^-1*A deviation from unit magnitude is 4.22D-15 for   2402.
 Iteration    1 A^-1*A deviation from orthogonality  is 5.04D-11 for   2153   2141.
 Error on total polarization charges =  0.07665
 SCF Done:  E(RM062X) =  -726.129492264     A.U. after   16 cycles
            NFock= 16  Conv=0.63D-08     -V/T= 2.0091
 SMD-CDS (non-electrostatic) energy       (kcal/mol) =       5.21
 (included in total energy above)
 DoSCS=F DFT=T ScalE2(SS,OS)=  1.000000  1.000000
 Range of M.O.s used for correlation:     1   333
 NBasis=   334 NAE=    59 NBE=    59 NFC=     0 NFV=     0
 NROrb=    333 NOA=    59 NOB=    59 NVA=   274 NVB=   274

 **** Warning!!: The largest alpha MO coefficient is  0.14649301D+03

 Symmetrizing basis deriv contribution to polar:
 IMax=3 JMax=2 DiffMx= 0.00D+00
 G2DrvN: will do    32 centers at a time, making    1 passes.
 Calling FoFCou, ICntrl=  3107 FMM=F I1Cent=   0 AccDes= 0.00D+00.
 NEqPCM:  Using equilibrium solvation (IEInf=0, Eps=  78.3553, EpsInf=   1.7778)
 G2PCM: DoFxE=T DoFxN=T DoGrad=T DoDP/DQ/DG/TGxP=FFFF NFrqRd=   0 IEInf=0 SqF1=F DoCFld=F IF1Alg=4.
 End of G2Drv F.D. properties file   721 does not exist.
 End of G2Drv F.D. properties file   722 does not exist.
 End of G2Drv F.D. properties file   788 does not exist.
          IDoAtm=1111111111111111111111111111111
 NEqPCM:  Using equilibrium solvation (IEInf=0, Eps=  78.3553, EpsInf=   1.7778)
          Differentiating once with respect to nuclear coordinates.
          There are    96 degrees of freedom in the 1st order CPHF.  IDoFFX=6 NUNeed=     0.
     90 vectors produced by pass  0 Test12= 1.68D-14 1.04D-09 XBig12= 2.01D-01 1.02D-01.
 AX will form    90 AO Fock derivatives at one time.
     90 vectors produced by pass  1 Test12= 1.68D-14 1.04D-09 XBig12= 1.43D-02 1.86D-02.
     90 vectors produced by pass  2 Test12= 1.68D-14 1.04D-09 XBig12= 3.05D-04 2.68D-03.
     90 vectors produced by pass  3 Test12= 1.68D-14 1.04D-09 XBig12= 2.54D-06 2.28D-04.
     90 vectors produced by pass  4 Test12= 1.68D-14 1.04D-09 XBig12= 1.36D-08 1.24D-05.
     90 vectors produced by pass  5 Test12= 1.68D-14 1.04D-09 XBig12= 6.14D-11 9.75D-07.
     67 vectors produced by pass  6 Test12= 1.68D-14 1.04D-09 XBig12= 2.16D-13 5.30D-08.
     24 vectors produced by pass  7 Test12= 1.68D-14 1.04D-09 XBig12= 1.06D-15 4.03D-09.
     15 vectors produced by pass  8 Test12= 1.68D-14 1.04D-09 XBig12= 1.40D-15 4.98D-09.
     14 vectors produced by pass  9 Test12= 1.68D-14 1.04D-09 XBig12= 3.80D-15 9.71D-09.
      8 vectors produced by pass 10 Test12= 1.68D-14 1.04D-09 XBig12= 2.15D-15 5.81D-09.
      8 vectors produced by pass 11 Test12= 1.68D-14 1.04D-09 XBig12= 1.22D-14 1.09D-08.
      8 vectors produced by pass 12 Test12= 1.68D-14 1.04D-09 XBig12= 1.32D-14 1.23D-08.
      7 vectors produced by pass 13 Test12= 1.68D-14 1.04D-09 XBig12= 5.87D-15 5.77D-09.
      4 vectors produced by pass 14 Test12= 1.68D-14 1.04D-09 XBig12= 3.20D-15 5.31D-09.
      4 vectors produced by pass 15 Test12= 1.68D-14 1.04D-09 XBig12= 7.04D-15 6.80D-09.
      3 vectors produced by pass 16 Test12= 1.68D-14 1.04D-09 XBig12= 3.68D-15 6.57D-09.
      3 vectors produced by pass 17 Test12= 1.68D-14 1.04D-09 XBig12= 2.41D-15 3.84D-09.
      3 vectors produced by pass 18 Test12= 1.68D-14 1.04D-09 XBig12= 7.22D-15 6.86D-09.
      3 vectors produced by pass 19 Test12= 1.68D-14 1.04D-09 XBig12= 1.49D-14 9.87D-09.
      3 vectors produced by pass 20 Test12= 1.68D-14 1.04D-09 XBig12= 2.74D-15 4.78D-09.
      3 vectors produced by pass 21 Test12= 1.68D-14 1.04D-09 XBig12= 5.17D-15 6.31D-09.
      3 vectors produced by pass 22 Test12= 1.68D-14 1.04D-09 XBig12= 4.18D-15 4.85D-09.
      3 vectors produced by pass 23 Test12= 1.68D-14 1.04D-09 XBig12= 8.82D-15 9.25D-09.
      3 vectors produced by pass 24 Test12= 1.68D-14 1.04D-09 XBig12= 4.65D-15 5.12D-09.
      3 vectors produced by pass 25 Test12= 1.68D-14 1.04D-09 XBig12= 4.40D-15 5.17D-09.
      3 vectors produced by pass 26 Test12= 1.68D-14 1.04D-09 XBig12= 1.04D-14 8.25D-09.
      2 vectors produced by pass 27 Test12= 1.68D-14 1.04D-09 XBig12= 3.25D-15 4.92D-09.
 InvSVY:  IOpt=1 It=  1 EMax= 5.00D-16
 Solved reduced A of dimension   734 with    96 vectors.
 End of Minotr F.D. properties file   721 does not exist.
 End of Minotr F.D. properties file   722 does not exist.
 End of Minotr F.D. properties file   788 does not exist.

 **********************************************************************

            Population analysis using the SCF density.

 **********************************************************************

 Orbital symmetries:
       Occupied  (A) (A) (A) (A) (A) (A) (A) (A) (A) (A) (A) (A)
                 (A) (A) (A) (A) (A) (A) (A) (A) (A) (A) (A) (A)
                 (A) (A) (A) (A) (A) (A) (A) (A) (A) (A) (A) (A)
                 (A) (A) (A) (A) (A) (A) (A) (A) (A) (A) (A) (A)
                 (A) (A) (A) (A) (A) (A) (A) (A) (A) (A) (A)
       Virtual   (A) (A) (A) (A) (A) (A) (A) (A) (A) (A) (A) (A)
                 (A) (A) (A) (A) (A) (A) (A) (A) (A) (A) (A) (A)
                 (A) (A) (A) (A) (A) (A) (A) (A) (A) (A) (A) (A)
                 (A) (A) (A) (A) (A) (A) (A) (A) (A) (A) (A) (A)
                 (A) (A) (A) (A) (A) (A) (A) (A) (A) (A) (A) (A)
                 (A) (A) (A) (A) (A) (A) (A) (A) (A) (A) (A) (A)
                 (A) (A) (A) (A) (A) (A) (A) (A) (A) (A) (A) (A)
                 (A) (A) (A) (A) (A) (A) (A) (A) (A) (A) (A) (A)
                 (A) (A) (A) (A) (A) (A) (A) (A) (A) (A) (A) (A)
                 (A) (A) (A) (A) (A) (A) (A) (A) (A) (A) (A) (A)
                 (A) (A) (A) (A) (A) (A) (A) (A) (A) (A) (A) (A)
                 (A) (A) (A) (A) (A) (A) (A) (A) (A) (A) (A) (A)
                 (A) (A) (A) (A) (A) (A) (A) (A) (A) (A) (A) (A)
                 (A) (A) (A) (A) (A) (A) (A) (A) (A) (A) (A) (A)
                 (A) (A) (A) (A) (A) (A) (A) (A) (A) (A) (A) (A)
                 (A) (A) (A) (A) (A) (A) (A) (A) (A) (A) (A) (A)
                 (A) (A) (A) (A) (A) (A) (A) (A) (A) (A) (A) (A)
                 (A) (A) (A) (A) (A) (A) (A) (A) (A) (A) (A) (A)
                 (A) (A) (A) (A) (A) (A) (A) (A) (A) (A) (A) (A)
                 (A) (A) (A) (A) (A) (A) (A) (A) (A) (A) (A) (A)
                 (A) (A) (A) (A) (A) (A) (A) (A) (A) (A) (A) (A)
                 (A) (A) (A) (A) (A) (A) (A) (A) (A) (A) (A) (A)
                 (A) (A) (A) (A) (A) (A) (A) (A) (A) (A)
 The electronic state is 1-A.
 Alpha  occ. eigenvalues --  -19.63579 -19.58674 -14.76170 -14.70506 -10.64513
 Alpha  occ. eigenvalues --  -10.64468 -10.58976 -10.57159 -10.55484 -10.55438
 Alpha  occ. eigenvalues --  -10.55108 -10.54188 -10.54150 -10.54148 -10.53544
 Alpha  occ. eigenvalues --  -10.53232  -1.16891  -1.15556  -1.00754  -0.97214
 Alpha  occ. eigenvalues --   -0.92419  -0.86941  -0.84602  -0.83354  -0.81075
 Alpha  occ. eigenvalues --   -0.75902  -0.70130  -0.68148  -0.66686  -0.63631
 Alpha  occ. eigenvalues --   -0.62666  -0.58683  -0.55431  -0.54348  -0.53781
 Alpha  occ. eigenvalues --   -0.52463  -0.51279  -0.51188  -0.49582  -0.49469
 Alpha  occ. eigenvalues --   -0.48566  -0.47811  -0.45675  -0.45074  -0.44952
 Alpha  occ. eigenvalues --   -0.43654  -0.42826  -0.41721  -0.41236  -0.39778
 Alpha  occ. eigenvalues --   -0.38932  -0.38736  -0.34940  -0.33942  -0.32751
 Alpha  occ. eigenvalues --   -0.30647  -0.30278  -0.27759  -0.23207
 Alpha virt. eigenvalues --   -0.01940   0.02365   0.02390   0.03256   0.04008
 Alpha virt. eigenvalues --    0.04260   0.04557   0.04782   0.05478   0.05959
 Alpha virt. eigenvalues --    0.06353   0.06438   0.07410   0.07606   0.07983
 Alpha virt. eigenvalues --    0.08181   0.08350   0.09202   0.09290   0.10181
 Alpha virt. eigenvalues --    0.10450   0.10631   0.10946   0.12032   0.12198
 Alpha virt. eigenvalues --    0.12988   0.13507   0.13707   0.14172   0.15274
 Alpha virt. eigenvalues --    0.15805   0.16055   0.16549   0.17034   0.17205
 Alpha virt. eigenvalues --    0.18222   0.18641   0.19208   0.19781   0.20257
 Alpha virt. eigenvalues --    0.20458   0.21338   0.21672   0.21910   0.22545
 Alpha virt. eigenvalues --    0.23328   0.23668   0.24127   0.24504   0.24827
 Alpha virt. eigenvalues --    0.25400   0.25686   0.25998   0.26331   0.26769
 Alpha virt. eigenvalues --    0.26833   0.27084   0.27320   0.27880   0.28941
 Alpha virt. eigenvalues --    0.29268   0.29659   0.30224   0.30809   0.30876
 Alpha virt. eigenvalues --    0.31281   0.31608   0.31840   0.32039   0.32772
 Alpha virt. eigenvalues --    0.33136   0.33417   0.33766   0.33833   0.34851
 Alpha virt. eigenvalues --    0.35458   0.36202   0.36880   0.37077   0.38140
 Alpha virt. eigenvalues --    0.38783   0.39160   0.39683   0.40748   0.41219
 Alpha virt. eigenvalues --    0.41762   0.44177   0.44820   0.45266   0.47696
 Alpha virt. eigenvalues --    0.48523   0.49787   0.52169   0.54715   0.56151
 Alpha virt. eigenvalues --    0.58297   0.62514   0.64267   0.69370   0.70445
 Alpha virt. eigenvalues --    0.70554   0.71143   0.73514   0.74084   0.75304
 Alpha virt. eigenvalues --    0.75845   0.76478   0.76789   0.77462   0.78331
 Alpha virt. eigenvalues --    0.78485   0.79587   0.80512   0.80561   0.81679
 Alpha virt. eigenvalues --    0.83041   0.83609   0.84671   0.84931   0.86194
 Alpha virt. eigenvalues --    0.86838   0.88547   0.89700   0.90092   0.90715
 Alpha virt. eigenvalues --    0.95498   0.97736   0.98922   0.99375   1.01104
 Alpha virt. eigenvalues --    1.01723   1.01736   1.03536   1.04279   1.05907
 Alpha virt. eigenvalues --    1.06188   1.06634   1.08614   1.10864   1.12398
 Alpha virt. eigenvalues --    1.12594   1.12712   1.13447   1.13624   1.14865
 Alpha virt. eigenvalues --    1.15563   1.16581   1.18208   1.18868   1.19242
 Alpha virt. eigenvalues --    1.20330   1.22478   1.24318   1.25842   1.26606
 Alpha virt. eigenvalues --    1.30280   1.32275   1.32507   1.32963   1.34441
 Alpha virt. eigenvalues --    1.34790   1.36472   1.37408   1.38215   1.40265
 Alpha virt. eigenvalues --    1.40980   1.42884   1.43446   1.44106   1.44927
 Alpha virt. eigenvalues --    1.47243   1.48351   1.48820   1.49597   1.51388
 Alpha virt. eigenvalues --    1.51665   1.52418   1.54456   1.55239   1.57013
 Alpha virt. eigenvalues --    1.58470   1.60422   1.61671   1.62348   1.71769
 Alpha virt. eigenvalues --    1.77417   1.79570   1.79797   1.81871   1.84471
 Alpha virt. eigenvalues --    1.86160   1.88318   1.88410   1.88851   1.89662
 Alpha virt. eigenvalues --    1.90230   1.93288   1.93982   1.96095   1.98569
 Alpha virt. eigenvalues --    2.00029   2.00102   2.03533   2.04243   2.05298
 Alpha virt. eigenvalues --    2.05580   2.07069   2.07788   2.08634   2.11923
 Alpha virt. eigenvalues --    2.13435   2.15081   2.15480   2.18167   2.18688
 Alpha virt. eigenvalues --    2.21212   2.21681   2.22409   2.27006   2.28627
 Alpha virt. eigenvalues --    2.29366   2.31019   2.31802   2.33524   2.34681
 Alpha virt. eigenvalues --    2.37674   2.38490   2.39749   2.41405   2.41435
 Alpha virt. eigenvalues --    2.43824   2.47689   2.48343   2.54741   2.57965
 Alpha virt. eigenvalues --    2.59099   2.64377   2.65870   2.67092   2.67968
 Alpha virt. eigenvalues --    2.70216   2.74337   2.75040   2.77593   2.78903
 Alpha virt. eigenvalues --    2.80479   2.83214   2.86959   2.90470   2.98184
 Alpha virt. eigenvalues --    3.00517   3.06961   3.14544   3.16181   3.22790
 Alpha virt. eigenvalues --    3.29736   3.36177   3.45669   4.17792   4.24296
 Alpha virt. eigenvalues --    4.27156   4.29167   4.30454   4.35506   4.41083
 Alpha virt. eigenvalues --    4.43485   4.44170   4.46200   4.51465   4.52357
 Alpha virt. eigenvalues --    4.59703   4.63149   4.69354   4.81358
          Condensed to atoms (all electrons):
               1          2          3          4          5          6
     1  C    5.658179  -0.096024   0.074886  -0.008110  -0.058431  -0.005329
     2  C   -0.096024   6.236252  -0.509541  -0.065464   0.186674   0.023783
     3  C    0.074886  -0.509541   7.280469   0.269068  -0.670866  -0.124186
     4  N   -0.008110  -0.065464   0.269068   7.724501   0.479703  -0.248551
     5  C   -0.058431   0.186674  -0.670866   0.479703   6.731480   0.404447
     6  O   -0.005329   0.023783  -0.124186  -0.248551   0.404447   8.801326
     7  N   -0.003700   0.008091  -0.103335  -0.323794   0.340511  -0.131817
     8  C   -0.011792   0.020564  -0.540774  -0.233581  -1.176012  -0.170058
     9  C    0.001914  -0.000692   0.072556   0.079042   0.811011   0.298885
    10  C   -0.002785   0.010050  -0.163452  -0.114130  -1.384985  -0.111702
    11  C    0.000201  -0.000229   0.014604   0.007486   0.160330   0.003745
    12  C   -0.000191   0.001187  -0.028815  -0.010493  -0.274790   0.023047
    13  C    0.000027   0.001158  -0.016229   0.006718  -0.144231   0.053622
    14  H    0.414749  -0.089410   0.027621   0.000416  -0.002612   0.000006
    15  H    0.417387  -0.064767  -0.008006   0.000437  -0.000891  -0.000050
    16  H    0.417379  -0.064765  -0.008001   0.000437  -0.000890  -0.000050
    17  H   -0.034126   0.424608  -0.070652   0.005794  -0.009709  -0.000191
    18  H   -0.034117   0.424598  -0.070639   0.005794  -0.009720  -0.000191
    19  H    0.003020  -0.042901   0.431159  -0.058075  -0.027434   0.003341
    20  H    0.003041  -0.042927   0.431272  -0.058080  -0.027517   0.003342
    21  H   -0.004666   0.004598  -0.088987   0.245262   0.031302   0.011010
    22  H   -0.000003   0.000060   0.003613   0.000326   0.006741  -0.005110
    23  H   -0.000001   0.000047  -0.001257  -0.000586  -0.028911   0.000138
    24  H    0.000000  -0.000000   0.000035   0.000022   0.004603  -0.000001
    25  C   -0.000014   0.000098  -0.005128  -0.002506  -0.173506   0.003171
    26  H   -0.000000   0.000002  -0.000121  -0.000021  -0.006705   0.000360
    27  O   -0.000000   0.000000  -0.000004  -0.000003  -0.000514   0.000003
    28  C    0.000000   0.000003   0.000102   0.000068   0.003394  -0.000123
    29  H   -0.000000   0.000000  -0.000001  -0.000000  -0.000393   0.000002
    30  H    0.000000  -0.000000   0.000000   0.000000   0.000029  -0.000000
    31  H    0.000000  -0.000000   0.000000   0.000000   0.000029  -0.000000
               7          8          9         10         11         12
     1  C   -0.003700  -0.011792   0.001914  -0.002785   0.000201  -0.000191
     2  C    0.008091   0.020564  -0.000692   0.010050  -0.000229   0.001187
     3  C   -0.103335  -0.540774   0.072556  -0.163452   0.014604  -0.028815
     4  N   -0.323794  -0.233581   0.079042  -0.114130   0.007486  -0.010493
     5  C    0.340511  -1.176012   0.811011  -1.384985   0.160330  -0.274790
     6  O   -0.131817  -0.170058   0.298885  -0.111702   0.003745   0.023047
     7  N    7.820310   0.486024  -0.304877  -0.154436   0.110976  -0.017042
     8  C    0.486024   9.421109  -0.423855   0.366292   0.054385  -0.671640
     9  C   -0.304877  -0.423855   8.437617  -3.377571   0.457242  -0.292422
    10  C   -0.154436   0.366292  -3.377571  11.913863  -2.175809   0.198630
    11  C    0.110976   0.054385   0.457242  -2.175809   9.959226   0.135463
    12  C   -0.017042  -0.671640  -0.292422   0.198630   0.135463  10.440206
    13  C   -0.039219  -0.761024   0.336954   1.154542  -2.792690  -0.596363
    14  H    0.000004  -0.000047   0.000003  -0.000002  -0.000000  -0.000000
    15  H    0.000017  -0.000034  -0.000023   0.000001   0.000000  -0.000000
    16  H    0.000017  -0.000034  -0.000023   0.000001   0.000000  -0.000000
    17  H   -0.000064  -0.000903  -0.000139   0.000078   0.000004  -0.000004
    18  H   -0.000063  -0.000904  -0.000139   0.000077   0.000004  -0.000004
    19  H   -0.001098  -0.003161   0.001559  -0.000447  -0.000054   0.000011
    20  H   -0.001098  -0.003183   0.001562  -0.000449  -0.000053   0.000011
    21  H    0.027249   0.023420  -0.004496   0.006216  -0.000879   0.000303
    22  H   -0.005555  -0.032225   0.348324   0.016547  -0.016810   0.012113
    23  H    0.001495  -0.070496  -0.019370   0.469823  -0.086164   0.033342
    24  H    0.000890   0.059696   0.015504  -0.068115   0.359905   0.006782
    25  C   -0.013766  -0.442793  -0.712797   0.723893  -0.830752  -3.028383
    26  H   -0.001181   0.008472  -0.099603  -0.018623   0.072247   0.049607
    27  O   -0.000137   0.014351  -0.021144   0.054381   0.180330  -0.248244
    28  C    0.000754  -0.025361  -0.017409   0.013072  -0.058906  -0.372589
    29  H   -0.000017  -0.003002   0.004497   0.004022  -0.019690   0.021822
    30  H    0.000000   0.000944   0.001347  -0.001740   0.006169   0.023519
    31  H    0.000000   0.000942   0.001345  -0.001739   0.006162   0.023493
              13         14         15         16         17         18
     1  C    0.000027   0.414749   0.417387   0.417379  -0.034126  -0.034117
     2  C    0.001158  -0.089410  -0.064767  -0.064765   0.424608   0.424598
     3  C   -0.016229   0.027621  -0.008006  -0.008001  -0.070652  -0.070639
     4  N    0.006718   0.000416   0.000437   0.000437   0.005794   0.005794
     5  C   -0.144231  -0.002612  -0.000891  -0.000890  -0.009709  -0.009720
     6  O    0.053622   0.000006  -0.000050  -0.000050  -0.000191  -0.000191
     7  N   -0.039219   0.000004   0.000017   0.000017  -0.000064  -0.000063
     8  C   -0.761024  -0.000047  -0.000034  -0.000034  -0.000903  -0.000904
     9  C    0.336954   0.000003  -0.000023  -0.000023  -0.000139  -0.000139
    10  C    1.154542  -0.000002   0.000001   0.000001   0.000078   0.000077
    11  C   -2.792690  -0.000000   0.000000   0.000000   0.000004   0.000004
    12  C   -0.596363  -0.000000  -0.000000  -0.000000  -0.000004  -0.000004
    13  C    8.172134  -0.000000  -0.000001  -0.000001  -0.000006  -0.000006
    14  H   -0.000000   0.484350  -0.024050  -0.024050  -0.002994  -0.002994
    15  H   -0.000001  -0.024050   0.488829  -0.028475  -0.004579   0.003811
    16  H   -0.000001  -0.024050  -0.028475   0.488826   0.003811  -0.004579
    17  H   -0.000006  -0.002994  -0.004579   0.003811   0.494385  -0.031011
    18  H   -0.000006  -0.002994   0.003811  -0.004579  -0.031011   0.494387
    19  H    0.000121  -0.000058  -0.000332   0.002658   0.003836  -0.005634
    20  H    0.000121  -0.000058   0.002658  -0.000332  -0.005634   0.003836
    21  H   -0.000106  -0.000003   0.000000   0.000000   0.000482   0.000482
    22  H   -0.032222  -0.000000   0.000000   0.000000  -0.000000  -0.000000
    23  H    0.004233  -0.000000  -0.000000  -0.000000  -0.000000  -0.000000
    24  H   -0.009495  -0.000000   0.000000   0.000000   0.000000   0.000000
    25  C    1.642229  -0.000000  -0.000000  -0.000000  -0.000000  -0.000000
    26  H    0.275751  -0.000000   0.000000   0.000000   0.000000   0.000000
    27  O   -0.121588  -0.000000  -0.000000  -0.000000  -0.000000  -0.000000
    28  C   -0.065939  -0.000000   0.000000   0.000000   0.000000   0.000000
    29  H    0.016511   0.000000   0.000000   0.000000  -0.000000  -0.000000
    30  H   -0.015235   0.000000   0.000000   0.000000  -0.000000   0.000000
    31  H   -0.015226   0.000000   0.000000   0.000000   0.000000  -0.000000
              19         20         21         22         23         24
     1  C    0.003020   0.003041  -0.004666  -0.000003  -0.000001   0.000000
     2  C   -0.042901  -0.042927   0.004598   0.000060   0.000047  -0.000000
     3  C    0.431159   0.431272  -0.088987   0.003613  -0.001257   0.000035
     4  N   -0.058075  -0.058080   0.245262   0.000326  -0.000586   0.000022
     5  C   -0.027434  -0.027517   0.031302   0.006741  -0.028911   0.004603
     6  O    0.003341   0.003342   0.011010  -0.005110   0.000138  -0.000001
     7  N   -0.001098  -0.001098   0.027249  -0.005555   0.001495   0.000890
     8  C   -0.003161  -0.003183   0.023420  -0.032225  -0.070496   0.059696
     9  C    0.001559   0.001562  -0.004496   0.348324  -0.019370   0.015504
    10  C   -0.000447  -0.000449   0.006216   0.016547   0.469823  -0.068115
    11  C   -0.000054  -0.000053  -0.000879  -0.016810  -0.086164   0.359905
    12  C    0.000011   0.000011   0.000303   0.012113   0.033342   0.006782
    13  C    0.000121   0.000121  -0.000106  -0.032222   0.004233  -0.009495
    14  H   -0.000058  -0.000058  -0.000003  -0.000000  -0.000000  -0.000000
    15  H   -0.000332   0.002658   0.000000   0.000000  -0.000000   0.000000
    16  H    0.002658  -0.000332   0.000000   0.000000  -0.000000   0.000000
    17  H    0.003836  -0.005634   0.000482  -0.000000  -0.000000   0.000000
    18  H   -0.005634   0.003836   0.000482  -0.000000  -0.000000   0.000000
    19  H    0.515497  -0.042120   0.002139  -0.000000  -0.000000  -0.000000
    20  H   -0.042120   0.515498   0.002139  -0.000000  -0.000000  -0.000000
    21  H    0.002139   0.002139   0.279335   0.000001   0.000003  -0.000000
    22  H   -0.000000  -0.000000   0.000001   0.451588  -0.000103   0.000011
    23  H   -0.000000  -0.000000   0.000003  -0.000103   0.462110  -0.003571
    24  H   -0.000000  -0.000000  -0.000000   0.000011  -0.003571   0.450656
    25  C    0.000000   0.000000   0.000012   0.003991   0.004321  -0.074422
    26  H   -0.000000  -0.000000   0.000000  -0.004432   0.000013  -0.000108
    27  O   -0.000000  -0.000000   0.000000   0.000035   0.000138   0.008071
    28  C   -0.000000  -0.000000  -0.000000  -0.000068   0.000108  -0.000031
    29  H    0.000000   0.000000  -0.000000  -0.000004  -0.000000   0.000004
    30  H   -0.000000   0.000000  -0.000000  -0.000000  -0.000000  -0.000004
    31  H    0.000000  -0.000000  -0.000000  -0.000000  -0.000000  -0.000004
              25         26         27         28         29         30
     1  C   -0.000014  -0.000000  -0.000000   0.000000  -0.000000   0.000000
     2  C    0.000098   0.000002   0.000000   0.000003   0.000000  -0.000000
     3  C   -0.005128  -0.000121  -0.000004   0.000102  -0.000001   0.000000
     4  N   -0.002506  -0.000021  -0.000003   0.000068  -0.000000   0.000000
     5  C   -0.173506  -0.006705  -0.000514   0.003394  -0.000393   0.000029
     6  O    0.003171   0.000360   0.000003  -0.000123   0.000002  -0.000000
     7  N   -0.013766  -0.001181  -0.000137   0.000754  -0.000017   0.000000
     8  C   -0.442793   0.008472   0.014351  -0.025361  -0.003002   0.000944
     9  C   -0.712797  -0.099603  -0.021144  -0.017409   0.004497   0.001347
    10  C    0.723893  -0.018623   0.054381   0.013072   0.004022  -0.001740
    11  C   -0.830752   0.072247   0.180330  -0.058906  -0.019690   0.006169
    12  C   -3.028383   0.049607  -0.248244  -0.372589   0.021822   0.023519
    13  C    1.642229   0.275751  -0.121588  -0.065939   0.016511  -0.015235
    14  H   -0.000000  -0.000000  -0.000000  -0.000000   0.000000   0.000000
    15  H   -0.000000   0.000000  -0.000000   0.000000   0.000000   0.000000
    16  H   -0.000000   0.000000  -0.000000   0.000000   0.000000   0.000000
    17  H   -0.000000   0.000000  -0.000000   0.000000  -0.000000  -0.000000
    18  H   -0.000000   0.000000  -0.000000   0.000000  -0.000000   0.000000
    19  H    0.000000  -0.000000  -0.000000  -0.000000   0.000000  -0.000000
    20  H    0.000000  -0.000000  -0.000000  -0.000000   0.000000   0.000000
    21  H    0.000012   0.000000   0.000000  -0.000000  -0.000000  -0.000000
    22  H    0.003991  -0.004432   0.000035  -0.000068  -0.000004  -0.000000
    23  H    0.004321   0.000013   0.000138   0.000108  -0.000000  -0.000000
    24  H   -0.074422  -0.000108   0.008071  -0.000031   0.000004  -0.000004
    25  C    8.795123   0.029278   0.337122  -0.114901  -0.129259  -0.070851
    26  H    0.029278   0.462341   0.000103  -0.010231   0.002713  -0.000037
    27  O    0.337122   0.000103   8.472735  -0.111725   0.009997  -0.004829
    28  C   -0.114901  -0.010231  -0.111725   6.291667   0.437048   0.403704
    29  H   -0.129259   0.002713   0.009997   0.437048   0.462828  -0.023170
    30  H   -0.070851  -0.000037  -0.004829   0.403704  -0.023170   0.433592
    31  H   -0.070827  -0.000037  -0.004829   0.403707  -0.023170  -0.019197
              31
     1  C    0.000000
     2  C   -0.000000
     3  C    0.000000
     4  N    0.000000
     5  C    0.000029
     6  O   -0.000000
     7  N    0.000000
     8  C    0.000942
     9  C    0.001345
    10  C   -0.001739
    11  C    0.006162
    12  C    0.023493
    13  C   -0.015226
    14  H    0.000000
    15  H    0.000000
    16  H    0.000000
    17  H    0.000000
    18  H   -0.000000
    19  H    0.000000
    20  H   -0.000000
    21  H   -0.000000
    22  H   -0.000000
    23  H   -0.000000
    24  H   -0.000004
    25  C   -0.070827
    26  H   -0.000037
    27  O   -0.004829
    28  C    0.403707
    29  H   -0.023170
    30  H   -0.019197
    31  H    0.433591
 Mulliken charges:
               1
     1  C   -0.731492
     2  C   -0.365055
     3  C   -0.195391
     4  N   -0.701680
     5  C    0.837863
     6  O   -0.832870
     7  N   -0.695139
     8  C    0.114679
     9  C    0.405196
    10  C   -1.355501
    11  C    0.453558
    12  C    0.571445
    13  C   -1.054540
    14  H    0.219131
    15  H    0.218068
    16  H    0.218070
    17  H    0.227013
    18  H    0.227011
    19  H    0.217971
    20  H    0.217971
    21  H    0.465184
    22  H    0.253180
    23  H    0.234687
    24  H    0.249575
    25  C    0.130667
    26  H    0.240208
    27  O   -0.564249
    28  C   -0.776342
    29  H    0.239265
    30  H    0.265758
    31  H    0.265759
 Sum of Mulliken charges =  -1.00000
 Mulliken charges with hydrogens summed into heavy atoms:
               1
     1  C   -0.076224
     2  C    0.088969
     3  C    0.240552
     4  N   -0.236496
     5  C    0.837863
     6  O   -0.832870
     7  N   -0.695139
     8  C    0.114679
     9  C    0.658376
    10  C   -1.120814
    11  C    0.703132
    12  C    0.571445
    13  C   -0.814331
    25  C    0.130667
    27  O   -0.564249
    28  C   -0.005560
 APT charges:
               1
     1  C   -2.675808
     2  C   -0.568481
     3  C   -0.427236
     4  N   -0.263394
     5  C    0.785109
     6  O   -0.822614
     7  N   -0.926546
     8  C   -0.848486
     9  C   -0.215026
    10  C   -1.061589
    11  C   -0.153435
    12  C    0.785778
    13  C   -1.139267
    14  H    1.078415
    15  H    0.396140
    16  H    0.396215
    17  H    0.464199
    18  H    0.464256
    19  H    0.388021
    20  H    0.387973
    21  H    0.726071
    22  H    0.423119
    23  H    0.547036
    24  H    0.828612
    25  C    0.244788
    26  H    0.617664
    27  O   -0.195992
    28  C   -2.146241
    29  H    0.136529
    30  H    0.887115
    31  H    0.887073
 Sum of APT charges =  -1.00000
 APT charges with hydrogens summed into heavy atoms:
               1
     1  C   -0.805038
     2  C    0.359975
     3  C    0.348758
     4  N    0.462677
     5  C    0.785109
     6  O   -0.822614
     7  N   -0.926546
     8  C   -0.848486
     9  C    0.208093
    10  C   -0.514553
    11  C    0.675177
    12  C    0.785778
    13  C   -0.521603
    25  C    0.244788
    27  O   -0.195992
    28  C   -0.235524
 Electronic spatial extent (au):  <R**2>=           7288.1373
 Charge=             -1.0000 electrons
 Dipole moment (field-independent basis, Debye):
    X=             -3.8244    Y=             -2.0074    Z=              0.0002  Tot=              4.3193
 Quadrupole moment (field-independent basis, Debye-Ang):
   XX=           -124.7149   YY=           -102.6549   ZZ=           -102.0559
   XY=            -26.4185   XZ=             -0.0018   YZ=              0.0003
 Traceless Quadrupole moment (field-independent basis, Debye-Ang):
   XX=            -14.9063   YY=              7.1537   ZZ=              7.7527
   XY=            -26.4185   XZ=             -0.0018   YZ=              0.0003
 Octapole moment (field-independent basis, Debye-Ang**2):
  XXX=           -281.0678  YYY=              1.6272  ZZZ=              0.0028  XYY=             15.1593
  XXY=            -83.7300  XXZ=             -0.0087  XZZ=             -2.8288  YZZ=             -4.8129
  YYZ=              0.0004  XYZ=             -0.0027
 Hexadecapole moment (field-independent basis, Debye-Ang**3):
 XXXX=         -10173.4688 YYYY=           -662.5495 ZZZZ=           -145.7188 XXXY=           -733.3615
 XXXZ=             -0.0524 YYYX=            -40.6855 YYYZ=              0.0041 ZZZX=              0.0047
 ZZZY=              0.0000 XXYY=          -1650.2584 XXZZ=          -1535.7108 YYZZ=           -146.5226
 XXYZ=             -0.0110 YYXZ=              0.0020 ZZXY=             -1.1324
 N-N= 9.851709753602D+02 E-N=-3.676771021519D+03  KE= 7.195725176279D+02
  Exact polarizability:   0.000   0.000   0.000   0.000   0.000   0.000
 Approx polarizability: 299.112   0.227 205.373   0.006   0.002 136.429
 D2PCM: PCM CHGder 2nd derivatives, FixD1E=F FixD2E=F DoIter=F DoCFld=F I1PDM=0
 Calling FoFJK, ICntrl=    100147 FMM=F ISym2X=0 I1Cent= 0 IOpClX= 0 NMat=1 NMatS=1 NMatT=0.
 ***** Axes restored to original set *****
 -------------------------------------------------------------------
 Center     Atomic                   Forces (Hartrees/Bohr)
 Number     Number              X              Y              Z
 -------------------------------------------------------------------
      1        6          -0.005178537    0.001385707   -0.000247946
      2        6           0.003726726   -0.003980767    0.000931340
      3        6          -0.002464522    0.002778163   -0.000648958
      4        7          -0.000171565   -0.029085828    0.007322317
      5        6           0.049316518   -0.032868914    0.007265002
      6        8          -0.015334423    0.069875284   -0.017267998
      7        7           0.021871939   -0.028020249    0.006603007
      8        6          -0.072004937    0.006641247   -0.000203655
      9        6           0.022558492    0.006998252   -0.002219550
     10        6           0.019206301   -0.000874765   -0.000171329
     11        6          -0.015335844   -0.001930108    0.000797986
     12        6           0.011402468    0.013356207   -0.003591786
     13        6          -0.008820857   -0.013640940    0.003609886
     14        1           0.006342685    0.008433343   -0.002249705
     15        1          -0.000982640   -0.002284544    0.009940435
     16        1          -0.001338880   -0.006702353   -0.007628533
     17        1           0.001717701    0.005684017    0.007986081
     18        1           0.001356813    0.001215087   -0.009788578
     19        1          -0.000972713   -0.005093173   -0.008622868
     20        1          -0.000593868   -0.000397560    0.010034746
     21        1           0.001064016    0.016464196   -0.004163845
     22        1          -0.008014634   -0.001453581    0.000529011
     23        1          -0.003378219   -0.001354877    0.000409328
     24        1           0.003286615    0.000190337   -0.000114507
     25        6          -0.016965112    0.002007022   -0.000160449
     26        1           0.004840928    0.005335037   -0.001439950
     27        8           0.014449115   -0.016077069    0.003749037
     28        6          -0.004452238    0.016090464   -0.003954720
     29        1           0.004012744   -0.005928372    0.001409122
     30        1          -0.004750735   -0.005584482   -0.007820833
     31        1          -0.004393337   -0.001176783    0.009707914
 -------------------------------------------------------------------
 Cartesian Forces:  Max     0.072004937 RMS     0.014945264
 FormGI is forming the generalized inverse of G from B-inverse, IUseBI=4.
 GSVD:  received Info=                   1 from GESDD.

 GradGradGradGradGradGradGradGradGradGradGradGradGradGradGradGradGradGrad
 Berny optimization.
 Internal  Forces:  Max     0.071179018 RMS     0.010222857
 Search for a local minimum.
 Step number   1 out of a maximum of  159
 All quantities printed in internal units (Hartrees-Bohrs-Radians)
 Mixed Optimization -- RFO/linear search
 Second derivative matrix not updated -- analytic derivatives used.
 ITU=  0
     Eigenvalues ---   -0.02747  -0.00199  -0.00063   0.00157   0.00215
     Eigenvalues ---    0.00289   0.00345   0.00823   0.01283   0.01340
     Eigenvalues ---    0.01586   0.01846   0.02083   0.02170   0.02202
     Eigenvalues ---    0.02704   0.02862   0.03201   0.03641   0.03714
     Eigenvalues ---    0.03883   0.04521   0.04575   0.04608   0.05129
     Eigenvalues ---    0.05231   0.05547   0.06813   0.08170   0.08344
     Eigenvalues ---    0.10310   0.10448   0.10943   0.11227   0.11387
     Eigenvalues ---    0.11898   0.12254   0.12715   0.13305   0.13654
     Eigenvalues ---    0.13711   0.13823   0.15284   0.16086   0.16191
     Eigenvalues ---    0.17864   0.18338   0.18691   0.18888   0.19811
     Eigenvalues ---    0.21730   0.23691   0.24422   0.24707   0.27727
     Eigenvalues ---    0.29111   0.29628   0.30455   0.30481   0.30607
     Eigenvalues ---    0.30933   0.30973   0.31224   0.31500   0.31646
     Eigenvalues ---    0.31863   0.32057   0.32492   0.33063   0.34611
     Eigenvalues ---    0.35948   0.36817   0.37608   0.37641   0.38648
     Eigenvalues ---    0.39442   0.40045   0.41252   0.41861   0.43007
     Eigenvalues ---    0.45485   0.46262   0.49199   0.50255   0.58785
     Eigenvalues ---    0.83288   0.88184
 RFO step:  Lambda=-3.61710317D-02 EMin=-2.74733074D-02
 Linear search not attempted -- first point.
 Maximum step size (   0.300) exceeded in Quadratic search.
    -- Step size scaled by   0.880
 Iteration  1 RMS(Cart)=  0.22103635 RMS(Int)=  0.03037311
 Iteration  2 RMS(Cart)=  0.13960738 RMS(Int)=  0.00731529
 Iteration  3 RMS(Cart)=  0.01180716 RMS(Int)=  0.00175491
 Iteration  4 RMS(Cart)=  0.00012576 RMS(Int)=  0.00175437
 Iteration  5 RMS(Cart)=  0.00000054 RMS(Int)=  0.00175437
 Variable       Old X    -DE/DX   Delta X   Delta X   Delta X     New X
                                 (Linear)    (Quad)   (Total)
    R1        2.88354   0.00141   0.00000   0.00109   0.00109   2.88463
    R2        2.09832  -0.01042   0.00000  -0.02522  -0.02522   2.07310
    R3        2.09930  -0.01000   0.00000  -0.02420  -0.02420   2.07510
    R4        2.09928  -0.01000   0.00000  -0.02373  -0.02373   2.07555
    R5        2.89703  -0.00682   0.00000  -0.01588  -0.01588   2.88114
    R6        2.10108  -0.00948   0.00000  -0.02353  -0.02353   2.07755
    R7        2.10109  -0.00949   0.00000  -0.02282  -0.02282   2.07827
    R8        2.74529  -0.00085   0.00000  -0.00267  -0.00267   2.74262
    R9        2.10231  -0.00946   0.00000  -0.02035  -0.02035   2.08196
   R10        2.10230  -0.00946   0.00000  -0.02526  -0.02526   2.07705
   R11        2.57616   0.00312   0.00000   0.00701   0.00701   2.58317
   R12        1.95070  -0.01701   0.00000  -0.03392  -0.03392   1.91679
   R13        2.30673   0.07118   0.00000   0.05929   0.05929   2.36601
   R14        2.58733  -0.01555   0.00000  -0.02768  -0.02768   2.55965
   R15        2.72066  -0.05475   0.00000  -0.15330  -0.15330   2.56736
   R16        2.67088   0.00370   0.00000   0.02148   0.02156   2.69244
   R17        2.65558   0.00715   0.00000   0.03647   0.03651   2.69210
   R18        2.64479  -0.00671   0.00000  -0.01845  -0.01843   2.62636
   R19        2.03017   0.00399   0.00000   0.00729   0.00729   2.03746
   R20        2.63768  -0.01139   0.00000  -0.03240  -0.03242   2.60526
   R21        2.04680   0.00219   0.00000   0.00565   0.00565   2.05246
   R22        2.65784  -0.00085   0.00000   0.01006   0.00999   2.66783
   R23        2.04647   0.00206   0.00000   0.00544   0.00544   2.05191
   R24        2.66143  -0.00410   0.00000  -0.00373  -0.00379   2.65764
   R25        2.83366  -0.01421   0.00000  -0.05349  -0.05349   2.78017
   R26        2.03549   0.00644   0.00000   0.01290   0.01290   2.04838
   R27        2.31053   0.02193   0.00000   0.02669   0.02669   2.33722
   R28        2.84789  -0.00037   0.00000   0.00257   0.00257   2.85046
   R29        2.08296  -0.00718   0.00000  -0.02114  -0.02114   2.06181
   R30        2.09813  -0.01038   0.00000  -0.02561  -0.02561   2.07252
   R31        2.09813  -0.01038   0.00000  -0.02310  -0.02310   2.07503
    A1        1.91259   0.00331   0.00000   0.01778   0.01768   1.93027
    A2        1.92578   0.00201   0.00000   0.00840   0.00835   1.93413
    A3        1.92579   0.00201   0.00000   0.00713   0.00708   1.93287
    A4        1.89673  -0.00245   0.00000  -0.00972  -0.00983   1.88690
    A5        1.89674  -0.00245   0.00000  -0.01039  -0.01048   1.88626
    A6        1.90571  -0.00258   0.00000  -0.01384  -0.01384   1.89187
    A7        1.94141  -0.00065   0.00000   0.00104   0.00104   1.94244
    A8        1.90108   0.00152   0.00000   0.01237   0.01237   1.91345
    A9        1.90109   0.00152   0.00000   0.00754   0.00755   1.90864
   A10        1.91064  -0.00046   0.00000  -0.00314  -0.00319   1.90746
   A11        1.91064  -0.00046   0.00000  -0.00368  -0.00371   1.90693
   A12        1.89844  -0.00147   0.00000  -0.01442  -0.01448   1.88396
   A13        1.93748  -0.00364   0.00000  -0.00879  -0.00877   1.92871
   A14        1.90562   0.00102   0.00000   0.00207   0.00209   1.90771
   A15        1.90561   0.00102   0.00000   0.00820   0.00822   1.91383
   A16        1.90620   0.00203   0.00000   0.01221   0.01222   1.91842
   A17        1.90619   0.00203   0.00000   0.00563   0.00565   1.91184
   A18        1.90241  -0.00246   0.00000  -0.01967  -0.01967   1.88274
   A19        2.12690   0.00065   0.00000   0.01211   0.00025   2.12715
   A20        2.07758  -0.00002   0.00000   0.00074  -0.01156   2.06602
   A21        2.07871  -0.00063   0.00000  -0.01284  -0.02483   2.05387
   A22        2.08110  -0.00375   0.00000  -0.01025  -0.01086   2.07023
   A23        2.08469  -0.03561   0.00000  -0.08717  -0.08784   1.99686
   A24        2.11740   0.03936   0.00000   0.09742   0.09666   2.21406
   A25        2.23350  -0.03428   0.00000  -0.07704  -0.07704   2.15645
   A26        2.17503   0.01230   0.00000   0.05883   0.05852   2.23355
   A27        2.05422  -0.00899   0.00000  -0.02750  -0.02772   2.02650
   A28        2.05393  -0.00331   0.00000  -0.03133  -0.03141   2.02252
   A29        2.11020  -0.00088   0.00000   0.00691   0.00694   2.11713
   A30        2.15208  -0.00679   0.00000  -0.04397  -0.04405   2.10803
   A31        2.02091   0.00767   0.00000   0.03707   0.03696   2.05788
   A32        2.11851   0.00113   0.00000   0.01782   0.01777   2.13627
   A33        2.09764  -0.00356   0.00000  -0.03353  -0.03355   2.06410
   A34        2.06704   0.00244   0.00000   0.01570   0.01567   2.08270
   A35        2.11275   0.00047   0.00000   0.00369   0.00356   2.11631
   A36        2.06193   0.00240   0.00000   0.01656   0.01662   2.07855
   A37        2.10851  -0.00287   0.00000  -0.02025  -0.02019   2.08832
   A38        2.05735   0.00064   0.00000  -0.01202  -0.01220   2.04515
   A39        2.08004   0.00094   0.00000   0.00449   0.00456   2.08460
   A40        2.14580  -0.00157   0.00000   0.00754   0.00761   2.15341
   A41        2.11365   0.00195   0.00000   0.01493   0.01488   2.12853
   A42        2.03841   0.00262   0.00000   0.00714   0.00717   2.04558
   A43        2.13113  -0.00457   0.00000  -0.02208  -0.02205   2.10908
   A44        2.07438   0.00849   0.00000   0.02989   0.02988   2.10427
   A45        2.17351  -0.01707   0.00000  -0.04427  -0.04428   2.12922
   A46        2.03529   0.00858   0.00000   0.01438   0.01437   2.04967
   A47        2.00130  -0.00022   0.00000   0.00181   0.00182   2.00311
   A48        1.90461  -0.00213   0.00000  -0.01012  -0.01021   1.89440
   A49        1.90462  -0.00214   0.00000  -0.01202  -0.01211   1.89251
   A50        1.87722   0.00228   0.00000   0.01940   0.01940   1.89663
   A51        1.87722   0.00228   0.00000   0.01061   0.01062   1.88784
   A52        1.89637   0.00005   0.00000  -0.00984  -0.01004   1.88632
    D1        3.14158   0.00000   0.00000  -0.00247  -0.00246   3.13913
    D2        1.03412  -0.00001   0.00000  -0.00733  -0.00733   1.02678
    D3       -1.03414   0.00001   0.00000  -0.00144  -0.00144  -1.03558
    D4        1.05373  -0.00030   0.00000  -0.00686  -0.00688   1.04685
    D5       -1.05374  -0.00032   0.00000  -0.01173  -0.01176  -1.06550
    D6       -3.12199  -0.00029   0.00000  -0.00584  -0.00587  -3.12786
    D7       -1.05373   0.00030   0.00000   0.00031   0.00034  -1.05339
    D8        3.12199   0.00029   0.00000  -0.00455  -0.00454   3.11745
    D9        1.05373   0.00032   0.00000   0.00133   0.00135   1.05509
   D10       -3.14156  -0.00000   0.00000  -0.01088  -0.01088   3.13075
   D11        1.03919  -0.00089   0.00000  -0.02187  -0.02187   1.01732
   D12       -1.03915   0.00089   0.00000  -0.00408  -0.00408  -1.04323
   D13       -1.03973   0.00117   0.00000   0.00316   0.00314  -1.03659
   D14        3.14102   0.00028   0.00000  -0.00783  -0.00785   3.13317
   D15        1.06269   0.00206   0.00000   0.00996   0.00994   1.07262
   D16        1.03978  -0.00117   0.00000  -0.01854  -0.01852   1.02127
   D17       -1.06265  -0.00206   0.00000  -0.02952  -0.02951  -1.09216
   D18       -3.14099  -0.00028   0.00000  -0.01174  -0.01172   3.13048
   D19        3.14155   0.00000   0.00000   0.09422   0.09405  -3.04759
   D20       -0.00001   0.00000   0.00000  -0.19849  -0.19831  -0.19832
   D21       -1.03954   0.00029   0.00000   0.09920   0.09901  -0.94053
   D22        2.10208   0.00029   0.00000  -0.19352  -0.19335   1.90873
   D23        1.03948  -0.00029   0.00000   0.08590   0.08573   1.12521
   D24       -2.10208  -0.00029   0.00000  -0.20681  -0.20663  -2.30871
   D25        0.00002   0.00000   0.00000  -0.18780  -0.18569  -0.18567
   D26       -3.14155  -0.00000   0.00000  -0.12230  -0.12192   3.01971
   D27        3.14158   0.00000   0.00000   0.10510   0.10473  -3.03687
   D28        0.00001  -0.00000   0.00000   0.17060   0.16849   0.16851
   D29        3.14155   0.00000   0.00000   0.23742   0.23588  -2.90575
   D30       -0.00002   0.00000   0.00000   0.30432   0.30585   0.30583
   D31        0.00012   0.00000   0.00000   0.36155   0.36188   0.36200
   D32       -3.14148   0.00000   0.00000   0.32271   0.32238  -2.81909
   D33       -3.14158  -0.00000   0.00000  -0.01867  -0.01946   3.12215
   D34        0.00002  -0.00000   0.00000   0.00061  -0.00040  -0.00038
   D35        0.00002  -0.00000   0.00000   0.02017   0.01997   0.01998
   D36       -3.14158   0.00000   0.00000   0.03945   0.03903  -3.10255
   D37        3.14158   0.00000   0.00000   0.00618   0.00493  -3.13668
   D38       -0.00001   0.00000   0.00000   0.02231   0.02113   0.02112
   D39       -0.00002  -0.00000   0.00000  -0.02992  -0.02968  -0.02969
   D40        3.14158  -0.00000   0.00000  -0.01379  -0.01348   3.12810
   D41       -0.00001   0.00000   0.00000   0.00581   0.00558   0.00558
   D42        3.14158   0.00000   0.00000   0.00308   0.00310  -3.13851
   D43        3.14159  -0.00000   0.00000  -0.01209  -0.01295   3.12864
   D44       -0.00001   0.00000   0.00000  -0.01482  -0.01543  -0.01544
   D45        0.00000   0.00000   0.00000   0.01382   0.01379   0.01380
   D46       -3.14158  -0.00000   0.00000   0.01722   0.01741  -3.12417
   D47        3.14159   0.00000   0.00000  -0.00204  -0.00257   3.13902
   D48        0.00001  -0.00000   0.00000   0.00137   0.00104   0.00105
   D49        0.00001  -0.00000   0.00000   0.01257   0.01265   0.01266
   D50       -3.14158  -0.00000   0.00000   0.00428   0.00432  -3.13726
   D51        3.14159   0.00000   0.00000   0.00907   0.00902  -3.13258
   D52        0.00000  -0.00000   0.00000   0.00078   0.00069   0.00069
   D53       -0.00001   0.00000   0.00000  -0.02220  -0.02221  -0.02222
   D54       -3.14159  -0.00000   0.00000  -0.01932  -0.01964   3.12196
   D55        3.14158   0.00000   0.00000  -0.01357  -0.01352   3.12806
   D56       -0.00000  -0.00000   0.00000  -0.01070  -0.01095  -0.01096
   D57       -0.00001   0.00000   0.00000   0.00561   0.00570   0.00569
[...]
 00000004,0.00000076,-0.00000097,-0.00000105,0.00000147,0.00000008,-0.0
 0000010,-0.00000344,-0.00000081,-0.00000015,-0.00000262,0.00000348,-0.
 00003910,0.00003284,0.00000901,-0.00002945,0.00001166,0.00000004,0.000
 01348,0.00008064,-0.00001416,0.00000696,-0.00010734,-0.00061298,-0.000
 05516,-0.00002045,0.00018212,0.00049175,-0.00015147,0.00062568,-0.0436
 7791,0.05479531,-0.07942981,0.00009936,0.00005816,0.00043109,0.0557004
 0,-0.07014791,0.03838176,-0.00000098,-0.00000164,0.00000145,-0.0000020
 0,0.00000813,-0.00000174,0.00001807,-0.00002402,0.00001100,-0.00012714
 ,-0.00002419,-0.00000761,0.00022220,-0.00012651,0.00010448,-0.00008274
 ,0.00008399,-0.00009550,-0.00041286,0.00002531,-0.00002201,0.00023372,
 -0.00005161,0.00004385,0.00013847,-0.00021174,0.00002786,0.00019165,-0
 .00186472,0.00030723,-0.00598652,0.00048532,-0.00006727,-0.00266121,-0
 .02832640,0.00494569,-0.00204131,-0.00120601,0.00009575,-0.00000175,0.
 00000069,-0.00000013,-0.00000015,0.00000011,-0.00000011,0.00000002,0.0
 0000022,0.00000004,-0.00000008,-0.00000059,-0.00000016,0.,-0.00000045,
 0.00000032,-0.00000593,0.00000721,0.00000108,-0.00000263,0.00000297,-0
 .00000195,0.00000239,0.00001175,-0.00000362,-0.00005299,0.00001748,0.0
 0000884,-0.00051926,-0.00014474,0.00002815,0.00024204,-0.00009523,0.00
 001427,-0.11061263,-0.05363711,0.00968788,-0.00266305,-0.00145597,0.00
 022359,0.00926019,0.03817332,-0.00688443,0.61562401,-0.00000905,-0.000
 01189,0.00000865,-0.00000593,0.00003504,-0.00001385,0.00008719,-0.0000
 5987,0.00005748,-0.00055643,-0.00017714,-0.00006557,0.00130589,-0.0010
 0454,0.00050118,-0.00016961,0.00056097,-0.00036611,-0.00235668,0.00016
 877,0.00020630,0.00208061,-0.00037806,-0.00009556,-0.00034276,-0.00094
 371,-0.00007150,-0.00210982,0.00066854,-0.00035442,0.00238066,0.003202
 24,-0.00000653,-0.00888390,-0.00556100,0.00386145,-0.00019687,-0.00126
 592,0.00009986,-0.00000760,0.00000325,-0.00000032,-0.00000037,0.000000
 57,-0.00000106,-0.00000084,0.00000079,0.00000006,0.00000090,-0.0000028
 3,-0.00000047,-0.00000027,-0.00000196,0.00000201,-0.00004057,0.0000298
 4,0.00000721,-0.00002336,0.00001270,-0.00000607,0.00000777,0.00008407,
 -0.00000818,-0.00000585,0.00004922,0.00000320,0.00002426,0.00000101,-0
 .00008741,0.00002518,0.00009667,-0.00004007,-0.04189326,-0.18129262,0.
 01655113,-0.00027286,-0.00009662,0.00036003,0.01209437,-0.04870592,0.0
 1347971,-0.02536746,0.49837379,0.00000198,0.00000210,-0.00000222,0.000
 00094,-0.00000761,0.00000441,-0.00002412,0.00001076,-0.00001760,0.0001
 3600,0.00003945,-0.00000083,-0.00026288,0.00023580,-0.00015439,0.00000
 385,-0.00011694,0.00007078,0.00052926,-0.00001591,0.00021279,-0.000497
 69,0.00014742,0.00023368,0.00003752,-0.00006019,-0.00138048,0.00049629
 ,-0.00023944,-0.00059264,-0.00052663,-0.00015014,0.00310300,0.00160603
 ,0.00396865,0.01473870,-0.00020377,-0.00004820,-0.00079639,0.00000170,
 -0.00000068,0.00000004,0.,-0.00000008,0.00000008,0.00000013,-0.0000001
 8,-0.00000004,-0.00000003,0.00000052,-0.00000004,0.00000010,0.00000055
 ,-0.00000064,0.00001190,-0.00000711,-0.00000115,0.00000462,-0.00000237
 ,0.00000242,0.00000251,-0.00001615,-0.00000214,-0.00000022,-0.00001298
 ,-0.00001406,-0.00000462,-0.00009281,-0.00052180,0.00001838,-0.0000528
 2,-0.00018576,0.00745261,0.01658683,-0.09208360,0.00008035,0.00031167,
 0.00120295,-0.00209601,0.01354199,0.02316591,0.00507230,0.00767010,0.5
 4288750,-0.00000326,-0.00000394,0.00000339,-0.00000223,0.00001132,-0.0
 0000473,0.00002560,-0.00002108,0.00001355,-0.00017271,-0.00005289,-0.0
 0002088,0.00042313,-0.00032088,0.00015064,-0.00005073,0.00018823,-0.00
 011447,-0.00075264,0.00006637,0.00016609,0.00069269,-0.00027175,-0.000
 09383,-0.00001968,-0.00026825,-0.00029827,-0.00081075,0.00023015,-0.00
 018703,0.00078951,0.00087810,0.00017862,-0.00194593,-0.00053784,0.0011
 3923,-0.00049738,-0.00052982,-0.00023162,-0.00000243,0.00000102,-0.000
 00007,-0.00000022,0.00000012,-0.00000035,-0.00000031,0.00000025,0.0000
 0003,0.00000058,-0.00000081,-0.00000015,-0.00000009,-0.00000059,0.0000
 0075,-0.00001228,0.00000898,0.00000239,-0.00000806,0.00000450,-0.00000
 197,0.00000270,0.00002859,-0.00000210,-0.00000474,0.00001972,0.0000148
 0,0.00000312,-0.00001398,-0.00003881,0.00002133,0.00000452,-0.00000853
 ,0.00376415,-0.00124759,-0.00975433,-0.00128257,-0.00042700,-0.0000563
 4,0.00082105,-0.00043003,0.00109012,-0.08395547,0.05711727,0.07503550,
 0.08738815,-0.00000219,-0.00000332,0.00000254,-0.00000101,0.00000817,-
 0.00000362,0.00001759,-0.00001029,0.00001092,-0.00011907,-0.00004023,-
 0.00001768,0.00028844,-0.00022813,0.00011562,-0.00003830,0.00011782,-0
 .00007308,-0.00049066,0.00003816,0.00003326,0.00042382,0.00025202,-0.0
 0001044,-0.00039262,-0.00023866,-0.00008659,-0.00018382,0.00012218,-0.
 00025147,0.00013973,0.00028846,0.00060291,-0.00096127,0.00021888,0.002
 17645,0.00045264,0.00001697,0.00023400,-0.00000195,0.00000059,0.000000
 02,-0.00000030,0.00000015,-0.00000035,-0.00000027,0.00000050,0.0000001
 5,0.00000045,-0.00000075,-0.00000025,0.,-0.00000052,0.00000103,-0.0000
 0940,0.00000682,0.00000183,-0.00000608,0.00000256,-0.00000046,0.000001
 14,0.00001766,-0.00000172,-0.00000195,-0.00000084,-0.00001073,-0.00000
 739,-0.00003091,-0.00009203,0.00003297,0.00004168,-0.00000297,0.014871
 28,-0.01429863,-0.02470538,-0.00045278,0.00006971,-0.00008830,-0.00120
 016,-0.00545922,0.00461679,0.05853440,-0.14476668,-0.12299415,-0.06553
 128,0.15460261,0.00000123,0.00000102,-0.00000124,0.00000069,-0.0000036
 5,0.00000131,-0.00000750,0.00000792,-0.00000372,0.00005603,0.00001551,
 0.00000550,-0.00013668,0.00008323,-0.00003368,0.00003057,-0.00005043,0
 .00003764,0.00022358,0.00001979,-0.00008585,-0.00013130,0.00005687,0.0
 0003961,-0.00000661,0.00031852,0.00012921,0.00022174,-0.00005384,0.000
 03735,-0.00030129,-0.00021074,-0.00007169,0.00042420,-0.00041837,-0.00
 032605,0.00058544,-0.00031575,0.00035888,0.00000075,-0.00000036,0.0000
 0007,0.,-0.00000006,-0.00000004,0.,0.00000014,0.00000021,0.00000002,0.
 00000037,0.00000008,0.00000003,0.00000016,-0.00000012,0.00000332,-0.00
 000255,-0.00000034,0.00000239,-0.00000161,0.00000070,-0.00000173,-0.00
 000938,0.00000161,0.00000596,-0.00000819,-0.00000651,-0.00000758,0.000
 00979,0.00001961,0.00000223,0.00001920,0.00003065,-0.00405551,0.004691
 98,0.00621522,-0.00015507,0.00035111,-0.00033961,-0.00013397,0.0014692
 1,-0.00221021,0.07400881,-0.11985149,-0.18351720,-0.08090196,0.1294509
 1,0.19826467,-0.00000192,-0.00000347,0.00000243,-0.00000164,0.00000977
 ,-0.00000401,0.00002293,-0.00001649,0.00001588,-0.00014753,-0.00004364
 ,-0.00001559,0.00032856,-0.00023596,0.00012588,-0.00006201,0.00012735,
 -0.00009447,-0.00056183,0.00001444,0.00002905,0.00043728,0.00009005,-0
 .00005003,-0.00014450,-0.00021555,0.00005436,-0.00024439,-0.00014510,0
 .00000003,-0.00029247,0.00044256,-0.00007425,0.00022412,-0.00183117,0.
 00032493,0.00060923,-0.00005084,0.00001140,-0.00000243,0.00000070,0.00
 000004,-0.00000018,0.00000027,-0.00000057,-0.00000018,0.00000050,0.000
 00013,0.00000007,-0.00000111,-0.00000026,-0.00000006,-0.00000055,0.000
 00090,-0.00001036,0.00000824,0.00000179,-0.00000602,0.00000326,-0.0000
 0165,0.00000218,0.00002064,-0.00000203,-0.00003195,-0.00000241,0.00000
 298,-0.00007255,-0.00002465,0.00000563,0.00005922,-0.00004783,0.000012
 20,-0.00972544,0.00204021,-0.00036324,0.00008482,-0.00019852,0.0000269
 6,0.00278530,0.00197253,-0.00034278,-0.33261235,-0.02063194,0.00376570
 ,-0.00829901,-0.00108869,-0.00063509,0.35593366,-0.00000287,-0.0000041
 9,0.00000281,-0.00000201,0.00001203,-0.00000476,0.00002918,-0.00002030
 ,0.00002000,-0.00018718,-0.00005872,-0.00002117,0.00041535,-0.00031919
 ,0.00017095,-0.00006653,0.00017466,-0.00012091,-0.00075018,0.00007881,
 0.00002010,0.00070806,0.00007734,-0.00005063,-0.00030563,0.00008270,0.
 00003797,-0.00035785,-0.00038226,0.00000402,-0.00144525,0.00047657,-0.
 00000264,-0.00005571,-0.00576304,0.00126825,0.00122916,-0.00092926,0.0
 0014131,-0.00000271,0.00000104,-0.00000007,-0.00000019,0.00000024,-0.0
 0000045,-0.00000031,0.00000041,0.00000009,0.00000026,-0.00000110,-0.00
 000024,-0.00000009,-0.00000068,0.00000086,-0.00001345,0.00001035,0.000
 00243,-0.00000785,0.00000412,-0.00000194,0.00000220,0.00002683,-0.0000
 0226,-0.00004950,-0.00000545,0.00000229,-0.00016718,-0.00006027,0.0000
 0214,0.00007000,0.00000678,0.00001527,-0.03423198,-0.00426912,0.000457
 86,0.00024241,0.00053764,-0.00012633,-0.00024606,0.00415591,-0.0008893
 2,-0.01419401,-0.04875114,0.00014817,0.01891913,0.00197252,0.00210290,
 0.02060711,0.05287364,0.00000052,0.00000065,-0.00000060,0.00000041,-0.
 00000185,0.00000078,-0.00000330,0.00000447,-0.00000091,0.00002473,0.00
 000663,0.00000337,-0.00006276,0.00004244,-0.00000752,0.00001223,-0.000
 02955,0.00001356,0.00011850,0.00000009,-0.00005495,-0.00011070,-0.0000
 0787,0.00005545,0.00005356,0.00001669,0.00015616,0.00006048,0.00004477
 ,-0.00015027,0.00026481,-0.00000069,0.00047511,-0.00000151,0.00124953,
 0.00111090,-0.00018782,0.00016261,-0.00006346,0.00000041,-0.00000016,0
 .00000001,0.00000004,-0.00000002,0.00000006,0.00000002,-0.00000007,0.,
 -0.00000001,0.00000016,0.00000003,-0.00000002,0.00000008,-0.00000012,0
 .00000144,-0.00000123,-0.00000032,0.00000111,-0.00000083,0.00000051,-0
 .00000102,-0.00000496,0.00000091,0.00001007,0.00000070,0.00000019,0.00
 002975,-0.00000133,-0.00006852,-0.00001198,0.00001034,0.00005840,0.006
 13126,0.00037754,-0.00196939,-0.00005380,-0.00012500,-0.00015481,0.000
 04144,-0.00083787,-0.00036745,0.00257981,0.00011700,-0.04840533,0.0226
 7710,0.00332267,0.00083359,-0.00381321,-0.00132167,0.04570689,-0.00000
 355,-0.00000464,0.00000252,-0.00000165,0.00001274,-0.00000548,0.000033
 42,-0.00001509,0.00002787,-0.00020498,-0.00006616,-0.00002429,0.000466
 26,-0.00038430,0.00020810,-0.00005262,0.00020084,-0.00013827,-0.000853
 96,0.00008468,-0.00005242,0.00080325,-0.00025381,0.00000663,-0.0000338
 6,-0.00016647,0.00039064,-0.00087546,0.00026131,0.00002293,0.00083701,
 0.00083228,-0.00047471,-0.00198251,-0.00097493,-0.00079740,-0.00044334
 ,-0.00038922,0.00045311,-0.00000274,0.00000115,-0.00000011,-0.00000002
 ,0.00000022,-0.00000038,-0.00000039,0.00000028,0.00000005,0.00000009,-
 0.00000115,-0.00000014,-0.00000008,-0.00000079,0.00000079,-0.00001655,
 0.00001127,0.00000262,-0.00000810,0.00000411,-0.00000222,0.00000158,0.
 00002878,-0.00000148,0.00000016,0.00001539,-0.00000846,0.00000212,0.00
 000124,0.00004770,0.00002199,0.00000544,0.00001395,0.00376387,0.002131
 21,0.00956088,-0.00117273,-0.00035073,0.00023457,0.00082204,-0.0007656
 7,-0.00088677,-0.08419172,0.02775132,-0.09064172,0.00388847,-0.0042732
 4,0.01090729,-0.00827057,0.00986369,-0.02776157,0.08747454,-0.00000244
 ,-0.00000383,0.00000168,-0.00000110,0.00000966,-0.00000394,0.00002307,
 -0.00000939,0.00001874,-0.00014369,-0.00004814,-0.00001786,0.00033382,
 -0.00026727,0.00013359,-0.00003778,0.00013710,-0.00008438,-0.00057674,
 0.00001661,0.00002133,0.00047272,0.00018935,-0.00016644,-0.00036160,-0
 .00029831,0.00025742,-0.00028846,0.00019340,0.00013566,0.00026442,0.00
 015695,-0.00070503,-0.00102334,-0.00038490,-0.00205657,0.00016105,0.00
 013724,-0.00009407,-0.00000223,0.00000075,0.,-0.00000003,0.00000030,-0
 .00000048,-0.00000026,0.00000035,0.00000005,0.00000001,-0.00000119,-0.
 00000024,-0.00000016,-0.00000057,0.00000074,-0.00001189,0.00000767,0.0
 0000167,-0.00000661,0.00000306,-0.00000180,0.00000236,0.00002349,-0.00
 000118,-0.00000637,0.00000560,0.00000528,-0.00000449,0.00000200,0.0001
 0450,0.00002203,0.00003601,0.00001244,0.01535709,-0.00536901,0.0288324
 2,-0.00031991,-0.00007471,-0.00007738,-0.00105097,-0.00713195,-0.00272
 972,0.02938152,-0.07026759,0.08115375,-0.00782053,0.00730070,-0.017672
 21,-0.00079972,0.00007312,-0.00302326,-0.03355976,0.07556350,-0.000000
 54,-0.00000007,0.00000081,-0.00000034,0.00000150,-0.00000087,0.0000054
 4,-0.00000389,0.00000414,-0.00003594,-0.00000895,0.00000029,0.00006520
 ,-0.00003710,0.00003679,-0.00001946,0.00001603,-0.00002854,-0.00010947
 ,-0.00001171,-0.00005675,0.00004618,-0.00011806,0.00007473,0.00013049,
 -0.00018554,0.00016542,-0.00017979,-0.00000578,-0.00006064,0.00026281,
 0.00017483,0.00011206,-0.00011777,0.00037802,0.00031803,-0.00057747,0.
 00044508,0.00024826,-0.00000031,0.00000021,-0.00000007,0.00000002,0.,0
 .00000025,0.00000004,-0.00000019,-0.00000018,0.00000008,-0.00000008,0.
 00000003,-0.00000005,-0.00000007,0.00000011,-0.00000224,0.00000182,0.0
 0000008,-0.00000061,0.00000053,-0.00000002,-0.00000050,0.00000188,-0.0
 0000023,-0.00000261,0.00000497,-0.00000406,0.00000813,-0.00000369,-0.0
 0001291,-0.00001193,-0.00002290,0.00003635,-0.00136707,-0.00040063,-0.
 00284450,0.00029388,-0.00048376,-0.00018822,0.00051586,0.00034392,-0.0
 0061306,-0.09007787,0.07804324,-0.25794597,-0.00875679,0.00777013,-0.0
 1937966,0.00101689,-0.00185503,0.00282770,0.09891576,-0.08404470,0.277
 31061\\0.00000100,0.00000024,0.00000137,-0.00000121,0.00000239,-0.0000
 0126,-0.00000599,0.00000195,0.00000037,-0.00001358,-0.00000119,-0.0000
 0093,0.00000722,0.00001454,-0.00001581,0.00000250,-0.00001148,0.000011
 57,0.00000256,0.00000238,-0.00000060,0.00000764,-0.00000002,-0.0000016
 4,-0.00000294,0.00000011,0.00000129,-0.00000470,-0.00000032,-0.0000035
 0,0.00000221,-0.00000079,-0.00000286,-0.00000208,-0.00000120,-0.000001
 20,0.00000196,0.00000110,0.00000123,-0.00000145,-0.00000041,0.00000103
 ,-0.00000018,0.00000300,-0.00000043,0.00000066,0.00000190,0.00000342,-
 0.00000082,-0.00000019,-0.00000278,-0.00000005,-0.00000139,0.00000093,
 0.00000091,0.,0.00000320,-0.00000044,0.00000337,-0.00000103,0.00000033
 ,-0.00000442,0.00000342,0.00000317,-0.00000040,0.00000230,-0.00000016,
 -0.00000080,-0.00000433,-0.00000100,-0.00000144,-0.00000363,0.00000835
 ,-0.00000080,0.00000086,-0.00000112,-0.00000174,0.00000320,-0.00000437
 ,-0.00000081,-0.00000410,0.00000169,-0.00000316,0.00000853,-0.00000102
 ,0.00000089,0.00000082,0.00000137,-0.00000204,0.00000088,-0.00000047,0
 .00000072,-0.00000031\\\@


                                                                                    A
                                                                                  AA
                                                                                 AAA
                                                                                AAAA
                                                                               AAAAA
                                                                              AAAAAA   KKKKKKKK
                                                                             AAAAAAA   KKKKKKKK
                                                                            AAAAAAAA   KKKKKKKK
                                       ZZZZZZZZZZZZZZZZZZZZ                AAAA  AAA   KKKKKKKK
                                       ZZZZZZZZZZZZZZZZZZZ                AAAA   AAA   KKKKKKKK          K
                                       ZZZZZZZZZZZZZZZZZZ                AAAA    AAA   KKKKKKKK         KKK
                                       ZZZZZZZZZZZZZZZZZ                AAAA     AAA   KKKKKKKK        KKKKK
                                       ZZZZZZZZZZZZZZZZ                AAAA      AAA   KKKKKKKK       KKKKKKK
                                                ZZZZZZ                AAAA       AAA   KKKKKKKK      KKKKKKK
                                               ZZZZZZ                AAAA        AAA   KKKKKKKK     KKKKKKK
                                              ZZZZZZ                AAAA         AAA   KKKKKKKK    KKKKKKK
                                             ZZZZZZ                AAAA          AAA   KKKKKKKK   KKKKKKK
                                            ZZZZZZ                AAAAAAAAAAAAAAAAAA   KKKKKKKK  KKKKKKK
                                           ZZZZZZ                AAAAAAAAAAAAAAAAAAA   KKKKKKKK KKKKKKK
                                          ZZZZZZ                AAAAAAAAAAAAAAAAAAAA   KKKKKKKKKKKKKKK
                                         ZZZZZZ                AAAAAAAAAAAAAAAAAAAAA   KKKKKKKKKKKKKK
                                        ZZZZZZ                AAAAAA        AAAAAAAA   KKKKKKKKKKKKK
                                       ZZZZZZ                AAAAAA         AAAAAAAA   KKKKKKKKKKKK
                                      ZZZZZZ                AAAAAA          AAAAAAAA   KKKKKKKKKKK
                                     ZZZZZZ                AAAAAA           AAAAAAAA   KKKKKKKKKKKK
                                    ZZZZZZ                AAAAAA            AAAAAAAA   KKKKKKKKKKKKK
                                   ZZZZZZ                AAAAAA             AAAAAAAA   KKKKKKKKKKKKKK
                                  ZZZZZZ                AAAAAA              AAAAAAAA   KKKKKKKKKKKKKKK
                                 ZZZZZZ                AAAAAA               AAAAAAAA   KKKKK KKKKKKKKKK
                                ZZZZZZ                AAAAAA                AAAAAAAA   KKKKK  KKKKKKKKKK
                               ZZZZZZ                AAAAAA                            KKKKK   KKKKKKKKKK
                              ZZZZZZ                AAAAAA                             KKKKK    KKKKKKKKKK
                             ZZZZZZ                                                    KKKKK     KKKKKKKKKK
                            ZZZZZZ                                                     KKKKK      KKKKKKKKKK
                           ZZZZZZ                                                      KKKKK       KKKKKKKKKK
                          ZZZZZZ                                                       KKKKK        KKKKKKKKKK
                         ZZZZZZZZZZZZZZZZZZZZZZZZZZZZZZZZZZZZZZZZ                      KKKKK         KKKKKKKKKK
                        ZZZZZZZZZZZZZZZZZZZZZZZZZZZZZZZZZZZZZZZZZ                      KKKKK          KKKKKKKKKK
                       ZZZZZZZZZZZZZZZZZZZZZZZZZZZZZZZZZZZZZZZZZZ                      KKKKK           KKKKKKKKKK
                       ZZZZZZZZZZZZZZZZZZZZZZZZZZZZZZZZZZZZZZZZZZ                      KKKKK            KKKKKKKKKK
                       ZZZZZZZZZZZZZZZZZZZZZZZZZZZZZZZZZZZZZZZZZZ                      KKKKK             KKKKKKKKKK
                       ZZZZZZZZZZZZZZZZZZZZZZZZZZZZZZZZZZZZZZZZZZ                      KKKKK              KKKKKKKKKK
                       ZZZZZZZZZZZZZZZZZZZZZZZZZZZZZZZZZZZZZZZZZZ                      KKKKK               KKKKKKKKKK
                       ZZZZZZZZZZZZZZZZZZZZZZZZZZZZZZZZZZZZZZZZZZ                      KKKKK                KKKKKKKKKK
                       ZZZZZZZZZZZZZZZZZZZZZZZZZZZZZZZZZZZZZZZZZZ                      KKKKK
                                                                                       KKKKK
                                                                                          (J.P.)
 Job cpu time:       0 days  2 hours 26 minutes 20.4 seconds.
 File lengths (MBytes):  RWF=    471 Int=      0 D2E=      0 Chk=     22 Scr=      1
 Normal termination of Gaussian 09 at Mon Feb  4 12:37:04 2019.
WARNING: pbs_rusage is deprecated and values produced may not be accurate


=============================================================================
                                     Resource usage:
                                       CPU time:              10:27:50
   JobId:    5363853.r-man2            Elapsed time:          02:39:10
   Project:             q95            Requested time:        32:00:00
   Service Units:     10.61 
                                       Max physical memory:      596MB
                                       Max virtual memory:      1290MB
                                       Requested memory:           0MB

                                       Number of cpus:               4

                                       Max jobfs disk use:       0.5GB
                                       Requested jobfs:         16.0GB
=============================================================================

