 Entering Gaussian System, Link 0=/apps/gaussian/g09e01/g09/g09
 AtFile(1): /home/507/hio507/Basis/6-31pGd.gbs
 Initial command:
 /apps/gaussian/g09e01/g09/l1.exe "/jobfs/local/5363856.r-man2/Gau-20441.inp" -scrdir="/jobfs/local/5363856.r-man2/"
 Entering Link 1 = /apps/gaussian/g09e01/g09/l1.exe PID=     20443.
  
 Copyright (c) 1988,1990,1992,1993,1995,1998,2003,2009,2015,
            Gaussian, Inc.  All Rights Reserved.
  
 This is part of the Gaussian(R) 09 program.  It is based on
 the Gaussian(R) 03 system (copyright 2003, Gaussian, Inc.),
 the Gaussian(R) 98 system (copyright 1998, Gaussian, Inc.),
 the Gaussian(R) 94 system (copyright 1995, Gaussian, Inc.),
 the Gaussian 92(TM) system (copyright 1992, Gaussian, Inc.),
 the Gaussian 90(TM) system (copyright 1990, Gaussian, Inc.),
 the Gaussian 88(TM) system (copyright 1988, Gaussian, Inc.),
 the Gaussian 86(TM) system (copyright 1986, Carnegie Mellon
 University), and the Gaussian 82(TM) system (copyright 1983,
 Carnegie Mellon University). Gaussian is a federally registered
 trademark of Gaussian, Inc.
  
 This software contains proprietary and confidential information,
 including trade secrets, belonging to Gaussian, Inc.
  
 This software is provided under written license and may be
 used, copied, transmitted, or stored only in accord with that
 written license.
  
 The following legend is applicable only to US Government
 contracts under FAR:
  
                    RESTRICTED RIGHTS LEGEND
  
 Use, reproduction and disclosure by the US Government is
 subject to restrictions as set forth in subparagraphs (a)
 and (c) of the Commercial Computer Software - Restricted
 Rights clause in FAR 52.227-19.
  
 Gaussian, Inc.
 340 Quinnipiac St., Bldg. 40, Wallingford CT 06492
  
  
 ---------------------------------------------------------------
 Warning -- This program may not be used in any manner that
 competes with the business of Gaussian, Inc. or will provide
 assistance to any competitor of Gaussian, Inc.  The licensee
 of this program is prohibited from giving any competitor of
 Gaussian, Inc. access to this program.  By using this program,
 the user acknowledges that Gaussian, Inc. is engaged in the
 business of creating and licensing software in the field of
 computational chemistry and represents and warrants to the
 licensee that it is not a competitor of Gaussian, Inc. and that
 it will not use this program in any manner prohibited above.
 ---------------------------------------------------------------
  

 Cite this work as:
 Gaussian 09, Revision E.01,
 M. J. Frisch, G. W. Trucks, H. B. Schlegel, G. E. Scuseria, 
 M. A. Robb, J. R. Cheeseman, G. Scalmani, V. Barone, B. Mennucci, 
 G. A. Petersson, H. Nakatsuji, M. Caricato, X. Li, H. P. Hratchian, 
 A. F. Izmaylov, J. Bloino, G. Zheng, J. L. Sonnenberg, M. Hada, 
 M. Ehara, K. Toyota, R. Fukuda, J. Hasegawa, M. Ishida, T. Nakajima, 
 Y. Honda, O. Kitao, H. Nakai, T. Vreven, J. A. Montgomery, Jr., 
 J. E. Peralta, F. Ogliaro, M. Bearpark, J. J. Heyd, E. Brothers, 
 K. N. Kudin, V. N. Staroverov, T. Keith, R. Kobayashi, J. Normand, 
 K. Raghavachari, A. Rendell, J. C. Burant, S. S. Iyengar, J. Tomasi, 
 M. Cossi, N. Rega, J. M. Millam, M. Klene, J. E. Knox, J. B. Cross, 
 V. Bakken, C. Adamo, J. Jaramillo, R. Gomperts, R. E. Stratmann, 
 O. Yazyev, A. J. Austin, R. Cammi, C. Pomelli, J. W. Ochterski, 
 R. L. Martin, K. Morokuma, V. G. Zakrzewski, G. A. Voth, 
 P. Salvador, J. J. Dannenberg, S. Dapprich, A. D. Daniels, 
 O. Farkas, J. B. Foresman, J. V. Ortiz, J. Cioslowski, 
 and D. J. Fox, Gaussian, Inc., Wallingford CT, 2013.
 
 ******************************************
 Gaussian 09:  ES64L-G09RevE.01 30-Nov-2015
                 4-Feb-2019 
 ******************************************
 %chk=4Ketone.M062X_6-31pGd_opt.chk
 %mem=196608000
 %nproc=4
 Will use up to    4 processors via shared memory.
 ----------------------------------------------------------------------
 # M062X/Gen 6D SCF=Tight INT(grid=ultrafine) OPT=calcfc IOP(2/17=4) ma
 xdisk=2147483648
 ----------------------------------------------------------------------
 1/10=4,14=-1,18=20,19=15,26=4,38=1/1,3;
 2/9=110,12=2,17=4,18=5,40=1/2;
 3/5=7,8=2,11=2,16=1,25=1,30=1,71=2,74=-55,75=-5,140=1/1,2,3;
 4//1;
 5/5=2,32=2,38=5/2;
 8/6=4,10=90,11=11/1;
 11/6=1,8=1,9=11,15=111,16=1/1,2,10;
 10/6=1,13=1/2;
 6/7=2,8=2,9=2,10=2,28=1/1;
 7/10=1,18=20,25=1/1,2,3,16;
 1/10=4,14=-1,18=20,19=15,26=4/3(2);
 2/9=110,17=4/2;
 99//99;
 2/9=110,17=4/2;
 3/5=7,6=1,8=2,11=2,16=1,25=1,30=1,71=1,74=-55,75=-5,82=7/1,2,3;
 4/5=5,16=3,69=1/1;
 5/5=2,32=2,38=5/2;
 7//1,2,3,16;
 1/14=-1,18=20,19=15,26=4/3(-5);
 2/9=110,17=4/2;
 6/7=2,8=2,9=2,10=2,19=2,28=1/1;
 99/9=1/99;
 -------------------------
 4Ketone.M062X_6-31pGd_opt
 -------------------------
 Symbolic Z-matrix:
 Charge =  0 Multiplicity = 1
 C                    -2.09741   2.07026   0.01493 
 C                    -0.79459   1.29404   0.18382 
 C                     0.42286   2.19143  -0.06662 
 N                     1.66024   1.44771   0.09538 
 C                     2.8794    2.03295  -0.07662 
 O                     2.93646   3.21516  -0.3752 
 N                     4.01429   1.28505   0.08846 
 C                     5.38302   1.71066  -0.04647 
 C                     5.78644   3.02236  -0.38456 
 C                     6.38909   0.7545    0.17348 
 C                     7.74108   1.08345   0.06318 
 C                     8.14522   2.38795  -0.27313 
 C                     7.14227   3.35147  -0.49498 
 H                    -2.95941   1.39581   0.20207 
 H                    -2.177     2.47095  -1.01813 
 H                    -2.14143   2.9127    0.73773 
 H                    -0.78422   0.44613  -0.5353 
 H                    -0.7487    0.88711   1.21751 
 H                     0.40744   3.03819   0.65477 
 H                     0.37182   2.59634  -1.10155 
 H                     1.61445   0.44784   0.34785 
 H                     3.87349   0.29414   0.34059 
 H                     5.09448   3.82257  -0.57168 
 H                     6.12558  -0.26307   0.43476 
 H                     8.47241   0.30546   0.24391 
 C                     9.60904   2.69502  -0.38023 
 H                     7.3749    4.37029  -0.75595 
 O                     10.41631   1.8007   -0.17179 
 C                     10.17488   4.04684  -0.73177 
 H                     9.41941   4.82875  -0.913 
 H                     10.82563   4.39564   0.09744 
 H                     10.78993   3.95575  -1.65163 
 

 GradGradGradGradGradGradGradGradGradGradGradGradGradGradGradGradGradGrad
 Berny optimization.
 Initialization pass.
                           ----------------------------
                           !    Initial Parameters    !
                           ! (Angstroms and Degrees)  !
 --------------------------                            --------------------------
 ! Name  Definition              Value          Derivative Info.                !
 --------------------------------------------------------------------------------
 ! R1    R(1,2)                  1.5259         calculate D2E/DX2 analytically  !
 ! R2    R(1,14)                 1.1104         calculate D2E/DX2 analytically  !
 ! R3    R(1,15)                 1.1109         calculate D2E/DX2 analytically  !
 ! R4    R(1,16)                 1.1109         calculate D2E/DX2 analytically  !
 ! R5    R(2,3)                  1.533          calculate D2E/DX2 analytically  !
 ! R6    R(2,17)                 1.1118         calculate D2E/DX2 analytically  !
 ! R7    R(2,18)                 1.1119         calculate D2E/DX2 analytically  !
 ! R8    R(3,4)                  1.4527         calculate D2E/DX2 analytically  !
 ! R9    R(3,19)                 1.1125         calculate D2E/DX2 analytically  !
 ! R10   R(3,20)                 1.1125         calculate D2E/DX2 analytically  !
 ! R11   R(4,5)                  1.3632         calculate D2E/DX2 analytically  !
 ! R12   R(4,21)                 1.0323         calculate D2E/DX2 analytically  !
 ! R13   R(5,6)                  1.2207         calculate D2E/DX2 analytically  !
 ! R14   R(5,7)                  1.3692         calculate D2E/DX2 analytically  !
 ! R15   R(7,8)                  1.4397         calculate D2E/DX2 analytically  !
 ! R16   R(7,22)                 1.0321         calculate D2E/DX2 analytically  !
 ! R17   R(8,9)                  1.4134         calculate D2E/DX2 analytically  !
 ! R18   R(8,10)                 1.4053         calculate D2E/DX2 analytically  !
 ! R19   R(9,13)                 1.3996         calculate D2E/DX2 analytically  !
 ! R20   R(9,23)                 1.0743         calculate D2E/DX2 analytically  !
 ! R21   R(10,11)                1.3958         calculate D2E/DX2 analytically  !
 ! R22   R(10,24)                1.0831         calculate D2E/DX2 analytically  !
 ! R23   R(11,12)                1.4065         calculate D2E/DX2 analytically  !
 ! R24   R(11,25)                1.0829         calculate D2E/DX2 analytically  !
 ! R25   R(12,13)                1.4084         calculate D2E/DX2 analytically  !
 ! R26   R(12,26)                1.4995         calculate D2E/DX2 analytically  !
 ! R27   R(13,27)                1.0771         calculate D2E/DX2 analytically  !
 ! R28   R(26,28)                1.2227         calculate D2E/DX2 analytically  !
 ! R29   R(26,29)                1.507          calculate D2E/DX2 analytically  !
 ! R30   R(29,30)                1.1023         calculate D2E/DX2 analytically  !
 ! R31   R(29,31)                1.1103         calculate D2E/DX2 analytically  !
 ! R32   R(29,32)                1.1103         calculate D2E/DX2 analytically  !
 ! A1    A(2,1,14)             109.5833         calculate D2E/DX2 analytically  !
 ! A2    A(2,1,15)             110.3392         calculate D2E/DX2 analytically  !
 ! A3    A(2,1,16)             110.3396         calculate D2E/DX2 analytically  !
 ! A4    A(14,1,15)            108.6746         calculate D2E/DX2 analytically  !
 ! A5    A(14,1,16)            108.6751         calculate D2E/DX2 analytically  !
 ! A6    A(15,1,16)            109.1894         calculate D2E/DX2 analytically  !
 ! A7    A(1,2,3)              111.2344         calculate D2E/DX2 analytically  !
 ! A8    A(1,2,17)             108.9241         calculate D2E/DX2 analytically  !
 ! A9    A(1,2,18)             108.9244         calculate D2E/DX2 analytically  !
 ! A10   A(3,2,17)             109.4719         calculate D2E/DX2 analytically  !
 ! A11   A(3,2,18)             109.4717         calculate D2E/DX2 analytically  !
 ! A12   A(17,2,18)            108.7729         calculate D2E/DX2 analytically  !
 ! A13   A(2,3,4)              111.0094         calculate D2E/DX2 analytically  !
 ! A14   A(2,3,19)             109.1841         calculate D2E/DX2 analytically  !
 ! A15   A(2,3,20)             109.1833         calculate D2E/DX2 analytically  !
 ! A16   A(4,3,19)             109.2174         calculate D2E/DX2 analytically  !
 ! A17   A(4,3,20)             109.2169         calculate D2E/DX2 analytically  !
 ! A18   A(19,3,20)            109.0002         calculate D2E/DX2 analytically  !
 ! A19   A(3,4,5)              121.8625         calculate D2E/DX2 analytically  !
 ! A20   A(3,4,21)             119.0363         calculate D2E/DX2 analytically  !
 ! A21   A(5,4,21)             119.1012         calculate D2E/DX2 analytically  !
 ! A22   A(4,5,6)              119.2381         calculate D2E/DX2 analytically  !
 ! A23   A(4,5,7)              119.444          calculate D2E/DX2 analytically  !
 ! A24   A(6,5,7)              121.3179         calculate D2E/DX2 analytically  !
 ! A25   A(5,7,8)              127.97           calculate D2E/DX2 analytically  !
 ! A26   A(5,7,22)             116.1556         calculate D2E/DX2 analytically  !
 ! A27   A(8,7,22)             115.8744         calculate D2E/DX2 analytically  !
 ! A28   A(7,8,9)              124.6202         calculate D2E/DX2 analytically  !
 ! A29   A(7,8,10)             117.6982         calculate D2E/DX2 analytically  !
 ! A30   A(9,8,10)             117.6816         calculate D2E/DX2 analytically  !
 ! A31   A(8,9,13)             120.9054         calculate D2E/DX2 analytically  !
 ! A32   A(8,9,23)             123.3049         calculate D2E/DX2 analytically  !
 ! A33   A(13,9,23)            115.7897         calculate D2E/DX2 analytically  !
 ! A34   A(8,10,11)            121.3814         calculate D2E/DX2 analytically  !
 ! A35   A(8,10,24)            120.1861         calculate D2E/DX2 analytically  !
 ! A36   A(11,10,24)           118.4325         calculate D2E/DX2 analytically  !
 ! A37   A(10,11,12)           121.0514         calculate D2E/DX2 analytically  !
 ! A38   A(10,11,25)           118.1398         calculate D2E/DX2 analytically  !
 ! A39   A(12,11,25)           120.8088         calculate D2E/DX2 analytically  !
 ! A40   A(11,12,13)           117.8772         calculate D2E/DX2 analytically  !
 ! A41   A(11,12,26)           119.1775         calculate D2E/DX2 analytically  !
 ! A42   A(13,12,26)           122.9453         calculate D2E/DX2 analytically  !
 ! A43   A(9,13,12)            121.1031         calculate D2E/DX2 analytically  !
 ! A44   A(9,13,27)            116.7924         calculate D2E/DX2 analytically  !
 ! A45   A(12,13,27)           122.1046         calculate D2E/DX2 analytically  !
 ! A46   A(12,26,28)           118.8535         calculate D2E/DX2 analytically  !
 ! A47   A(12,26,29)           124.5327         calculate D2E/DX2 analytically  !
 ! A48   A(28,26,29)           116.6138         calculate D2E/DX2 analytically  !
 ! A49   A(26,29,30)           114.6658         calculate D2E/DX2 analytically  !
 ! A50   A(26,29,31)           109.1261         calculate D2E/DX2 analytically  !
 ! A51   A(26,29,32)           109.1267         calculate D2E/DX2 analytically  !
 ! A52   A(30,29,31)           107.5571         calculate D2E/DX2 analytically  !
 ! A53   A(30,29,32)           107.5571         calculate D2E/DX2 analytically  !
 ! A54   A(31,29,32)           108.6538         calculate D2E/DX2 analytically  !
 ! D1    D(14,1,2,3)           179.9995         calculate D2E/DX2 analytically  !
 ! D2    D(14,1,2,17)           59.2505         calculate D2E/DX2 analytically  !
 ! D3    D(14,1,2,18)          -59.2516         calculate D2E/DX2 analytically  !
 ! D4    D(15,1,2,3)            60.3743         calculate D2E/DX2 analytically  !
 ! D5    D(15,1,2,17)          -60.3747         calculate D2E/DX2 analytically  !
 ! D6    D(15,1,2,18)         -178.8769         calculate D2E/DX2 analytically  !
 ! D7    D(16,1,2,3)           -60.3743         calculate D2E/DX2 analytically  !
 ! D8    D(16,1,2,17)          178.8767         calculate D2E/DX2 analytically  !
 ! D9    D(16,1,2,18)           60.3746         calculate D2E/DX2 analytically  !
 ! D10   D(1,2,3,4)           -179.9984         calculate D2E/DX2 analytically  !
 ! D11   D(1,2,3,19)            59.541          calculate D2E/DX2 analytically  !
 ! D12   D(1,2,3,20)           -59.5388         calculate D2E/DX2 analytically  !
 ! D13   D(17,2,3,4)           -59.572          calculate D2E/DX2 analytically  !
 ! D14   D(17,2,3,19)          179.9673         calculate D2E/DX2 analytically  !
 ! D15   D(17,2,3,20)           60.8875         calculate D2E/DX2 analytically  !
 ! D16   D(18,2,3,4)            59.5751         calculate D2E/DX2 analytically  !
 ! D17   D(18,2,3,19)          -60.8855         calculate D2E/DX2 analytically  !
 ! D18   D(18,2,3,20)         -179.9653         calculate D2E/DX2 analytically  !
 ! D19   D(2,3,4,5)            179.9976         calculate D2E/DX2 analytically  !
 ! D20   D(2,3,4,21)            -0.0006         calculate D2E/DX2 analytically  !
 ! D21   D(19,3,4,5)           -59.5615         calculate D2E/DX2 analytically  !
 ! D22   D(19,3,4,21)          120.4403         calculate D2E/DX2 analytically  !
 ! D23   D(20,3,4,5)            59.5579         calculate D2E/DX2 analytically  !
 ! D24   D(20,3,4,21)         -120.4403         calculate D2E/DX2 analytically  !
 ! D25   D(3,4,5,6)              0.0013         calculate D2E/DX2 analytically  !
 ! D26   D(3,4,5,7)           -179.9976         calculate D2E/DX2 analytically  !
 ! D27   D(21,4,5,6)           179.9995         calculate D2E/DX2 analytically  !
 ! D28   D(21,4,5,7)             0.0006         calculate D2E/DX2 analytically  !
 ! D29   D(4,5,7,8)            179.9977         calculate D2E/DX2 analytically  !
 ! D30   D(4,5,7,22)             0.0004         calculate D2E/DX2 analytically  !
 ! D31   D(6,5,7,8)             -0.0012         calculate D2E/DX2 analytically  !
 ! D32   D(6,5,7,22)          -179.9985         calculate D2E/DX2 analytically  !
 ! D33   D(5,7,8,9)              0.0066         calculate D2E/DX2 analytically  !
 ! D34   D(5,7,8,10)          -179.9934         calculate D2E/DX2 analytically  !
 ! D35   D(22,7,8,9)          -179.9961         calculate D2E/DX2 analytically  !
 ! D36   D(22,7,8,10)            0.0039         calculate D2E/DX2 analytically  !
 ! D37   D(7,8,9,13)          -179.999          calculate D2E/DX2 analytically  !
 ! D38   D(7,8,9,23)             0.0009         calculate D2E/DX2 analytically  !
 ! D39   D(10,8,9,13)            0.0009         calculate D2E/DX2 analytically  !
 ! D40   D(10,8,9,23)         -179.9991         calculate D2E/DX2 analytically  !
 ! D41   D(7,8,10,11)          179.9991         calculate D2E/DX2 analytically  !
 ! D42   D(7,8,10,24)           -0.0006         calculate D2E/DX2 analytically  !
 ! D43   D(9,8,10,11)           -0.0009         calculate D2E/DX2 analytically  !
 ! D44   D(9,8,10,24)          179.9994         calculate D2E/DX2 analytically  !
 ! D45   D(8,9,13,12)           -0.0003         calculate D2E/DX2 analytically  !
 ! D46   D(8,9,13,27)          179.9991         calculate D2E/DX2 analytically  !
 ! D47   D(23,9,13,12)         179.9998         calculate D2E/DX2 analytically  !
 ! D48   D(23,9,13,27)          -0.0008         calculate D2E/DX2 analytically  !
 ! D49   D(8,10,11,12)           0.0002         calculate D2E/DX2 analytically  !
 ! D50   D(8,10,11,25)        -179.9992         calculate D2E/DX2 analytically  !
 ! D51   D(24,10,11,12)        179.9999         calculate D2E/DX2 analytically  !
 ! D52   D(24,10,11,25)          0.0005         calculate D2E/DX2 analytically  !
 ! D53   D(10,11,12,13)          0.0005         calculate D2E/DX2 analytically  !
 ! D54   D(10,11,12,26)       -179.9991         calculate D2E/DX2 analytically  !
 ! D55   D(25,11,12,13)        179.9998         calculate D2E/DX2 analytically  !
 ! D56   D(25,11,12,26)          0.0002         calculate D2E/DX2 analytically  !
 ! D57   D(11,12,13,9)          -0.0004         calculate D2E/DX2 analytically  !
 ! D58   D(11,12,13,27)       -179.9998         calculate D2E/DX2 analytically  !
 ! D59   D(26,12,13,9)         179.9991         calculate D2E/DX2 analytically  !
 ! D60   D(26,12,13,27)         -0.0002         calculate D2E/DX2 analytically  !
 ! D61   D(11,12,26,28)         -0.0005         calculate D2E/DX2 analytically  !
 ! D62   D(11,12,26,29)        179.9987         calculate D2E/DX2 analytically  !
 ! D63   D(13,12,26,28)       -180.0            calculate D2E/DX2 analytically  !
 ! D64   D(13,12,26,29)         -0.0008         calculate D2E/DX2 analytically  !
 ! D65   D(12,26,29,30)          0.0006         calculate D2E/DX2 analytically  !
 ! D66   D(12,26,29,31)        120.7039         calculate D2E/DX2 analytically  !
 ! D67   D(12,26,29,32)       -120.7031         calculate D2E/DX2 analytically  !
 ! D68   D(28,26,29,30)        179.9998         calculate D2E/DX2 analytically  !
 ! D69   D(28,26,29,31)        -59.2969         calculate D2E/DX2 analytically  !
 ! D70   D(28,26,29,32)         59.2961         calculate D2E/DX2 analytically  !
 --------------------------------------------------------------------------------
 Trust Radius=3.00D-01 FncErr=1.00D-07 GrdErr=1.00D-06
 Number of steps in this run=    166 maximum allowed number of steps=    192.
 GradGradGradGradGradGradGradGradGradGradGradGradGradGradGradGradGradGrad

                          Input orientation:                          
 ---------------------------------------------------------------------
 Center     Atomic      Atomic             Coordinates (Angstroms)
 Number     Number       Type             X           Y           Z
 ---------------------------------------------------------------------
      1          6           0       -2.097410    2.070260    0.014930
      2          6           0       -0.794590    1.294040    0.183820
      3          6           0        0.422860    2.191430   -0.066620
      4          7           0        1.660240    1.447710    0.095380
      5          6           0        2.879400    2.032950   -0.076620
      6          8           0        2.936460    3.215160   -0.375200
      7          7           0        4.014290    1.285050    0.088460
      8          6           0        5.383020    1.710660   -0.046470
      9          6           0        5.786440    3.022360   -0.384560
     10          6           0        6.389090    0.754500    0.173480
     11          6           0        7.741080    1.083450    0.063180
     12          6           0        8.145220    2.387950   -0.273130
     13          6           0        7.142270    3.351470   -0.494980
     14          1           0       -2.959410    1.395810    0.202070
     15          1           0       -2.177000    2.470950   -1.018130
     16          1           0       -2.141430    2.912700    0.737730
     17          1           0       -0.784220    0.446130   -0.535300
     18          1           0       -0.748700    0.887110    1.217510
     19          1           0        0.407440    3.038190    0.654770
     20          1           0        0.371820    2.596340   -1.101550
     21          1           0        1.614450    0.447840    0.347850
     22          1           0        3.873490    0.294140    0.340590
     23          1           0        5.094480    3.822570   -0.571680
     24          1           0        6.125580   -0.263070    0.434760
     25          1           0        8.472410    0.305460    0.243910
     26          6           0        9.609040    2.695020   -0.380230
     27          1           0        7.374900    4.370290   -0.755950
     28          8           0       10.416310    1.800700   -0.171790
     29          6           0       10.174880    4.046840   -0.731770
     30          1           0        9.419410    4.828750   -0.913000
     31          1           0       10.825630    4.395640    0.097440
     32          1           0       10.789930    3.955750   -1.651630
 ---------------------------------------------------------------------
                    Distance matrix (angstroms):
                    1          2          3          4          5
     1  C    0.000000
     2  C    1.525903   0.000000
     3  C    2.524499   1.533041   0.000000
     4  N    3.809721   2.461225   1.452747   0.000000
     5  C    4.977792   3.756597   2.461667   1.363246   0.000000
     6  O    5.177146   4.233667   2.731562   2.230261   1.220666
     7  N    6.162373   4.809834   3.707283   2.359673   1.369153
     8  C    7.489320   6.195924   4.983446   3.734750   2.524459
     9  C    7.951175   6.827891   5.436867   4.442453   3.086202
    10  C    8.589356   7.203920   6.141524   4.780027   3.743649
    11  C    9.887973   8.539120   7.402757   6.091825   4.955505
    12  C   10.251604   9.018073   7.727620   6.563141   5.281430
    13  C    9.342012   8.227243   6.832251   5.833136   4.481694
    14  H    1.110382   2.167288   3.484961   4.621173   5.880078
    15  H    1.110901   2.177351   2.782584   4.124480   5.161925
    16  H    1.110893   2.177350   2.782587   4.124500   5.161963
    17  H    2.159866   1.111842   2.173195   2.715935   4.018768
    18  H    2.159875   1.111851   2.173199   2.715960   4.018810
    19  H    2.760536   2.169961   1.112494   2.100488   2.766952
    20  H    2.760504   2.169948   1.112491   2.100481   2.766920
    21  H    4.064602   2.558600   2.152157   1.032268   2.071919
    22  H    6.237973   4.776541   3.958835   2.507853   2.045908
    23  H    7.425495   6.453324   4.973906   4.228349   2.890399
    24  H    8.557935   7.097627   6.228721   4.793872   4.008853
    25  H   10.718584   9.319774   8.273365   6.908868   5.862484
    26  C   11.729768  10.512679   9.205317   8.060112   6.768942
    27  H    9.777988   8.779923   7.318023   6.474842   5.112159
    28  O   12.518016  11.227976  10.001639   8.767254   7.541088
    29  C   12.452852  11.346607   9.949214   8.940847   7.596644
    30  H   11.878866  10.863838   9.413274   8.523672   7.161547
    31  H   13.130848  12.027340  10.634993   9.627807   8.291874
    32  H   13.130728  12.027247  10.634906   9.627749   8.291821
                    6          7          8          9         10
     6  O    0.000000
     7  N    2.258766   0.000000
     8  C    2.890889   1.439712   0.000000
     9  C    2.856509   2.526363   1.413368   0.000000
    10  C    4.275108   2.434828   1.405275   2.412008   0.000000
    11  C    5.274537   3.732324   2.442512   2.789348   1.395798
    12  C    5.275024   4.290888   2.853041   2.445145   2.439593
    13  C    4.209723   3.794042   2.447117   1.399565   2.785385
    14  H    6.197141   6.975505   8.352068   8.915138   9.370515
    15  H    5.207176   6.400232   7.660030   8.007611   8.817258
    16  H    5.207213   6.400288   7.660106   8.007664   8.817368
    17  H    4.640756   4.911065   6.314494   7.059267   7.214835
    18  H    4.640792   4.911129   6.314576   7.059318   7.214959
    19  H    2.736439   4.050133   5.197160   5.478512   6.420827
    20  H    2.736403   4.050086   5.197090   5.478474   6.420718
    21  H    3.150964   2.554885   3.994036   4.956821   4.787654
    22  H    3.150038   1.032132   2.105950   3.410045   2.562831
    23  H    2.250467   2.835772   2.195282   1.074318   3.412379
    24  H    4.787965   2.640861   2.163004   3.402992   1.083122
    25  H    6.284616   4.567121   3.406353   3.871815   2.132327
    26  C    6.692824   5.788688   4.351966   3.836592   3.800038
    27  H    4.602070   4.639551   3.397732   2.116141   3.861295
    28  O    7.615132   6.428023   5.035655   4.793060   4.175194
    29  C    7.294762   6.800965   5.374876   4.519792   5.098155
    30  H    6.702353   6.540341   5.173568   4.091548   5.192571
    31  H    7.990990   7.488004   6.070571   5.245156   5.739910
    32  H    7.990916   7.487980   6.070555   5.245150   5.739897
                   11         12         13         14         15
    11  C    0.000000
    12  C    1.406469   0.000000
    13  C    2.411230   1.408367   0.000000
    14  H   10.705949  11.158986  10.312828   0.000000
    15  H   10.072869  10.349403   9.375382   1.804710   0.000000
    16  H   10.072992  10.349511   9.375456   1.804710   1.810926
    17  H    8.570011   9.141898   8.442267   2.485369   2.504567
    18  H    8.570145   9.142010   8.442340   2.485384   3.089770
    19  H    7.612704   7.820297   6.839445   3.773331   3.130445
    20  H    7.612583   7.820195   6.839382   3.773300   2.553266
    21  H    6.166087   6.841096   6.300653   4.673339   4.509320
    22  H    3.957047   4.796704   4.553061   6.922528   6.572142
    23  H    3.861388   3.384417   2.102680   8.447070   7.409495
    24  H    2.135656   3.407046   3.868200   9.238131   8.861072
    25  H    1.082948   2.170518   3.404909  11.483776  10.940385
    26  C    2.506600   1.499510   2.555200  12.648832  11.805417
    27  H    3.407107   2.180867   1.077133  10.796448   9.742434
    28  O    2.779661   2.347974   3.637125  13.387068  12.639501
    29  C    3.916249   2.661163   3.120310  13.431664  12.455295
    30  H    4.218648   2.826747   2.746355  12.894326  11.834145
    31  H    4.526171   3.369383   3.874067  14.108056  13.191562
    32  H    4.526165   3.369384   3.874070  14.107936  13.067028
                   16         17         18         19         20
    16  H    0.000000
    17  H    3.089756   0.000000
    18  H    2.504576   1.807780   0.000000
    19  H    2.553305   3.091132   2.506089   0.000000
    20  H    3.130409   2.506087   3.091128   1.811397   0.000000
    21  H    4.509343   2.556086   2.556119   2.874193   2.874185
    22  H    6.572202   4.741787   4.741861   4.431932   4.431883
    23  H    7.409508   6.779438   6.779445   4.907930   4.907945
    24  H    8.861194   7.013510   7.013654   6.606349   6.606226
    25  H   10.940528   9.290434   9.290591   8.525278   8.525136
    26  C   11.805540  10.634914  10.635041   9.265983   9.265866
    27  H    9.742494   9.056432   9.056487   7.232574   7.232528
    28  O   12.639644  11.287997  11.288146  10.118896  10.118759
    29  C   12.455408  11.537139  11.537252   9.916791   9.916687
    30  H   11.834238  11.111439  11.111528   9.320923   9.320842
    31  H   13.067277  12.279561  12.146170  10.521025  10.675074
    32  H   13.191553  12.145969  12.279597  10.675088  10.520817
                   21         22         23         24         25
    21  H    0.000000
    22  H    2.264274   0.000000
    23  H    4.934060   3.843549   0.000000
    24  H    4.567630   2.321909   4.332268   0.000000
    25  H    6.860225   4.599950   4.944255   2.422243   0.000000
    26  C    8.336269   6.259420   4.657174   4.642090   2.718727
    27  H    7.055974   5.484275   2.352502   4.944352   4.327481
    28  O    8.920370   6.733554   5.706991   4.799731   2.487428
    29  C    9.348762   7.412168   5.087867   6.027682   4.224722
    30  H    9.038778   7.272648   4.453529   6.212278   4.763969
    31  H   10.024653   8.075498   5.798466   6.626299   4.721088
    32  H   10.024609   8.075486   5.798464   6.626283   4.721079
                   26         27         28         29         30
    26  C    0.000000
    27  H    2.817637   0.000000
    28  O    1.222678   4.024203   0.000000
    29  C    1.507041   2.818704   2.327447   0.000000
    30  H    2.207398   2.101160   3.272963   1.102253   0.000000
    31  H    2.144847   3.554779   2.640784   1.110282   1.784945
    32  H    2.144854   3.554788   2.640788   1.110282   1.784945
                   31         32
    31  H    0.000000
    32  H    1.803891   0.000000
 Stoichiometry    C12H16N2O2
 Framework group  C1[X(C12H16N2O2)]
 Deg. of freedom    90
 Full point group                 C1      NOp   1
 Largest Abelian subgroup         C1      NOp   1
 Largest concise Abelian subgroup C1      NOp   1
                         Standard orientation:                         
 ---------------------------------------------------------------------
 Center     Atomic      Atomic             Coordinates (Angstroms)
 Number     Number       Type             X           Y           Z
 ---------------------------------------------------------------------
      1          6           0       -6.885983   -0.487829    0.000204
      2          6           0       -5.658861    0.419118    0.000060
      3          6           0       -4.363012   -0.400020    0.000013
      4          7           0       -3.198123    0.468027   -0.000086
      5          6           0       -1.929255   -0.030385   -0.000093
      6          8           0       -1.763736   -1.239777   -0.000040
      7          7           0       -0.866895    0.833312   -0.000138
      8          6           0        0.536375    0.511431   -0.000107
      9          6           0        1.058992   -0.801764   -0.000157
     10          6           0        1.451211    1.578141   -0.000020
     11          6           0        2.828914    1.354120    0.000033
     12          6           0        3.351588    0.048377   -0.000001
     13          6           0        2.440537   -1.025626   -0.000102
     14          1           0       -7.807083    0.132271    0.000244
     15          1           0       -6.890386   -1.131367    0.905709
     16          1           0       -6.890527   -1.131472   -0.905217
     17          1           0       -5.688424    1.065936    0.903911
     18          1           0       -5.688553    1.065835   -0.903869
     19          1           0       -4.338665   -1.045629   -0.905658
     20          1           0       -4.338564   -1.045543    0.905739
     21          1           0       -3.335651    1.491093   -0.000123
     22          1           0       -1.098291    1.839171   -0.000157
     23          1           0        0.442883   -1.681859   -0.000237
     24          1           0        1.095067    2.601037    0.000011
     25          1           0        3.486303    2.214710    0.000113
     26          6           0        4.838737   -0.143764    0.000080
     27          1           0        2.766019   -2.052407   -0.000129
     28          8           0        5.561122    0.842695    0.000166
     29          6           0        5.526921   -1.484501    0.000083
     30          1           0        4.845833   -2.351151    0.000008
     31          1           0        6.169605   -1.563527   -0.901825
     32          1           0        6.169491   -1.563593    0.902067
 ---------------------------------------------------------------------
 Rotational constants (GHZ):      2.4507605      0.1524165      0.1440317
 General basis read from cards:  (6D, 7F)
 There are   336 symmetry adapted cartesian basis functions of A   symmetry.
 There are   336 symmetry adapted basis functions of A   symmetry.
   336 basis functions,   576 primitive gaussians,   336 cartesian basis functions
    59 alpha electrons       59 beta electrons
       nuclear repulsion energy      1004.2179346525 Hartrees.
 NAtoms=   32 NActive=   32 NUniq=   32 SFac= 1.00D+00 NAtFMM=   60 NAOKFM=F Big=F
 Integral buffers will be    131072 words long.
 Raffenetti 2 integral format.
 Two-electron integral symmetry is turned on.
 One-electron integrals computed using PRISM.
 NBasis=   336 RedAO= T EigKep=  1.37D-06  NBF=   336
 NBsUse=   335 1.00D-06 EigRej=  7.89D-07 NBFU=   335
 ExpMin= 4.38D-02 ExpMax= 5.48D+03 ExpMxC= 8.25D+02 IAcc=3 IRadAn=         5 AccDes= 0.00D+00
 Harris functional with IExCor= 1009 and IRadAn=       5 diagonalized for initial guess.
 HarFok:  IExCor= 1009 AccDes= 0.00D+00 IRadAn=         5 IDoV= 1 UseB2=F ITyADJ=14
 ICtDFT=  3500011 ScaDFX=  1.000000  1.000000  1.000000  1.000000
 FoFCou: FMM=F IPFlag=           0 FMFlag=      100000 FMFlg1=           0
         NFxFlg=           0 DoJE=T BraDBF=F KetDBF=T FulRan=T
         wScrn=  0.000000 ICntrl=     500 IOpCl=  0 I1Cent=   200000004 NGrid=           0
         NMat0=    1 NMatS0=      1 NMatT0=    0 NMatD0=    1 NMtDS0=    0 NMtDT0=    0
 Petite list used in FoFCou.
 Requested convergence on RMS density matrix=1.00D-08 within 128 cycles.
 Requested convergence on MAX density matrix=1.00D-06.
 Requested convergence on             energy=1.00D-06.
 No special actions if energy rises.
 SCF Done:  E(RM062X) =  -726.592474854     A.U. after   15 cycles
            NFock= 15  Conv=0.56D-08     -V/T= 2.0093
 DoSCS=F DFT=T ScalE2(SS,OS)=  1.000000  1.000000
 Range of M.O.s used for correlation:     1   335
 NBasis=   336 NAE=    59 NBE=    59 NFC=     0 NFV=     0
 NROrb=    335 NOA=    59 NOB=    59 NVA=   276 NVB=   276

 **** Warning!!: The largest alpha MO coefficient is  0.21909546D+03

 Symmetrizing basis deriv contribution to polar:
 IMax=3 JMax=2 DiffMx= 0.00D+00
 G2DrvN: will do    33 centers at a time, making    1 passes.
 Calling FoFCou, ICntrl=  3107 FMM=F I1Cent=   0 AccDes= 0.00D+00.
 End of G2Drv F.D. properties file   721 does not exist.
 End of G2Drv F.D. properties file   722 does not exist.
 End of G2Drv F.D. properties file   788 does not exist.
          IDoAtm=11111111111111111111111111111111
          Differentiating once with respect to nuclear coordinates.
          There are    99 degrees of freedom in the 1st order CPHF.  IDoFFX=6 NUNeed=     0.
     93 vectors produced by pass  0 Test12= 1.64D-14 1.01D-09 XBig12= 2.58D-01 1.62D-01.
 AX will form    93 AO Fock derivatives at one time.
     93 vectors produced by pass  1 Test12= 1.64D-14 1.01D-09 XBig12= 2.57D-02 3.59D-02.
     93 vectors produced by pass  2 Test12= 1.64D-14 1.01D-09 XBig12= 5.37D-04 3.82D-03.
     93 vectors produced by pass  3 Test12= 1.64D-14 1.01D-09 XBig12= 3.54D-06 2.43D-04.
     93 vectors produced by pass  4 Test12= 1.64D-14 1.01D-09 XBig12= 1.73D-08 1.67D-05.
     93 vectors produced by pass  5 Test12= 1.64D-14 1.01D-09 XBig12= 6.13D-11 9.21D-07.
     69 vectors produced by pass  6 Test12= 1.64D-14 1.01D-09 XBig12= 2.14D-13 4.04D-08.
     16 vectors produced by pass  7 Test12= 1.64D-14 1.01D-09 XBig12= 1.22D-15 3.79D-09.
      9 vectors produced by pass  8 Test12= 1.64D-14 1.01D-09 XBig12= 2.66D-15 1.19D-08.
      9 vectors produced by pass  9 Test12= 1.64D-14 1.01D-09 XBig12= 1.37D-14 1.15D-08.
      2 vectors produced by pass 10 Test12= 1.64D-14 1.01D-09 XBig12= 2.77D-15 5.67D-09.
 InvSVY:  IOpt=1 It=  1 EMax= 8.88D-16
 Solved reduced A of dimension   663 with    99 vectors.
 End of Minotr F.D. properties file   721 does not exist.
 End of Minotr F.D. properties file   722 does not exist.
 End of Minotr F.D. properties file   788 does not exist.

 **********************************************************************

            Population analysis using the SCF density.

 **********************************************************************

 Orbital symmetries:
       Occupied  (A) (A) (A) (A) (A) (A) (A) (A) (A) (A) (A) (A)
                 (A) (A) (A) (A) (A) (A) (A) (A) (A) (A) (A) (A)
                 (A) (A) (A) (A) (A) (A) (A) (A) (A) (A) (A) (A)
                 (A) (A) (A) (A) (A) (A) (A) (A) (A) (A) (A) (A)
                 (A) (A) (A) (A) (A) (A) (A) (A) (A) (A) (A)
       Virtual   (A) (A) (A) (A) (A) (A) (A) (A) (A) (A) (A) (A)
                 (A) (A) (A) (A) (A) (A) (A) (A) (A) (A) (A) (A)
                 (A) (A) (A) (A) (A) (A) (A) (A) (A) (A) (A) (A)
                 (A) (A) (A) (A) (A) (A) (A) (A) (A) (A) (A) (A)
                 (A) (A) (A) (A) (A) (A) (A) (A) (A) (A) (A) (A)
                 (A) (A) (A) (A) (A) (A) (A) (A) (A) (A) (A) (A)
                 (A) (A) (A) (A) (A) (A) (A) (A) (A) (A) (A) (A)
                 (A) (A) (A) (A) (A) (A) (A) (A) (A) (A) (A) (A)
                 (A) (A) (A) (A) (A) (A) (A) (A) (A) (A) (A) (A)
                 (A) (A) (A) (A) (A) (A) (A) (A) (A) (A) (A) (A)
                 (A) (A) (A) (A) (A) (A) (A) (A) (A) (A) (A) (A)
                 (A) (A) (A) (A) (A) (A) (A) (A) (A) (A) (A) (A)
                 (A) (A) (A) (A) (A) (A) (A) (A) (A) (A) (A) (A)
                 (A) (A) (A) (A) (A) (A) (A) (A) (A) (A) (A) (A)
                 (A) (A) (A) (A) (A) (A) (A) (A) (A) (A) (A) (A)
                 (A) (A) (A) (A) (A) (A) (A) (A) (A) (A) (A) (A)
                 (A) (A) (A) (A) (A) (A) (A) (A) (A) (A) (A) (A)
                 (A) (A) (A) (A) (A) (A) (A) (A) (A) (A) (A) (A)
                 (A) (A) (A) (A) (A) (A) (A) (A) (A) (A) (A) (A)
                 (A) (A) (A) (A) (A) (A) (A) (A) (A) (A) (A) (A)
                 (A) (A) (A) (A) (A) (A) (A) (A) (A) (A) (A) (A)
                 (A) (A) (A) (A) (A) (A) (A) (A) (A) (A) (A) (A)
                 (A) (A) (A) (A) (A) (A) (A) (A) (A) (A) (A) (A)
 The electronic state is 1-A.
 Alpha  occ. eigenvalues --  -19.62950 -19.60666 -14.81873 -14.79890 -10.68842
 Alpha  occ. eigenvalues --  -10.64143 -10.62603 -10.59559 -10.56969 -10.56929
 Alpha  occ. eigenvalues --  -10.56838 -10.56782 -10.56608 -10.55845 -10.55605
 Alpha  occ. eigenvalues --  -10.55327  -1.18354  -1.15943  -1.05791  -1.03577
 Alpha  occ. eigenvalues --   -0.96333  -0.89687  -0.86867  -0.85286  -0.82883
 Alpha  occ. eigenvalues --   -0.78865  -0.73142  -0.71267  -0.69397  -0.67438
 Alpha  occ. eigenvalues --   -0.64074  -0.63747  -0.61657  -0.56954  -0.56563
 Alpha  occ. eigenvalues --   -0.54777  -0.53414  -0.52970  -0.52517  -0.51380
 Alpha  occ. eigenvalues --   -0.50571  -0.49382  -0.48530  -0.47869  -0.47563
 Alpha  occ. eigenvalues --   -0.46452  -0.45078  -0.44158  -0.43656  -0.42186
 Alpha  occ. eigenvalues --   -0.41538  -0.41259  -0.41183  -0.37385  -0.34400
 Alpha  occ. eigenvalues --   -0.32596  -0.32123  -0.31575  -0.28133
 Alpha virt. eigenvalues --   -0.02571  -0.00795   0.01106   0.01914   0.02256
 Alpha virt. eigenvalues --    0.03007   0.03708   0.03753   0.04471   0.05114
 Alpha virt. eigenvalues --    0.05706   0.05732   0.06250   0.06359   0.06956
 Alpha virt. eigenvalues --    0.06987   0.07584   0.07844   0.08336   0.08921
 Alpha virt. eigenvalues --    0.09261   0.09683   0.10257   0.10773   0.10850
 Alpha virt. eigenvalues --    0.11601   0.12033   0.12270   0.13843   0.14001
 Alpha virt. eigenvalues --    0.14550   0.14856   0.15011   0.15594   0.16310
 Alpha virt. eigenvalues --    0.16905   0.16996   0.17232   0.18382   0.18449
 Alpha virt. eigenvalues --    0.19424   0.19711   0.19914   0.20370   0.21121
 Alpha virt. eigenvalues --    0.21609   0.21839   0.22552   0.22808   0.23250
 Alpha virt. eigenvalues --    0.23797   0.24042   0.24799   0.24994   0.25126
 Alpha virt. eigenvalues --    0.25346   0.25638   0.25875   0.26209   0.27652
 Alpha virt. eigenvalues --    0.28031   0.28208   0.28459   0.28656   0.29195
 Alpha virt. eigenvalues --    0.29277   0.30092   0.30881   0.31027   0.31275
 Alpha virt. eigenvalues --    0.32114   0.32937   0.33214   0.33701   0.33796
 Alpha virt. eigenvalues --    0.33974   0.34733   0.35231   0.35473   0.37014
 Alpha virt. eigenvalues --    0.37322   0.37957   0.38541   0.39007   0.40264
 Alpha virt. eigenvalues --    0.40551   0.41077   0.42382   0.43796   0.45134
 Alpha virt. eigenvalues --    0.45344   0.47106   0.48508   0.51189   0.52943
 Alpha virt. eigenvalues --    0.54057   0.58105   0.59692   0.62695   0.67327
 Alpha virt. eigenvalues --    0.68091   0.68603   0.69683   0.72329   0.72616
 Alpha virt. eigenvalues --    0.73381   0.73935   0.74101   0.75269   0.75967
 Alpha virt. eigenvalues --    0.76350   0.77563   0.77934   0.79032   0.79231
 Alpha virt. eigenvalues --    0.80632   0.81361   0.82579   0.83559   0.84053
 Alpha virt. eigenvalues --    0.85053   0.85590   0.87009   0.87613   0.87702
 Alpha virt. eigenvalues --    0.88826   0.92017   0.94244   0.96586   0.96885
 Alpha virt. eigenvalues --    0.98773   1.00523   1.00563   1.00941   1.02164
 Alpha virt. eigenvalues --    1.03435   1.03653   1.04228   1.04769   1.06800
 Alpha virt. eigenvalues --    1.09180   1.09501   1.09750   1.10973   1.11584
 Alpha virt. eigenvalues --    1.13132   1.13593   1.14233   1.15405   1.16329
 Alpha virt. eigenvalues --    1.16872   1.18032   1.19933   1.20226   1.22516
 Alpha virt. eigenvalues --    1.25305   1.28100   1.30226   1.31236   1.31608
 Alpha virt. eigenvalues --    1.32605   1.33892   1.35680   1.36609   1.36926
 Alpha virt. eigenvalues --    1.37816   1.39327   1.39342   1.42750   1.43852
 Alpha virt. eigenvalues --    1.44237   1.45027   1.45666   1.46345   1.48680
 Alpha virt. eigenvalues --    1.49834   1.49834   1.50639   1.51369   1.54297
 Alpha virt. eigenvalues --    1.55267   1.55598   1.57312   1.57591   1.59202
 Alpha virt. eigenvalues --    1.64550   1.69779   1.76764   1.78663   1.80117
 Alpha virt. eigenvalues --    1.80804   1.83339   1.83654   1.86356   1.86520
 Alpha virt. eigenvalues --    1.87751   1.88034   1.88546   1.91528   1.92092
 Alpha virt. eigenvalues --    1.93235   1.95850   1.97763   1.98706   2.01819
 Alpha virt. eigenvalues --    2.03154   2.03687   2.04271   2.04638   2.06957
 Alpha virt. eigenvalues --    2.08662   2.11055   2.12913   2.13671   2.14237
 Alpha virt. eigenvalues --    2.16962   2.18046   2.19059   2.19087   2.21897
 Alpha virt. eigenvalues --    2.24326   2.26134   2.28317   2.29552   2.32719
 Alpha virt. eigenvalues --    2.32991   2.34713   2.36359   2.36700   2.38031
 Alpha virt. eigenvalues --    2.38598   2.41079   2.41564   2.46271   2.47083
 Alpha virt. eigenvalues --    2.50664   2.55546   2.56592   2.62727   2.64058
 Alpha virt. eigenvalues --    2.64624   2.66390   2.69325   2.71945   2.73463
 Alpha virt. eigenvalues --    2.73864   2.76855   2.77900   2.81730   2.84461
 Alpha virt. eigenvalues --    2.88275   2.95221   2.98450   3.03910   3.11130
 Alpha virt. eigenvalues --    3.15437   3.23615   3.27566   3.33712   3.43196
 Alpha virt. eigenvalues --    4.14249   4.24286   4.24839   4.27899   4.28726
 Alpha virt. eigenvalues --    4.33289   4.35347   4.40412   4.42588   4.44292
 Alpha virt. eigenvalues --    4.49043   4.50509   4.57630   4.62685   4.69572
 Alpha virt. eigenvalues --    4.79429
          Condensed to atoms (all electrons):
               1          2          3          4          5          6
     1  C    5.544103   0.004837  -0.008636  -0.005280  -0.025511  -0.002319
     2  C    0.004837   6.155110  -0.413723  -0.086677   0.135972   0.020516
     3  C   -0.008636  -0.413723   6.789064   0.349239  -0.519510  -0.099937
     4  N   -0.005280  -0.086677   0.349239   7.760072   0.355162  -0.206370
     5  C   -0.025511   0.135972  -0.519510   0.355162   6.364669   0.639259
     6  O   -0.002319   0.020516  -0.099937  -0.206370   0.639259   8.303969
     7  N   -0.001603   0.021632  -0.137903  -0.436140   0.103638  -0.080650
     8  C   -0.005606   0.022102  -0.354935  -0.224247  -1.055418  -0.441141
     9  C   -0.001590  -0.011572  -0.025765   0.103853   0.618069   0.467815
    10  C   -0.000536   0.005951  -0.062908  -0.138375  -1.242055  -0.131432
    11  C    0.000155   0.001255   0.021136   0.022788   0.267202   0.005911
    12  C   -0.000168   0.000319  -0.019365  -0.000506  -0.214817   0.024244
    13  C   -0.000176  -0.000910  -0.023580   0.007567  -0.146714   0.088916
    14  H    0.411457  -0.086066   0.027881   0.000501  -0.002629   0.000009
    15  H    0.416742  -0.064986  -0.008135   0.000644   0.000395  -0.000059
    16  H    0.416732  -0.064983  -0.008130   0.000644   0.000397  -0.000059
    17  H   -0.028990   0.414305  -0.076115   0.007180  -0.004130  -0.000233
    18  H   -0.028980   0.414297  -0.076108   0.007180  -0.004139  -0.000233
    19  H    0.005427  -0.056645   0.429821  -0.058597  -0.009883   0.000868
    20  H    0.005443  -0.056662   0.429898  -0.058604  -0.009941   0.000869
    21  H   -0.001977   0.000869  -0.089978   0.230359   0.039285   0.008841
    22  H   -0.000125  -0.000355   0.003065   0.030341  -0.026866   0.007779
    23  H    0.000007   0.000007   0.002542   0.000166   0.016760  -0.003303
    24  H   -0.000001   0.000017  -0.000464   0.001055  -0.008600   0.000034
    25  H    0.000000  -0.000000   0.000031   0.000012   0.004034   0.000001
    26  C   -0.000011   0.000027  -0.002854   0.000102  -0.097005   0.002375
    27  H   -0.000000   0.000003  -0.000060   0.000001  -0.003909   0.000233
    28  O   -0.000000   0.000000  -0.000001   0.000001   0.000168   0.000001
    29  C    0.000000   0.000006   0.000169   0.000064   0.006748  -0.000066
    30  H   -0.000000   0.000000  -0.000002  -0.000000  -0.000588   0.000002
    31  H    0.000000  -0.000000   0.000000   0.000000   0.000037  -0.000000
    32  H    0.000000  -0.000000   0.000000   0.000000   0.000037  -0.000000
               7          8          9         10         11         12
     1  C   -0.001603  -0.005606  -0.001590  -0.000536   0.000155  -0.000168
     2  C    0.021632   0.022102  -0.011572   0.005951   0.001255   0.000319
     3  C   -0.137903  -0.354935  -0.025765  -0.062908   0.021136  -0.019365
     4  N   -0.436140  -0.224247   0.103853  -0.138375   0.022788  -0.000506
     5  C    0.103638  -1.055418   0.618069  -1.242055   0.267202  -0.214817
     6  O   -0.080650  -0.441141   0.467815  -0.131432   0.005911   0.024244
     7  N    7.866529   0.135939  -0.491214   0.390475   0.028831  -0.012902
     8  C    0.135939  11.696426  -1.864358   1.048913  -0.037262  -1.380313
     9  C   -0.491214  -1.864358  11.030661  -5.846737   0.803863  -0.386761
    10  C    0.390475   1.048913  -5.846737  15.807307  -3.854823   0.299082
    11  C    0.028831  -0.037262   0.803863  -3.854823  11.355648  -0.005184
    12  C   -0.012902  -1.380313  -0.386761   0.299082  -0.005184  10.715135
    13  C    0.015446  -1.544140   0.963602   1.054885  -3.253429  -0.374236
    14  H    0.000008  -0.000044   0.000002  -0.000002  -0.000000  -0.000000
    15  H    0.000019  -0.000013  -0.000028   0.000001   0.000000  -0.000000
    16  H    0.000019  -0.000014  -0.000028   0.000001   0.000000  -0.000000
    17  H    0.000098  -0.000697  -0.000159   0.000060   0.000010  -0.000004
    18  H    0.000098  -0.000698  -0.000159   0.000060   0.000010  -0.000004
    19  H    0.000054  -0.003924   0.002543  -0.000959   0.000011  -0.000001
    20  H    0.000055  -0.003936   0.002543  -0.000960   0.000011  -0.000001
    21  H    0.033061   0.024386  -0.000704   0.000941  -0.000353   0.000073
    22  H    0.216882   0.011936   0.062966  -0.123191   0.054292   0.001018
    23  H   -0.015898   0.085935   0.269630   0.046153  -0.019105  -0.003188
    24  H   -0.012711   0.109300   0.055847   0.098231   0.062119  -0.010527
    25  H    0.000435   0.036019   0.010931  -0.112543   0.346027   0.058512
    26  C   -0.011727  -0.352900  -0.275206   0.184320  -0.585031  -2.772901
    27  H   -0.000986  -0.000939  -0.102874  -0.034637   0.082078   0.094034
    28  O   -0.000031   0.027458  -0.015071   0.034964   0.272006  -0.300666
    29  C    0.000348   0.003232  -0.023476  -0.019375   0.046208  -0.457496
    30  H   -0.000023  -0.006084  -0.007078   0.008867  -0.022233   0.011981
    31  H    0.000001   0.001379   0.003584  -0.003154   0.000255   0.030578
    32  H    0.000001   0.001379   0.003584  -0.003153   0.000253   0.030572
              13         14         15         16         17         18
     1  C   -0.000176   0.411457   0.416742   0.416732  -0.028990  -0.028980
     2  C   -0.000910  -0.086066  -0.064986  -0.064983   0.414305   0.414297
     3  C   -0.023580   0.027881  -0.008135  -0.008130  -0.076115  -0.076108
     4  N    0.007567   0.000501   0.000644   0.000644   0.007180   0.007180
     5  C   -0.146714  -0.002629   0.000395   0.000397  -0.004130  -0.004139
     6  O    0.088916   0.000009  -0.000059  -0.000059  -0.000233  -0.000233
     7  N    0.015446   0.000008   0.000019   0.000019   0.000098   0.000098
     8  C   -1.544140  -0.000044  -0.000013  -0.000014  -0.000697  -0.000698
     9  C    0.963602   0.000002  -0.000028  -0.000028  -0.000159  -0.000159
    10  C    1.054885  -0.000002   0.000001   0.000001   0.000060   0.000060
    11  C   -3.253429  -0.000000   0.000000   0.000000   0.000010   0.000010
    12  C   -0.374236  -0.000000  -0.000000  -0.000000  -0.000004  -0.000004
    13  C    8.829041  -0.000000  -0.000001  -0.000001  -0.000007  -0.000007
    14  H   -0.000000   0.491320  -0.024113  -0.024113  -0.003075  -0.003075
    15  H   -0.000001  -0.024113   0.493192  -0.027872  -0.004857   0.003964
    16  H   -0.000001  -0.024113  -0.027872   0.493189   0.003964  -0.004857
    17  H   -0.000007  -0.003075  -0.004857   0.003964   0.511932  -0.034003
    18  H   -0.000007  -0.003075   0.003964  -0.004857  -0.034003   0.511933
    19  H    0.000195  -0.000060  -0.000337   0.002711   0.003920  -0.005435
    20  H    0.000195  -0.000060   0.002712  -0.000337  -0.005435   0.003920
    21  H   -0.000195  -0.000003   0.000001   0.000001   0.001004   0.001004
    22  H   -0.005014  -0.000000  -0.000000  -0.000000   0.000002   0.000002
    23  H   -0.078536  -0.000000  -0.000000  -0.000000  -0.000000  -0.000000
    24  H   -0.013899  -0.000000   0.000000   0.000000   0.000000   0.000000
    25  H   -0.004338  -0.000000   0.000000   0.000000  -0.000000  -0.000000
    26  C    1.522865  -0.000000  -0.000000  -0.000000  -0.000000  -0.000000
    27  H    0.254891  -0.000000   0.000000   0.000000   0.000000   0.000000
    28  O   -0.168104  -0.000000  -0.000000  -0.000000  -0.000000  -0.000000
    29  C   -0.170428  -0.000000   0.000000   0.000000   0.000000   0.000000
    30  H    0.024674   0.000000   0.000000   0.000000  -0.000000  -0.000000
    31  H   -0.007944   0.000000   0.000000   0.000000  -0.000000   0.000000
    32  H   -0.007939   0.000000   0.000000   0.000000   0.000000  -0.000000
              19         20         21         22         23         24
     1  C    0.005427   0.005443  -0.001977  -0.000125   0.000007  -0.000001
     2  C   -0.056645  -0.056662   0.000869  -0.000355   0.000007   0.000017
     3  C    0.429821   0.429898  -0.089978   0.003065   0.002542  -0.000464
     4  N   -0.058597  -0.058604   0.230359   0.030341   0.000166   0.001055
     5  C   -0.009883  -0.009941   0.039285  -0.026866   0.016760  -0.008600
     6  O    0.000868   0.000869   0.008841   0.007779  -0.003303   0.000034
     7  N    0.000054   0.000055   0.033061   0.216882  -0.015898  -0.012711
     8  C   -0.003924  -0.003936   0.024386   0.011936   0.085935   0.109300
     9  C    0.002543   0.002543  -0.000704   0.062966   0.269630   0.055847
    10  C   -0.000959  -0.000960   0.000941  -0.123191   0.046153   0.098231
    11  C    0.000011   0.000011  -0.000353   0.054292  -0.019105   0.062119
    12  C   -0.000001  -0.000001   0.000073   0.001018  -0.003188  -0.010527
    13  C    0.000195   0.000195  -0.000195  -0.005014  -0.078536  -0.013899
    14  H   -0.000060  -0.000060  -0.000003  -0.000000  -0.000000  -0.000000
    15  H   -0.000337   0.002712   0.000001  -0.000000  -0.000000   0.000000
    16  H    0.002711  -0.000337   0.000001  -0.000000  -0.000000   0.000000
    17  H    0.003920  -0.005435   0.001004   0.000002  -0.000000   0.000000
    18  H   -0.005435   0.003920   0.001004   0.000002  -0.000000   0.000000
    19  H    0.495927  -0.035352   0.002790   0.000006  -0.000000   0.000000
    20  H   -0.035352   0.495927   0.002790   0.000006  -0.000000   0.000000
    21  H    0.002790   0.002790   0.346367   0.002451   0.000000   0.000005
    22  H    0.000006   0.000006   0.002451   0.349999  -0.000137   0.007037
    23  H   -0.000000  -0.000000   0.000000  -0.000137   0.431937  -0.000106
    24  H    0.000000   0.000000   0.000005   0.007037  -0.000106   0.512530
    25  H   -0.000000  -0.000000  -0.000000  -0.000012   0.000010  -0.004085
    26  C   -0.000000  -0.000000  -0.000000   0.001923   0.002971   0.009823
    27  H   -0.000000  -0.000000   0.000000   0.000002  -0.004580   0.000016
    28  O   -0.000000  -0.000000   0.000000   0.000002   0.000028   0.000220
    29  C    0.000000   0.000000  -0.000000   0.000015   0.000261   0.000109
    30  H    0.000000   0.000000  -0.000000  -0.000000  -0.000007  -0.000000
    31  H   -0.000000   0.000000  -0.000000   0.000000  -0.000000  -0.000000
    32  H    0.000000  -0.000000  -0.000000   0.000000  -0.000000  -0.000000
              25         26         27         28         29         30
     1  C    0.000000  -0.000011  -0.000000  -0.000000   0.000000  -0.000000
     2  C   -0.000000   0.000027   0.000003   0.000000   0.000006   0.000000
     3  C    0.000031  -0.002854  -0.000060  -0.000001   0.000169  -0.000002
     4  N    0.000012   0.000102   0.000001   0.000001   0.000064  -0.000000
     5  C    0.004034  -0.097005  -0.003909   0.000168   0.006748  -0.000588
     6  O    0.000001   0.002375   0.000233   0.000001  -0.000066   0.000002
     7  N    0.000435  -0.011727  -0.000986  -0.000031   0.000348  -0.000023
     8  C    0.036019  -0.352900  -0.000939   0.027458   0.003232  -0.006084
     9  C    0.010931  -0.275206  -0.102874  -0.015071  -0.023476  -0.007078
    10  C   -0.112543   0.184320  -0.034637   0.034964  -0.019375   0.008867
    11  C    0.346027  -0.585031   0.082078   0.272006   0.046208  -0.022233
    12  C    0.058512  -2.772901   0.094034  -0.300666  -0.457496   0.011981
    13  C   -0.004338   1.522865   0.254891  -0.168104  -0.170428   0.024674
    14  H   -0.000000  -0.000000  -0.000000  -0.000000  -0.000000   0.000000
    15  H    0.000000  -0.000000   0.000000  -0.000000   0.000000   0.000000
    16  H    0.000000  -0.000000   0.000000  -0.000000   0.000000   0.000000
    17  H   -0.000000  -0.000000   0.000000  -0.000000   0.000000  -0.000000
    18  H   -0.000000  -0.000000   0.000000  -0.000000   0.000000  -0.000000
    19  H   -0.000000  -0.000000  -0.000000  -0.000000   0.000000   0.000000
    20  H   -0.000000  -0.000000  -0.000000  -0.000000   0.000000   0.000000
    21  H   -0.000000  -0.000000   0.000000   0.000000  -0.000000  -0.000000
    22  H   -0.000012   0.001923   0.000002   0.000002   0.000015  -0.000000
    23  H    0.000010   0.002971  -0.004580   0.000028   0.000261  -0.000007
    24  H   -0.004085   0.009823   0.000016   0.000220   0.000109  -0.000000
    25  H    0.450108  -0.047576  -0.000116   0.005730   0.008707   0.000003
    26  C   -0.047576   8.574281   0.018184   0.407995  -0.283008  -0.087836
    27  H   -0.000116   0.018184   0.499586   0.000039  -0.009846   0.003260
    28  O    0.005730   0.407995   0.000039   8.252026  -0.112835   0.010466
    29  C    0.008707  -0.283008  -0.009846  -0.112835   6.491357   0.403894
    30  H    0.000003  -0.087836   0.003260   0.010466   0.403894   0.509280
    31  H   -0.000004  -0.082571  -0.000045  -0.006779   0.411811  -0.026395
    32  H   -0.000004  -0.082566  -0.000045  -0.006779   0.411810  -0.026395
              31         32
     1  C    0.000000   0.000000
     2  C   -0.000000  -0.000000
     3  C    0.000000   0.000000
     4  N    0.000000   0.000000
     5  C    0.000037   0.000037
     6  O   -0.000000  -0.000000
     7  N    0.000001   0.000001
     8  C    0.001379   0.001379
     9  C    0.003584   0.003584
    10  C   -0.003154  -0.003153
    11  C    0.000255   0.000253
    12  C    0.030578   0.030572
    13  C   -0.007944  -0.007939
    14  H    0.000000   0.000000
    15  H    0.000000   0.000000
    16  H    0.000000   0.000000
    17  H   -0.000000   0.000000
    18  H    0.000000  -0.000000
    19  H   -0.000000   0.000000
    20  H    0.000000  -0.000000
    21  H   -0.000000  -0.000000
    22  H    0.000000   0.000000
    23  H   -0.000000  -0.000000
    24  H   -0.000000  -0.000000
    25  H   -0.000004  -0.000004
    26  C   -0.082571  -0.082566
    27  H   -0.000045  -0.000045
    28  O   -0.006779  -0.006779
    29  C    0.411811   0.411810
    30  H   -0.026395  -0.026395
    31  H    0.446914  -0.017507
    32  H   -0.017507   0.446912
 Mulliken charges:
               1
     1  C   -0.693394
     2  C   -0.354648
     3  C   -0.124738
     4  N   -0.662133
     5  C    0.819883
     6  O   -0.605841
     7  N   -0.611780
     8  C    0.072266
     9  C    0.653286
    10  C   -1.405368
    11  C    0.407349
    12  C    0.673491
    13  C   -0.962678
    14  H    0.212063
    15  H    0.212732
    16  H    0.212734
    17  H    0.215231
    18  H    0.215231
    19  H    0.226922
    20  H    0.226923
    21  H    0.398983
    22  H    0.405976
    23  H    0.268455
    24  H    0.194054
    25  H    0.248120
    26  C   -0.043674
    27  H    0.205710
    28  O   -0.400837
    29  C   -0.708211
    30  H    0.204214
    31  H    0.249841
    32  H    0.249842
 Sum of Mulliken charges =  -0.00000
 Mulliken charges with hydrogens summed into heavy atoms:
               1
     1  C   -0.055866
     2  C    0.075814
     3  C    0.329107
     4  N   -0.263150
     5  C    0.819883
     6  O   -0.605841
     7  N   -0.205805
     8  C    0.072266
     9  C    0.921741
    10  C   -1.211315
    11  C    0.655469
    12  C    0.673491
    13  C   -0.756969
    26  C   -0.043674
    28  O   -0.400837
    29  C   -0.004315
 APT charges:
               1
     1  C   -2.613570
     2  C   -0.591146
     3  C   -0.308767
     4  N   -0.204727
     5  C    0.561835
     6  O   -0.589005
     7  N   -0.840839
     8  C   -1.414208
     9  C   -0.006778
    10  C   -0.574052
    11  C   -0.465507
    12  C    1.049836
    13  C   -1.074314
    14  H    1.076604
    15  H    0.398822
    16  H    0.398897
    17  H    0.450596
    18  H    0.450652
    19  H    0.404584
    20  H    0.404534
    21  H    0.670856
    22  H    0.671265
    23  H    0.439290
    24  H    0.513518
    25  H    0.844629
    26  C   -0.100238
    27  H    0.594001
    28  O    0.030793
    29  C   -2.048053
    30  H    0.131404
    31  H    0.869566
    32  H    0.869524
 Sum of APT charges =  -0.00000
 APT charges with hydrogens summed into heavy atoms:
               1
     1  C   -0.739248
     2  C    0.310101
     3  C    0.500351
     4  N    0.466128
     5  C    0.561835
     6  O   -0.589005
     7  N   -0.169574
     8  C   -1.414208
     9  C    0.432512
    10  C   -0.060534
    11  C    0.379123
    12  C    1.049836
    13  C   -0.480313
    26  C   -0.100238
    28  O    0.030793
    29  C   -0.177559
 Electronic spatial extent (au):  <R**2>=           7273.1497
 Charge=             -0.0000 electrons
 Dipole moment (field-independent basis, Debye):
    X=             -4.8811    Y=              1.7533    Z=             -0.0002  Tot=              5.1865
 Quadrupole moment (field-independent basis, Debye-Ang):
   XX=            -97.3555   YY=            -90.1500   ZZ=            -99.5322
   XY=            -20.9801   XZ=             -0.0009   YZ=             -0.0003
 Traceless Quadrupole moment (field-independent basis, Debye-Ang):
   XX=             -1.6762   YY=              5.5292   ZZ=             -3.8530
   XY=            -20.9801   XZ=             -0.0009   YZ=             -0.0003
 Octapole moment (field-independent basis, Debye-Ang**2):
  XXX=           -209.2572  YYY=             19.1589  ZZZ=              0.0020  XYY=              2.7018
  XXY=            -63.0013  XXZ=             -0.0055  XZZ=             -2.9593  YZZ=             -3.2271
  YYZ=             -0.0011  XYZ=             -0.0011
 Hexadecapole moment (field-independent basis, Debye-Ang**3):
 XXXX=          -9435.4565 YYYY=           -623.8280 ZZZZ=           -137.5951 XXXY=           -494.0957
 XXXZ=             -0.0392 YYYX=            -22.5982 YYYZ=              0.0014 ZZZX=              0.0059
 ZZZY=             -0.0007 XXYY=          -1613.3896 XXZZ=          -1518.3006 YYZZ=           -141.2832
 XXYZ=             -0.0094 YYXZ=              0.0043 ZZXY=              4.0514
 N-N= 1.004217934652D+03 E-N=-3.697267694400D+03  KE= 7.199267628149D+02
  Exact polarizability:   0.000   0.000   0.000   0.000   0.000   0.000
 Approx polarizability: 243.612   1.218 207.137   0.004   0.002 128.670
 Calling FoFJK, ICntrl=    100147 FMM=F ISym2X=0 I1Cent= 0 IOpClX= 0 NMat=1 NMatS=1 NMatT=0.
 ***** Axes restored to original set *****
 -------------------------------------------------------------------
 Center     Atomic                   Forces (Hartrees/Bohr)
 Number     Number              X              Y              Z
 -------------------------------------------------------------------
      1        6          -0.006027844    0.001546855   -0.000271267
      2        6           0.004942556   -0.005439260    0.001273668
      3        6          -0.004589444    0.006414575   -0.001520885
      4        7           0.006885522   -0.037477114    0.009289518
      5        6          -0.007524528    0.028851887   -0.007108300
      6        8           0.001539846    0.011481603   -0.002918729
      7        7           0.021183197   -0.027356152    0.006452267
      8        6          -0.014438572    0.004454448   -0.000826099
      9        6           0.004562094   -0.000851003    0.000121093
     10        6           0.005305261    0.005055619   -0.001379644
     11        6          -0.010000598    0.002550442   -0.000437494
     12        6          -0.003836206    0.009655542   -0.002350026
     13        6          -0.003481783   -0.021224809    0.005408215
     14        1           0.006627767    0.008831124   -0.002355554
     15        1          -0.001050566   -0.002337343    0.010469792
     16        1          -0.001426459   -0.006998652   -0.008066930
     17        1           0.001280083    0.005165952    0.007688293
     18        1           0.000935802    0.000903712   -0.009264743
     19        1           0.001219374   -0.005724464   -0.009297865
     20        1           0.001628395   -0.000655357    0.010843916
     21        1          -0.003047913    0.016837175   -0.004173873
     22        1           0.007514918    0.015103383   -0.003952394
     23        1          -0.010228121   -0.002223446    0.000767007
     24        1          -0.002046002   -0.002784908    0.000741712
     25        1           0.004216180    0.001843269   -0.000549167
     26        6           0.008758146   -0.017646642    0.004257334
     27        1           0.003435124    0.004504256   -0.001202286
     28        8          -0.003520634    0.000271970    0.000004138
     29        6          -0.003264733    0.019100042   -0.004735926
     30        1           0.004016060   -0.004973309    0.001168805
     31        1          -0.004977706   -0.005835021   -0.008563039
     32        1          -0.004589220   -0.001044376    0.010488461
 -------------------------------------------------------------------
 Cartesian Forces:  Max     0.037477114 RMS     0.008969677
 FormGI is forming the generalized inverse of G from B-inverse, IUseBI=4.
 GSVD:  received Info=                   1 from GESDD.

 GradGradGradGradGradGradGradGradGradGradGradGradGradGradGradGradGradGrad
 Berny optimization.
 Internal  Forces:  Max     0.031581416 RMS     0.006032479
 Search for a local minimum.
 Step number   1 out of a maximum of  166
 All quantities printed in internal units (Hartrees-Bohrs-Radians)
 Mixed Optimization -- RFO/linear search
 Second derivative matrix not updated -- analytic derivatives used.
 ITU=  0
     Eigenvalues ---   -0.00136  -0.00110   0.00048   0.00172   0.00209
     Eigenvalues ---    0.00270   0.00313   0.00336   0.00436   0.01454
     Eigenvalues ---    0.01544   0.01718   0.01899   0.02093   0.02243
     Eigenvalues ---    0.02395   0.02570   0.02741   0.02794   0.03492
     Eigenvalues ---    0.03719   0.04002   0.04533   0.04630   0.04663
     Eigenvalues ---    0.05069   0.05373   0.05676   0.05858   0.06863
     Eigenvalues ---    0.08094   0.10352   0.11168   0.11367   0.11590
     Eigenvalues ---    0.12067   0.12114   0.12584   0.12919   0.13415
     Eigenvalues ---    0.13460   0.13843   0.13889   0.13982   0.16338
     Eigenvalues ---    0.16388   0.17548   0.18036   0.18508   0.18721
     Eigenvalues ---    0.19039   0.20032   0.22600   0.23721   0.24369
     Eigenvalues ---    0.26082   0.26898   0.28557   0.29667   0.30645
     Eigenvalues ---    0.30937   0.30977   0.31119   0.31214   0.31542
     Eigenvalues ---    0.31646   0.31812   0.32104   0.32269   0.32731
     Eigenvalues ---    0.33153   0.34698   0.36082   0.37320   0.37479
     Eigenvalues ---    0.37916   0.38397   0.39499   0.40453   0.41092
     Eigenvalues ---    0.41488   0.42158   0.43943   0.45767   0.46572
     Eigenvalues ---    0.49721   0.50348   0.58251   0.85448   0.88122
 RFO step:  Lambda=-1.78578115D-02 EMin=-1.35500195D-03
 Linear search not attempted -- first point.
 Iteration  1 RMS(Cart)=  0.11875278 RMS(Int)=  0.02008144
 Iteration  2 RMS(Cart)=  0.02621599 RMS(Int)=  0.00320796
 Iteration  3 RMS(Cart)=  0.00137945 RMS(Int)=  0.00314835
 Iteration  4 RMS(Cart)=  0.00001050 RMS(Int)=  0.00314835
 Iteration  5 RMS(Cart)=  0.00000010 RMS(Int)=  0.00314835
 Variable       Old X    -DE/DX   Delta X   Delta X   Delta X     New X
                                 (Linear)    (Quad)   (Total)
    R1        2.88354   0.00215   0.00000   0.00318   0.00318   2.88672
    R2        2.09832  -0.01091   0.00000  -0.03181  -0.03181   2.06650
    R3        2.09930  -0.01050   0.00000  -0.03015  -0.03015   2.06914
    R4        2.09928  -0.01050   0.00000  -0.03002  -0.03002   2.06926
    R5        2.89703  -0.00525   0.00000  -0.01731  -0.01731   2.87972
    R6        2.10108  -0.00890   0.00000  -0.02748  -0.02748   2.07360
    R7        2.10109  -0.00890   0.00000  -0.02478  -0.02478   2.07631
    R8        2.74529  -0.00209   0.00000   0.00348   0.00348   2.74878
    R9        2.10231  -0.01040   0.00000  -0.02708  -0.02708   2.07523
   R10        2.10230  -0.01040   0.00000  -0.03352  -0.03352   2.06878
   R11        2.57616   0.00212   0.00000   0.00490   0.00490   2.58106
   R12        1.95070  -0.01719   0.00000  -0.04322  -0.04322   1.90749
   R13        2.30673   0.01191   0.00000  -0.00062  -0.00062   2.30610
   R14        2.58733   0.01118   0.00000   0.03401   0.03401   2.62134
   R15        2.72066  -0.03158   0.00000  -0.08460  -0.08460   2.63606
   R16        1.95045  -0.01649   0.00000  -0.04053  -0.04053   1.90991
   R17        2.67088  -0.01508   0.00000  -0.02524  -0.02523   2.64565
   R18        2.65558  -0.00389   0.00000   0.00266   0.00267   2.65826
   R19        2.64479  -0.00581   0.00000  -0.01309  -0.01309   2.63171
   R20        2.03017   0.00480   0.00000   0.01091   0.01091   2.04107
   R21        2.63768  -0.01031   0.00000  -0.02702  -0.02702   2.61065
   R22        2.04680   0.00329   0.00000   0.00911   0.00911   2.05591
   R23        2.65784  -0.00875   0.00000  -0.00785  -0.00786   2.64998
   R24        2.04647   0.00143   0.00000   0.00451   0.00451   2.05098
   R25        2.66143  -0.00767   0.00000  -0.01998  -0.01999   2.64143
   R26        2.83366  -0.00575   0.00000  -0.01130  -0.01130   2.82236
   R27        2.03549   0.00529   0.00000   0.01339   0.01339   2.04888
   R28        2.31053  -0.00252   0.00000  -0.00815  -0.00815   2.30237
   R29        2.84789   0.00358   0.00000   0.01673   0.01673   2.86462
   R30        2.08296  -0.00647   0.00000  -0.02408  -0.02408   2.05887
   R31        2.09813  -0.01115   0.00000  -0.03411  -0.03411   2.06402
   R32        2.09813  -0.01115   0.00000  -0.02837  -0.02837   2.06976
    A1        1.91259   0.00348   0.00000   0.02318   0.02301   1.93560
    A2        1.92578   0.00216   0.00000   0.00915   0.00907   1.93486
    A3        1.92579   0.00216   0.00000   0.01056   0.01047   1.93626
    A4        1.89673  -0.00259   0.00000  -0.01236  -0.01252   1.88421
    A5        1.89674  -0.00259   0.00000  -0.01214  -0.01232   1.88442
    A6        1.90571  -0.00280   0.00000  -0.01920  -0.01920   1.88651
    A7        1.94141  -0.00077   0.00000   0.00276   0.00273   1.94414
    A8        1.90108   0.00130   0.00000   0.01462   0.01462   1.91571
    A9        1.90109   0.00130   0.00000   0.00741   0.00741   1.90850
   A10        1.91064  -0.00015   0.00000  -0.00414  -0.00421   1.90643
   A11        1.91064  -0.00015   0.00000  -0.00073  -0.00078   1.90986
   A12        1.89844  -0.00154   0.00000  -0.02040  -0.02045   1.87799
   A13        1.93748  -0.00411   0.00000  -0.01164  -0.01165   1.92583
   A14        1.90562   0.00262   0.00000   0.02063   0.02056   1.92619
   A15        1.90561   0.00262   0.00000   0.01716   0.01706   1.92267
   A16        1.90620   0.00081   0.00000   0.01541   0.01540   1.92160
   A17        1.90619   0.00081   0.00000  -0.01506  -0.01498   1.89122
   A18        1.90241  -0.00275   0.00000  -0.02696  -0.02703   1.87538
   A19        2.12690  -0.00629   0.00000  -0.02851  -0.05000   2.07690
   A20        2.07758  -0.00057   0.00000  -0.00645  -0.02755   2.05003
   A21        2.07871   0.00687   0.00000   0.03497   0.01123   2.08994
   A22        2.08110   0.01418   0.00000   0.04856   0.04852   2.12961
   A23        2.08469  -0.02609   0.00000  -0.09257  -0.09262   1.99207
   A24        2.11740   0.01191   0.00000   0.04401   0.04396   2.16136
   A25        2.23350  -0.00409   0.00000  -0.00141  -0.00260   2.23090
   A26        2.02730   0.00723   0.00000   0.01817   0.01695   2.04424
   A27        2.02239  -0.00314   0.00000  -0.01676  -0.01791   2.00448
   A28        2.17503  -0.00405   0.00000  -0.00991  -0.00993   2.16510
   A29        2.05422  -0.00369   0.00000  -0.01345  -0.01348   2.04075
   A30        2.05393   0.00774   0.00000   0.02336   0.02338   2.07731
   A31        2.11020  -0.00748   0.00000  -0.02532  -0.02530   2.08489
   A32        2.15208  -0.00573   0.00000  -0.05043  -0.05044   2.10164
   A33        2.02091   0.01322   0.00000   0.07575   0.07574   2.09665
   A34        2.11851  -0.00266   0.00000  -0.01020  -0.01018   2.10833
   A35        2.09764   0.00002   0.00000  -0.00998  -0.00999   2.08765
   A36        2.06704   0.00264   0.00000   0.02018   0.02017   2.08721
   A37        2.11275  -0.00214   0.00000  -0.00465  -0.00466   2.10809
   A38        2.06193   0.00558   0.00000   0.03929   0.03930   2.10122
   A39        2.10851  -0.00344   0.00000  -0.03464  -0.03464   2.07388
   A40        2.05735   0.00153   0.00000   0.00327   0.00323   2.06058
   A41        2.08004  -0.00380   0.00000  -0.02286  -0.02285   2.05719
   A42        2.14580   0.00227   0.00000   0.01959   0.01960   2.16540
   A43        2.11365   0.00302   0.00000   0.01354   0.01352   2.12717
   A44        2.03841   0.00088   0.00000   0.00903   0.00904   2.04745
   A45        2.13113  -0.00390   0.00000  -0.02257  -0.02257   2.10856
   A46        2.07438   0.00498   0.00000   0.02361   0.02358   2.09797
   A47        2.17351  -0.01567   0.00000  -0.05989  -0.05992   2.11359
   A48        2.03529   0.01069   0.00000   0.03629   0.03626   2.07155
   A49        2.00130   0.00085   0.00000   0.00547   0.00548   2.00678
   A50        1.90461  -0.00223   0.00000  -0.01904  -0.01923   1.88538
   A51        1.90462  -0.00223   0.00000  -0.01360  -0.01380   1.89082
   A52        1.87722   0.00196   0.00000   0.02887   0.02889   1.90612
   A53        1.87722   0.00196   0.00000   0.01408   0.01408   1.89131
   A54        1.89637  -0.00027   0.00000  -0.01626  -0.01671   1.87966
    D1        3.14158   0.00000   0.00000   0.00019   0.00020  -3.14140
    D2        1.03412  -0.00018   0.00000  -0.00599  -0.00602   1.02810
    D3       -1.03414   0.00018   0.00000   0.00588   0.00588  -1.02826
    D4        1.05373  -0.00034   0.00000  -0.00480  -0.00483   1.04890
    D5       -1.05374  -0.00052   0.00000  -0.01099  -0.01105  -1.06478
    D6       -3.12199  -0.00016   0.00000   0.00088   0.00085  -3.12114
    D7       -1.05373   0.00034   0.00000   0.00635   0.00641  -1.04732
    D8        3.12199   0.00016   0.00000   0.00016   0.00019   3.12218
    D9        1.05373   0.00052   0.00000   0.01203   0.01209   1.06582
   D10       -3.14156  -0.00000   0.00000   0.01298   0.01302  -3.12854
   D11        1.03919  -0.00012   0.00000  -0.01225  -0.01222   1.02697
   D12       -1.03915   0.00012   0.00000  -0.00190  -0.00196  -1.04111
   D13       -1.03973   0.00103   0.00000   0.03027   0.03028  -1.00945
   D14        3.14102   0.00091   0.00000   0.00504   0.00504  -3.13713
   D15        1.06269   0.00115   0.00000   0.01538   0.01530   1.07799
   D16        1.03978  -0.00103   0.00000   0.00245   0.00251   1.04229
   D17       -1.06265  -0.00115   0.00000  -0.02277  -0.02273  -1.08539
   D18       -3.14099  -0.00091   0.00000  -0.01243  -0.01247   3.12973
   D19        3.14155   0.00000   0.00000   0.06285   0.05959  -3.08204
   D20       -0.00001   0.00000   0.00000  -0.32752  -0.32418  -0.32419
   D21       -1.03954   0.00119   0.00000   0.09117   0.08788  -0.95166
   D22        2.10208   0.00119   0.00000  -0.29920  -0.29589   1.80619
   D23        1.03948  -0.00119   0.00000   0.05865   0.05530   1.09478
   D24       -2.10208  -0.00119   0.00000  -0.33172  -0.32848  -2.43056
   D25        0.00002   0.00000   0.00000  -0.13298  -0.13401  -0.13399
   D26       -3.14155  -0.00000   0.00000  -0.11531  -0.11633   3.02530
   D27        3.14158   0.00000   0.00000   0.25764   0.25866  -2.88294
   D28        0.00001  -0.00000   0.00000   0.27531   0.27634   0.27635
   D29        3.14155   0.00000   0.00000  -0.01085  -0.01122   3.13033
   D30        0.00001   0.00000   0.00000   0.08419   0.08457   0.08458
   D31       -0.00002  -0.00000   0.00000   0.00720   0.00682   0.00680
   D32       -3.14157  -0.00000   0.00000   0.10224   0.10262  -3.03895
   D33        0.00012  -0.00000   0.00000   0.06854   0.06804   0.06816
   D34       -3.14148  -0.00000   0.00000   0.05974   0.05937  -3.08210
   D35       -3.14152  -0.00000   0.00000  -0.02627  -0.02591   3.11575
   D36        0.00007  -0.00000   0.00000  -0.03507  -0.03458  -0.03451
   D37       -3.14158  -0.00000   0.00000  -0.01404  -0.01405   3.12756
   D38        0.00002  -0.00000   0.00000  -0.01561  -0.01562  -0.01560
   D39        0.00002  -0.00000   0.00000  -0.00524  -0.00522  -0.00520
   D40       -3.14158  -0.00000   0.00000  -0.00682  -0.00678   3.13483
   D41        3.14158   0.00000   0.00000   0.01016   0.01023  -3.13138
   D42       -0.00001   0.00000   0.00000   0.00971   0.00976   0.00974
   D43       -0.00002   0.00000   0.00000   0.00199   0.00201   0.00200
   D44        3.14158   0.00000   0.00000   0.00154   0.00154  -3.14006
   D45       -0.00001   0.00000   0.00000   0.00414   0.00409   0.00409
   D46        3.14158   0.00000   0.00000  -0.00155  -0.00168   3.13990
   D47        3.14159   0.00000   0.00000   0.00560   0.00565  -3.13594
   D48       -0.00001   0.00000   0.00000  -0.00009  -0.00012  -0.00013
   D49        0.00000  -0.00000   0.00000   0.00247   0.00248   0.00249
   D50       -3.14158  -0.00000   0.00000   0.00268   0.00265  -3.13893
   D51        3.14159  -0.00000   0.00000   0.00291   0.00295  -3.13864
   D52        0.00001  -0.00000   0.00000   0.00312   0.00312   0.00313
   D53        0.00001  -0.00000   0.00000  -0.00363  -0.00364  -0.00363
   D54       -3.14158  -0.00000   0.00000   0.00259   0.00249  -3.13909
   D55        3.14159   0.00000   0.00000  -0.00384  -0.00381   3.13778
   D56        0.00000  -0.00000   0.00000   0.00238   0.00232   0.00233
   D57       -0.00001   0.00000   0.00000   0.00036   0.00035   0.00034
   D58       -3.14159  -0.00000   0.00000   0.00636   0.00632  -3.13527
   D59        3.14158   0.00000   0.00000  -0.00612  -0.00619   3.13538
   D60       -0.00000  -0.00000   0.00000  -0.00011  -0.00022  -0.00022
   D61       -0.00001  -0.00000   0.00000   0.03497   0.03497   0.03496
   D62        3.14157   0.00000   0.00000   0.02126   0.02129  -3.12032
   D63       -3.14159  -0.00000   0.00000   0.04153   0.04149  -3.10010
   D64       -0.00001   0.00000   0.00000   0.02781   0.02782   0.02781
   D65        0.00001  -0.00000   0.00000   0.21887   0.21889   0.21890
   D66        2.10668   0.00146   0.00000   0.24577   0.24559   2.35227
   D67       -2.10667  -0.00146   0.00000   0.20706   0.20727  -1.89940
   D68        3.14159   0.00000   0.00000   0.20543   0.20542  -2.93617
   D69       -1.03493   0.00146   0.00000   0.23233   0.23212  -0.80281
   D70        1.03491  -0.00146   0.00000   0.19362   0.19380   1.22871
         Item               Value     Threshold  Converged?
 Maximum Force            0.031581     0.000450     NO 
 RMS     Force            0.006032     0.000300     NO 
 Maximum Displacement     0.572415     0.001800     NO 
 RMS     Displacement     0.116089     0.001200     NO 
 Predicted change in Energy=-1.005880D-02
 GradGradGradGradGradGradGradGradGradGradGradGradGradGradGradGradGradGrad

                          Input orientation:                          
 ---------------------------------------------------------------------
 Center     Atomic      Atomic             Coordinates (Angstroms)
 Number     Number       Type             X           Y           Z
 ---------------------------------------------------------------------
      1          6           0       -2.044142    2.013508    0.092164
      2          6           0       -0.712486    1.273421    0.203868
      3          6           0        0.460769    2.186934   -0.129569
[...]
 02126,-0.00001930,0.00041307,-0.00027333,0.00010522,-0.00011836,0.0001
 4176,-0.00005554,-0.00033518,-0.00014128,0.00003367,-0.00024427,0.0021
 4133,0.00163303,-0.00007197,-0.00150754,0.00178648,0.00033097,0.000560
 64,-0.00038326,0.00421300,-0.00106651,0.00204651,-0.00774502,-0.015674
 69,0.00547430,-0.07148745,-0.30323063,0.07649815,-0.00000702,-0.000000
 33,-0.00000008,0.00000057,0.00000236,-0.00000179,0.00000064,0.00000202
 ,0.00000043,0.00000178,-0.00000139,0.00000066,0.,-0.00000130,-0.000001
 15,-0.00001489,0.00001078,0.00000225,-0.00000353,0.00000455,-0.0000003
 3,0.00001340,0.00001523,-0.00000399,-0.00004085,0.00000830,-0.00006837
 ,-0.00004389,0.00035851,-0.00139347,-0.00010249,-0.00013810,-0.0002162
 9,-0.00061174,-0.00086589,0.00036116,-0.00194023,-0.00143691,-0.000740
 39,0.07918126,0.31958378,0.00000033,0.00000271,0.00000113,0.00000219,-
 0.00000471,0.00000116,-0.00001487,0.00002072,0.00001248,0.00005466,-0.
 00000713,-0.00002372,-0.00014155,0.00010529,0.00006033,-0.00001401,-0.
 00004476,0.00002792,0.00007990,0.00002530,0.00000101,0.00035300,0.0016
 3757,0.00732622,0.00015143,0.00242640,0.00399962,-0.00013428,-0.000358
 27,-0.00065635,-0.00094989,0.00207091,0.00586947,0.00199486,0.00487325
 ,0.00160043,0.02108665,0.07657706,-0.06157455,0.00000167,-0.00000009,0
 .00000011,-0.00000052,0.00000046,-0.00000043,0.00000053,-0.00000171,-0
 .00000149,-0.00000126,-0.00000237,-0.00000101,0.00000026,0.00000184,-0
 .00000131,0.00000603,-0.00000465,-0.00000450,-0.00000046,-0.00000149,0
 .00000022,-0.00000529,-0.00000810,0.00000056,0.00001453,-0.00007592,-0
 .00023527,0.00002497,-0.00147901,-0.00413882,0.00000501,-0.00021644,-0
 .00084058,0.00016910,0.00032262,0.00026928,0.00048210,-0.00078295,-0.0
 0396266,-0.02360581,-0.08496158,0.05121501,-0.00003105,-0.00012668,0.0
 0002643,-0.00002026,0.00022641,-0.00002717,0.00072860,-0.00042815,0.00
 022408,-0.00253577,-0.00069873,-0.00012574,0.00526746,-0.00236821,0.00
 064488,-0.00130868,0.00113741,-0.00038221,-0.00728314,0.00010347,0.000
 27608,0.00502641,0.00314322,-0.00115034,-0.00537378,-0.00102987,0.0004
 0417,-0.00231764,0.00219180,-0.00062137,0.00198103,0.00614938,-0.00179
 390,-0.06426641,0.03945014,-0.00960789,-0.00119846,-0.00974238,0.00286
 776,-0.00010138,-0.00001297,-0.00000040,0.00001704,0.00002726,-0.00001
 275,0.00001292,0.00003064,0.00000430,0.00002047,-0.00001287,-0.0000008
 8,-0.00000439,-0.00002582,0.00000967,-0.00018522,0.00012903,0.00002637
 ,-0.00001830,0.00004697,0.00000186,0.00011875,0.00029875,0.00002490,-0
 .00011257,0.00026245,-0.00008700,-0.00064855,-0.00035225,0.00014107,-0
 .00030464,-0.00035050,0.00011422,-0.00197674,-0.00015102,0.00007641,-0
 .38217525,0.31544661,-0.08400554,0.00022884,0.00060309,-0.00017922,0.4
 3852235,0.00001331,0.00003814,-0.00000834,-0.00000045,-0.00007660,0.00
 001113,-0.00021010,0.00009614,-0.00007344,0.00080453,0.00029835,0.0000
 3823,-0.00183745,0.00070730,-0.00016923,0.00036347,-0.00029106,0.00010
 664,0.00292936,0.00038623,-0.00023094,-0.00324079,-0.00010226,0.000163
 55,0.00093035,0.00156284,-0.00092782,0.00301204,0.00140388,-0.00058631
 ,-0.00533370,-0.00884089,0.00256322,0.03023321,0.01257569,0.00124043,-
 0.00317803,0.00234510,0.00035825,0.00003321,0.00000532,-0.00000012,-0.
 00000705,-0.00000829,-0.00000082,-0.00000601,-0.00000770,0.00000326,-0
 .00000512,0.00000780,0.00000650,0.00000221,0.00001057,-0.00001112,0.00
 005966,-0.00003390,0.00000123,0.00000501,-0.00001575,-0.00000476,-0.00
 002801,-0.00012488,-0.00002187,0.00011827,-0.00015472,0.00005200,0.000
 07768,-0.00001101,-0.00013126,0.00043796,0.00016222,-0.00002918,-0.000
 79148,0.00273821,-0.00083874,0.30497111,-0.45175909,0.10376553,-0.0006
 9479,0.00050434,0.00006849,-0.36218530,0.49571080,-0.00000287,-0.00000
 919,0.00000075,-0.00000065,0.00001825,-0.00000892,0.00004757,-0.000024
 50,0.00000325,-0.00017789,-0.00007498,-0.00003265,0.00040244,-0.000110
 23,0.00002474,-0.00011256,0.00005545,0.00004171,-0.00067184,-0.0000457
 1,0.00031696,0.00083871,-0.00008643,-0.00021063,-0.00021098,-0.0008638
 9,-0.00130268,-0.00082912,-0.00058636,-0.00032604,0.00147888,0.0023522
 1,-0.00087650,-0.00701813,0.00113067,0.01899447,0.00100775,0.00043922,
 0.00315941,-0.00000730,-0.00000127,-0.00000062,0.00000231,0.00000051,0
 .00000163,0.00000068,0.00000387,0.00000036,0.00000128,0.00000072,0.000
 00015,-0.00000024,-0.00000463,0.00000582,-0.00001231,0.00001157,0.0000
 0359,-0.00000326,0.00000037,0.00000414,0.00000992,0.00002253,-0.000010
 98,-0.00003183,0.00003298,-0.00003543,-0.00000386,-0.00012423,-0.00038
 865,-0.00011835,-0.00001018,0.00010828,0.00025990,-0.00084914,-0.00002
 062,-0.08098399,0.10350928,-0.09593982,0.00020536,0.00003856,0.0006561
 8,0.09542072,-0.12742868,0.05954843,-0.00000313,-0.00001963,0.00000354
 ,-0.00000537,0.00003378,-0.00000111,0.00012277,-0.00007584,0.00004294,
 -0.00039792,-0.00008497,-0.00001931,0.00078732,-0.00035898,0.00006944,
 -0.00024441,0.00019622,-0.00007834,-0.00082221,0.00010926,-0.00002001,
 0.00046877,0.00006857,0.00003371,0.00007298,-0.00046639,0.00012070,-0.
 00004804,-0.00182820,0.00047409,-0.00593631,0.00085865,-0.00006368,-0.
 00532484,-0.02754779,0.00820333,-0.00199527,-0.00065911,0.00023139,-0.
 00001569,-0.00000137,-0.00000016,0.00000188,0.00000446,-0.00000342,0.0
 0000158,0.00000510,0.00000190,0.00000353,-0.00000142,0.00000143,-0.000
 00066,-0.00000320,-0.00000118,-0.00002870,0.00002208,0.00000704,-0.000
 00249,0.00000826,-0.00000096,0.00002512,0.00003666,0.00000031,0.000028
 45,0.00001475,0.00000315,0.00000075,-0.00000942,0.00000928,-0.00055306
 ,-0.00016817,0.00005410,-0.00002717,-0.00020912,0.00006270,-0.11381570
 ,-0.05105805,0.01508992,-0.00189870,-0.00122580,0.00040985,0.01314782,
 0.03333835,-0.00927301,0.61104367,-0.00000306,-0.00001942,0.00000568,-
 0.00000538,0.00003237,-0.00000278,0.00011817,-0.00007584,0.00003414,-0
 .00038155,-0.00006916,-0.00002757,0.00083846,-0.00052626,0.00013933,-0
 .00017746,0.00028861,-0.00010629,-0.00120118,0.00016443,0.00002857,0.0
 0093614,-0.00034453,0.00018847,-0.00004956,-0.00035100,-0.00028464,-0.
 00104172,0.00067464,-0.00039595,0.00192061,0.00187587,-0.00004603,-0.0
 0552661,-0.00116882,0.00497114,-0.00096669,-0.00097688,0.00000435,-0.0
 0001481,-0.00000128,-0.00000009,0.00000179,0.00000436,-0.00000439,0.00
 000145,0.00000494,0.00000241,0.00000356,-0.00000086,0.00000191,0.00000
 006,-0.00000237,-0.00000224,-0.00002953,0.00002048,0.00000752,-0.00000
 496,0.00000637,-0.00000176,0.00002499,0.00004123,-0.00000118,0.0000133
 4,0.00003930,0.00000240,0.00001359,0.00000884,0.00000094,0.00006554,0.
 00001207,-0.00009701,0.00031283,0.00029660,-0.00004634,-0.04539620,-0.
 16740271,0.02353434,-0.00041434,0.00015304,0.00037230,0.00973318,-0.04
 810772,0.02084701,-0.03433715,0.49729438,0.00000117,0.00000676,-0.0000
 0079,0.00000156,-0.00001048,0.00000372,-0.00003749,0.00002342,-0.00001
 126,0.00012003,0.00000909,-0.00001210,-0.00025233,0.00015866,-0.000042
 41,0.00004775,-0.00008871,0.00000568,0.00037184,-0.00001810,0.00008569
 ,-0.00027865,0.00020253,0.00030875,-0.00001885,-0.00029004,-0.00133248
 ,0.00028642,-0.00036279,-0.00061438,-0.00038947,-0.00004981,0.00180973
 ,0.00200974,0.00545881,0.01442078,0.00028709,-0.00001371,-0.00104856,0
 .00000438,0.00000051,0.00000012,-0.00000087,-0.00000084,0.00000104,0.0
 0000001,-0.00000227,-0.00000142,-0.00000180,-0.00000098,-0.00000113,0.
 00000048,0.00000152,-0.00000048,0.00001181,-0.00000782,-0.00000284,-0.
 00000023,-0.00000253,0.00000131,-0.00000445,-0.00000636,-0.00000020,-0
 .00000731,0.00000477,0.00004455,-0.00000132,-0.00000379,0.00000446,-0.
 00001355,-0.00009229,-0.00030352,-0.00008728,-0.00003905,0.00016445,0.
 01345836,0.02365972,-0.09535852,0.00018480,0.00038953,0.00131648,-0.00
 253877,0.02037549,0.01977319,0.00853794,0.01335463,0.53868654,0.000000
 13,0.00000187,0.00000071,-0.00000073,-0.00000283,0.00000029,-0.0000130
 9,0.00000400,-0.00000902,0.00003443,0.00002391,-0.00000179,-0.00001972
 ,-0.00010209,0.00004167,0.00004680,0.00006413,-0.00001942,-0.00011686,
 0.00005743,0.00004166,0.00016322,-0.00032397,0.00007611,0.00008032,0.0
 0007654,-0.00032418,-0.00040601,0.00019747,-0.00018853,0.00047460,0.00
 054005,0.00010072,-0.00107420,0.00010791,0.00129046,-0.00079267,-0.000
 65878,0.00004004,0.00000213,0.00000070,0.00000004,-0.00000060,-0.00000
 058,-0.00000007,-0.00000050,-0.00000089,-0.00000007,0.00000022,0.00000
 036,0.00000016,0.00000026,0.00000088,-0.00000057,0.00000086,-0.0000023
 3,0.00000016,-0.00000169,-0.00000099,-0.00000021,-0.00000150,-0.000003
 00,-0.00000140,0.00000737,0.00001039,0.00001359,-0.00002520,0.00001000
 ,-0.00000181,0.00001110,0.00000542,-0.00003352,0.00003922,0.00005777,-
 0.00000177,0.00370689,-0.00365747,-0.01054901,-0.00134418,-0.00036609,
 -0.00041896,0.00082995,-0.00062253,0.00127210,-0.07711229,0.05836208,0
 .05981160,0.07952844,0.,0.00000137,-0.00000055,0.00000004,-0.00000279,
 0.00000003,-0.00001125,0.00000516,-0.00000588,0.00002686,0.00001241,-0
 .00000102,-0.00004418,-0.00002192,0.00001750,0.00003110,0.00001168,0.0
 0000479,-0.00002462,0.00000659,0.00000538,-0.00000052,0.00022461,-0.00
 000507,-0.00035634,-0.00003710,-0.00011510,0.00014992,0.00004443,-0.00
 023291,-0.00015706,-0.00003547,0.00054751,-0.00053033,0.00066689,0.002
 08942,0.00021331,0.00006216,0.00041399,0.00000152,0.00000026,-0.000000
 07,-0.00000030,-0.00000060,0.00000052,-0.00000042,-0.00000024,-0.00000
 007,0.00000007,0.00000055,0.00000027,0.00000003,-0.00000008,0.00000040
 ,0.00000068,-0.00000101,-0.00000016,-0.00000034,-0.00000067,0.00000052
 ,-0.00000222,-0.00000456,-0.00000308,0.00000415,-0.00000182,-0.0000097
 2,-0.00002266,0.00000270,-0.00000169,-0.00000863,-0.00002554,-0.000060
 21,0.00013433,0.00011386,-0.00000336,0.01415723,-0.01653562,-0.0226448
 4,-0.00036838,0.00027996,-0.00024846,-0.00185771,-0.00499230,0.0052719
 4,0.05959617,-0.17542481,-0.12687617,-0.06712900,0.18767762,0.00000082
 ,0.00000248,-0.00000063,-0.00000033,-0.00000509,0.00000022,-0.00001471
 ,0.00000778,-0.00000378,0.00005280,0.00002722,-0.00000154,-0.00008361,
 -0.00003617,0.00002895,0.00004580,0.00003128,-0.00000583,0.00004103,0.
 00003940,-0.00004520,0.00004109,-0.00001110,-0.00003020,0.00000539,0.0
 0041895,0.00007542,0.00007503,0.00002194,0.00006335,-0.00025841,-0.000
 01719,-0.00011905,0.00018296,-0.00069592,-0.00073278,0.00065761,-0.000
 77594,0.00053422,0.00000257,0.00000067,-0.00000008,-0.00000062,-0.0000
 0085,-0.00000035,-0.00000060,-0.00000073,0.00000052,-0.00000017,0.0000
 0085,0.00000047,0.00000033,0.00000115,-0.00000091,0.00000259,-0.000002
 64,0.00000077,-0.00000068,-0.00000200,-0.00000101,-0.00000140,-0.00000
 625,-0.00000099,0.00001395,0.00000015,-0.00001170,-0.00003495,-0.00001
 268,0.00000429,-0.00001281,0.00001241,0.00001675,0.00000941,0.00003441
 ,-0.00000007,-0.00462101,0.00722824,0.00823921,-0.00016446,0.00026851,
 -0.00037304,-0.00020338,0.00191169,-0.00272690,0.05914372,-0.12252249,
 -0.15907518,-0.06495657,0.13408357,0.17312530,-0.00000163,-0.00000784,
 0.00000167,-0.00000129,0.00001306,-0.00000131,0.00004586,-0.00002769,0
 .00001343,-0.00015048,-0.00004092,-0.00000440,0.00029393,-0.00010236,0
 .00002407,-0.00009114,0.00005151,-0.00001844,-0.00032531,0.00002400,0.
 00000117,0.00023905,0.00002215,-0.00001250,0.00000132,-0.00006045,0.00
 002661,-0.00009247,-0.00019812,0.00005356,-0.00044952,0.00028763,-0.00
 006507,0.00047726,-0.00180801,0.00052599,0.00050538,0.00000442,-0.0000
 0845,-0.00000636,-0.00000093,0.,0.00000105,0.00000182,-0.00000105,0.00
 000081,0.00000207,0.00000047,0.00000125,-0.00000067,0.00000021,-0.0000
 0037,-0.00000149,0.00000017,-0.00001046,0.00000813,0.00000180,-0.00000
 041,0.00000310,-0.00000004,0.00000778,0.00001524,0.00000090,0.00000203
 ,0.00000954,-0.00000198,0.00000125,-0.00001089,0.00000531,-0.00007734,
 -0.00002654,0.00000870,0.00002381,-0.00005915,0.00001787,-0.01265410,0
 .00127517,-0.00013571,0.00013701,-0.00014164,0.00002929,0.00314318,0.0
 0205130,-0.00067189,-0.33459380,-0.00315511,0.00656408,-0.00707414,-0.
 00062402,-0.00047757,0.35870341,-0.00000039,-0.00000219,0.00000030,-0.
 00000122,0.00000415,-0.00000004,0.00001261,-0.00000835,0.00000601,-0.0
 0004788,-0.00000266,-0.00000494,0.00011556,-0.00011442,0.00003823,-0.0
 0001247,0.00006538,-0.00002448,-0.00020481,0.00007482,-0.00002252,0.00
 024954,-0.00006636,0.00001148,-0.00006474,0.00037493,-0.00005539,-0.00
 010660,-0.00042268,0.00007639,-0.00161478,0.00027257,0.00005347,0.0001
 8102,-0.00542839,0.00195939,0.00087603,-0.00100061,0.00030977,-0.00000
 149,0.00000011,-0.00000002,0.00000003,0.00000043,-0.00000037,-0.000000
 03,0.00000038,0.00000014,0.00000063,-0.00000011,0.00000013,0.00000011,
 -0.00000024,-0.00000020,-0.00000428,0.00000249,0.00000103,-0.00000123,
 0.00000082,-0.00000034,0.00000346,0.00000473,-0.00000044,0.00002107,0.
 00000719,-0.00000478,-0.00004615,-0.00001223,0.00000648,-0.00016066,-0
 .00004734,0.00000374,0.00001321,0.00000604,0.00001920,-0.03582598,-0.0
 0142932,0.00071939,0.00014667,0.00053637,-0.00027189,0.00199744,0.0035
 0971,-0.00133457,0.00183725,-0.04694543,-0.00075102,0.02237393,0.00106
 274,0.00167461,0.00275678,0.05046644,0.,0.00000046,-0.00000062,0.00000
 043,-0.00000119,0.00000042,-0.00000476,0.00000448,0.00000088,0.0000160
 2,0.00000152,0.00000056,-0.00004005,0.00003834,0.00000514,0.00000503,-
 0.00002089,0.00000829,0.00006341,-0.00002709,-0.00001504,-0.00007396,0
 .00001342,-0.00001747,0.00002035,-0.00006140,0.00017719,0.00002768,0.0
 0008404,-0.00017087,0.00047814,0.00001436,0.00033019,-0.00003666,0.002
 00157,0.00090642,-0.00025405,0.00032612,0.00004767,0.00000051,0.,0.000
 00014,0.,0.00000001,0.,-0.00000010,-0.00000035,-0.00000016,-0.00000011
 ,-0.00000011,-0.00000020,-0.00000012,0.00000023,-0.00000012,0.00000115
 ,-0.00000097,-0.00000034,0.00000055,-0.00000024,0.00000008,-0.00000109
 ,-0.00000204,0.00000068,-0.00000621,-0.00000438,-0.00000984,0.00001330
 ,0.00000554,0.00000333,0.00004658,0.00000058,-0.00004849,-0.00000270,0
 .00002004,0.00006634,0.01043316,-0.00002354,-0.00159470,-0.00005287,-0
 .00026596,-0.00032738,-0.00065527,-0.00132457,-0.00061342,0.00513434,-
 0.00065022,-0.04936678,0.02184764,0.00184266,-0.00006808,-0.00695712,-
 0.00091524,0.04777321,-0.00000003,0.00000139,-0.00000049,-0.00000078,-
 0.00000210,-0.00000112,-0.00001216,0.00000542,-0.00000308,0.00003045,0
 .00002412,-0.00000733,-0.00001834,-0.00009940,0.00006407,0.00004512,0.
 00006066,-0.00002700,-0.00012425,0.00003004,-0.00004588,0.00016993,-0.
 00033049,0.00004505,0.00009360,0.00021417,0.00023682,-0.00040836,0.000
 26878,0.00008430,0.00047308,0.00039770,-0.00040008,-0.00113269,-0.0005
 5239,-0.00106022,-0.00080095,-0.00052503,0.00032640,0.00000209,0.00000
 067,-0.00000015,-0.00000050,-0.00000071,0.00000016,-0.00000055,-0.0000
 0050,0.00000015,-0.00000022,0.00000046,0.00000034,0.00000066,0.0000005
 1,-0.00000036,0.00000058,-0.00000161,0.00000016,-0.00000179,-0.0000013
 6,-0.00000048,0.00000026,-0.00000294,-0.00000186,0.00000497,0.00000141
 ,-0.00001869,-0.00002124,0.00001000,-0.00000249,0.00001321,0.00002175,
 0.00002525,0.00003696,0.00004774,-0.00002850,0.00414730,0.00236000,0.0
 1083619,-0.00134980,-0.00010730,0.00059976,0.00081741,-0.00124021,-0.0
 0081752,-0.08287884,0.02035953,-0.08806667,0.00305746,-0.00317747,0.01
 055616,-0.00805554,0.00750738,-0.03000321,0.08591299,-0.00000067,-0.00
 000063,-0.00000053,0.00000018,0.00000128,0.00000010,-0.00000222,0.0000
 0315,0.00000181,-0.00000532,-0.00000572,-0.00000206,0.00000808,-0.0000
 0295,0.00001881,0.00000523,-0.00000686,-0.00000450,-0.00004354,-0.0000
 2424,-0.00000259,-0.00002388,0.00015669,-0.00015614,-0.00029946,-0.000
 14507,0.00025100,0.00009824,0.00013565,0.00019282,-0.00003059,-0.00030
 237,-0.00044701,-0.00062386,-0.00032505,-0.00221970,-0.00015583,0.0003
 7253,-0.00031031,-0.00000014,-0.00000012,0.00000012,0.00000011,0.00000
 035,0.00000038,0.00000011,-0.00000021,-0.00000059,-0.00000024,-0.00000
 078,-0.00000048,0.00000011,-0.00000024,0.00000011,-0.00000013,-0.00000
 027,-0.00000139,-0.00000044,0.00000083,0.00000023,0.00000026,0.0000022
 7,0.00000208,-0.00000381,-0.00000212,0.00000142,-0.00000036,0.00001007
 ,-0.00000092,0.00000151,0.00000719,0.00006542,0.00010798,0.00006657,-0
 .00004168,0.01544509,-0.00294137,0.02876238,-0.00021211,0.00008638,-0.
 00003538,-0.00163477,-0.00753648,-0.00218115,0.02192506,-0.05950044,0.
 06497132,-0.00902428,0.00691154,-0.02167626,-0.00026008,-0.00090897,-0
 .00105521,-0.02527022,0.06394940,-0.00000053,-0.00000290,0.00000078,0.
 00000039,0.00000550,-0.00000087,0.00001968,-0.00001033,0.00000635,-0.0
 0006243,-0.00002743,0.00000548,0.00009395,0.00004840,-0.00003620,-0.00
 005866,-0.00003465,0.00001406,-0.00002240,-0.00005175,-0.00000706,-0.0
 0003533,-0.00008619,0.00006356,0.00017968,-0.00028797,0.00019451,-0.00
 013242,-0.00008015,-0.00004549,0.00029438,0.00011435,0.00015710,0.0001
 7675,0.00045474,0.00026505,-0.00061755,0.00090838,0.00025029,-0.000003
 04,-0.00000074,0.00000001,0.00000073,0.00000079,0.00000021,0.00000057,
 0.00000108,-0.00000015,0.00000043,-0.00000042,-0.00000024,-0.00000054,
 -0.00000133,0.00000113,-0.00000366,0.00000366,-0.00000010,0.00000146,0
 .00000190,0.00000087,0.00000140,0.00000476,0.00000022,-0.00001438,-0.0
 0000557,-0.00001085,0.00004240,0.00000957,0.00000062,0.00001387,-0.000
 00748,-0.00001672,-0.00007876,-0.00007786,0.00004922,-0.00387972,-0.00
 044586,-0.00579556,0.00036798,-0.00055219,-0.00021649,0.00112890,0.001
 12156,-0.00014922,-0.08817364,0.06069384,-0.26945444,-0.00803008,0.005
 92987,-0.01889214,0.00108025,-0.00149350,0.00291298,0.09771032,-0.0661
 3209,0.29070311\\0.00000026,-0.00000057,0.00000135,0.00000071,0.000000
 21,-0.00000094,-0.00000364,0.00000060,-0.00000002,-0.00000670,-0.00000
 430,0.00000155,0.00001206,-0.00000282,-0.00000408,0.00000125,0.0000021
 6,0.00000278,0.00000159,0.00000525,0.00000411,-0.00000435,-0.00000173,
 -0.00000244,0.00000014,0.00000201,-0.00000011,0.00000092,-0.00000109,-
 0.00000081,-0.00000151,-0.00000098,-0.00000184,0.00000130,0.00000051,-
 0.00000025,0.00000004,-0.00000039,0.00000031,-0.00000010,-0.00000017,0
 .00000017,-0.00000015,0.00000085,0.00000137,-0.00000003,-0.00000084,0.
 00000146,0.00000022,0.00000026,-0.00000048,0.00000021,-0.00000156,-0.0
 0000033,-0.00000047,-0.00000015,0.00000088,0.00000001,0.00000124,0.000
 00138,-0.00000131,-0.00000225,0.00000136,0.00000162,0.00000028,-0.0000
 0510,-0.00000138,0.00000017,0.00000108,0.,-0.00000064,-0.00000256,0.00
 000052,-0.00000003,-0.00000257,-0.00000042,0.00000028,-0.00000019,0.00
 000062,0.00000106,0.00000134,0.00000018,-0.00000132,-0.00000127,0.0000
 0196,0.00000247,0.00000257,-0.00000191,-0.00000041,0.00000063,-0.00000
 033,0.00000061,-0.00000061,-0.00000134,0.00000131,0.00000126\\\@


 It is also a good rule not to put too much confidence in
 experimental results until they have been confirmed by
 Theory.
                             -- Sir Arthur Eddington
 Job cpu time:       0 days  2 hours 39 minutes 26.4 seconds.
 File lengths (MBytes):  RWF=    390 Int=      0 D2E=      0 Chk=     10 Scr=      1
 Normal termination of Gaussian 09 at Mon Feb  4 12:10:54 2019.
WARNING: pbs_rusage is deprecated and values produced may not be accurate


=============================================================================
                                     Resource usage:
                                       CPU time:              08:34:46
   JobId:    5363856.r-man2            Elapsed time:          02:10:48
   Project:             q95            Requested time:        32:00:00
   Service Units:      8.72 
                                       Max physical memory:      611MB
                                       Max virtual memory:      1228MB
                                       Requested memory:           0MB

                                       Number of cpus:               4

                                       Max jobfs disk use:       0.4GB
                                       Requested jobfs:         16.0GB
=============================================================================

