 Entering Gaussian System, Link 0=/apps/gaussian/g09e01/g09/g09
 AtFile(1): /home/507/hio507/Basis/6-31pGd.gbs
 Initial command:
 /apps/gaussian/g09e01/g09/l1.exe "/jobfs/local/5363857.r-man2/Gau-47769.inp" -scrdir="/jobfs/local/5363857.r-man2/"
 Entering Link 1 = /apps/gaussian/g09e01/g09/l1.exe PID=     47790.
  
 Copyright (c) 1988,1990,1992,1993,1995,1998,2003,2009,2015,
            Gaussian, Inc.  All Rights Reserved.
  
 This is part of the Gaussian(R) 09 program.  It is based on
 the Gaussian(R) 03 system (copyright 2003, Gaussian, Inc.),
 the Gaussian(R) 98 system (copyright 1998, Gaussian, Inc.),
 the Gaussian(R) 94 system (copyright 1995, Gaussian, Inc.),
 the Gaussian 92(TM) system (copyright 1992, Gaussian, Inc.),
 the Gaussian 90(TM) system (copyright 1990, Gaussian, Inc.),
 the Gaussian 88(TM) system (copyright 1988, Gaussian, Inc.),
 the Gaussian 86(TM) system (copyright 1986, Carnegie Mellon
 University), and the Gaussian 82(TM) system (copyright 1983,
 Carnegie Mellon University). Gaussian is a federally registered
 trademark of Gaussian, Inc.
  
 This software contains proprietary and confidential information,
 including trade secrets, belonging to Gaussian, Inc.
  
 This software is provided under written license and may be
 used, copied, transmitted, or stored only in accord with that
 written license.
  
 The following legend is applicable only to US Government
 contracts under FAR:
  
                    RESTRICTED RIGHTS LEGEND
  
 Use, reproduction and disclosure by the US Government is
 subject to restrictions as set forth in subparagraphs (a)
 and (c) of the Commercial Computer Software - Restricted
 Rights clause in FAR 52.227-19.
  
 Gaussian, Inc.
 340 Quinnipiac St., Bldg. 40, Wallingford CT 06492
  
  
 ---------------------------------------------------------------
 Warning -- This program may not be used in any manner that
 competes with the business of Gaussian, Inc. or will provide
 assistance to any competitor of Gaussian, Inc.  The licensee
 of this program is prohibited from giving any competitor of
 Gaussian, Inc. access to this program.  By using this program,
 the user acknowledges that Gaussian, Inc. is engaged in the
 business of creating and licensing software in the field of
 computational chemistry and represents and warrants to the
 licensee that it is not a competitor of Gaussian, Inc. and that
 it will not use this program in any manner prohibited above.
 ---------------------------------------------------------------
  

 Cite this work as:
 Gaussian 09, Revision E.01,
 M. J. Frisch, G. W. Trucks, H. B. Schlegel, G. E. Scuseria, 
 M. A. Robb, J. R. Cheeseman, G. Scalmani, V. Barone, B. Mennucci, 
 G. A. Petersson, H. Nakatsuji, M. Caricato, X. Li, H. P. Hratchian, 
 A. F. Izmaylov, J. Bloino, G. Zheng, J. L. Sonnenberg, M. Hada, 
 M. Ehara, K. Toyota, R. Fukuda, J. Hasegawa, M. Ishida, T. Nakajima, 
 Y. Honda, O. Kitao, H. Nakai, T. Vreven, J. A. Montgomery, Jr., 
 J. E. Peralta, F. Ogliaro, M. Bearpark, J. J. Heyd, E. Brothers, 
 K. N. Kudin, V. N. Staroverov, T. Keith, R. Kobayashi, J. Normand, 
 K. Raghavachari, A. Rendell, J. C. Burant, S. S. Iyengar, J. Tomasi, 
 M. Cossi, N. Rega, J. M. Millam, M. Klene, J. E. Knox, J. B. Cross, 
 V. Bakken, C. Adamo, J. Jaramillo, R. Gomperts, R. E. Stratmann, 
 O. Yazyev, A. J. Austin, R. Cammi, C. Pomelli, J. W. Ochterski, 
 R. L. Martin, K. Morokuma, V. G. Zakrzewski, G. A. Voth, 
 P. Salvador, J. J. Dannenberg, S. Dapprich, A. D. Daniels, 
 O. Farkas, J. B. Foresman, J. V. Ortiz, J. Cioslowski, 
 and D. J. Fox, Gaussian, Inc., Wallingford CT, 2013.
 
 ******************************************
 Gaussian 09:  ES64L-G09RevE.01 30-Nov-2015
                 4-Feb-2019 
 ******************************************
 %chk=4Ketone.M062X_6-31pGd_opt_water.chk
 %mem=196608000
 %nproc=4
 Will use up to    4 processors via shared memory.
 ----------------------------------------------------------------------
 # M062X/Gen 6D SCF=Tight INT(grid=ultrafine) OPT=calcfc IOP(2/17=4) SC
 RF=(SMD,Solvent=h2o) maxdisk=2147483648
 ----------------------------------------------------------------------
 1/10=4,14=-1,18=20,19=15,26=4,38=1/1,3;
 2/9=110,12=2,17=4,18=5,40=1/2;
 3/5=7,8=2,11=2,16=1,25=1,30=1,70=32201,71=2,72=1,74=-55,75=-5,140=1/1,2,3;
 4//1;
 5/5=2,32=2,38=5,53=1/2;
 8/6=4,10=90,11=11/1;
 11/6=1,8=1,9=11,15=111,16=1/1,2,10;
 10/6=1,13=1/2;
 6/7=2,8=2,9=2,10=2,28=1/1;
 7/10=1,18=20,25=1/1,2,3,16;
 1/10=4,14=-1,18=20,19=15,26=4/3(2);
 2/9=110,17=4/2;
 99//99;
 2/9=110,17=4/2;
 3/5=7,6=1,8=2,11=2,16=1,25=1,30=1,70=32205,71=1,72=1,74=-55,75=-5,82=7/1,2,3;
 4/5=5,16=3,69=1/1;
 5/5=2,32=2,38=5,53=1/2;
 7//1,2,3,16;
 1/14=-1,18=20,19=15,26=4/3(-5);
 2/9=110,17=4/2;
 6/7=2,8=2,9=2,10=2,19=2,28=1/1;
 99/9=1/99;
 -------------------------------
 4Ketone.M062X_6-31pGd_opt_water
 -------------------------------
 Symbolic Z-matrix:
 Charge =  0 Multiplicity = 1
 C                    -2.09741   2.07026   0.01493 
 C                    -0.79459   1.29404   0.18382 
 C                     0.42286   2.19143  -0.06662 
 N                     1.66024   1.44771   0.09538 
 C                     2.8794    2.03295  -0.07662 
 O                     2.93646   3.21516  -0.3752 
 N                     4.01429   1.28505   0.08846 
 C                     5.38302   1.71066  -0.04647 
 C                     5.78644   3.02236  -0.38456 
 C                     6.38909   0.7545    0.17348 
 C                     7.74108   1.08345   0.06318 
 C                     8.14522   2.38795  -0.27313 
 C                     7.14227   3.35147  -0.49498 
 H                    -2.95941   1.39581   0.20207 
 H                    -2.177     2.47095  -1.01813 
 H                    -2.14143   2.9127    0.73773 
 H                    -0.78422   0.44613  -0.5353 
 H                    -0.7487    0.88711   1.21751 
 H                     0.40744   3.03819   0.65477 
 H                     0.37182   2.59634  -1.10155 
 H                     1.61445   0.44784   0.34785 
 H                     3.87349   0.29414   0.34059 
 H                     5.09448   3.82257  -0.57168 
 H                     6.12558  -0.26307   0.43476 
 H                     8.47241   0.30546   0.24391 
 C                     9.60904   2.69502  -0.38023 
 H                     7.3749    4.37029  -0.75595 
 O                     10.41631   1.8007   -0.17179 
 C                     10.17488   4.04684  -0.73177 
 H                     9.41941   4.82875  -0.913 
 H                     10.82563   4.39564   0.09744 
 H                     10.78993   3.95575  -1.65163 
 

 GradGradGradGradGradGradGradGradGradGradGradGradGradGradGradGradGradGrad
 Berny optimization.
 Initialization pass.
                           ----------------------------
                           !    Initial Parameters    !
                           ! (Angstroms and Degrees)  !
 --------------------------                            --------------------------
 ! Name  Definition              Value          Derivative Info.                !
 --------------------------------------------------------------------------------
 ! R1    R(1,2)                  1.5259         calculate D2E/DX2 analytically  !
 ! R2    R(1,14)                 1.1104         calculate D2E/DX2 analytically  !
 ! R3    R(1,15)                 1.1109         calculate D2E/DX2 analytically  !
 ! R4    R(1,16)                 1.1109         calculate D2E/DX2 analytically  !
 ! R5    R(2,3)                  1.533          calculate D2E/DX2 analytically  !
 ! R6    R(2,17)                 1.1118         calculate D2E/DX2 analytically  !
 ! R7    R(2,18)                 1.1119         calculate D2E/DX2 analytically  !
 ! R8    R(3,4)                  1.4527         calculate D2E/DX2 analytically  !
 ! R9    R(3,19)                 1.1125         calculate D2E/DX2 analytically  !
 ! R10   R(3,20)                 1.1125         calculate D2E/DX2 analytically  !
 ! R11   R(4,5)                  1.3632         calculate D2E/DX2 analytically  !
 ! R12   R(4,21)                 1.0323         calculate D2E/DX2 analytically  !
 ! R13   R(5,6)                  1.2207         calculate D2E/DX2 analytically  !
 ! R14   R(5,7)                  1.3692         calculate D2E/DX2 analytically  !
 ! R15   R(7,8)                  1.4397         calculate D2E/DX2 analytically  !
 ! R16   R(7,22)                 1.0321         calculate D2E/DX2 analytically  !
 ! R17   R(8,9)                  1.4134         calculate D2E/DX2 analytically  !
 ! R18   R(8,10)                 1.4053         calculate D2E/DX2 analytically  !
 ! R19   R(9,13)                 1.3996         calculate D2E/DX2 analytically  !
 ! R20   R(9,23)                 1.0743         calculate D2E/DX2 analytically  !
 ! R21   R(10,11)                1.3958         calculate D2E/DX2 analytically  !
 ! R22   R(10,24)                1.0831         calculate D2E/DX2 analytically  !
 ! R23   R(11,12)                1.4065         calculate D2E/DX2 analytically  !
 ! R24   R(11,25)                1.0829         calculate D2E/DX2 analytically  !
 ! R25   R(12,13)                1.4084         calculate D2E/DX2 analytically  !
 ! R26   R(12,26)                1.4995         calculate D2E/DX2 analytically  !
 ! R27   R(13,27)                1.0771         calculate D2E/DX2 analytically  !
 ! R28   R(26,28)                1.2227         calculate D2E/DX2 analytically  !
 ! R29   R(26,29)                1.507          calculate D2E/DX2 analytically  !
 ! R30   R(29,30)                1.1023         calculate D2E/DX2 analytically  !
 ! R31   R(29,31)                1.1103         calculate D2E/DX2 analytically  !
 ! R32   R(29,32)                1.1103         calculate D2E/DX2 analytically  !
 ! A1    A(2,1,14)             109.5833         calculate D2E/DX2 analytically  !
 ! A2    A(2,1,15)             110.3392         calculate D2E/DX2 analytically  !
 ! A3    A(2,1,16)             110.3396         calculate D2E/DX2 analytically  !
 ! A4    A(14,1,15)            108.6746         calculate D2E/DX2 analytically  !
 ! A5    A(14,1,16)            108.6751         calculate D2E/DX2 analytically  !
 ! A6    A(15,1,16)            109.1894         calculate D2E/DX2 analytically  !
 ! A7    A(1,2,3)              111.2344         calculate D2E/DX2 analytically  !
 ! A8    A(1,2,17)             108.9241         calculate D2E/DX2 analytically  !
 ! A9    A(1,2,18)             108.9244         calculate D2E/DX2 analytically  !
 ! A10   A(3,2,17)             109.4719         calculate D2E/DX2 analytically  !
 ! A11   A(3,2,18)             109.4717         calculate D2E/DX2 analytically  !
 ! A12   A(17,2,18)            108.7729         calculate D2E/DX2 analytically  !
 ! A13   A(2,3,4)              111.0094         calculate D2E/DX2 analytically  !
 ! A14   A(2,3,19)             109.1841         calculate D2E/DX2 analytically  !
 ! A15   A(2,3,20)             109.1833         calculate D2E/DX2 analytically  !
 ! A16   A(4,3,19)             109.2174         calculate D2E/DX2 analytically  !
 ! A17   A(4,3,20)             109.2169         calculate D2E/DX2 analytically  !
 ! A18   A(19,3,20)            109.0002         calculate D2E/DX2 analytically  !
 ! A19   A(3,4,5)              121.8625         calculate D2E/DX2 analytically  !
 ! A20   A(3,4,21)             119.0363         calculate D2E/DX2 analytically  !
 ! A21   A(5,4,21)             119.1012         calculate D2E/DX2 analytically  !
 ! A22   A(4,5,6)              119.2381         calculate D2E/DX2 analytically  !
 ! A23   A(4,5,7)              119.444          calculate D2E/DX2 analytically  !
 ! A24   A(6,5,7)              121.3179         calculate D2E/DX2 analytically  !
 ! A25   A(5,7,8)              127.97           calculate D2E/DX2 analytically  !
 ! A26   A(5,7,22)             116.1556         calculate D2E/DX2 analytically  !
 ! A27   A(8,7,22)             115.8744         calculate D2E/DX2 analytically  !
 ! A28   A(7,8,9)              124.6202         calculate D2E/DX2 analytically  !
 ! A29   A(7,8,10)             117.6982         calculate D2E/DX2 analytically  !
 ! A30   A(9,8,10)             117.6816         calculate D2E/DX2 analytically  !
 ! A31   A(8,9,13)             120.9054         calculate D2E/DX2 analytically  !
 ! A32   A(8,9,23)             123.3049         calculate D2E/DX2 analytically  !
 ! A33   A(13,9,23)            115.7897         calculate D2E/DX2 analytically  !
 ! A34   A(8,10,11)            121.3814         calculate D2E/DX2 analytically  !
 ! A35   A(8,10,24)            120.1861         calculate D2E/DX2 analytically  !
 ! A36   A(11,10,24)           118.4325         calculate D2E/DX2 analytically  !
 ! A37   A(10,11,12)           121.0514         calculate D2E/DX2 analytically  !
 ! A38   A(10,11,25)           118.1398         calculate D2E/DX2 analytically  !
 ! A39   A(12,11,25)           120.8088         calculate D2E/DX2 analytically  !
 ! A40   A(11,12,13)           117.8772         calculate D2E/DX2 analytically  !
 ! A41   A(11,12,26)           119.1775         calculate D2E/DX2 analytically  !
 ! A42   A(13,12,26)           122.9453         calculate D2E/DX2 analytically  !
 ! A43   A(9,13,12)            121.1031         calculate D2E/DX2 analytically  !
 ! A44   A(9,13,27)            116.7924         calculate D2E/DX2 analytically  !
 ! A45   A(12,13,27)           122.1046         calculate D2E/DX2 analytically  !
 ! A46   A(12,26,28)           118.8535         calculate D2E/DX2 analytically  !
 ! A47   A(12,26,29)           124.5327         calculate D2E/DX2 analytically  !
 ! A48   A(28,26,29)           116.6138         calculate D2E/DX2 analytically  !
 ! A49   A(26,29,30)           114.6658         calculate D2E/DX2 analytically  !
 ! A50   A(26,29,31)           109.1261         calculate D2E/DX2 analytically  !
 ! A51   A(26,29,32)           109.1267         calculate D2E/DX2 analytically  !
 ! A52   A(30,29,31)           107.5571         calculate D2E/DX2 analytically  !
 ! A53   A(30,29,32)           107.5571         calculate D2E/DX2 analytically  !
 ! A54   A(31,29,32)           108.6538         calculate D2E/DX2 analytically  !
 ! D1    D(14,1,2,3)           179.9995         calculate D2E/DX2 analytically  !
 ! D2    D(14,1,2,17)           59.2505         calculate D2E/DX2 analytically  !
 ! D3    D(14,1,2,18)          -59.2516         calculate D2E/DX2 analytically  !
 ! D4    D(15,1,2,3)            60.3743         calculate D2E/DX2 analytically  !
 ! D5    D(15,1,2,17)          -60.3747         calculate D2E/DX2 analytically  !
 ! D6    D(15,1,2,18)         -178.8769         calculate D2E/DX2 analytically  !
 ! D7    D(16,1,2,3)           -60.3743         calculate D2E/DX2 analytically  !
 ! D8    D(16,1,2,17)          178.8767         calculate D2E/DX2 analytically  !
 ! D9    D(16,1,2,18)           60.3746         calculate D2E/DX2 analytically  !
 ! D10   D(1,2,3,4)           -179.9984         calculate D2E/DX2 analytically  !
 ! D11   D(1,2,3,19)            59.541          calculate D2E/DX2 analytically  !
 ! D12   D(1,2,3,20)           -59.5388         calculate D2E/DX2 analytically  !
 ! D13   D(17,2,3,4)           -59.572          calculate D2E/DX2 analytically  !
 ! D14   D(17,2,3,19)          179.9673         calculate D2E/DX2 analytically  !
 ! D15   D(17,2,3,20)           60.8875         calculate D2E/DX2 analytically  !
 ! D16   D(18,2,3,4)            59.5751         calculate D2E/DX2 analytically  !
 ! D17   D(18,2,3,19)          -60.8855         calculate D2E/DX2 analytically  !
 ! D18   D(18,2,3,20)         -179.9653         calculate D2E/DX2 analytically  !
 ! D19   D(2,3,4,5)            179.9976         calculate D2E/DX2 analytically  !
 ! D20   D(2,3,4,21)            -0.0006         calculate D2E/DX2 analytically  !
 ! D21   D(19,3,4,5)           -59.5615         calculate D2E/DX2 analytically  !
 ! D22   D(19,3,4,21)          120.4403         calculate D2E/DX2 analytically  !
 ! D23   D(20,3,4,5)            59.5579         calculate D2E/DX2 analytically  !
 ! D24   D(20,3,4,21)         -120.4403         calculate D2E/DX2 analytically  !
 ! D25   D(3,4,5,6)              0.0013         calculate D2E/DX2 analytically  !
 ! D26   D(3,4,5,7)           -179.9976         calculate D2E/DX2 analytically  !
 ! D27   D(21,4,5,6)           179.9995         calculate D2E/DX2 analytically  !
 ! D28   D(21,4,5,7)             0.0006         calculate D2E/DX2 analytically  !
 ! D29   D(4,5,7,8)            179.9977         calculate D2E/DX2 analytically  !
 ! D30   D(4,5,7,22)             0.0004         calculate D2E/DX2 analytically  !
 ! D31   D(6,5,7,8)             -0.0012         calculate D2E/DX2 analytically  !
 ! D32   D(6,5,7,22)          -179.9985         calculate D2E/DX2 analytically  !
 ! D33   D(5,7,8,9)              0.0066         calculate D2E/DX2 analytically  !
 ! D34   D(5,7,8,10)          -179.9934         calculate D2E/DX2 analytically  !
 ! D35   D(22,7,8,9)          -179.9961         calculate D2E/DX2 analytically  !
 ! D36   D(22,7,8,10)            0.0039         calculate D2E/DX2 analytically  !
 ! D37   D(7,8,9,13)          -179.999          calculate D2E/DX2 analytically  !
 ! D38   D(7,8,9,23)             0.0009         calculate D2E/DX2 analytically  !
 ! D39   D(10,8,9,13)            0.0009         calculate D2E/DX2 analytically  !
 ! D40   D(10,8,9,23)         -179.9991         calculate D2E/DX2 analytically  !
 ! D41   D(7,8,10,11)          179.9991         calculate D2E/DX2 analytically  !
 ! D42   D(7,8,10,24)           -0.0006         calculate D2E/DX2 analytically  !
 ! D43   D(9,8,10,11)           -0.0009         calculate D2E/DX2 analytically  !
 ! D44   D(9,8,10,24)          179.9994         calculate D2E/DX2 analytically  !
 ! D45   D(8,9,13,12)           -0.0003         calculate D2E/DX2 analytically  !
 ! D46   D(8,9,13,27)          179.9991         calculate D2E/DX2 analytically  !
 ! D47   D(23,9,13,12)         179.9998         calculate D2E/DX2 analytically  !
 ! D48   D(23,9,13,27)          -0.0008         calculate D2E/DX2 analytically  !
 ! D49   D(8,10,11,12)           0.0002         calculate D2E/DX2 analytically  !
 ! D50   D(8,10,11,25)        -179.9992         calculate D2E/DX2 analytically  !
 ! D51   D(24,10,11,12)        179.9999         calculate D2E/DX2 analytically  !
 ! D52   D(24,10,11,25)          0.0005         calculate D2E/DX2 analytically  !
 ! D53   D(10,11,12,13)          0.0005         calculate D2E/DX2 analytically  !
 ! D54   D(10,11,12,26)       -179.9991         calculate D2E/DX2 analytically  !
 ! D55   D(25,11,12,13)        179.9998         calculate D2E/DX2 analytically  !
 ! D56   D(25,11,12,26)          0.0002         calculate D2E/DX2 analytically  !
 ! D57   D(11,12,13,9)          -0.0004         calculate D2E/DX2 analytically  !
 ! D58   D(11,12,13,27)       -179.9998         calculate D2E/DX2 analytically  !
 ! D59   D(26,12,13,9)         179.9991         calculate D2E/DX2 analytically  !
 ! D60   D(26,12,13,27)         -0.0002         calculate D2E/DX2 analytically  !
 ! D61   D(11,12,26,28)         -0.0005         calculate D2E/DX2 analytically  !
 ! D62   D(11,12,26,29)        179.9987         calculate D2E/DX2 analytically  !
 ! D63   D(13,12,26,28)       -180.0            calculate D2E/DX2 analytically  !
 ! D64   D(13,12,26,29)         -0.0008         calculate D2E/DX2 analytically  !
 ! D65   D(12,26,29,30)          0.0006         calculate D2E/DX2 analytically  !
 ! D66   D(12,26,29,31)        120.7039         calculate D2E/DX2 analytically  !
 ! D67   D(12,26,29,32)       -120.7031         calculate D2E/DX2 analytically  !
 ! D68   D(28,26,29,30)        179.9998         calculate D2E/DX2 analytically  !
 ! D69   D(28,26,29,31)        -59.2969         calculate D2E/DX2 analytically  !
 ! D70   D(28,26,29,32)         59.2961         calculate D2E/DX2 analytically  !
 --------------------------------------------------------------------------------
 Trust Radius=3.00D-01 FncErr=1.00D-07 GrdErr=1.00D-06
 Number of steps in this run=    166 maximum allowed number of steps=    192.
 GradGradGradGradGradGradGradGradGradGradGradGradGradGradGradGradGradGrad

                          Input orientation:                          
 ---------------------------------------------------------------------
 Center     Atomic      Atomic             Coordinates (Angstroms)
 Number     Number       Type             X           Y           Z
 ---------------------------------------------------------------------
      1          6           0       -2.097410    2.070260    0.014930
      2          6           0       -0.794590    1.294040    0.183820
      3          6           0        0.422860    2.191430   -0.066620
      4          7           0        1.660240    1.447710    0.095380
      5          6           0        2.879400    2.032950   -0.076620
      6          8           0        2.936460    3.215160   -0.375200
      7          7           0        4.014290    1.285050    0.088460
      8          6           0        5.383020    1.710660   -0.046470
      9          6           0        5.786440    3.022360   -0.384560
     10          6           0        6.389090    0.754500    0.173480
     11          6           0        7.741080    1.083450    0.063180
     12          6           0        8.145220    2.387950   -0.273130
     13          6           0        7.142270    3.351470   -0.494980
     14          1           0       -2.959410    1.395810    0.202070
     15          1           0       -2.177000    2.470950   -1.018130
     16          1           0       -2.141430    2.912700    0.737730
     17          1           0       -0.784220    0.446130   -0.535300
     18          1           0       -0.748700    0.887110    1.217510
     19          1           0        0.407440    3.038190    0.654770
     20          1           0        0.371820    2.596340   -1.101550
     21          1           0        1.614450    0.447840    0.347850
     22          1           0        3.873490    0.294140    0.340590
     23          1           0        5.094480    3.822570   -0.571680
     24          1           0        6.125580   -0.263070    0.434760
     25          1           0        8.472410    0.305460    0.243910
     26          6           0        9.609040    2.695020   -0.380230
     27          1           0        7.374900    4.370290   -0.755950
     28          8           0       10.416310    1.800700   -0.171790
     29          6           0       10.174880    4.046840   -0.731770
     30          1           0        9.419410    4.828750   -0.913000
     31          1           0       10.825630    4.395640    0.097440
     32          1           0       10.789930    3.955750   -1.651630
 ---------------------------------------------------------------------
                    Distance matrix (angstroms):
                    1          2          3          4          5
     1  C    0.000000
     2  C    1.525903   0.000000
     3  C    2.524499   1.533041   0.000000
     4  N    3.809721   2.461225   1.452747   0.000000
     5  C    4.977792   3.756597   2.461667   1.363246   0.000000
     6  O    5.177146   4.233667   2.731562   2.230261   1.220666
     7  N    6.162373   4.809834   3.707283   2.359673   1.369153
     8  C    7.489320   6.195924   4.983446   3.734750   2.524459
     9  C    7.951175   6.827891   5.436867   4.442453   3.086202
    10  C    8.589356   7.203920   6.141524   4.780027   3.743649
    11  C    9.887973   8.539120   7.402757   6.091825   4.955505
    12  C   10.251604   9.018073   7.727620   6.563141   5.281430
    13  C    9.342012   8.227243   6.832251   5.833136   4.481694
    14  H    1.110382   2.167288   3.484961   4.621173   5.880078
    15  H    1.110901   2.177351   2.782584   4.124480   5.161925
    16  H    1.110893   2.177350   2.782587   4.124500   5.161963
    17  H    2.159866   1.111842   2.173195   2.715935   4.018768
    18  H    2.159875   1.111851   2.173199   2.715960   4.018810
    19  H    2.760536   2.169961   1.112494   2.100488   2.766952
    20  H    2.760504   2.169948   1.112491   2.100481   2.766920
    21  H    4.064602   2.558600   2.152157   1.032268   2.071919
    22  H    6.237973   4.776541   3.958835   2.507853   2.045908
    23  H    7.425495   6.453324   4.973906   4.228349   2.890399
    24  H    8.557935   7.097627   6.228721   4.793872   4.008853
    25  H   10.718584   9.319774   8.273365   6.908868   5.862484
    26  C   11.729768  10.512679   9.205317   8.060112   6.768942
    27  H    9.777988   8.779923   7.318023   6.474842   5.112159
    28  O   12.518016  11.227976  10.001639   8.767254   7.541088
    29  C   12.452852  11.346607   9.949214   8.940847   7.596644
    30  H   11.878866  10.863838   9.413274   8.523672   7.161547
    31  H   13.130848  12.027340  10.634993   9.627807   8.291874
    32  H   13.130728  12.027247  10.634906   9.627749   8.291821
                    6          7          8          9         10
     6  O    0.000000
     7  N    2.258766   0.000000
     8  C    2.890889   1.439712   0.000000
     9  C    2.856509   2.526363   1.413368   0.000000
    10  C    4.275108   2.434828   1.405275   2.412008   0.000000
    11  C    5.274537   3.732324   2.442512   2.789348   1.395798
    12  C    5.275024   4.290888   2.853041   2.445145   2.439593
    13  C    4.209723   3.794042   2.447117   1.399565   2.785385
    14  H    6.197141   6.975505   8.352068   8.915138   9.370515
    15  H    5.207176   6.400232   7.660030   8.007611   8.817258
    16  H    5.207213   6.400288   7.660106   8.007664   8.817368
    17  H    4.640756   4.911065   6.314494   7.059267   7.214835
    18  H    4.640792   4.911129   6.314576   7.059318   7.214959
    19  H    2.736439   4.050133   5.197160   5.478512   6.420827
    20  H    2.736403   4.050086   5.197090   5.478474   6.420718
    21  H    3.150964   2.554885   3.994036   4.956821   4.787654
    22  H    3.150038   1.032132   2.105950   3.410045   2.562831
    23  H    2.250467   2.835772   2.195282   1.074318   3.412379
    24  H    4.787965   2.640861   2.163004   3.402992   1.083122
    25  H    6.284616   4.567121   3.406353   3.871815   2.132327
    26  C    6.692824   5.788688   4.351966   3.836592   3.800038
    27  H    4.602070   4.639551   3.397732   2.116141   3.861295
    28  O    7.615132   6.428023   5.035655   4.793060   4.175194
    29  C    7.294762   6.800965   5.374876   4.519792   5.098155
    30  H    6.702353   6.540341   5.173568   4.091548   5.192571
    31  H    7.990990   7.488004   6.070571   5.245156   5.739910
    32  H    7.990916   7.487980   6.070555   5.245150   5.739897
                   11         12         13         14         15
    11  C    0.000000
    12  C    1.406469   0.000000
    13  C    2.411230   1.408367   0.000000
    14  H   10.705949  11.158986  10.312828   0.000000
    15  H   10.072869  10.349403   9.375382   1.804710   0.000000
    16  H   10.072992  10.349511   9.375456   1.804710   1.810926
    17  H    8.570011   9.141898   8.442267   2.485369   2.504567
    18  H    8.570145   9.142010   8.442340   2.485384   3.089770
    19  H    7.612704   7.820297   6.839445   3.773331   3.130445
    20  H    7.612583   7.820195   6.839382   3.773300   2.553266
    21  H    6.166087   6.841096   6.300653   4.673339   4.509320
    22  H    3.957047   4.796704   4.553061   6.922528   6.572142
    23  H    3.861388   3.384417   2.102680   8.447070   7.409495
    24  H    2.135656   3.407046   3.868200   9.238131   8.861072
    25  H    1.082948   2.170518   3.404909  11.483776  10.940385
    26  C    2.506600   1.499510   2.555200  12.648832  11.805417
    27  H    3.407107   2.180867   1.077133  10.796448   9.742434
    28  O    2.779661   2.347974   3.637125  13.387068  12.639501
    29  C    3.916249   2.661163   3.120310  13.431664  12.455295
    30  H    4.218648   2.826747   2.746355  12.894326  11.834145
    31  H    4.526171   3.369383   3.874067  14.108056  13.191562
    32  H    4.526165   3.369384   3.874070  14.107936  13.067028
                   16         17         18         19         20
    16  H    0.000000
    17  H    3.089756   0.000000
    18  H    2.504576   1.807780   0.000000
    19  H    2.553305   3.091132   2.506089   0.000000
    20  H    3.130409   2.506087   3.091128   1.811397   0.000000
    21  H    4.509343   2.556086   2.556119   2.874193   2.874185
    22  H    6.572202   4.741787   4.741861   4.431932   4.431883
    23  H    7.409508   6.779438   6.779445   4.907930   4.907945
    24  H    8.861194   7.013510   7.013654   6.606349   6.606226
    25  H   10.940528   9.290434   9.290591   8.525278   8.525136
    26  C   11.805540  10.634914  10.635041   9.265983   9.265866
    27  H    9.742494   9.056432   9.056487   7.232574   7.232528
    28  O   12.639644  11.287997  11.288146  10.118896  10.118759
    29  C   12.455408  11.537139  11.537252   9.916791   9.916687
    30  H   11.834238  11.111439  11.111528   9.320923   9.320842
    31  H   13.067277  12.279561  12.146170  10.521025  10.675074
    32  H   13.191553  12.145969  12.279597  10.675088  10.520817
                   21         22         23         24         25
    21  H    0.000000
    22  H    2.264274   0.000000
    23  H    4.934060   3.843549   0.000000
    24  H    4.567630   2.321909   4.332268   0.000000
    25  H    6.860225   4.599950   4.944255   2.422243   0.000000
    26  C    8.336269   6.259420   4.657174   4.642090   2.718727
    27  H    7.055974   5.484275   2.352502   4.944352   4.327481
    28  O    8.920370   6.733554   5.706991   4.799731   2.487428
    29  C    9.348762   7.412168   5.087867   6.027682   4.224722
    30  H    9.038778   7.272648   4.453529   6.212278   4.763969
    31  H   10.024653   8.075498   5.798466   6.626299   4.721088
    32  H   10.024609   8.075486   5.798464   6.626283   4.721079
                   26         27         28         29         30
    26  C    0.000000
    27  H    2.817637   0.000000
    28  O    1.222678   4.024203   0.000000
    29  C    1.507041   2.818704   2.327447   0.000000
    30  H    2.207398   2.101160   3.272963   1.102253   0.000000
    31  H    2.144847   3.554779   2.640784   1.110282   1.784945
    32  H    2.144854   3.554788   2.640788   1.110282   1.784945
                   31         32
    31  H    0.000000
    32  H    1.803891   0.000000
 Stoichiometry    C12H16N2O2
 Framework group  C1[X(C12H16N2O2)]
 Deg. of freedom    90
 Full point group                 C1      NOp   1
 Largest Abelian subgroup         C1      NOp   1
 Largest concise Abelian subgroup C1      NOp   1
                         Standard orientation:                         
 ---------------------------------------------------------------------
 Center     Atomic      Atomic             Coordinates (Angstroms)
 Number     Number       Type             X           Y           Z
 ---------------------------------------------------------------------
      1          6           0       -6.885983   -0.487829    0.000204
      2          6           0       -5.658861    0.419118    0.000060
      3          6           0       -4.363012   -0.400020    0.000013
      4          7           0       -3.198123    0.468027   -0.000086
      5          6           0       -1.929255   -0.030385   -0.000093
      6          8           0       -1.763736   -1.239777   -0.000040
      7          7           0       -0.866895    0.833312   -0.000138
      8          6           0        0.536375    0.511431   -0.000107
      9          6           0        1.058992   -0.801764   -0.000157
     10          6           0        1.451211    1.578141   -0.000020
     11          6           0        2.828914    1.354120    0.000033
     12          6           0        3.351588    0.048377   -0.000001
     13          6           0        2.440537   -1.025626   -0.000102
     14          1           0       -7.807083    0.132271    0.000244
     15          1           0       -6.890386   -1.131367    0.905709
     16          1           0       -6.890527   -1.131472   -0.905217
     17          1           0       -5.688424    1.065936    0.903911
     18          1           0       -5.688553    1.065835   -0.903869
     19          1           0       -4.338665   -1.045629   -0.905658
     20          1           0       -4.338564   -1.045543    0.905739
     21          1           0       -3.335651    1.491093   -0.000123
     22          1           0       -1.098291    1.839171   -0.000157
     23          1           0        0.442883   -1.681859   -0.000237
     24          1           0        1.095067    2.601037    0.000011
     25          1           0        3.486303    2.214710    0.000113
     26          6           0        4.838737   -0.143764    0.000080
     27          1           0        2.766019   -2.052407   -0.000129
     28          8           0        5.561122    0.842695    0.000166
     29          6           0        5.526921   -1.484501    0.000083
     30          1           0        4.845833   -2.351151    0.000008
     31          1           0        6.169605   -1.563527   -0.901825
     32          1           0        6.169491   -1.563593    0.902067
 ---------------------------------------------------------------------
 Rotational constants (GHZ):      2.4507605      0.1524165      0.1440317
 General basis read from cards:  (6D, 7F)
 There are   336 symmetry adapted cartesian basis functions of A   symmetry.
 There are   336 symmetry adapted basis functions of A   symmetry.
   336 basis functions,   576 primitive gaussians,   336 cartesian basis functions
    59 alpha electrons       59 beta electrons
       nuclear repulsion energy      1004.2179346525 Hartrees.
 NAtoms=   32 NActive=   32 NUniq=   32 SFac= 1.00D+00 NAtFMM=   60 NAOKFM=F Big=F
 Integral buffers will be    131072 words long.
 Raffenetti 2 integral format.
 Two-electron integral symmetry is turned on.
 Force inversion solution in PCM.
 ------------------------------------------------------------------------------
 Polarizable Continuum Model (PCM)
 =================================
 Model                : PCM (using non-symmetric T matrix).
 Atomic radii         : SMD-Coulomb.
 Polarization charges : Total charges.
 Charge compensation  : None.
 Solution method      : Matrix inversion.
 Cavity type          : VdW (van der Waals Surface) (Alpha=1.000).
 Cavity algorithm     : GePol (No added spheres)
                        Default sphere list used, NSphG=   32.
                        Lebedev-Laikov grids with approx.  5.0 points / Ang**2.
                        Smoothing algorithm: York/Karplus (Gamma=1.0000).
                        Polarization charges: spherical gaussians, with
                                              point-specific exponents (IZeta= 3).
                        Self-potential: point-specific (ISelfS= 7).
                        Self-field    : sphere-specific E.n sum rule (ISelfD= 2).
 1st derivatives      : Analytical E(r).r(x)/FMM algorithm (CHGder, D1EAlg=3).
                        Cavity 1st derivative terms included.
 2nd derivatives      : Analytical E(r).r(xy)/FMM algorithm (CHGder, D2EAlg=3).
                        Cavity 2nd derivative terms included.
 Solvent              : Water, Eps=  78.355300 Eps(inf)=   1.777849
 ------------------------------------------------------------------------------
 ------------------------------------------------------------------------------
 Atomic radii for non-electrostatic terms: SMD-CDS.
 ------------------------------------------------------------------------------
 Nuclear repulsion after PCM non-electrostatic terms =     1004.2284853802 Hartrees.
 One-electron integrals computed using PRISM.
 NBasis=   336 RedAO= T EigKep=  1.37D-06  NBF=   336
 NBsUse=   335 1.00D-06 EigRej=  7.89D-07 NBFU=   335
 ExpMin= 4.38D-02 ExpMax= 5.48D+03 ExpMxC= 8.25D+02 IAcc=3 IRadAn=         5 AccDes= 0.00D+00
 Harris functional with IExCor= 1009 and IRadAn=       5 diagonalized for initial guess.
 HarFok:  IExCor= 1009 AccDes= 0.00D+00 IRadAn=         5 IDoV= 1 UseB2=F ITyADJ=14
 ICtDFT=  3500011 ScaDFX=  1.000000  1.000000  1.000000  1.000000
 FoFCou: FMM=F IPFlag=           0 FMFlag=      100000 FMFlg1=           0
         NFxFlg=           0 DoJE=T BraDBF=F KetDBF=T FulRan=T
         wScrn=  0.000000 ICntrl=     500 IOpCl=  0 I1Cent=   200000004 NGrid=           0
         NMat0=    1 NMatS0=      1 NMatT0=    0 NMatD0=    1 NMtDS0=    0 NMtDT0=    0
 Petite list used in FoFCou.
 Requested convergence on RMS density matrix=1.00D-08 within 128 cycles.
 Requested convergence on MAX density matrix=1.00D-06.
 Requested convergence on             energy=1.00D-06.
 No special actions if energy rises.
 Inv3:  Mode=1 IEnd=    17627328.
 Iteration    1 A*A^-1 deviation from unit magnitude is 5.77D-15 for   2424.
 Iteration    1 A*A^-1 deviation from orthogonality  is 2.04D-15 for   2167    114.
 Iteration    1 A^-1*A deviation from unit magnitude is 6.00D-15 for   2424.
 Iteration    1 A^-1*A deviation from orthogonality  is 2.10D-11 for   2192   2180.
 Error on total polarization charges =  0.06857
 SCF Done:  E(RM062X) =  -726.620243363     A.U. after   15 cycles
            NFock= 15  Conv=0.42D-08     -V/T= 2.0093
 SMD-CDS (non-electrostatic) energy       (kcal/mol) =       6.62
 (included in total energy above)
 DoSCS=F DFT=T ScalE2(SS,OS)=  1.000000  1.000000
 Range of M.O.s used for correlation:     1   335
 NBasis=   336 NAE=    59 NBE=    59 NFC=     0 NFV=     0
 NROrb=    335 NOA=    59 NOB=    59 NVA=   276 NVB=   276

 **** Warning!!: The largest alpha MO coefficient is  0.17995848D+03

 Symmetrizing basis deriv contribution to polar:
 IMax=3 JMax=2 DiffMx= 0.00D+00
 G2DrvN: will do    33 centers at a time, making    1 passes.
 Calling FoFCou, ICntrl=  3107 FMM=F I1Cent=   0 AccDes= 0.00D+00.
 NEqPCM:  Using equilibrium solvation (IEInf=0, Eps=  78.3553, EpsInf=   1.7778)
 G2PCM: DoFxE=T DoFxN=T DoGrad=T DoDP/DQ/DG/TGxP=FFFF NFrqRd=   0 IEInf=0 SqF1=F DoCFld=F IF1Alg=4.
 End of G2Drv F.D. properties file   721 does not exist.
 End of G2Drv F.D. properties file   722 does not exist.
 End of G2Drv F.D. properties file   788 does not exist.
          IDoAtm=11111111111111111111111111111111
 NEqPCM:  Using equilibrium solvation (IEInf=0, Eps=  78.3553, EpsInf=   1.7778)
          Differentiating once with respect to nuclear coordinates.
          There are    99 degrees of freedom in the 1st order CPHF.  IDoFFX=6 NUNeed=     0.
     93 vectors produced by pass  0 Test12= 1.64D-14 1.01D-09 XBig12= 2.49D-01 1.46D-01.
 AX will form    93 AO Fock derivatives at one time.
     93 vectors produced by pass  1 Test12= 1.64D-14 1.01D-09 XBig12= 2.18D-02 3.95D-02.
     93 vectors produced by pass  2 Test12= 1.64D-14 1.01D-09 XBig12= 5.10D-04 3.94D-03.
     93 vectors produced by pass  3 Test12= 1.64D-14 1.01D-09 XBig12= 3.24D-06 2.78D-04.
     93 vectors produced by pass  4 Test12= 1.64D-14 1.01D-09 XBig12= 1.49D-08 1.18D-05.
     93 vectors produced by pass  5 Test12= 1.64D-14 1.01D-09 XBig12= 5.92D-11 7.09D-07.
     69 vectors produced by pass  6 Test12= 1.64D-14 1.01D-09 XBig12= 1.88D-13 3.44D-08.
     17 vectors produced by pass  7 Test12= 1.64D-14 1.01D-09 XBig12= 1.14D-15 3.29D-09.
      9 vectors produced by pass  8 Test12= 1.64D-14 1.01D-09 XBig12= 7.77D-16 4.52D-09.
      9 vectors produced by pass  9 Test12= 1.64D-14 1.01D-09 XBig12= 7.02D-15 1.12D-08.
      9 vectors produced by pass 10 Test12= 1.64D-14 1.01D-09 XBig12= 4.78D-15 6.57D-09.
      6 vectors produced by pass 11 Test12= 1.64D-14 1.01D-09 XBig12= 4.27D-15 5.64D-09.
      4 vectors produced by pass 12 Test12= 1.64D-14 1.01D-09 XBig12= 3.21D-15 6.16D-09.
      4 vectors produced by pass 13 Test12= 1.64D-14 1.01D-09 XBig12= 4.18D-15 6.53D-09.
      2 vectors produced by pass 14 Test12= 1.64D-14 1.01D-09 XBig12= 2.78D-15 4.55D-09.
 InvSVY:  IOpt=1 It=  1 EMax= 6.66D-16
 Solved reduced A of dimension   687 with    99 vectors.
 End of Minotr F.D. properties file   721 does not exist.
 End of Minotr F.D. properties file   722 does not exist.
 End of Minotr F.D. properties file   788 does not exist.

 **********************************************************************

            Population analysis using the SCF density.

 **********************************************************************

 Orbital symmetries:
       Occupied  (A) (A) (A) (A) (A) (A) (A) (A) (A) (A) (A) (A)
                 (A) (A) (A) (A) (A) (A) (A) (A) (A) (A) (A) (A)
                 (A) (A) (A) (A) (A) (A) (A) (A) (A) (A) (A) (A)
                 (A) (A) (A) (A) (A) (A) (A) (A) (A) (A) (A) (A)
                 (A) (A) (A) (A) (A) (A) (A) (A) (A) (A) (A)
       Virtual   (A) (A) (A) (A) (A) (A) (A) (A) (A) (A) (A) (A)
                 (A) (A) (A) (A) (A) (A) (A) (A) (A) (A) (A) (A)
                 (A) (A) (A) (A) (A) (A) (A) (A) (A) (A) (A) (A)
                 (A) (A) (A) (A) (A) (A) (A) (A) (A) (A) (A) (A)
                 (A) (A) (A) (A) (A) (A) (A) (A) (A) (A) (A) (A)
                 (A) (A) (A) (A) (A) (A) (A) (A) (A) (A) (A) (A)
                 (A) (A) (A) (A) (A) (A) (A) (A) (A) (A) (A) (A)
                 (A) (A) (A) (A) (A) (A) (A) (A) (A) (A) (A) (A)
                 (A) (A) (A) (A) (A) (A) (A) (A) (A) (A) (A) (A)
                 (A) (A) (A) (A) (A) (A) (A) (A) (A) (A) (A) (A)
                 (A) (A) (A) (A) (A) (A) (A) (A) (A) (A) (A) (A)
                 (A) (A) (A) (A) (A) (A) (A) (A) (A) (A) (A) (A)
                 (A) (A) (A) (A) (A) (A) (A) (A) (A) (A) (A) (A)
                 (A) (A) (A) (A) (A) (A) (A) (A) (A) (A) (A) (A)
                 (A) (A) (A) (A) (A) (A) (A) (A) (A) (A) (A) (A)
                 (A) (A) (A) (A) (A) (A) (A) (A) (A) (A) (A) (A)
                 (A) (A) (A) (A) (A) (A) (A) (A) (A) (A) (A) (A)
                 (A) (A) (A) (A) (A) (A) (A) (A) (A) (A) (A) (A)
                 (A) (A) (A) (A) (A) (A) (A) (A) (A) (A) (A) (A)
                 (A) (A) (A) (A) (A) (A) (A) (A) (A) (A) (A) (A)
                 (A) (A) (A) (A) (A) (A) (A) (A) (A) (A) (A) (A)
                 (A) (A) (A) (A) (A) (A) (A) (A) (A) (A) (A) (A)
                 (A) (A) (A) (A) (A) (A) (A) (A) (A) (A) (A) (A)
 The electronic state is 1-A.
 Alpha  occ. eigenvalues --  -19.64529 -19.61800 -14.80904 -14.78622 -10.69091
 Alpha  occ. eigenvalues --  -10.65436 -10.62535 -10.58085 -10.56907 -10.56853
 Alpha  occ. eigenvalues --  -10.56780 -10.56362 -10.55948 -10.54567 -10.54554
 Alpha  occ. eigenvalues --  -10.53453  -1.19103  -1.17709  -1.05393  -1.02539
 Alpha  occ. eigenvalues --   -0.96323  -0.88128  -0.86399  -0.85300  -0.82517
 Alpha  occ. eigenvalues --   -0.77556  -0.72666  -0.70950  -0.67563  -0.66712
 Alpha  occ. eigenvalues --   -0.64006  -0.63031  -0.61051  -0.56886  -0.55715
 Alpha  occ. eigenvalues --   -0.54216  -0.53549  -0.52266  -0.51987  -0.51692
 Alpha  occ. eigenvalues --   -0.51185  -0.49744  -0.48721  -0.46724  -0.46144
 Alpha  occ. eigenvalues --   -0.46130  -0.44823  -0.43842  -0.42722  -0.41689
 Alpha  occ. eigenvalues --   -0.41286  -0.39456  -0.39212  -0.37840  -0.35626
 Alpha  occ. eigenvalues --   -0.33662  -0.32398  -0.31724  -0.28058
 Alpha virt. eigenvalues --   -0.03290   0.01111   0.01664   0.02805   0.03624
 Alpha virt. eigenvalues --    0.04063   0.04356   0.04367   0.05183   0.05561
 Alpha virt. eigenvalues --    0.06073   0.06077   0.06295   0.07132   0.07695
 Alpha virt. eigenvalues --    0.07762   0.08093   0.08824   0.09017   0.09879
 Alpha virt. eigenvalues --    0.09925   0.10271   0.10508   0.10947   0.11657
 Alpha virt. eigenvalues --    0.12019   0.12728   0.13190   0.13740   0.14953
 Alpha virt. eigenvalues --    0.15033   0.15138   0.16068   0.16323   0.16532
 Alpha virt. eigenvalues --    0.17280   0.17634   0.18440   0.18659   0.19362
 Alpha virt. eigenvalues --    0.19910   0.20606   0.21122   0.21193   0.21832
 Alpha virt. eigenvalues --    0.22336   0.22689   0.23559   0.23969   0.24138
 Alpha virt. eigenvalues --    0.24192   0.24444   0.25285   0.25371   0.25720
 Alpha virt. eigenvalues --    0.26085   0.26163   0.26558   0.26698   0.28266
 Alpha virt. eigenvalues --    0.28428   0.28884   0.29428   0.29602   0.29898
 Alpha virt. eigenvalues --    0.30266   0.30456   0.31320   0.31634   0.32037
 Alpha virt. eigenvalues --    0.32274   0.32721   0.32904   0.33062   0.33279
 Alpha virt. eigenvalues --    0.34257   0.34772   0.35281   0.35612   0.36607
 Alpha virt. eigenvalues --    0.37521   0.38091   0.38767   0.39507   0.40127
 Alpha virt. eigenvalues --    0.40564   0.41400   0.43177   0.43789   0.45768
 Alpha virt. eigenvalues --    0.46358   0.47201   0.48230   0.51157   0.52943
 Alpha virt. eigenvalues --    0.54483   0.57832   0.59832   0.63097   0.67915
 Alpha virt. eigenvalues --    0.69702   0.69994   0.70153   0.72419   0.73138
 Alpha virt. eigenvalues --    0.73874   0.75143   0.75342   0.75572   0.76615
 Alpha virt. eigenvalues --    0.76877   0.77346   0.78845   0.79072   0.79836
 Alpha virt. eigenvalues --    0.80459   0.81268   0.82483   0.83628   0.83731
 Alpha virt. eigenvalues --    0.85012   0.85604   0.87445   0.87837   0.89471
 Alpha virt. eigenvalues --    0.89819   0.92521   0.94748   0.97404   0.98338
 Alpha virt. eigenvalues --    1.00547   1.00928   1.01367   1.02292   1.03075
 Alpha virt. eigenvalues --    1.04270   1.05102   1.05331   1.05544   1.07739
 Alpha virt. eigenvalues --    1.10250   1.10823   1.11432   1.12303   1.12518
 Alpha virt. eigenvalues --    1.13794   1.14790   1.15726   1.16452   1.17455
 Alpha virt. eigenvalues --    1.18148   1.18935   1.19855   1.22200   1.22842
 Alpha virt. eigenvalues --    1.25257   1.27941   1.30111   1.31127   1.31681
 Alpha virt. eigenvalues --    1.32155   1.32901   1.34068   1.35766   1.36294
 Alpha virt. eigenvalues --    1.38221   1.38504   1.39583   1.41886   1.42860
 Alpha virt. eigenvalues --    1.43501   1.45528   1.46036   1.46185   1.48277
 Alpha virt. eigenvalues --    1.49837   1.50017   1.50089   1.50734   1.53641
 Alpha virt. eigenvalues --    1.55469   1.55711   1.57332   1.57492   1.60808
 Alpha virt. eigenvalues --    1.64785   1.69592   1.76517   1.78455   1.78786
 Alpha virt. eigenvalues --    1.80553   1.83211   1.84729   1.85840   1.86400
 Alpha virt. eigenvalues --    1.87428   1.88194   1.88951   1.91490   1.92698
 Alpha virt. eigenvalues --    1.93651   1.96165   1.98152   1.98838   2.02550
 Alpha virt. eigenvalues --    2.02853   2.03520   2.05155   2.06107   2.06580
 Alpha virt. eigenvalues --    2.08582   2.11002   2.13100   2.13461   2.14420
 Alpha virt. eigenvalues --    2.16940   2.17975   2.20280   2.20558   2.22123
 Alpha virt. eigenvalues --    2.24241   2.26917   2.28478   2.30177   2.32835
 Alpha virt. eigenvalues --    2.32975   2.36157   2.36778   2.37087   2.38517
 Alpha virt. eigenvalues --    2.40506   2.42075   2.42411   2.45871   2.46933
 Alpha virt. eigenvalues --    2.51183   2.55823   2.56522   2.62090   2.64011
 Alpha virt. eigenvalues --    2.66109   2.66570   2.68504   2.72605   2.73308
 Alpha virt. eigenvalues --    2.74194   2.77056   2.78858   2.81811   2.84916
 Alpha virt. eigenvalues --    2.88406   2.95360   2.98411   3.03774   3.10945
 Alpha virt. eigenvalues --    3.14531   3.21786   3.26788   3.33623   3.43254
 Alpha virt. eigenvalues --    4.15129   4.23338   4.26272   4.27899   4.28663
 Alpha virt. eigenvalues --    4.33890   4.35803   4.41857   4.42741   4.44430
 Alpha virt. eigenvalues --    4.48830   4.50568   4.58760   4.62106   4.69079
 Alpha virt. eigenvalues --    4.79354
          Condensed to atoms (all electrons):
               1          2          3          4          5          6
     1  C    5.642169  -0.052075   0.019581  -0.003611  -0.036223  -0.003909
     2  C   -0.052075   6.125802  -0.332024  -0.080852   0.108691   0.017110
     3  C    0.019581  -0.332024   6.675822   0.255154  -0.466403  -0.091378
     4  N   -0.003611  -0.080852   0.255154   7.551272   0.470689  -0.208825
     5  C   -0.036223   0.108691  -0.466403   0.470689   6.086985   0.572577
     6  O   -0.003909   0.017110  -0.091378  -0.208825   0.572577   8.534500
     7  N   -0.002466   0.008932  -0.083048  -0.308571   0.197602  -0.109066
     8  C   -0.007370   0.013548  -0.330768  -0.127433  -1.011905  -0.324915
     9  C   -0.000808  -0.005180  -0.032932   0.031672   0.643137   0.369919
    10  C   -0.000703   0.004807  -0.048594  -0.074391  -1.140934  -0.113151
    11  C    0.000141   0.000997   0.013290   0.009621   0.161470   0.004129
    12  C   -0.000162   0.000683  -0.020095  -0.002516  -0.204563   0.020379
    13  C   -0.000084  -0.000252  -0.020432   0.003767  -0.106550   0.070920
    14  H    0.413709  -0.088149   0.027454   0.000440  -0.002400   0.000007
    15  H    0.416452  -0.063382  -0.008981   0.000511  -0.000554  -0.000051
    16  H    0.416444  -0.063380  -0.008976   0.000511  -0.000553  -0.000051
    17  H   -0.035367   0.427170  -0.074683   0.006081  -0.007166  -0.000180
    18  H   -0.035359   0.427160  -0.074670   0.006081  -0.007177  -0.000180
    19  H    0.003126  -0.043476   0.428893  -0.054319  -0.025661   0.004039
    20  H    0.003143  -0.043501   0.428993  -0.054326  -0.025732   0.004040
    21  H   -0.003783   0.000425  -0.062583   0.249111   0.017507   0.009081
    22  H   -0.000105   0.000526  -0.005090   0.012532  -0.040321   0.007531
    23  H   -0.000001   0.000128   0.001232  -0.000510  -0.009536  -0.002266
    24  H   -0.000002   0.000019  -0.000676   0.000437  -0.014176   0.000002
    25  H    0.000000  -0.000000   0.000029   0.000014   0.003882   0.000000
    26  C   -0.000012   0.000070  -0.003622  -0.000810  -0.124121   0.002162
    27  H   -0.000000   0.000002  -0.000056   0.000004  -0.003475   0.000217
    28  O   -0.000000   0.000000  -0.000002  -0.000000  -0.000150   0.000003
    29  C    0.000000   0.000004   0.000047   0.000036   0.000841  -0.000059
    30  H   -0.000000   0.000000  -0.000002  -0.000000  -0.000426   0.000002
    31  H    0.000000  -0.000000   0.000000   0.000000   0.000032  -0.000000
    32  H    0.000000  -0.000000   0.000000   0.000000   0.000032  -0.000000
               7          8          9         10         11         12
     1  C   -0.002466  -0.007370  -0.000808  -0.000703   0.000141  -0.000162
     2  C    0.008932   0.013548  -0.005180   0.004807   0.000997   0.000683
     3  C   -0.083048  -0.330768  -0.032932  -0.048594   0.013290  -0.020095
     4  N   -0.308571  -0.127433   0.031672  -0.074391   0.009621  -0.002516
     5  C    0.197602  -1.011905   0.643137  -1.140934   0.161470  -0.204563
     6  O   -0.109066  -0.324915   0.369919  -0.113151   0.004129   0.020379
     7  N    7.702992   0.008578  -0.434180   0.350982   0.093202  -0.006636
     8  C    0.008578  11.276757  -1.594828   1.072948  -0.229547  -1.166864
     9  C   -0.434180  -1.594828  10.654535  -5.188437   0.435827  -0.339118
    10  C    0.350982   1.072948  -5.188437  13.779360  -2.568647   0.179891
    11  C    0.093202  -0.229547   0.435827  -2.568647  10.516224   0.317502
    12  C   -0.006636  -1.166864  -0.339118   0.179891   0.317502  10.407399
    13  C    0.008622  -1.434185   1.025960   0.764244  -2.948903  -0.520662
    14  H    0.000006  -0.000042   0.000001  -0.000002  -0.000000  -0.000000
    15  H    0.000018  -0.000020  -0.000027   0.000002   0.000000  -0.000000
    16  H    0.000018  -0.000020  -0.000027   0.000002   0.000000  -0.000000
    17  H    0.000034  -0.000776  -0.000157   0.000109   0.000004  -0.000003
    18  H    0.000035  -0.000776  -0.000156   0.000109   0.000004  -0.000003
    19  H   -0.000566  -0.004229   0.002486  -0.000737  -0.000042   0.000007
    20  H   -0.000565  -0.004249   0.002489  -0.000739  -0.000042   0.000007
    21  H    0.018085   0.017877   0.000983  -0.000755  -0.000467   0.000172
    22  H    0.240294   0.023752   0.028367  -0.059859   0.026768   0.001630
    23  H   -0.014052   0.096472   0.253136   0.061816  -0.023748   0.001087
    24  H   -0.011492   0.053989   0.042670   0.250831  -0.026395   0.003219
    25  H    0.000640   0.043022   0.007501  -0.048333   0.341642   0.026875
    26  C   -0.011595  -0.412370  -0.407218   0.415352  -0.862054  -2.876145
    27  H   -0.000776  -0.005091  -0.088700  -0.027425   0.071492   0.068130
    28  O   -0.000073   0.017598  -0.018420   0.043512   0.191898  -0.223869
    29  C    0.000337  -0.034025  -0.042856   0.015021  -0.027463  -0.406273
    30  H   -0.000018  -0.003315   0.003573   0.004738  -0.020829   0.014970
    31  H    0.000001   0.001067   0.001177  -0.001778   0.006645   0.025673
    32  H    0.000001   0.001067   0.001176  -0.001777   0.006641   0.025658
              13         14         15         16         17         18
     1  C   -0.000084   0.413709   0.416452   0.416444  -0.035367  -0.035359
     2  C   -0.000252  -0.088149  -0.063382  -0.063380   0.427170   0.427160
     3  C   -0.020432   0.027454  -0.008981  -0.008976  -0.074683  -0.074670
     4  N    0.003767   0.000440   0.000511   0.000511   0.006081   0.006081
     5  C   -0.106550  -0.002400  -0.000554  -0.000553  -0.007166  -0.007177
     6  O    0.070920   0.000007  -0.000051  -0.000051  -0.000180  -0.000180
     7  N    0.008622   0.000006   0.000018   0.000018   0.000034   0.000035
     8  C   -1.434185  -0.000042  -0.000020  -0.000020  -0.000776  -0.000776
     9  C    1.025960   0.000001  -0.000027  -0.000027  -0.000157  -0.000156
    10  C    0.764244  -0.000002   0.000002   0.000002   0.000109   0.000109
    11  C   -2.948903  -0.000000   0.000000   0.000000   0.000004   0.000004
    12  C   -0.520662  -0.000000  -0.000000  -0.000000  -0.000003  -0.000003
    13  C    8.546339  -0.000000  -0.000001  -0.000001  -0.000006  -0.000006
    14  H   -0.000000   0.480955  -0.023794  -0.023793  -0.002991  -0.002991
    15  H   -0.000001  -0.023794   0.486810  -0.028326  -0.004553   0.003764
    16  H   -0.000001  -0.023793  -0.028326   0.486807   0.003764  -0.004553
    17  H   -0.000006  -0.002991  -0.004553   0.003764   0.489252  -0.030607
    18  H   -0.000006  -0.002991   0.003764  -0.004553  -0.030607   0.489254
    19  H    0.000181  -0.000055  -0.000332   0.002606   0.003659  -0.005318
    20  H    0.000181  -0.000055   0.002606  -0.000332  -0.005318   0.003659
    21  H    0.000008  -0.000003   0.000000   0.000000   0.000591   0.000591
    22  H   -0.002422  -0.000000  -0.000000  -0.000000   0.000001   0.000001
    23  H   -0.067292  -0.000000   0.000000   0.000000  -0.000000  -0.000000
    24  H   -0.003894  -0.000000   0.000000   0.000000  -0.000000  -0.000000
    25  H   -0.006149  -0.000000   0.000000   0.000000   0.000000   0.000000
    26  C    1.667225  -0.000000  -0.000000  -0.000000  -0.000000  -0.000000
    27  H    0.275572  -0.000000   0.000000   0.000000   0.000000   0.000000
    28  O   -0.133400  -0.000000  -0.000000  -0.000000  -0.000000  -0.000000
    29  C   -0.103104  -0.000000   0.000000   0.000000   0.000000   0.000000
    30  H    0.018185   0.000000   0.000000   0.000000  -0.000000  -0.000000
    31  H   -0.015116   0.000000   0.000000   0.000000  -0.000000   0.000000
    32  H   -0.015109   0.000000   0.000000   0.000000   0.000000  -0.000000
              19         20         21         22         23         24
     1  C    0.003126   0.003143  -0.003783  -0.000105  -0.000001  -0.000002
     2  C   -0.043476  -0.043501   0.000425   0.000526   0.000128   0.000019
     3  C    0.428893   0.428993  -0.062583  -0.005090   0.001232  -0.000676
     4  N   -0.054319  -0.054326   0.249111   0.012532  -0.000510   0.000437
     5  C   -0.025661  -0.025732   0.017507  -0.040321  -0.009536  -0.014176
     6  O    0.004039   0.004040   0.009081   0.007531  -0.002266   0.000002
     7  N   -0.000566  -0.000565   0.018085   0.240294  -0.014052  -0.011492
     8  C   -0.004229  -0.004249   0.017877   0.023752   0.096472   0.053989
     9  C    0.002486   0.002489   0.000983   0.028367   0.253136   0.042670
    10  C   -0.000737  -0.000739  -0.000755  -0.059859   0.061816   0.250831
    11  C   -0.000042  -0.000042  -0.000467   0.026768  -0.023748  -0.026395
    12  C    0.000007   0.000007   0.000172   0.001630   0.001087   0.003219
    13  C    0.000181   0.000181   0.000008  -0.002422  -0.067292  -0.003894
    14  H   -0.000055  -0.000055  -0.000003  -0.000000  -0.000000  -0.000000
    15  H   -0.000332   0.002606   0.000000  -0.000000   0.000000   0.000000
    16  H    0.002606  -0.000332   0.000000  -0.000000   0.000000   0.000000
    17  H    0.003659  -0.005318   0.000591   0.000001  -0.000000  -0.000000
    18  H   -0.005318   0.003659   0.000591   0.000001  -0.000000  -0.000000
    19  H    0.494474  -0.038444   0.002056   0.000005  -0.000000   0.000000
    20  H   -0.038444   0.494475   0.002056   0.000005  -0.000000   0.000000
    21  H    0.002056   0.002056   0.266274   0.001978   0.000001   0.000004
    22  H    0.000005   0.000005   0.001978   0.257479  -0.000121   0.004708
    23  H   -0.000000  -0.000000   0.000001  -0.000121   0.429752  -0.000092
    24  H    0.000000   0.000000   0.000004   0.004708  -0.000092   0.437945
    25  H   -0.000000  -0.000000  -0.000000  -0.000010   0.000011  -0.003439
    26  C    0.000000   0.000000   0.000008   0.001377   0.005578   0.006665
    27  H   -0.000000  -0.000000   0.000000   0.000002  -0.004215   0.000013
    28  O   -0.000000  -0.000000   0.000000   0.000001   0.000034   0.000177
    29  C   -0.000000  -0.000000  -0.000000   0.000006  -0.000281   0.000247
    30  H    0.000000   0.000000  -0.000000  -0.000000  -0.000004  -0.000000
    31  H   -0.000000   0.000000  -0.000000   0.000000  -0.000000  -0.000000
    32  H    0.000000  -0.000000  -0.000000   0.000000  -0.000000  -0.000000
              25         26         27         28         29         30
     1  C    0.000000  -0.000012  -0.000000  -0.000000   0.000000  -0.000000
     2  C   -0.000000   0.000070   0.000002   0.000000   0.000004   0.000000
     3  C    0.000029  -0.003622  -0.000056  -0.000002   0.000047  -0.000002
     4  N    0.000014  -0.000810   0.000004  -0.000000   0.000036  -0.000000
     5  C    0.003882  -0.124121  -0.003475  -0.000150   0.000841  -0.000426
     6  O    0.000000   0.002162   0.000217   0.000003  -0.000059   0.000002
     7  N    0.000640  -0.011595  -0.000776  -0.000073   0.000337  -0.000018
     8  C    0.043022  -0.412370  -0.005091   0.017598  -0.034025  -0.003315
     9  C    0.007501  -0.407218  -0.088700  -0.018420  -0.042856   0.003573
    10  C   -0.048333   0.415352  -0.027425   0.043512   0.015021   0.004738
    11  C    0.341642  -0.862054   0.071492   0.191898  -0.027463  -0.020829
    12  C    0.026875  -2.876145   0.068130  -0.223869  -0.406273   0.014970
    13  C   -0.006149   1.667225   0.275572  -0.133400  -0.103104   0.018185
    14  H   -0.000000  -0.000000  -0.000000  -0.000000  -0.000000   0.000000
    15  H    0.000000  -0.000000   0.000000  -0.000000   0.000000   0.000000
    16  H    0.000000  -0.000000   0.000000  -0.000000   0.000000   0.000000
    17  H    0.000000  -0.000000   0.000000  -0.000000   0.000000  -0.000000
    18  H    0.000000  -0.000000   0.000000  -0.000000   0.000000  -0.000000
    19  H   -0.000000   0.000000  -0.000000  -0.000000  -0.000000   0.000000
    20  H   -0.000000   0.000000  -0.000000  -0.000000  -0.000000   0.000000
    21  H   -0.000000   0.000008   0.000000   0.000000  -0.000000  -0.000000
    22  H   -0.000010   0.001377   0.000002   0.000001   0.000006  -0.000000
    23  H    0.000011   0.005578  -0.004215   0.000034  -0.000281  -0.000004
    24  H   -0.003439   0.006665   0.000013   0.000177   0.000247  -0.000000
    25  H    0.432295  -0.071272  -0.000099   0.008034   0.000219   0.000003
    26  C   -0.071272   8.579967   0.018820   0.334926  -0.077591  -0.120432
    27  H   -0.000099   0.018820   0.441503   0.000110  -0.005457   0.002703
    28  O    0.008034   0.334926   0.000110   8.423348  -0.109732   0.010057
    29  C    0.000219  -0.077591  -0.005457  -0.109732   6.320847   0.434459
    30  H    0.000003  -0.120432   0.002703   0.010057   0.434459   0.460087
    31  H   -0.000004  -0.069050  -0.000042  -0.005391   0.399702  -0.022836
    32  H   -0.000004  -0.069040  -0.000042  -0.005391   0.399705  -0.022836
              31         32
     1  C    0.000000   0.000000
     2  C   -0.000000  -0.000000
     3  C    0.000000   0.000000
     4  N    0.000000   0.000000
     5  C    0.000032   0.000032
     6  O   -0.000000  -0.000000
     7  N    0.000001   0.000001
     8  C    0.001067   0.001067
     9  C    0.001177   0.001176
    10  C   -0.001778  -0.001777
    11  C    0.006645   0.006641
    12  C    0.025673   0.025658
    13  C   -0.015116  -0.015109
    14  H    0.000000   0.000000
    15  H    0.000000   0.000000
    16  H    0.000000   0.000000
    17  H   -0.000000   0.000000
    18  H    0.000000  -0.000000
    19  H   -0.000000   0.000000
    20  H    0.000000  -0.000000
    21  H   -0.000000  -0.000000
    22  H    0.000000   0.000000
    23  H   -0.000000  -0.000000
    24  H   -0.000000  -0.000000
    25  H   -0.000004  -0.000004
    26  C   -0.069050  -0.069040
    27  H   -0.000042  -0.000042
    28  O   -0.005391  -0.005391
    29  C    0.399702   0.399705
    30  H   -0.022836  -0.022836
    31  H    0.427652  -0.018424
    32  H   -0.018424   0.427650
 Mulliken charges:
               1
     1  C   -0.732725
     2  C   -0.363802
     3  C   -0.185480
     4  N   -0.681770
     5  C    0.964581
     6  O   -0.762587
     7  N   -0.647274
     8  C    0.066055
     9  C    0.648431
    10  C   -1.667465
    11  C    0.510639
    12  C    0.673627
    13  C   -1.003635
    14  H    0.221705
    15  H    0.219855
    16  H    0.219857
    17  H    0.231142
    18  H    0.231140
    19  H    0.231648
    20  H    0.231648
    21  H    0.480783
    22  H    0.500967
    23  H    0.272872
    24  H    0.259238
    25  H    0.265144
    26  C    0.073184
    27  H    0.256811
    28  O   -0.533270
    29  C   -0.764630
    30  H    0.241924
    31  H    0.270693
    32  H    0.270694
 Sum of Mulliken charges =  -0.00000
 Mulliken charges with hydrogens summed into heavy atoms:
               1
     1  C   -0.071308
     2  C    0.098480
     3  C    0.277816
     4  N   -0.200987
     5  C    0.964581
     6  O   -0.762587
     7  N   -0.146307
     8  C    0.066055
     9  C    0.921303
    10  C   -1.408227
    11  C    0.775783
    12  C    0.673627
    13  C   -0.746824
    26  C    0.073184
    28  O   -0.533270
    29  C    0.018681
 APT charges:
               1
     1  C   -2.660912
     2  C   -0.579118
     3  C   -0.452230
     4  N   -0.215316
     5  C    0.701442
     6  O   -0.718267
     7  N   -0.849292
     8  C   -1.353245
     9  C    0.059511
    10  C   -1.053771
    11  C   -0.154977
    12  C    0.903079
    13  C   -1.141412
    14  H    1.087120
    15  H    0.399552
    16  H    0.399626
    17  H    0.470032
    18  H    0.470090
    19  H    0.416284
    20  H    0.416234
    21  H    0.746491
    22  H    0.757958
    23  H    0.443652
    24  H    0.574103
    25  H    0.855741
    26  C    0.123613
    27  H    0.649687
    28  O   -0.110854
    29  C   -2.125746
    30  H    0.141730
    31  H    0.899620
    32  H    0.899577
 Sum of APT charges =  -0.00000
 APT charges with hydrogens summed into heavy atoms:
               1
     1  C   -0.774614
     2  C    0.361004
     3  C    0.380287
     4  N    0.531175
     5  C    0.701442
     6  O   -0.718267
     7  N   -0.091334
     8  C   -1.353245
     9  C    0.503163
    10  C   -0.479668
    11  C    0.700763
    12  C    0.903079
    13  C   -0.491725
    26  C    0.123613
    28  O   -0.110854
    29  C   -0.184819
 Electronic spatial extent (au):  <R**2>=           7273.8782
 Charge=             -0.0000 electrons
 Dipole moment (field-independent basis, Debye):
    X=             -6.4472    Y=              3.0144    Z=             -0.0004  Tot=              7.1171
 Quadrupole moment (field-independent basis, Debye-Ang):
   XX=           -101.0755   YY=            -87.4284   ZZ=            -99.5137
   XY=            -30.6914   XZ=             -0.0012   YZ=             -0.0004
 Traceless Quadrupole moment (field-independent basis, Debye-Ang):
   XX=             -5.0697   YY=              8.5775   ZZ=             -3.5078
   XY=            -30.6914   XZ=             -0.0012   YZ=             -0.0004
 Octapole moment (field-independent basis, Debye-Ang**2):
  XXX=           -270.1292  YYY=             25.3539  ZZZ=              0.0018  XYY=              6.0951
  XXY=            -76.8266  XXZ=             -0.0089  XZZ=             -3.7762  YZZ=             -2.7024
  YYZ=             -0.0015  XYZ=             -0.0015
 Hexadecapole moment (field-independent basis, Debye-Ang**3):
 XXXX=          -9665.7946 YYYY=           -597.2315 ZZZZ=           -137.4768 XXXY=           -728.0420
 XXXZ=             -0.0504 YYYX=            -59.5789 YYYZ=              0.0009 ZZZX=              0.0057
 ZZZY=             -0.0010 XXYY=          -1591.1247 XXZZ=          -1513.5374 YYZZ=           -140.1433
 XXYZ=             -0.0120 YYXZ=              0.0042 ZZXY=             -2.3042
 N-N= 1.004228485380D+03 E-N=-3.697689000231D+03  KE= 7.199329859326D+02
  Exact polarizability:   0.000   0.000   0.000   0.000   0.000   0.000
 Approx polarizability: 250.864   0.524 202.504   0.004   0.002 129.003
 D2PCM: PCM CHGder 2nd derivatives, FixD1E=F FixD2E=F DoIter=F DoCFld=F I1PDM=0
 Calling FoFJK, ICntrl=    100147 FMM=F ISym2X=0 I1Cent= 0 IOpClX= 0 NMat=1 NMatS=1 NMatT=0.
 ***** Axes restored to original set *****
 -------------------------------------------------------------------
 Center     Atomic                   Forces (Hartrees/Bohr)
 Number     Number              X              Y              Z
 -------------------------------------------------------------------
      1        6          -0.004812728    0.002047015   -0.000421763
      2        6           0.004086111   -0.005545138    0.001317618
      3        6          -0.005669507    0.006938245   -0.001630599
      4        7           0.016520408   -0.029617463    0.007116694
      5        6          -0.015077248   -0.006130185    0.001845802
      6        8           0.003100837    0.034894222   -0.008841188
      7        7           0.021103802   -0.019657063    0.004517037
      8        6          -0.018664954    0.004043869   -0.000636712
      9        6           0.005944509   -0.001645581    0.000292655
     10        6           0.006414765    0.001363277   -0.000473646
     11        6          -0.010744626    0.002861418   -0.000500605
     12        6          -0.000336296    0.009081337   -0.002277062
     13        6          -0.003168384   -0.017267295    0.004406412
     14        1           0.006688505    0.008317801   -0.002227639
     15        1          -0.000966115   -0.002321782    0.009981467
     16        1          -0.001323565   -0.006754730   -0.007647663
     17        1           0.001731780    0.005827317    0.008014172
     18        1           0.001368458    0.001327918   -0.009881644
     19        1           0.000038803   -0.005951542   -0.008720073
     20        1           0.000428785   -0.001117457    0.010487714
     21        1          -0.001320945    0.014063722   -0.003511293
     22        1           0.006003903    0.011963287   -0.003131891
     23        1          -0.007706772   -0.001134126    0.000442233
     24        1          -0.002596494   -0.002063454    0.000571551
     25        1           0.002556095    0.000241353   -0.000112400
     26        6          -0.004389118    0.000992898   -0.000162048
     27        1           0.003588520    0.004712375   -0.001257812
     28        8           0.007769780   -0.012327865    0.002942468
     29        6          -0.005211669    0.015998084   -0.003915978
     30        1           0.004111471   -0.005963339    0.001415909
     31        1          -0.004913220   -0.005798166   -0.007788101
     32        1          -0.004554890   -0.001378952    0.009786386
 -------------------------------------------------------------------
 Cartesian Forces:  Max     0.034894222 RMS     0.008462816
 FormGI is forming the generalized inverse of G from B-inverse, IUseBI=4.
 GSVD:  received Info=                   1 from GESDD.

 GradGradGradGradGradGradGradGradGradGradGradGradGradGradGradGradGradGrad
 Berny optimization.
 Internal  Forces:  Max     0.036102421 RMS     0.006528219
 Search for a local minimum.
 Step number   1 out of a maximum of  166
 All quantities printed in internal units (Hartrees-Bohrs-Radians)
 Mixed Optimization -- RFO/linear search
 Second derivative matrix not updated -- analytic derivatives used.
 ITU=  0
     Eigenvalues ---   -0.00439  -0.00093  -0.00082   0.00096   0.00186
     Eigenvalues ---    0.00212   0.00235   0.00346   0.00720   0.01451
     Eigenvalues ---    0.01568   0.01671   0.01821   0.02101   0.02190
     Eigenvalues ---    0.02375   0.02650   0.02755   0.02860   0.03576
     Eigenvalues ---    0.03705   0.03869   0.04496   0.04568   0.04600
     Eigenvalues ---    0.05062   0.05212   0.05521   0.05972   0.06870
     Eigenvalues ---    0.08228   0.10359   0.10974   0.11213   0.11723
     Eigenvalues ---    0.11880   0.12052   0.12652   0.12720   0.13368
     Eigenvalues ---    0.13655   0.13798   0.13828   0.14298   0.16126
     Eigenvalues ---    0.16298   0.17623   0.17854   0.18595   0.18715
     Eigenvalues ---    0.18959   0.19946   0.21931   0.22995   0.23805
     Eigenvalues ---    0.26169   0.26810   0.29090   0.29579   0.30661
     Eigenvalues ---    0.30733   0.30831   0.31007   0.31162   0.31514
     Eigenvalues ---    0.31532   0.31659   0.31896   0.32074   0.32505
     Eigenvalues ---    0.33024   0.34544   0.35838   0.37079   0.37514
     Eigenvalues ---    0.37582   0.38666   0.39525   0.40364   0.41002
     Eigenvalues ---    0.41424   0.41782   0.43713   0.45666   0.46594
     Eigenvalues ---    0.48422   0.50242   0.56505   0.83674   0.87427
 RFO step:  Lambda=-1.75251940D-02 EMin=-4.38897405D-03
 Linear search not attempted -- first point.
 Iteration  1 RMS(Cart)=  0.20521972 RMS(Int)=  0.02678776
 Iteration  2 RMS(Cart)=  0.06275100 RMS(Int)=  0.00310404
 Iteration  3 RMS(Cart)=  0.00281990 RMS(Int)=  0.00243646
 Iteration  4 RMS(Cart)=  0.00004000 RMS(Int)=  0.00243641
 Iteration  5 RMS(Cart)=  0.00000033 RMS(Int)=  0.00243641
 Variable       Old X    -DE/DX   Delta X   Delta X   Delta X     New X
                                 (Linear)    (Quad)   (Total)
    R1        2.88354   0.00104   0.00000  -0.00002  -0.00002   2.88352
    R2        2.09832  -0.01062   0.00000  -0.03078  -0.03078   2.06754
    R3        2.09930  -0.01005   0.00000  -0.02894  -0.02894   2.07036
    R4        2.09928  -0.01005   0.00000  -0.02885  -0.02885   2.07043
    R5        2.89703  -0.00722   0.00000  -0.02157  -0.02157   2.87545
    R6        2.10108  -0.00961   0.00000  -0.02868  -0.02868   2.07240
    R7        2.10109  -0.00962   0.00000  -0.02777  -0.02777   2.07332
    R8        2.74529   0.00016   0.00000   0.00831   0.00831   2.75360
    R9        2.10231  -0.01018   0.00000  -0.02805  -0.02805   2.07426
   R10        2.10230  -0.01018   0.00000  -0.03315  -0.03315   2.06916
   R11        2.57616  -0.00915   0.00000  -0.02775  -0.02775   2.54841
   R12        1.95070  -0.01442   0.00000  -0.03466  -0.03466   1.91605
   R13        2.30673   0.03610   0.00000   0.03301   0.03301   2.33973
   R14        2.58733   0.00525   0.00000   0.02006   0.02006   2.60738
   R15        2.72066  -0.03303   0.00000  -0.09803  -0.09803   2.62263
   R16        1.95045  -0.01307   0.00000  -0.03245  -0.03245   1.91800
   R17        2.67088  -0.01159   0.00000  -0.02091  -0.02087   2.65001
   R18        2.65558  -0.00316   0.00000   0.00748   0.00751   2.66310
   R19        2.64479  -0.00624   0.00000  -0.01362  -0.01362   2.63117
   R20        2.03017   0.00404   0.00000   0.00971   0.00971   2.03987
   R21        2.63768  -0.01086   0.00000  -0.02935  -0.02934   2.60833
   R22        2.04680   0.00271   0.00000   0.00744   0.00744   2.05425
   R23        2.65784  -0.00554   0.00000  -0.00079  -0.00082   2.65702
   R24        2.04647   0.00153   0.00000   0.00461   0.00461   2.05108
   R25        2.66143  -0.00749   0.00000  -0.01612  -0.01616   2.64527
   R26        2.83366  -0.00892   0.00000  -0.02965  -0.02965   2.80402
   R27        2.03549   0.00554   0.00000   0.01321   0.01321   2.04870
   R28        2.31053   0.01465   0.00000   0.01659   0.01659   2.32711
   R29        2.84789  -0.00129   0.00000  -0.00180  -0.00180   2.84610
   R30        2.08296  -0.00728   0.00000  -0.02638  -0.02638   2.05657
   R31        2.09813  -0.01052   0.00000  -0.03110  -0.03110   2.06703
   R32        2.09813  -0.01052   0.00000  -0.02768  -0.02768   2.07045
    A1        1.91259   0.00285   0.00000   0.02092   0.02077   1.93336
    A2        1.92578   0.00206   0.00000   0.00949   0.00942   1.93520
    A3        1.92579   0.00206   0.00000   0.00952   0.00945   1.93524
    A4        1.89673  -0.00228   0.00000  -0.01155  -0.01169   1.88504
    A5        1.89674  -0.00228   0.00000  -0.01142  -0.01157   1.88517
    A6        1.90571  -0.00257   0.00000  -0.01772  -0.01773   1.88799
    A7        1.94141  -0.00186   0.00000  -0.00387  -0.00385   1.93756
    A8        1.90108   0.00187   0.00000   0.01647   0.01646   1.91754
    A9        1.90109   0.00187   0.00000   0.01368   0.01367   1.91476
   A10        1.91064  -0.00013   0.00000  -0.00299  -0.00301   1.90763
   A11        1.91064  -0.00013   0.00000  -0.00374  -0.00376   1.90688
   A12        1.89844  -0.00162   0.00000  -0.01986  -0.01999   1.87846
   A13        1.93748  -0.00415   0.00000  -0.01215  -0.01212   1.92536
   A14        1.90562   0.00171   0.00000   0.01255   0.01255   1.91817
   A15        1.90561   0.00171   0.00000   0.01497   0.01495   1.92055
   A16        1.90620   0.00151   0.00000   0.00931   0.00935   1.91555
   A17        1.90619   0.00151   0.00000  -0.00410  -0.00405   1.90215
   A18        1.90241  -0.00230   0.00000  -0.02089  -0.02093   1.88148
   A19        2.12690  -0.00385   0.00000  -0.01241  -0.02926   2.09764
   A20        2.07758   0.00001   0.00000  -0.00572  -0.02251   2.05506
   A21        2.07871   0.00384   0.00000   0.01814   0.00011   2.07882
   A22        2.08110   0.01503   0.00000   0.05179   0.05164   2.13274
   A23        2.08469  -0.02679   0.00000  -0.08415  -0.08429   2.00040
   A24        2.11740   0.01176   0.00000   0.03236   0.03223   2.14962
   A25        2.23350   0.00025   0.00000   0.01323   0.01160   2.24510
   A26        2.02730   0.00403   0.00000   0.00943   0.00774   2.03504
   A27        2.02239  -0.00428   0.00000  -0.02267  -0.02426   1.99813
   A28        2.17503   0.00092   0.00000   0.00559   0.00534   2.18037
   A29        2.05422  -0.00798   0.00000  -0.02636  -0.02657   2.02765
   A30        2.05393   0.00707   0.00000   0.02077   0.02066   2.07459
   A31        2.11020  -0.00602   0.00000  -0.01947  -0.01947   2.09072
   A32        2.15208  -0.00376   0.00000  -0.04110  -0.04116   2.11092
   A33        2.02091   0.00979   0.00000   0.06057   0.06048   2.08140
   A34        2.11851  -0.00313   0.00000  -0.01171  -0.01167   2.10684
   A35        2.09764  -0.00048   0.00000  -0.01497  -0.01500   2.08264
   A36        2.06704   0.00361   0.00000   0.02668   0.02664   2.09368
   A37        2.11275  -0.00158   0.00000  -0.00170  -0.00172   2.11103
   A38        2.06193   0.00290   0.00000   0.02212   0.02212   2.08405
   A39        2.10851  -0.00132   0.00000  -0.02042  -0.02042   2.08810
   A40        2.05735   0.00201   0.00000   0.00294   0.00288   2.06022
   A41        2.08004  -0.00035   0.00000  -0.00719  -0.00717   2.07287
   A42        2.14580  -0.00165   0.00000   0.00425   0.00427   2.15007
   A43        2.11365   0.00166   0.00000   0.00917   0.00914   2.12279
   A44        2.03841   0.00166   0.00000   0.00965   0.00966   2.04807
   A45        2.13113  -0.00332   0.00000  -0.01882  -0.01881   2.11232
   A46        2.07438   0.00511   0.00000   0.02142   0.02141   2.09579
   A47        2.17351  -0.01607   0.00000  -0.05290  -0.05291   2.12060
   A48        2.03529   0.01096   0.00000   0.03148   0.03146   2.06676
   A49        2.00130  -0.00002   0.00000   0.00288   0.00289   2.00419
   A50        1.90461  -0.00245   0.00000  -0.01553  -0.01572   1.88889
   A51        1.90462  -0.00245   0.00000  -0.01752  -0.01771   1.88691
   A52        1.87722   0.00238   0.00000   0.02795   0.02795   1.90518
   A53        1.87722   0.00238   0.00000   0.01574   0.01575   1.89297
   A54        1.89637   0.00031   0.00000  -0.01371  -0.01415   1.88222
    D1        3.14158   0.00000   0.00000  -0.00748  -0.00747   3.13411
    D2        1.03412   0.00011   0.00000  -0.01213  -0.01212   1.02200
    D3       -1.03414  -0.00011   0.00000  -0.00559  -0.00561  -1.03975
    D4        1.05373  -0.00026   0.00000  -0.01227  -0.01230   1.04143
    D5       -1.05374  -0.00015   0.00000  -0.01692  -0.01695  -1.07068
    D6       -3.12199  -0.00037   0.00000  -0.01039  -0.01044  -3.13243
    D7       -1.05373   0.00026   0.00000  -0.00251  -0.00247  -1.05620
    D8        3.12199   0.00036   0.00000  -0.00717  -0.00711   3.11487
    D9        1.05373   0.00015   0.00000  -0.00063  -0.00061   1.05313
   D10       -3.14156  -0.00000   0.00000  -0.01438  -0.01437   3.12725
   D11        1.03919  -0.00038   0.00000  -0.02645  -0.02643   1.01275
   D12       -1.03915   0.00038   0.00000  -0.01740  -0.01743  -1.05658
   D13       -1.03973   0.00106   0.00000   0.00175   0.00173  -1.03799
   D14        3.14102   0.00068   0.00000  -0.01033  -0.01033   3.13069
   D15        1.06269   0.00145   0.00000  -0.00127  -0.00133   1.06136
   D16        1.03978  -0.00107   0.00000  -0.02653  -0.02650   1.01329
   D17       -1.06265  -0.00145   0.00000  -0.03860  -0.03856  -1.10121
   D18       -3.14099  -0.00068   0.00000  -0.02955  -0.02956   3.11264
   D19        3.14155   0.00000   0.00000   0.08443   0.08252  -3.05912
   D20       -0.00001   0.00000   0.00000  -0.26210  -0.26015  -0.26016
   D21       -1.03954   0.00050   0.00000   0.09842   0.09648  -0.94306
   D22        2.10208   0.00050   0.00000  -0.24812  -0.24618   1.85590
   D23        1.03948  -0.00050   0.00000   0.07615   0.07420   1.11368
   D24       -2.10208  -0.00050   0.00000  -0.27038  -0.26847  -2.37055
   D25        0.00002   0.00000   0.00000  -0.15433  -0.15468  -0.15465
   D26       -3.14155  -0.00000   0.00000  -0.12414  -0.12433   3.01730
   D27        3.14158   0.00000   0.00000   0.19242   0.19261  -2.94899
   D28        0.00001  -0.00000   0.00000   0.22261   0.22296   0.22297
   D29        3.14155   0.00000   0.00000   0.05587   0.05556  -3.08607
   D30        0.00001   0.00000   0.00000   0.16824   0.16871   0.16872
   D31       -0.00002  -0.00000   0.00000   0.08670   0.08623   0.08621
   D32       -3.14157  -0.00000   0.00000   0.19907   0.19938  -2.94218
   D33        0.00012   0.00000   0.00000   0.35843   0.35773   0.35785
   D34       -3.14148  -0.00000   0.00000   0.32098   0.32074  -2.82074
   D35       -3.14152   0.00000   0.00000   0.24633   0.24657  -2.89496
   D36        0.00007   0.00000   0.00000   0.20888   0.20958   0.20965
   D37       -3.14158  -0.00000   0.00000  -0.02413  -0.02444   3.11717
   D38        0.00002  -0.00000   0.00000  -0.00487  -0.00562  -0.00560
   D39        0.00002  -0.00000   0.00000   0.01332   0.01347   0.01348
   D40       -3.14158   0.00000   0.00000   0.03258   0.03229  -3.10929
   D41        3.14158   0.00000   0.00000   0.01805   0.01770  -3.12391
   D42       -0.00001   0.00000   0.00000   0.02721   0.02688   0.02687
[...]
 53,-0.00000319,0.00001248,-0.00000325,0.00002994,-0.00002174,0.0000178
 0,-0.00016785,-0.00002788,-0.00000649,0.00036815,-0.00026209,0.0001086
 7,-0.00009967,0.00012046,-0.00004082,-0.00044677,-0.00009314,0.0000078
 2,0.00033280,0.00208810,0.00146764,0.00016712,-0.00038300,0.00142047,0
 .00017786,0.00044563,-0.00038014,0.00400578,-0.00097816,0.00167132,-0.
 00786055,-0.01508680,0.00482392,-0.07666571,-0.31057103,0.06920900,-0.
 00000278,0.00000081,-0.00000022,-0.00000022,0.00000037,-0.00000062,-0.
 00000028,0.00000053,0.00000025,0.00000030,-0.00000124,-0.00000018,0.00
 000011,-0.00000092,0.00000076,-0.00001186,0.00000629,0.00000055,-0.000
 00888,0.00000294,-0.00000229,0.00000345,0.00001451,-0.00000677,-0.0000
 3071,0.00003802,-0.00008505,0.00002879,0.00044681,-0.00129350,-0.00012
 159,-0.00010252,-0.00016906,-0.00054600,-0.00076036,0.00032678,-0.0015
 2949,-0.00060594,-0.00082063,0.08355869,0.32490249,0.00000023,0.000000
 89,0.00000004,0.00000100,-0.00000199,0.00000118,-0.00000236,0.00000867
 ,0.00000679,0.00002643,-0.00001044,-0.00001366,-0.00007604,0.00007772,
 0.00004600,-0.00004264,-0.00002933,0.00006009,-0.00002738,-0.00002686,
 -0.00005614,0.00044156,0.00166840,0.00757563,0.00001265,0.00214056,0.0
 0472421,-0.00002530,-0.00033633,-0.00093928,-0.00071561,0.00165952,0.0
 0591559,0.00148322,0.00417837,0.00222014,0.02041500,0.06912086,-0.0580
 0732,0.00000047,-0.00000010,-0.00000003,-0.00000009,0.00000003,-0.0000
 0007,0.00000013,-0.00000031,-0.00000015,-0.00000001,-0.00000005,-0.000
 00004,-0.00000004,0.00000020,-0.00000033,0.00000062,0.00000021,-0.0000
 0063,0.00000205,-0.00000181,0.00000125,-0.00000364,-0.00000981,-0.0000
 1223,0.00000615,-0.00008814,-0.00025670,-0.00010758,-0.00132121,-0.004
 44583,0.00000777,-0.00018293,-0.00075490,0.00012560,0.00026624,0.00036
 837,0.00036923,-0.00092623,-0.00391063,-0.02226319,-0.07633942,0.04624
 191,-0.00004097,-0.00008145,0.00002826,-0.00003830,0.00020578,-0.00006
 446,0.00049089,-0.00031920,0.00020969,-0.00277698,-0.00057044,-0.00004
 228,0.00642407,-0.00477540,0.00165522,-0.00113933,0.00218871,-0.000912
 62,-0.01160655,-0.00015097,0.00027831,0.00845244,0.00422190,-0.0014657
 5,-0.00785734,-0.00297231,0.00116291,-0.00503490,0.00329474,-0.0009983
 6,0.00464294,0.00801878,-0.00215419,-0.06954512,0.03936221,-0.00735836
 ,0.00223716,-0.01152233,0.00294398,-0.00004523,0.00001308,-0.00000323,
 -0.00000231,0.00000428,-0.00000513,-0.00000344,0.00000542,0.00000120,0
 .00000325,-0.00001953,-0.00000294,0.00000188,-0.00001519,0.00001270,-0
 .00020759,0.00008593,0.00000581,-0.00016091,0.00004727,-0.00003160,0.0
 0005052,0.00029680,-0.00004848,-0.00026334,0.00066167,-0.00005053,-0.0
 0088860,-0.00027868,0.00012169,-0.00044985,-0.00040434,0.00011940,-0.0
 0072318,0.00047247,-0.00007236,-0.32883998,0.27740705,-0.06272628,0.00
 056246,0.00040690,-0.00017335,0.39061295,0.00002287,0.00004452,-0.0000
 1606,0.00001825,-0.00011268,0.00003513,-0.00026408,0.00015201,-0.00010
 860,0.00149805,0.00031320,0.00002285,-0.00364897,0.00272231,-0.0009362
 6,0.00051170,-0.00126551,0.00051842,0.00676404,0.00021571,-0.00017599,
 -0.00610967,-0.00097171,0.00054385,0.00301337,0.00281446,-0.00135222,0
 .00484397,-0.00020937,-0.00007843,-0.00704289,-0.00931546,0.00243959,0
 .03508834,0.01123382,0.00082304,-0.00594184,0.00442146,0.00006715,0.00
 002487,-0.00000699,0.00000172,0.00000127,-0.00000238,0.00000254,0.0000
 0170,-0.00000260,-0.00000029,-0.00000180,0.00001144,0.00000213,-0.0000
 0089,0.00000827,-0.00000742,0.00011928,-0.00004318,-0.00000182,0.00009
 085,-0.00002465,0.00001625,-0.00002901,-0.00017036,0.00002449,0.000134
 48,-0.00040136,0.00002847,0.00020109,-0.00001762,-0.00012661,0.0003917
 2,0.00020017,-0.00002399,-0.00239987,0.00201837,-0.00032303,0.26170446
 ,-0.41363498,0.08029904,-0.00047123,0.00019963,0.00016442,-0.32254226,
 0.46005001,-0.00000480,-0.00000951,0.00000317,-0.00000326,0.00002274,-
 0.00000746,0.00005150,-0.00003105,0.00001246,-0.00028910,-0.00007118,-
 0.00003324,0.00072890,-0.00050808,0.00021241,-0.00014129,0.00025464,-0
 .00007605,-0.00136082,0.00001876,0.00026405,0.00134032,0.00008140,-0.0
 0023381,-0.00063389,-0.00104969,-0.00132215,-0.00109464,-0.00020876,-0
 .00061092,0.00164708,0.00196924,-0.00112059,-0.00634761,0.00080170,0.0
 1887186,0.00160404,0.00015512,0.00377800,-0.00000489,0.00000148,-0.000
 00023,0.00000005,0.00000042,-0.00000030,-0.00000056,0.00000090,0.00000
 017,-0.00000026,-0.00000192,-0.00000031,0.00000048,-0.00000190,0.00000
 195,-0.00001956,0.00001092,0.00000222,-0.00002270,0.00000298,0.0000000
 4,0.00000690,0.00003031,-0.00001218,-0.00002828,0.00008366,0.00000247,
 -0.00002320,-0.00010017,-0.00041584,-0.00008394,-0.00000233,0.00014354
 ,0.00061841,-0.00036665,0.00072473,-0.05868889,0.07982018,-0.08682508,
 0.00011653,0.00008038,0.00053120,0.07107907,-0.10148464,0.04790473,-0.
 00000211,-0.00000510,-0.00000050,-0.00000308,0.00001383,-0.00000308,0.
 00003584,-0.00002310,0.00003120,-0.00019560,-0.00003320,-0.00000313,0.
 00040690,-0.00031622,0.00006078,-0.00010366,0.00014463,-0.00006699,-0.
 00064637,0.00005026,-0.00000114,0.00041707,0.00000952,0.00006575,0.000
 00522,-0.00025119,0.00003881,-0.00014083,-0.00179261,0.00040301,-0.005
 79443,0.00099990,0.00000424,-0.00534298,-0.02797673,0.00766321,-0.0012
 8999,-0.00082004,0.00045258,-0.00000304,0.00000096,-0.00000031,0.,0.00
 000032,-0.00000030,-0.00000023,0.00000036,0.00000018,0.00000022,-0.000
 00112,-0.00000013,-0.00000016,-0.00000099,0.00000068,-0.00001304,0.000
 00659,0.00000040,-0.00000912,0.00000384,-0.00000256,0.00000483,0.00001
 880,-0.00000249,-0.00000221,0.00004242,-0.00000819,-0.00003218,0.00000
 571,0.00000389,-0.00054208,-0.00009591,0.00002522,0.00021715,-0.000079
 39,0.00000984,-0.11497172,-0.05781973,0.01549657,-0.00267394,-0.000704
 24,0.00043134,0.01114154,0.03506746,-0.00844246,0.61460364,-0.00000415
 ,-0.00000792,0.00000331,-0.00000483,0.00002153,-0.00000632,0.00005345,
 -0.00003535,0.00002196,-0.00029787,-0.00005821,-0.00000918,0.00071827,
 -0.00056539,0.00017286,-0.00010315,0.00027210,-0.00011140,-0.00135592,
 0.00006289,0.00006525,0.00112829,-0.00057393,0.00016729,0.00005448,-0.
 00055378,-0.00019955,-0.00151798,0.00075759,-0.00038908,0.00248326,0.0
 0245114,-0.00011764,-0.00714048,-0.00166528,0.00482343,-0.00073920,-0.
 00087988,0.00008666,-0.00000450,0.00000170,-0.00000044,-0.00000030,0.0
 0000034,-0.00000043,-0.00000029,0.00000037,0.00000004,0.00000050,-0.00
 000171,0.,0.00000058,-0.00000156,0.00000079,-0.00002209,0.00000901,0.0
 0000095,-0.00001841,0.00000497,-0.00000316,0.00000654,0.00003349,-0.00
 000493,-0.00002130,0.00007913,0.00000771,0.00001343,0.00003142,-0.0000
 0761,0.00006242,0.00000806,-0.00009469,0.00000839,0.00010603,-0.000051
 48,-0.04718171,-0.17615882,0.02329529,0.00021983,0.00012816,0.00028304
 ,0.00955552,-0.04992270,0.01914132,-0.03058852,0.50403778,0.00000157,0
 .00000203,-0.00000130,0.00000103,-0.00000531,0.00000419,-0.00001494,0.
 00000707,-0.00001165,0.00008343,0.00000568,-0.00001400,-0.00019099,0.0
 0015949,-0.00004816,0.00001603,-0.00007389,0.00002439,0.00039953,0.000
 03704,0.00012578,-0.00033401,0.00020913,0.00018233,-0.00007297,-0.0002
 3615,-0.00142721,0.00041809,-0.00035773,-0.00066439,-0.00041952,-0.000
 11002,0.00224044,0.00250575,0.00554335,0.01484956,0.00038288,0.0000856
 6,-0.00064760,0.00000112,-0.00000032,-0.00000002,-0.00000007,-0.000000
 05,0.00000011,0.00000018,-0.00000020,-0.00000016,-0.00000033,0.0000002
 7,-0.00000012,0.00000011,0.00000036,-0.00000060,0.00000883,-0.00000183
 ,0.00000042,0.00000297,-0.00000207,0.00000161,-0.00000043,-0.00000592,
 0.00000136,-0.00000072,-0.00000856,0.00004980,-0.00000285,-0.00001146,
 -0.00000906,-0.00001059,-0.00008472,-0.00033277,-0.00000303,-0.0000572
 6,-0.00009615,0.01268789,0.02365748,-0.09602869,0.00011403,0.00033107,
 0.00141353,-0.00189703,0.01831714,0.02180466,0.00559128,0.01040239,0.5
 3996259,-0.00000175,-0.00000267,0.00000231,-0.00000170,0.00000702,-0.0
 0000274,0.00001575,-0.00001416,-0.00000192,-0.00009717,-0.00001611,-0.
 00000147,0.00023885,-0.00018951,0.00007599,-0.00003113,0.00009388,-0.0
 0003674,-0.00045149,0.00003896,0.00006589,0.00041694,-0.00032160,0.000
 05255,0.00009693,-0.00015349,-0.00033057,-0.00064136,0.00021619,-0.000
 19828,0.00069972,0.00071136,0.00008253,-0.00161228,-0.00010010,0.00135
 572,-0.00093524,-0.00060743,-0.00021032,-0.00000149,0.00000050,-0.0000
 0012,-0.00000019,0.00000004,-0.00000017,-0.00000013,0.00000013,0.,0.00
 000042,-0.00000046,0.00000007,0.00000010,-0.00000046,0.00000040,-0.000
 00709,0.00000275,0.00000021,-0.00000615,0.00000183,-0.00000081,0.00000
 196,0.00001036,-0.00000178,-0.00000689,0.00003094,0.00001727,0.0000029
 6,0.00001248,-0.00000080,-0.00000038,-0.00001240,-0.00003078,0.0000202
 9,0.00001120,-0.00000314,0.00379784,-0.00257939,-0.01117102,-0.0012251
 5,-0.00041549,-0.00008458,0.00105059,-0.00107839,0.00158602,-0.0753247
 7,0.05569954,0.06279048,0.07751859,-0.00000034,-0.00000110,0.00000070,
 -0.00000034,0.00000175,-0.00000040,0.00000221,-0.00000321,-0.00000292,
 -0.00002034,-0.00000286,-0.00000218,0.00005152,-0.00004249,0.00003149,
 0.00000017,0.00002063,-0.00000500,-0.00011911,0.00000586,-0.00000116,0
 .00011457,0.00021970,0.00000708,-0.00028104,-0.00008875,-0.00012172,0.
 00006156,0.00001071,-0.00022935,-0.00004880,0.00010597,0.00050657,-0.0
 0039916,0.00066229,0.00216236,0.00016965,0.00003600,0.00023260,-0.0000
 0053,0.,0.,-0.00000018,0.00000005,-0.00000018,-0.00000016,0.00000029,0
 .00000017,0.00000020,-0.00000012,-0.00000007,0.00000004,-0.00000019,0.
 00000045,-0.00000207,0.00000089,0.00000023,-0.00000138,0.00000026,0.00
 000017,0.00000041,0.00000167,-0.00000212,0.00000266,0.00000371,-0.0000
 0339,-0.00000492,0.00000061,-0.00000059,-0.00000766,-0.00002290,-0.000
 06249,0.00003254,0.00004375,0.00000302,0.01285839,-0.01696479,-0.02289
 805,-0.00039887,0.00010115,-0.00010001,-0.00145737,-0.00492860,0.00482
 640,0.05701318,-0.16841190,-0.12910185,-0.06380977,0.18073403,0.000000
 92,0.00000117,-0.00000052,0.00000070,-0.00000351,0.00000092,-0.0000087
 4,0.00000616,-0.00000311,0.00005036,0.00001176,0.00000118,-0.00011668,
 0.00007927,-0.00001852,0.00002899,-0.00003541,0.00001844,0.00018321,0.
 00001029,-0.00004831,-0.00010039,0.00007254,-0.00001257,0.00000850,0.0
 0029198,0.00012846,0.00021266,-0.00005877,0.00006677,-0.00029946,-0.00
 020117,-0.00005167,0.00039682,-0.00055644,-0.00063411,0.00054029,-0.00
 031980,0.00036445,0.00000073,-0.00000029,0.00000009,-0.00000001,-0.000
 00005,-0.00000009,-0.00000002,0.00000007,0.00000017,0.,0.00000034,0.00
 000006,-0.00000005,0.00000025,-0.00000013,0.00000332,-0.00000131,0.000
 00007,0.00000291,-0.00000100,0.00000034,-0.00000101,-0.00000607,0.0000
 0056,0.00001234,-0.00001419,-0.00001173,-0.00000063,-0.00000209,-0.000
 00014,-0.00000384,0.00000989,0.00001648,0.00000340,0.00001492,0.000026
 52,-0.00472653,0.00648793,0.00780575,-0.00010549,0.00029050,-0.0003349
 8,-0.00004194,0.00187829,-0.00281692,0.06183142,-0.12591932,-0.1679470
 7,-0.06712534,0.13620173,0.18182838,-0.00000100,-0.00000291,0.00000108
 ,-0.00000158,0.00000718,-0.00000227,0.00001697,-0.00001213,0.00000800,
 -0.00009606,-0.00001906,-0.00000132,0.00021408,-0.00015663,0.00005159,
 -0.00004701,0.00007281,-0.00003259,-0.00036626,0.00000322,0.00000579,0
 .00027606,0.00002019,-0.00001027,-0.00007525,-0.00007720,0.00004041,-0
 .00017011,-0.00018024,0.00003801,-0.00043184,0.00038637,-0.00007200,0.
 00030966,-0.00194887,0.00051466,0.00054720,-0.00010754,0.00000300,-0.0
 0000181,0.00000031,-0.00000006,-0.00000013,0.00000026,-0.00000043,-0.0
 0000015,0.00000042,0.00000019,0.00000008,-0.00000083,-0.00000027,0.000
 00007,-0.00000056,0.00000066,-0.00000683,0.00000316,0.00000031,-0.0000
 0530,0.00000180,-0.00000127,0.00000175,0.00000974,-0.00000164,-0.00000
 793,0.00002234,-0.00000360,-0.00002450,-0.00000889,0.00000492,-0.00008
 367,-0.00001667,0.00000426,0.00005516,-0.00004130,0.00001225,-0.011397
 67,0.00227530,-0.00027392,0.00009385,-0.00014005,0.00001891,0.00295830
 ,0.00183441,-0.00058030,-0.33466642,-0.00415277,0.01005144,-0.00669163
 ,-0.00059068,-0.00039395,0.35774573,-0.00000169,-0.00000355,0.00000092
 ,-0.00000179,0.00000843,-0.00000248,0.00001981,-0.00001333,0.00001066,
 -0.00011618,-0.00002160,-0.00000254,0.00026106,-0.00020626,0.00007301,
 -0.00004563,0.00009701,-0.00004138,-0.00048127,0.00004732,-0.00000936,
 0.00045362,0.00002099,-0.00001979,-0.00017768,0.00019159,0.00000759,-0
 .00025826,-0.00040452,0.00006242,-0.00150358,0.00042105,0.00003184,-0.
 00021487,-0.00537635,0.00175414,0.00095161,-0.00087534,0.00018860,-0.0
 0000186,0.00000057,-0.00000014,-0.00000011,0.00000018,-0.00000025,-0.0
 0000019,0.00000024,0.00000010,0.00000018,-0.00000075,-0.00000011,0.000
 00008,-0.00000059,0.00000046,-0.00000843,0.00000374,0.00000037,-0.0000
 0643,0.00000202,-0.00000147,0.00000194,0.00001169,-0.00000171,0.000003
 33,0.00002747,-0.00000587,-0.00003981,-0.00000795,0.00000649,-0.000171
 62,-0.00004212,0.00000108,0.00005500,0.00001473,0.00001403,-0.03386005
 ,-0.00234710,0.00117026,0.00023154,0.00047728,-0.00016774,0.00037934,0
 .00385516,-0.00117467,0.00212887,-0.04730251,-0.00031042,0.02097777,0.
 00132964,0.00174097,0.00314406,0.05077791,0.00000019,0.00000061,-0.000
 00044,0.00000054,-0.00000227,0.00000046,-0.00000587,0.00000513,-0.0000
 0124,0.00003132,0.00000639,0.00000018,-0.00007120,0.00005702,-0.000004
 30,0.00001294,-0.00002723,0.00000877,0.00012551,-0.00001184,-0.0000179
 1,-0.00011752,-0.00000193,0.00001804,0.00005026,-0.00000963,0.00015088
 ,0.00006735,0.00006815,-0.00017329,0.00040491,-0.00002002,0.00038294,0
 .00008426,0.00180269,0.00104056,-0.00025456,0.00022094,-0.00007945,0.0
 0000051,-0.00000015,0.00000005,0.00000005,-0.00000004,0.00000007,0.000
 00001,-0.00000009,-0.00000002,-0.00000004,0.00000020,0.00000004,-0.000
 00002,0.00000016,-0.00000013,0.00000211,-0.00000091,-0.00000008,0.0000
 0185,-0.00000062,0.00000049,-0.00000054,-0.00000368,-0.00000004,0.0000
 0053,-0.00001256,-0.00001088,0.00001141,0.00000379,0.00000354,0.000044
 53,-0.00000231,-0.00005488,-0.00001312,0.00001588,0.00006654,0.0088799
 9,0.00002944,-0.00215171,-0.00007000,-0.00017095,-0.00014476,-0.000209
 56,-0.00118699,-0.00031283,0.00841160,-0.00012124,-0.04841299,0.021328
 28,0.00210303,0.00014048,-0.01058762,-0.00144478,0.04588556,-0.0000019
 8,-0.00000333,0.00000192,-0.00000146,0.00000816,-0.00000304,0.00001812
 ,-0.00001260,0.00000463,-0.00010809,-0.00001863,-0.00000294,0.00025875
 ,-0.00020309,0.00009919,-0.00003447,0.00010015,-0.00004326,-0.00050590
 ,0.00001233,-0.00004990,0.00045803,-0.00033291,0.00001043,0.00011935,-
 0.00001559,0.00038428,-0.00067542,0.00029461,0.00009563,0.00072070,0.0
 0059947,-0.00046143,-0.00170349,-0.00070629,-0.00097859,-0.00084243,-0
 .00028060,0.00049462,-0.00000161,0.00000058,-0.00000014,-0.00000013,0.
 00000011,-0.00000014,-0.00000011,0.00000015,0.00000003,0.00000002,-0.0
 0000073,-0.00000005,0.00000019,-0.00000056,0.00000029,-0.00000833,0.00
 000331,0.00000014,-0.00000650,0.00000153,-0.00000136,0.00000225,0.0000
 1109,-0.00000242,-0.00000501,0.00002061,-0.00001998,0.00000443,0.00001
 346,-0.00000053,0.00000131,0.00000251,0.00003237,0.00001893,0.00000987
 ,0.00000075,0.00457346,0.00296220,0.01091934,-0.00118337,-0.00032224,0
 .00017944,0.00099492,-0.00180129,-0.00100884,-0.08507444,0.02314894,-0
 .09210913,0.00317505,-0.00316441,0.00964748,-0.00814378,0.00828125,-0.
 02812811,0.08795099,-0.00000101,-0.00000197,0.00000104,-0.00000034,0.0
 0000369,-0.00000162,0.00000694,-0.00000380,0.00000050,-0.00004540,-0.0
 0000927,-0.00000111,0.00010731,-0.00008116,0.00004958,-0.00001155,0.00
 003728,-0.00001586,-0.00020626,-0.00001458,-0.00000372,0.00015970,0.00
 012064,-0.00016111,-0.00024146,-0.00012096,0.00025980,-0.00005294,0.00
 014186,0.00019847,0.00006943,-0.00006289,-0.00052712,-0.00063533,-0.00
 028631,-0.00216447,-0.00008766,0.00015164,-0.00010010,-0.00000085,0.00
 000017,-0.00000001,-0.00000007,0.00000016,-0.00000023,-0.00000003,0.00
 000013,0.00000004,-0.00000009,-0.00000060,-0.00000019,0.00000006,-0.00
 000025,0.00000022,-0.00000352,0.00000127,-0.00000006,-0.00000318,0.000
 00073,-0.00000087,0.00000089,0.00000575,0.00000025,-0.00000399,0.00001
 013,-0.00000332,-0.00000452,0.00000170,0.00000143,-0.00000200,0.000006
 77,0.00006788,0.00002361,0.00003148,-0.00000537,0.01514902,-0.00467776
 ,0.02841640,-0.00025289,-0.00008550,-0.00002640,-0.00151841,-0.0072303
 8,-0.00229199,0.02500143,-0.06186677,0.07160961,-0.00851356,0.00718793
 ,-0.01997863,-0.00032526,-0.00068506,-0.00129618,-0.02860806,0.0674259
 4,-0.00000041,-0.00000022,0.00000008,-0.00000045,0.00000162,-0.0000006
 2,0.00000587,-0.00000377,0.00000583,-0.00003073,-0.00000604,0.00000266
 ,0.00006591,-0.00003980,0.00000051,-0.00002453,0.00001761,-0.00001041,
 -0.00009428,-0.00002313,-0.00002285,0.00002464,-0.00012598,0.00010411,
 0.00012763,-0.00015542,0.00014837,-0.00019016,0.00000365,-0.00007937,0
 .00026277,0.00017920,0.00013894,-0.00004474,0.00039091,0.00034434,-0.0
 0053872,0.00045869,0.00022812,-0.00000032,0.00000023,-0.00000006,0.000
 00007,-0.00000003,0.00000027,0.00000002,-0.00000014,-0.00000014,0.0000
 0006,0.,0.00000011,-0.00000007,-0.00000012,0.00000013,-0.00000230,0.00
 000084,-0.00000015,-0.00000096,0.00000058,0.00000002,0.00000046,0.0000
 0238,-0.00000145,-0.00000877,0.00000024,-0.00001331,0.00000340,0.00000
 102,0.00000105,0.00000565,-0.00000544,-0.00001759,-0.00001708,-0.00001
 801,0.00003974,-0.00248513,0.00000981,-0.00518689,0.00030447,-0.000439
 07,-0.00022826,0.00064021,0.00063784,-0.00046972,-0.09199072,0.0685641
 6,-0.26501884,-0.00815717,0.00645550,-0.01851927,0.00120603,-0.0018802
 3,0.00366634,0.10093933,-0.07402687,0.28488830\\0.00000002,0.00000684,
 0.00000200,-0.00000117,0.00000491,-0.00000394,-0.00000200,0.00000379,0
 .00000219,-0.00000550,0.00000112,-0.00000112,0.00000412,0.00000389,-0.
 00000244,0.00000233,0.00000627,0.00000849,-0.00000091,-0.00000157,-0.0
 0000389,0.00000182,-0.00000141,-0.00000405,0.00000147,-0.00000024,0.00
 000508,-0.00000151,-0.00000520,-0.00001047,-0.00000150,-0.00000605,-0.
 00000967,0.00000051,-0.00000398,-0.00000161,0.00000046,-0.00000286,0.0
 0000566,-0.00000113,0.00000700,-0.00000230,-0.00000055,0.00001444,0.00
 000432,0.00000120,0.00000298,0.00000746,-0.00000233,0.00000828,-0.0000
 0900,-0.00000085,-0.00000311,-0.00000615,0.00000204,0.,0.00000756,-0.0
 0000033,0.00001266,0.00000406,-0.00000160,-0.00000244,-0.00000788,-0.0
 0000242,-0.00000380,-0.00001114,0.00000126,0.00000135,0.00001083,-0.00
 000317,-0.00000662,-0.00001714,-0.00000195,-0.00000819,-0.00001495,0.0
 0000106,-0.00000532,-0.00000052,0.00000266,-0.00000038,0.00001219,-0.0
 0000076,-0.00001003,-0.00000604,0.00000123,-0.00000128,0.00001043,0.00
 000363,-0.00000828,0.00001324,0.00000205,-0.00000490,0.00000779,0.0000
 0181,0.00000214,0.00001100\\\@


 LIFE IS SO UNCERTAIN - EAT DESSERT FIRST.
 Job cpu time:       0 days  2 hours 35 minutes 32.2 seconds.
 File lengths (MBytes):  RWF=    488 Int=      0 D2E=      0 Chk=     23 Scr=      1
 Normal termination of Gaussian 09 at Mon Feb  4 12:31:49 2019.
WARNING: pbs_rusage is deprecated and values produced may not be accurate


=============================================================================
                                     Resource usage:
                                       CPU time:              10:07:37
   JobId:    5363857.r-man2            Elapsed time:          02:33:48
   Project:             q95            Requested time:        32:00:00
   Service Units:     10.25 
                                       Max physical memory:      640MB
                                       Max virtual memory:      1276MB
                                       Requested memory:           0MB

                                       Number of cpus:               4

                                       Max jobfs disk use:       0.5GB
                                       Requested jobfs:         16.0GB
=============================================================================

