 Entering Gaussian System, Link 0=/apps/gaussian/g09e01/g09/g09
 AtFile(1): /home/507/hio507/Basis/6-31pGd.gbs
 Initial command:
 /apps/gaussian/g09e01/g09/l1.exe "/jobfs/local/8355193.r-man2/Gau-12232.inp" -scrdir="/jobfs/local/8355193.r-man2/"
 Entering Link 1 = /apps/gaussian/g09e01/g09/l1.exe PID=     12233.
  
 Copyright (c) 1988,1990,1992,1993,1995,1998,2003,2009,2015,
            Gaussian, Inc.  All Rights Reserved.
  
 This is part of the Gaussian(R) 09 program.  It is based on
 the Gaussian(R) 03 system (copyright 2003, Gaussian, Inc.),
 the Gaussian(R) 98 system (copyright 1998, Gaussian, Inc.),
 the Gaussian(R) 94 system (copyright 1995, Gaussian, Inc.),
 the Gaussian 92(TM) system (copyright 1992, Gaussian, Inc.),
 the Gaussian 90(TM) system (copyright 1990, Gaussian, Inc.),
 the Gaussian 88(TM) system (copyright 1988, Gaussian, Inc.),
 the Gaussian 86(TM) system (copyright 1986, Carnegie Mellon
 University), and the Gaussian 82(TM) system (copyright 1983,
 Carnegie Mellon University). Gaussian is a federally registered
 trademark of Gaussian, Inc.
  
 This software contains proprietary and confidential information,
 including trade secrets, belonging to Gaussian, Inc.
  
 This software is provided under written license and may be
 used, copied, transmitted, or stored only in accord with that
 written license.
  
 The following legend is applicable only to US Government
 contracts under FAR:
  
                    RESTRICTED RIGHTS LEGEND
  
 Use, reproduction and disclosure by the US Government is
 subject to restrictions as set forth in subparagraphs (a)
 and (c) of the Commercial Computer Software - Restricted
 Rights clause in FAR 52.227-19.
  
 Gaussian, Inc.
 340 Quinnipiac St., Bldg. 40, Wallingford CT 06492
  
  
 ---------------------------------------------------------------
 Warning -- This program may not be used in any manner that
 competes with the business of Gaussian, Inc. or will provide
 assistance to any competitor of Gaussian, Inc.  The licensee
 of this program is prohibited from giving any competitor of
 Gaussian, Inc. access to this program.  By using this program,
 the user acknowledges that Gaussian, Inc. is engaged in the
 business of creating and licensing software in the field of
 computational chemistry and represents and warrants to the
 licensee that it is not a competitor of Gaussian, Inc. and that
 it will not use this program in any manner prohibited above.
 ---------------------------------------------------------------
  

 Cite this work as:
 Gaussian 09, Revision E.01,
 M. J. Frisch, G. W. Trucks, H. B. Schlegel, G. E. Scuseria, 
 M. A. Robb, J. R. Cheeseman, G. Scalmani, V. Barone, B. Mennucci, 
 G. A. Petersson, H. Nakatsuji, M. Caricato, X. Li, H. P. Hratchian, 
 A. F. Izmaylov, J. Bloino, G. Zheng, J. L. Sonnenberg, M. Hada, 
 M. Ehara, K. Toyota, R. Fukuda, J. Hasegawa, M. Ishida, T. Nakajima, 
 Y. Honda, O. Kitao, H. Nakai, T. Vreven, J. A. Montgomery, Jr., 
 J. E. Peralta, F. Ogliaro, M. Bearpark, J. J. Heyd, E. Brothers, 
 K. N. Kudin, V. N. Staroverov, T. Keith, R. Kobayashi, J. Normand, 
 K. Raghavachari, A. Rendell, J. C. Burant, S. S. Iyengar, J. Tomasi, 
 M. Cossi, N. Rega, J. M. Millam, M. Klene, J. E. Knox, J. B. Cross, 
 V. Bakken, C. Adamo, J. Jaramillo, R. Gomperts, R. E. Stratmann, 
 O. Yazyev, A. J. Austin, R. Cammi, C. Pomelli, J. W. Ochterski, 
 R. L. Martin, K. Morokuma, V. G. Zakrzewski, G. A. Voth, 
 P. Salvador, J. J. Dannenberg, S. Dapprich, A. D. Daniels, 
 O. Farkas, J. B. Foresman, J. V. Ortiz, J. Cioslowski, 
 and D. J. Fox, Gaussian, Inc., Wallingford CT, 2013.
 
 ******************************************
 Gaussian 09:  ES64L-G09RevE.01 30-Nov-2015
                12-Jul-2018 
 ******************************************
 %chk=aryl_urea_Cl_CF3.M062X.opt.chk
 %mem=196608000
 %nproc=4
 Will use up to    4 processors via shared memory.
 ----------------------------------------------------------------------
 # M062X/Gen 6D SCF=Tight INT(grid=ultrafine) OPT IOP(2/17=4) Freq=Nora
 man maxdisk=2147483648
 ----------------------------------------------------------------------
 1/14=-1,18=20,19=15,26=4,38=1/1,3;
 2/9=110,12=2,17=4,18=5,40=1/2;
 3/5=7,8=2,11=2,16=1,25=1,30=1,71=1,74=-55,75=-5/1,2,3;
 4//1;
 5/5=2,32=2,38=5/2;
 6/7=2,8=2,9=2,10=2,28=1/1;
 7//1,2,3,16;
 1/14=-1,18=20,19=15,26=4/3(2);
 2/9=110,17=4/2;
 99//99;
 2/9=110,17=4/2;
 3/5=7,6=1,8=2,11=2,16=1,25=1,30=1,71=1,74=-55,75=-5,82=7/1,2,3;
 4/5=5,16=3,69=1/1;
 5/5=2,32=2,38=5/2;
 7//1,2,3,16;
 1/14=-1,18=20,19=15,26=4/3(-5);
 2/9=110,17=4/2;
 6/7=2,8=2,9=2,10=2,19=2,28=1/1;
 99/9=1/99;
 --------------------------
 aryl_urea_Cl_CF3.M062X.opt
 --------------------------
 Symbolic Z-matrix:
 Charge =  0 Multiplicity = 1
 C                    -4.27224   3.07376  -0.71609 
 C                    -4.18195   1.70417  -0.47274 
 C                    -2.97894   1.14791  -0.03458 
 C                    -1.83707   1.94516   0.17122 
 C                    -1.94518   3.33533  -0.08057 
 C                    -3.15533   3.90122  -0.52232 
 H                    -5.21493   3.4836   -1.0553 
 N                    -0.63867   1.28743   0.62411 
 C                     0.44158   1.8421    1.25687 
 N                     1.49135   1.04763   1.61089 
 O                     0.48491   3.03509   1.51126 
 C                     2.66346   1.58031   2.28386 
 C                     3.68677   0.47372   2.56402 
 C                     4.92033   1.02776   3.27094 
 H                    -2.93479   0.08099   0.14737 
 H                    -1.1224    4.01338   0.05133 
 H                    -0.58965   0.27143   0.44909 
 H                     1.45289   0.03894   1.39492 
 H                     2.35383   2.04412   3.24649 
 H                     3.13268   2.35803   1.64149 
 H                     4.00007   0.00711   1.60468 
 H                     3.22279  -0.30613   3.20649 
 H                     5.4148    1.79626   2.63926 
 H                     5.64175   0.20516   3.46015 
 H                     4.63617   1.48249   4.24386 
 Cl                   -5.58357   0.67726  -0.71772 
 C                    -3.23529   5.60513  -0.81563 
 F                    -2.46667   6.27026   0.12235 
 F                    -4.53277   6.08169  -0.73814 
 F                    -2.74204   5.87847  -2.07856 
 

 GradGradGradGradGradGradGradGradGradGradGradGradGradGradGradGradGradGrad
 Berny optimization.
 Initialization pass.
                           ----------------------------
                           !    Initial Parameters    !
                           ! (Angstroms and Degrees)  !
 --------------------------                            --------------------------
 ! Name  Definition              Value          Derivative Info.                !
 --------------------------------------------------------------------------------
 ! R1    R(1,2)                  1.394          estimate D2E/DX2                !
 ! R2    R(1,6)                  1.4035         estimate D2E/DX2                !
 ! R3    R(1,7)                  1.0824         estimate D2E/DX2                !
 ! R4    R(2,3)                  1.3959         estimate D2E/DX2                !
 ! R5    R(2,26)                 1.7547         estimate D2E/DX2                !
 ! R6    R(3,4)                  1.4078         estimate D2E/DX2                !
 ! R7    R(3,15)                 1.0832         estimate D2E/DX2                !
 ! R8    R(4,5)                  1.4169         estimate D2E/DX2                !
 ! R9    R(4,8)                  1.4401         estimate D2E/DX2                !
 ! R10   R(5,6)                  1.4071         estimate D2E/DX2                !
 ! R11   R(5,16)                 1.0743         estimate D2E/DX2                !
 ! R12   R(6,27)                 1.7308         estimate D2E/DX2                !
 ! R13   R(8,9)                  1.3693         estimate D2E/DX2                !
 ! R14   R(8,17)                 1.0321         estimate D2E/DX2                !
 ! R15   R(9,10)                 1.3633         estimate D2E/DX2                !
 ! R16   R(9,11)                 1.2206         estimate D2E/DX2                !
 ! R17   R(10,12)                1.4527         estimate D2E/DX2                !
 ! R18   R(10,18)                1.0323         estimate D2E/DX2                !
 ! R19   R(12,13)                1.533          estimate D2E/DX2                !
 ! R20   R(12,19)                1.1125         estimate D2E/DX2                !
 ! R21   R(12,20)                1.1125         estimate D2E/DX2                !
 ! R22   R(13,14)                1.5259         estimate D2E/DX2                !
 ! R23   R(13,21)                1.1119         estimate D2E/DX2                !
 ! R24   R(13,22)                1.1119         estimate D2E/DX2                !
 ! R25   R(14,23)                1.1109         estimate D2E/DX2                !
 ! R26   R(14,24)                1.1104         estimate D2E/DX2                !
 ! R27   R(14,25)                1.1109         estimate D2E/DX2                !
 ! R28   R(27,28)                1.3831         estimate D2E/DX2                !
 ! R29   R(27,29)                1.3844         estimate D2E/DX2                !
 ! R30   R(27,30)                1.3831         estimate D2E/DX2                !
 ! A1    A(2,1,6)              120.2399         estimate D2E/DX2                !
 ! A2    A(2,1,7)              118.8892         estimate D2E/DX2                !
 ! A3    A(6,1,7)              120.8709         estimate D2E/DX2                !
 ! A4    A(1,2,3)              120.1411         estimate D2E/DX2                !
 ! A5    A(1,2,26)             119.9258         estimate D2E/DX2                !
 ! A6    A(3,2,26)             119.9331         estimate D2E/DX2                !
 ! A7    A(2,3,4)              121.2807         estimate D2E/DX2                !
 ! A8    A(2,3,15)             118.7073         estimate D2E/DX2                !
 ! A9    A(4,3,15)             120.012          estimate D2E/DX2                !
 ! A10   A(3,4,5)              117.8892         estimate D2E/DX2                !
 ! A11   A(3,4,8)              117.536          estimate D2E/DX2                !
 ! A12   A(5,4,8)              124.5749         estimate D2E/DX2                !
 ! A13   A(4,5,6)              121.064          estimate D2E/DX2                !
 ! A14   A(4,5,16)             122.6147         estimate D2E/DX2                !
 ! A15   A(6,5,16)             116.3212         estimate D2E/DX2                !
 ! A16   A(1,6,5)              119.385          estimate D2E/DX2                !
 ! A17   A(1,6,27)             121.3493         estimate D2E/DX2                !
 ! A18   A(5,6,27)             119.2657         estimate D2E/DX2                !
 ! A19   A(4,8,9)              128.0841         estimate D2E/DX2                !
 ! A20   A(4,8,17)             115.8352         estimate D2E/DX2                !
 ! A21   A(9,8,17)             116.0807         estimate D2E/DX2                !
 ! A22   A(8,9,10)             119.434          estimate D2E/DX2                !
 ! A23   A(8,9,11)             121.348          estimate D2E/DX2                !
 ! A24   A(10,9,11)            119.2179         estimate D2E/DX2                !
 ! A25   A(9,10,12)            121.8632         estimate D2E/DX2                !
 ! A26   A(9,10,18)            119.1064         estimate D2E/DX2                !
 ! A27   A(12,10,18)           119.0304         estimate D2E/DX2                !
 ! A28   A(10,12,13)           111.0107         estimate D2E/DX2                !
 ! A29   A(10,12,19)           109.2171         estimate D2E/DX2                !
 ! A30   A(10,12,20)           109.2169         estimate D2E/DX2                !
 ! A31   A(13,12,19)           109.1831         estimate D2E/DX2                !
 ! A32   A(13,12,20)           109.1838         estimate D2E/DX2                !
 ! A33   A(19,12,20)           108.9998         estimate D2E/DX2                !
 ! A34   A(12,13,14)           111.2351         estimate D2E/DX2                !
 ! A35   A(12,13,21)           109.4716         estimate D2E/DX2                !
 ! A36   A(12,13,22)           109.4714         estimate D2E/DX2                !
 ! A37   A(14,13,21)           108.924          estimate D2E/DX2                !
 ! A38   A(14,13,22)           108.9247         estimate D2E/DX2                !
 ! A39   A(21,13,22)           108.7724         estimate D2E/DX2                !
 ! A40   A(13,14,23)           110.3393         estimate D2E/DX2                !
 ! A41   A(13,14,24)           109.5842         estimate D2E/DX2                !
 ! A42   A(13,14,25)           110.3392         estimate D2E/DX2                !
 ! A43   A(23,14,24)           108.6748         estimate D2E/DX2                !
 ! A44   A(23,14,25)           109.1885         estimate D2E/DX2                !
 ! A45   A(24,14,25)           108.6752         estimate D2E/DX2                !
 ! A46   A(6,27,28)            109.4401         estimate D2E/DX2                !
 ! A47   A(6,27,29)            111.8819         estimate D2E/DX2                !
 ! A48   A(6,27,30)            109.4398         estimate D2E/DX2                !
 ! A49   A(28,27,29)           108.5014         estimate D2E/DX2                !
 ! A50   A(28,27,30)           109.0274         estimate D2E/DX2                !
 ! A51   A(29,27,30)           108.5004         estimate D2E/DX2                !
 ! D1    D(6,1,2,3)              0.0009         estimate D2E/DX2                !
 ! D2    D(6,1,2,26)           179.9999         estimate D2E/DX2                !
 ! D3    D(7,1,2,3)           -179.9996         estimate D2E/DX2                !
 ! D4    D(7,1,2,26)            -0.0006         estimate D2E/DX2                !
 ! D5    D(2,1,6,5)             -0.0003         estimate D2E/DX2                !
 ! D6    D(2,1,6,27)          -179.9991         estimate D2E/DX2                !
 ! D7    D(7,1,6,5)           -179.9998         estimate D2E/DX2                !
 ! D8    D(7,1,6,27)             0.0014         estimate D2E/DX2                !
 ! D9    D(1,2,3,4)             -0.0018         estimate D2E/DX2                !
 ! D10   D(1,2,3,15)          -179.9998         estimate D2E/DX2                !
 ! D11   D(26,2,3,4)           179.9992         estimate D2E/DX2                !
 ! D12   D(26,2,3,15)            0.0011         estimate D2E/DX2                !
 ! D13   D(2,3,4,5)              0.002          estimate D2E/DX2                !
 ! D14   D(2,3,4,8)           -179.9994         estimate D2E/DX2                !
 ! D15   D(15,3,4,5)          -180.0            estimate D2E/DX2                !
 ! D16   D(15,3,4,8)            -0.0013         estimate D2E/DX2                !
 ! D17   D(3,4,5,6)             -0.0014         estimate D2E/DX2                !
 ! D18   D(3,4,5,16)           179.9983         estimate D2E/DX2                !
 ! D19   D(8,4,5,6)           -179.9999         estimate D2E/DX2                !
 ! D20   D(8,4,5,16)            -0.0002         estimate D2E/DX2                !
 ! D21   D(3,4,8,9)           -159.0247         estimate D2E/DX2                !
 ! D22   D(3,4,8,17)            20.9768         estimate D2E/DX2                !
 ! D23   D(5,4,8,9)             20.9739         estimate D2E/DX2                !
 ! D24   D(5,4,8,17)          -159.0246         estimate D2E/DX2                !
 ! D25   D(4,5,6,1)              0.0005         estimate D2E/DX2                !
 ! D26   D(4,5,6,27)           179.9994         estimate D2E/DX2                !
 ! D27   D(16,5,6,1)          -179.9992         estimate D2E/DX2                !
 ! D28   D(16,5,6,27)           -0.0003         estimate D2E/DX2                !
 ! D29   D(1,6,27,28)          143.3681         estimate D2E/DX2                !
 ! D30   D(1,6,27,29)           23.0771         estimate D2E/DX2                !
 ! D31   D(1,6,27,30)          -97.2125         estimate D2E/DX2                !
 ! D32   D(5,6,27,28)          -36.6307         estimate D2E/DX2                !
 ! D33   D(5,6,27,29)         -156.9217         estimate D2E/DX2                !
 ! D34   D(5,6,27,30)           82.7887         estimate D2E/DX2                !
 ! D35   D(4,8,9,10)           179.9995         estimate D2E/DX2                !
 ! D36   D(4,8,9,11)            -0.0023         estimate D2E/DX2                !
 ! D37   D(17,8,9,10)           -0.002          estimate D2E/DX2                !
 ! D38   D(17,8,9,11)          179.9962         estimate D2E/DX2                !
 ! D39   D(8,9,10,12)          179.9972         estimate D2E/DX2                !
 ! D40   D(8,9,10,18)           -0.0021         estimate D2E/DX2                !
 ! D41   D(11,9,10,12)          -0.001          estimate D2E/DX2                !
 ! D42   D(11,9,10,18)         179.9997         estimate D2E/DX2                !
 ! D43   D(9,10,12,13)         179.999          estimate D2E/DX2                !
 ! D44   D(9,10,12,19)          59.5587         estimate D2E/DX2                !
 ! D45   D(9,10,12,20)         -59.5601         estimate D2E/DX2                !
 ! D46   D(18,10,12,13)         -0.0017         estimate D2E/DX2                !
 ! D47   D(18,10,12,19)       -120.442          estimate D2E/DX2                !
 ! D48   D(18,10,12,20)        120.4392         estimate D2E/DX2                !
 ! D49   D(10,12,13,14)        179.9983         estimate D2E/DX2                !
 ! D50   D(10,12,13,21)         59.5718         estimate D2E/DX2                !
 ! D51   D(10,12,13,22)        -59.5745         estimate D2E/DX2                !
 ! D52   D(19,12,13,14)        -59.5412         estimate D2E/DX2                !
 ! D53   D(19,12,13,21)       -179.9677         estimate D2E/DX2                !
 ! D54   D(19,12,13,22)         60.8859         estimate D2E/DX2                !
 ! D55   D(20,12,13,14)         59.5377         estimate D2E/DX2                !
 ! D56   D(20,12,13,21)        -60.8888         estimate D2E/DX2                !
 ! D57   D(20,12,13,22)        179.9649         estimate D2E/DX2                !
 ! D58   D(12,13,14,23)        -60.3742         estimate D2E/DX2                !
 ! D59   D(12,13,14,24)        179.9997         estimate D2E/DX2                !
 ! D60   D(12,13,14,25)         60.3732         estimate D2E/DX2                !
 ! D61   D(21,13,14,23)         60.3749         estimate D2E/DX2                !
 ! D62   D(21,13,14,24)        -59.2512         estimate D2E/DX2                !
 ! D63   D(21,13,14,25)       -178.8778         estimate D2E/DX2                !
 ! D64   D(22,13,14,23)        178.8766         estimate D2E/DX2                !
 ! D65   D(22,13,14,24)         59.2505         estimate D2E/DX2                !
 ! D66   D(22,13,14,25)        -60.376          estimate D2E/DX2                !
 --------------------------------------------------------------------------------
 Trust Radius=3.00D-01 FncErr=1.00D-07 GrdErr=1.00D-06
 Number of steps in this run=    157 maximum allowed number of steps=    180.
 GradGradGradGradGradGradGradGradGradGradGradGradGradGradGradGradGradGrad

                          Input orientation:                          
 ---------------------------------------------------------------------
 Center     Atomic      Atomic             Coordinates (Angstroms)
 Number     Number       Type             X           Y           Z
 ---------------------------------------------------------------------
      1          6           0       -4.272240    3.073760   -0.716090
      2          6           0       -4.181950    1.704170   -0.472740
      3          6           0       -2.978940    1.147910   -0.034580
      4          6           0       -1.837070    1.945160    0.171220
      5          6           0       -1.945180    3.335330   -0.080570
      6          6           0       -3.155330    3.901220   -0.522320
      7          1           0       -5.214930    3.483600   -1.055300
      8          7           0       -0.638670    1.287430    0.624110
      9          6           0        0.441580    1.842100    1.256870
     10          7           0        1.491350    1.047630    1.610890
     11          8           0        0.484910    3.035090    1.511260
     12          6           0        2.663460    1.580310    2.283860
     13          6           0        3.686770    0.473720    2.564020
     14          6           0        4.920330    1.027760    3.270940
     15          1           0       -2.934790    0.080990    0.147370
     16          1           0       -1.122400    4.013380    0.051330
     17          1           0       -0.589650    0.271430    0.449090
     18          1           0        1.452890    0.038940    1.394920
     19          1           0        2.353830    2.044120    3.246490
     20          1           0        3.132680    2.358030    1.641490
     21          1           0        4.000070    0.007110    1.604680
     22          1           0        3.222790   -0.306130    3.206490
     23          1           0        5.414800    1.796260    2.639260
     24          1           0        5.641750    0.205160    3.460150
     25          1           0        4.636170    1.482490    4.243860
     26         17           0       -5.583570    0.677260   -0.717720
     27          6           0       -3.235290    5.605130   -0.815630
     28          9           0       -2.466670    6.270260    0.122350
     29          9           0       -4.532770    6.081690   -0.738140
     30          9           0       -2.742040    5.878470   -2.078560
 ---------------------------------------------------------------------
                    Distance matrix (angstroms):
                    1          2          3          4          5
     1  C    0.000000
     2  C    1.393969   0.000000
     3  C    2.417846   1.395938   0.000000
     4  C    2.826855   2.443609   1.407774   0.000000
     5  C    2.426420   2.796001   2.419831   1.416919   0.000000
     6  C    1.403469   2.425579   2.801735   2.458654   1.407067
     7  H    1.082449   2.138409   3.390718   3.909103   3.415164
     8  N    4.264967   3.732504   2.435201   1.440097   2.529315
     9  C    5.256392   4.938381   3.721518   2.526164   3.116906
    10  N    6.537508   6.079383   4.764569   3.735852   4.461429
    11  O    5.252910   5.242822   4.236665   2.894002   2.920514
    12  C    7.702858   7.380638   6.115457   4.985091   5.469021
    13  C    8.992506   8.523654   7.186024   6.197051   6.848469
    14  C   10.226723   9.865301   8.563841   7.490817   7.980772
    15  H    3.389839   2.138845   1.083224   2.163490   3.409107
    16  H    3.375398   3.868843   3.415412   2.191497   1.074298
    17  H    4.772019   3.975819   2.590533   2.105859   3.391974
    18  H    6.814955   6.165433   4.786899   3.994365   4.958844
    19  H    7.788903   7.527593   6.325113   5.199108   5.587310
    20  H    7.804056   7.642075   6.451783   5.199093   5.450254
    21  H    9.122578   8.610525   7.259144   6.315303   7.018769
    22  H    9.109652   8.509302   7.147043   6.315327   7.125511
    23  H   10.330979  10.089135   8.833156   7.661789   7.995969
    24  H   11.133600  10.687363   9.349771   8.353287   8.938466
    25  H   10.319545  10.002735   8.741104   7.661808   8.089986
    26  Cl   2.731813   1.754736   2.733549   4.053893   4.550734
    27  C    2.737336   4.028800   4.532391   4.040331   2.712322
    28  F    3.765724   4.913807   5.150293   4.370958   2.987799
    29  F    3.019272   4.399567   5.220304   5.020420   3.830211
    30  F    3.473361   4.698593   5.158699   4.620758   3.330842
                    6          7          8          9         10
     6  C    0.000000
     7  H    2.168047   0.000000
     8  N    3.805230   5.346563   0.000000
     9  C    4.510350   6.327461   1.369301   0.000000
    10  N    5.855356   7.616870   2.359708   1.363279   0.000000
    11  O    4.258753   6.267102   2.259155   1.220581   2.229988
    12  C    6.864371   8.765930   3.707373   2.461705   1.452749
    13  C    8.251520  10.069713   4.809865   3.756643   2.461239
    14  C    9.373467  11.290305   6.162436   4.977834   3.809733
    15  H    3.884750   4.268865   2.637223   3.966406   4.760987
    16  H    2.115292   4.272482   2.827167   2.934930   4.249658
    17  H    4.549915   5.828760   1.032129   2.045226   2.506557
    18  H    6.310999   7.894877   2.554897   2.072002   1.032268
    19  H    6.928463   8.824037   4.050248   2.766966   2.100488
    20  H    6.826608   8.844330   4.050226   2.766972   2.100488
    21  H    8.419499  10.201848   4.911074   4.018832   2.715952
    22  H    8.502131  10.184303   4.911109   4.018836   2.715969
    23  H    9.374091  11.379282   6.400331   5.161978   4.124494
    24  H   10.339707  12.206759   6.975536   5.880118   4.621184
    25  H    9.448502  11.363525   6.400357   5.161978   4.124503
    26  Cl   4.040848   2.850509   5.159927   6.446572   7.457486
    27  C    1.730819   2.911581   5.240021   5.654646   6.999995
    28  F    2.549942   4.087208   5.331223   5.417901   6.719936
    29  F    2.588121   2.704811   6.324924   6.833619   8.194494
    30  F    2.549943   3.591330   5.727673   6.128035   7.407472
                   11         12         13         14         15
    11  O    0.000000
    12  C    2.731186   0.000000
    13  C    4.233300   1.533034   0.000000
    14  C    5.176756   2.524500   1.525899   0.000000
    15  H    4.720302   6.176808   7.059709   8.506231   0.000000
    16  H    2.381574   5.023620   6.478497   7.469565   4.331013
    17  H    3.149714   3.957559   4.775104   6.236566   2.372126
    18  H    3.150783   2.152096   2.558525   4.064524   4.561785
    19  H    2.736038   1.112496   2.169943   2.760527   6.436453
    20  H    2.736066   1.112499   2.169954   2.760510   6.650677
    21  H    4.640446   2.173194   1.111852   2.159867   7.086712
    22  H    4.640425   2.173189   1.111850   2.159875   6.886499
    23  H    5.206813   2.782591   2.177352   1.110906   8.880727
    24  H    6.196747   3.484954   2.167284   1.110368   9.194943
    25  H    5.206787   2.782580   2.177347   1.110900   8.721518
    26  Cl   6.881436   8.822612   9.836181  11.241182   2.849553
    27  C    5.085215   7.784681   9.255718  10.206199   5.615496
    28  F    4.594260   7.279148   8.799230   9.589848   6.206998
    29  F    6.286389   9.010030  10.484008  11.444476   6.272644
    30  F    5.602216   8.168495   9.596586  10.528934   6.213106
                   16         17         18         19         20
    16  H    0.000000
    17  H    3.800556   0.000000
    18  H    4.922756   2.262878   0.000000
    19  H    5.115780   4.430796   2.874152   0.000000
    20  H    4.834718   4.430740   2.874138   1.811401   0.000000
    21  H    6.686015   4.740336   2.556000   3.091125   2.506102
    22  H    6.891580   4.740414   2.556053   2.506066   3.091131
    23  H    7.372109   6.570797   4.509245   3.130447   2.553273
    24  H    8.477990   6.921071   4.673259   3.773307   3.773302
    25  H    7.559354   6.570855   4.509276   2.553282   3.130396
    26  Cl   5.623448   5.144451   7.374447   8.976947   9.184981
    27  C    2.783809   6.086648   7.605790   7.773022   7.558580
    28  F    2.627853   6.294118   7.470725   7.131461   6.997575
    29  F    4.065931   7.121575   8.768860   8.922136   8.848017
    30  F    3.261629   6.516187   7.985149   8.308206   7.793883
                   21         22         23         24         25
    21  H    0.000000
    22  H    1.807783   0.000000
    23  H    2.504571   3.089774   0.000000
    24  H    2.485378   2.485383   1.804707   0.000000
    25  H    3.089764   2.504584   1.810927   1.804706   0.000000
    26  Cl   9.883764   9.691154  11.553598  11.986880  11.388975
    27  C    9.462883   9.634689  10.063191  11.235827  10.225189
    28  F    9.123764   9.226634   9.405800  10.661746   9.505784
    29  F   10.733065  10.794122  11.345743  12.477183  11.403615
    30  F    9.669290  10.087627  10.269192  11.539137  10.664690
                   26         27         28         29         30
    26  Cl   0.000000
    27  C    5.459662   0.000000
    28  F    6.457742   1.383106   0.000000
    29  F    5.505675   1.384402   2.246057   0.000000
    30  F    6.081017   1.383113   2.252406   2.246049   0.000000
 Stoichiometry    C11H12ClF3N2O
 Framework group  C1[X(C11H12ClF3N2O)]
 Deg. of freedom    84
 Full point group                 C1      NOp   1
 Largest Abelian subgroup         C1      NOp   1
 Largest concise Abelian subgroup C1      NOp   1
                         Standard orientation:                         
 ---------------------------------------------------------------------
 Center     Atomic      Atomic             Coordinates (Angstroms)
 Number     Number       Type             X           Y           Z
 ---------------------------------------------------------------------
      1          6           0       -2.977320    0.559146   -0.049283
      2          6           0       -2.384329    1.820582   -0.032317
      3          6           0       -0.997864    1.941955    0.075505
      4          6           0       -0.169852    0.807284    0.169027
      5          6           0       -0.787921   -0.467589    0.150376
      6          6           0       -2.184940   -0.595650    0.041859
      7          1           0       -4.054172    0.488606   -0.133606
      8          7           0        1.249443    1.025901    0.277140
      9          6           0        2.262995    0.150437   -0.007919
     10          7           0        3.556838    0.545981    0.159543
     11          8           0        2.032445   -0.978880   -0.409551
     12          6           0        4.672572   -0.339296   -0.126643
     13          6           0        6.010759    0.356710    0.147268
     14          6           0        7.186489   -0.568843   -0.151690
     15          1           0       -0.561643    2.933400    0.086458
     16          1           0       -0.229425   -1.382877    0.217046
     17          1           0        1.536599    1.959272    0.611281
     18          1           0        3.749846    1.501437    0.499293
     19          1           0        4.631989   -0.645878   -1.195290
     20          1           0        4.594252   -1.245825    0.513456
     21          1           0        6.056663    0.664746    1.214611
     22          1           0        6.094330    1.263449   -0.490737
     23          1           0        7.137092   -1.475095    0.488919
     24          1           0        8.139735   -0.038476    0.055561
     25          1           0        7.174823   -0.875365   -1.219401
     26         17           0       -3.382918    3.258921   -0.146772
     27          6           0       -2.890877   -2.175856    0.023531
     28          9           0       -2.064669   -3.041106   -0.670518
     29          9           0       -4.136199   -2.177647   -0.581233
     30          9           0       -3.032720   -2.631744    1.321625
 ---------------------------------------------------------------------
 Rotational constants (GHZ):      0.4793339      0.1511018      0.1181277
 General basis read from cards:  (6D, 7F)
 There are   370 symmetry adapted cartesian basis functions of A   symmetry.
 There are   370 symmetry adapted basis functions of A   symmetry.
   370 basis functions,   648 primitive gaussians,   370 cartesian basis functions
    72 alpha electrons       72 beta electrons
       nuclear repulsion energy      1384.4284072387 Hartrees.
 NAtoms=   30 NActive=   30 NUniq=   30 SFac= 1.00D+00 NAtFMM=   60 NAOKFM=F Big=F
 Integral buffers will be    131072 words long.
 Raffenetti 2 integral format.
 Two-electron integral symmetry is turned on.
 One-electron integrals computed using PRISM.
 NBasis=   370 RedAO= T EigKep=  1.22D-06  NBF=   370
 NBsUse=   370 1.00D-06 EigRej= -1.00D+00 NBFU=   370
 ExpMin= 4.38D-02 ExpMax= 2.52D+04 ExpMxC= 3.78D+03 IAcc=3 IRadAn=         5 AccDes= 0.00D+00
 Harris functional with IExCor= 1009 and IRadAn=       5 diagonalized for initial guess.
 HarFok:  IExCor= 1009 AccDes= 0.00D+00 IRadAn=         5 IDoV= 1 UseB2=F ITyADJ=14
 ICtDFT=  3500011 ScaDFX=  1.000000  1.000000  1.000000  1.000000
 FoFCou: FMM=F IPFlag=           0 FMFlag=      100000 FMFlg1=           0
         NFxFlg=           0 DoJE=T BraDBF=F KetDBF=T FulRan=T
         wScrn=  0.000000 ICntrl=     500 IOpCl=  0 I1Cent=   200000004 NGrid=           0
         NMat0=    1 NMatS0=      1 NMatT0=    0 NMatD0=    1 NMtDS0=    0 NMtDT0=    0
 Petite list used in FoFCou.
 Requested convergence on RMS density matrix=1.00D-08 within 128 cycles.
 Requested convergence on MAX density matrix=1.00D-06.
 Requested convergence on             energy=1.00D-06.
 No special actions if energy rises.
 SCF Done:  E(RM062X) =  -1370.49890202     A.U. after   15 cycles
            NFock= 15  Conv=0.77D-08     -V/T= 2.0071

 **********************************************************************

            Population analysis using the SCF density.

 **********************************************************************

 Orbital symmetries:
       Occupied  (A) (A) (A) (A) (A) (A) (A) (A) (A) (A) (A) (A)
                 (A) (A) (A) (A) (A) (A) (A) (A) (A) (A) (A) (A)
                 (A) (A) (A) (A) (A) (A) (A) (A) (A) (A) (A) (A)
                 (A) (A) (A) (A) (A) (A) (A) (A) (A) (A) (A) (A)
                 (A) (A) (A) (A) (A) (A) (A) (A) (A) (A) (A) (A)
                 (A) (A) (A) (A) (A) (A) (A) (A) (A) (A) (A) (A)
       Virtual   (A) (A) (A) (A) (A) (A) (A) (A) (A) (A) (A) (A)
                 (A) (A) (A) (A) (A) (A) (A) (A) (A) (A) (A) (A)
                 (A) (A) (A) (A) (A) (A) (A) (A) (A) (A) (A) (A)
                 (A) (A) (A) (A) (A) (A) (A) (A) (A) (A) (A) (A)
                 (A) (A) (A) (A) (A) (A) (A) (A) (A) (A) (A) (A)
                 (A) (A) (A) (A) (A) (A) (A) (A) (A) (A) (A) (A)
                 (A) (A) (A) (A) (A) (A) (A) (A) (A) (A) (A) (A)
                 (A) (A) (A) (A) (A) (A) (A) (A) (A) (A) (A) (A)
                 (A) (A) (A) (A) (A) (A) (A) (A) (A) (A) (A) (A)
                 (A) (A) (A) (A) (A) (A) (A) (A) (A) (A) (A) (A)
                 (A) (A) (A) (A) (A) (A) (A) (A) (A) (A) (A) (A)
                 (A) (A) (A) (A) (A) (A) (A) (A) (A) (A) (A) (A)
                 (A) (A) (A) (A) (A) (A) (A) (A) (A) (A) (A) (A)
                 (A) (A) (A) (A) (A) (A) (A) (A) (A) (A) (A) (A)
                 (A) (A) (A) (A) (A) (A) (A) (A) (A) (A) (A) (A)
                 (A) (A) (A) (A) (A) (A) (A) (A) (A) (A) (A) (A)
                 (A) (A) (A) (A) (A) (A) (A) (A) (A) (A) (A) (A)
                 (A) (A) (A) (A) (A) (A) (A) (A) (A) (A) (A) (A)
                 (A) (A) (A) (A) (A) (A) (A) (A) (A) (A) (A) (A)
                 (A) (A) (A) (A) (A) (A) (A) (A) (A) (A) (A) (A)
                 (A) (A) (A) (A) (A) (A) (A) (A) (A) (A) (A) (A)
                 (A) (A) (A) (A) (A) (A) (A) (A) (A) (A) (A) (A)
                 (A) (A) (A) (A) (A) (A) (A) (A) (A) (A) (A) (A)
                 (A) (A) (A) (A) (A) (A) (A) (A) (A) (A) (A) (A)
                 (A) (A) (A) (A) (A) (A) (A) (A) (A) (A)
 The electronic state is 1-A.
 Alpha  occ. eigenvalues -- -102.68751 -25.31283 -25.30940 -25.30897 -19.61083
 Alpha  occ. eigenvalues --  -14.82559 -14.80280 -10.84051 -10.69342 -10.64253
 Alpha  occ. eigenvalues --  -10.64165 -10.61952 -10.59789 -10.59160 -10.58753
 Alpha  occ. eigenvalues --  -10.58341 -10.57021 -10.55730  -9.83374  -7.55787
 Alpha  occ. eigenvalues --   -7.55105  -7.55095  -1.44609  -1.37013  -1.36859
 Alpha  occ. eigenvalues --   -1.18786  -1.06574  -1.04089  -1.00897  -0.95182
 Alpha  occ. eigenvalues --   -0.89993  -0.87859  -0.84984  -0.81162  -0.79316
 Alpha  occ. eigenvalues --   -0.73394  -0.72350  -0.69620  -0.68417  -0.68032
 Alpha  occ. eigenvalues --   -0.67025  -0.66018  -0.64188  -0.60543  -0.59366
 Alpha  occ. eigenvalues --   -0.57296  -0.56911  -0.56789  -0.55595  -0.54997
 Alpha  occ. eigenvalues --   -0.53586  -0.53429  -0.52961  -0.51898  -0.51679
 Alpha  occ. eigenvalues --   -0.50462  -0.49051  -0.48967  -0.47852  -0.47096
 Alpha  occ. eigenvalues --   -0.45301  -0.43894  -0.43175  -0.42437  -0.41578
 Alpha  occ. eigenvalues --   -0.41327  -0.39367  -0.38219  -0.34985  -0.32915
 Alpha  occ. eigenvalues --   -0.32383  -0.29622
 Alpha virt. eigenvalues --   -0.01633  -0.01165  -0.00367   0.01544   0.02161
 Alpha virt. eigenvalues --    0.02825   0.02963   0.03298   0.03691   0.04928
 Alpha virt. eigenvalues --    0.05127   0.05236   0.05610   0.06335   0.06624
 Alpha virt. eigenvalues --    0.06939   0.07461   0.07692   0.08136   0.08766
 Alpha virt. eigenvalues --    0.09192   0.09299   0.09932   0.10445   0.11471
 Alpha virt. eigenvalues --    0.11900   0.12033   0.12295   0.12417   0.12862
 Alpha virt. eigenvalues --    0.12996   0.13718   0.14232   0.14599   0.14945
 Alpha virt. eigenvalues --    0.16021   0.16185   0.16938   0.17231   0.17374
 Alpha virt. eigenvalues --    0.17838   0.18490   0.19222   0.19286   0.19640
 Alpha virt. eigenvalues --    0.19796   0.20113   0.20416   0.21525   0.21873
 Alpha virt. eigenvalues --    0.21919   0.22027   0.22788   0.23441   0.23511
 Alpha virt. eigenvalues --    0.24010   0.24337   0.24618   0.25374   0.26241
 Alpha virt. eigenvalues --    0.26580   0.26970   0.27270   0.27946   0.28368
 Alpha virt. eigenvalues --    0.28755   0.29191   0.29328   0.30172   0.30441
 Alpha virt. eigenvalues --    0.30547   0.30901   0.31243   0.31890   0.32063
 Alpha virt. eigenvalues --    0.32663   0.33379   0.34020   0.34540   0.34791
 Alpha virt. eigenvalues --    0.35549   0.35992   0.36909   0.37229   0.37624
 Alpha virt. eigenvalues --    0.38165   0.38919   0.39405   0.39715   0.40457
 Alpha virt. eigenvalues --    0.41472   0.41722   0.42278   0.43365   0.44229
 Alpha virt. eigenvalues --    0.45210   0.46789   0.48177   0.49179   0.49718
 Alpha virt. eigenvalues --    0.50266   0.52361   0.53481   0.56594   0.57842
 Alpha virt. eigenvalues --    0.59598   0.64530   0.65852   0.66258   0.67635
 Alpha virt. eigenvalues --    0.68362   0.70350   0.71016   0.71945   0.72564
 Alpha virt. eigenvalues --    0.73138   0.74074   0.75370   0.76380   0.77071
 Alpha virt. eigenvalues --    0.77441   0.78310   0.79563   0.80556   0.80787
 Alpha virt. eigenvalues --    0.81478   0.82754   0.83362   0.84741   0.86461
 Alpha virt. eigenvalues --    0.87538   0.88150   0.88722   0.90889   0.92620
 Alpha virt. eigenvalues --    0.93166   0.94409   0.96256   0.96350   0.97361
 Alpha virt. eigenvalues --    0.98506   0.98605   0.99658   1.00556   1.02499
 Alpha virt. eigenvalues --    1.03026   1.03712   1.04784   1.05122   1.05821
 Alpha virt. eigenvalues --    1.08692   1.09059   1.09556   1.11235   1.11667
 Alpha virt. eigenvalues --    1.13960   1.14437   1.14914   1.16636   1.18772
 Alpha virt. eigenvalues --    1.19310   1.19973   1.21218   1.23258   1.24235
 Alpha virt. eigenvalues --    1.26588   1.28812   1.30915   1.31180   1.33691
 Alpha virt. eigenvalues --    1.35183   1.37199   1.38573   1.39143   1.40744
 Alpha virt. eigenvalues --    1.41505   1.43685   1.44625   1.45340   1.48098
 Alpha virt. eigenvalues --    1.48804   1.50544   1.51111   1.51804   1.54078
 Alpha virt. eigenvalues --    1.55139   1.56810   1.57168   1.58320   1.60538
 Alpha virt. eigenvalues --    1.61291   1.63830   1.66207   1.69253   1.70329
 Alpha virt. eigenvalues --    1.72150   1.74376   1.75111   1.75824   1.76551
 Alpha virt. eigenvalues --    1.76992   1.78084   1.79202   1.82132   1.83106
 Alpha virt. eigenvalues --    1.85746   1.86059   1.86585   1.88801   1.88894
 Alpha virt. eigenvalues --    1.89044   1.89859   1.90622   1.91005   1.92044
 Alpha virt. eigenvalues --    1.94093   1.94769   1.95608   1.97809   1.99660
 Alpha virt. eigenvalues --    2.01516   2.01872   2.02893   2.03315   2.03474
 Alpha virt. eigenvalues --    2.04674   2.04969   2.05068   2.08131   2.09582
 Alpha virt. eigenvalues --    2.11283   2.12530   2.14457   2.16194   2.18706
 Alpha virt. eigenvalues --    2.18836   2.19014   2.20235   2.20662   2.21963
 Alpha virt. eigenvalues --    2.23406   2.26656   2.27445   2.29343   2.32293
 Alpha virt. eigenvalues --    2.34676   2.34852   2.37088   2.38206   2.39508
 Alpha virt. eigenvalues --    2.40231   2.41991   2.43882   2.48922   2.55773
 Alpha virt. eigenvalues --    2.59067   2.60753   2.62647   2.64016   2.66374
 Alpha virt. eigenvalues --    2.69128   2.71664   2.72644   2.73142   2.73773
 Alpha virt. eigenvalues --    2.76677   2.77719   2.79433   2.82336   2.85823
 Alpha virt. eigenvalues --    2.92714   2.96210   3.04022   3.10992   3.16414
 Alpha virt. eigenvalues --    3.20607   3.21973   3.26455   3.30268   3.37296
 Alpha virt. eigenvalues --    4.13651   4.23334   4.24536   4.28000   4.31460
 Alpha virt. eigenvalues --    4.35431   4.38778   4.39970   4.45113   4.47643
 Alpha virt. eigenvalues --    4.48279   4.55443   4.56773   4.64442   4.74609
 Alpha virt. eigenvalues --    5.51560   5.83856   6.38774
          Condensed to atoms (all electrons):
               1          2          3          4          5          6
     1  C   28.864928  -2.554224  -2.866556  -1.948748 -15.302593  -0.572701
     2  C   -2.554224   9.336906  -1.267981   0.366252   0.149004  -0.022049
     3  C   -2.866556  -1.267981  17.670527  -0.933219  -5.749900   0.142656
     4  C   -1.948748   0.366252  -0.933219  15.110666  -2.036985  -2.026086
     5  C  -15.302593   0.149004  -5.749900  -2.036985  37.622453 -10.501928
     6  C   -0.572701  -0.022049   0.142656  -2.026086 -10.501928  20.598566
     7  H    0.078262   0.040419   0.068706  -0.000941   0.060789   0.071006
     8  N    0.058434   0.004698   0.279688  -0.069886  -0.142196  -0.013834
     9  C    0.178717  -0.015493  -0.689599  -1.234218   1.198883  -0.875026
    10  N   -0.016350   0.021732  -0.094821  -0.133967   0.075665  -0.067518
    11  O   -0.034110   0.020248  -0.147817  -0.205754   0.370710  -0.068947
    12  C    0.008966   0.003688  -0.051556  -0.374296   0.072857  -0.084951
    13  C    0.000651   0.000314   0.003002   0.013213  -0.004658   0.004568
    14  C    0.000018   0.000017  -0.000796  -0.005222   0.000870  -0.000916
    15  H    0.067714   0.087317   0.163410  -0.074441   0.059788  -0.005293
    16  H    0.108921  -0.020973   0.035731  -0.044174  -0.013027   0.237424
    17  H    0.002745   0.047912  -0.147424   0.009083   0.071940  -0.001284
    18  H    0.000224  -0.000248  -0.001914   0.018647   0.003973   0.001852
    19  H   -0.000020   0.000043  -0.001700  -0.004250   0.002921  -0.000085
    20  H    0.000080  -0.000024  -0.000066  -0.000823   0.002452   0.000918
    21  H    0.000001  -0.000015  -0.000113  -0.000329   0.000627   0.000072
    22  H    0.000002   0.000020   0.000294  -0.000212  -0.000759  -0.000097
    23  H   -0.000000   0.000000   0.000009   0.000055  -0.000066  -0.000006
    24  H    0.000000  -0.000000  -0.000001  -0.000028   0.000004   0.000000
    25  H    0.000000   0.000000  -0.000003   0.000028   0.000005  -0.000001
    26  Cl  -0.139736  -0.183257   0.006806   0.075202   0.005611   0.063800
    27  C    1.096557  -0.446759   0.303478  -0.730646  -0.688296  -0.039290
    28  F   -0.074015   0.028261  -0.005983   0.079791  -0.076440   0.028263
    29  F   -0.083045   0.067180   0.002797   0.026656  -0.012161  -0.002613
    30  F   -0.119120   0.026023   0.000274   0.035025  -0.222951   0.298069
               7          8          9         10         11         12
     1  C    0.078262   0.058434   0.178717  -0.016350  -0.034110   0.008966
     2  C    0.040419   0.004698  -0.015493   0.021732   0.020248   0.003688
     3  C    0.068706   0.279688  -0.689599  -0.094821  -0.147817  -0.051556
     4  C   -0.000941  -0.069886  -1.234218  -0.133967  -0.205754  -0.374296
     5  C    0.060789  -0.142196   1.198883   0.075665   0.370710   0.072857
     6  C    0.071006  -0.013834  -0.875026  -0.067518  -0.068947  -0.084951
     7  H    0.448979   0.000010   0.000268  -0.000002   0.000005   0.000001
     8  N    0.000010   7.917263   0.098615  -0.481785  -0.122942  -0.146561
     9  C    0.000268   0.098615   6.250677   0.293036   0.691745  -0.562582
    10  N   -0.000002  -0.481785   0.293036   7.765100  -0.187749   0.397444
    11  O    0.000005  -0.122942   0.691745  -0.187749   8.321462  -0.070130
    12  C    0.000001  -0.146561  -0.562582   0.397444  -0.070130   6.702255
    13  C    0.000000   0.014383   0.129559  -0.078221   0.019023  -0.379778
    14  C    0.000000  -0.001119  -0.032810  -0.002145  -0.001478  -0.016359
    15  H   -0.000137  -0.007315   0.002449   0.000921  -0.000052  -0.000041
    16  H   -0.000115  -0.009619   0.000003  -0.000507  -0.005156   0.000641
    17  H   -0.000000   0.220844  -0.006307   0.031719   0.007506   0.007314
    18  H   -0.000000   0.037151   0.039065   0.228953   0.007997  -0.087506
    19  H   -0.000000   0.000969  -0.007838  -0.057660   0.000996   0.423083
    20  H   -0.000000   0.000315   0.003901  -0.057973   0.000589   0.412265
    21  H   -0.000000   0.000637   0.010052   0.007823  -0.000196  -0.094028
    22  H   -0.000000  -0.000374  -0.009946   0.007479  -0.000252  -0.065520
    23  H   -0.000000   0.000025   0.001337   0.000681  -0.000056  -0.009430
    24  H    0.000000   0.000012  -0.001619   0.000589   0.000008   0.027110
    25  H   -0.000000   0.000020   0.002198   0.000618  -0.000054  -0.006956
    26  Cl  -0.000137  -0.002405  -0.011397  -0.000218  -0.000112  -0.000287
    27  C   -0.017737   0.000156  -0.027888   0.001539  -0.002524  -0.001818
    28  F    0.000171  -0.000470   0.001963   0.000001  -0.000306   0.000155
    29  F    0.003611   0.000045   0.000742  -0.000001  -0.000002   0.000010
    30  F    0.000063  -0.000145  -0.004136  -0.000006   0.000112  -0.000078
              13         14         15         16         17         18
     1  C    0.000651   0.000018   0.067714   0.108921   0.002745   0.000224
     2  C    0.000314   0.000017   0.087317  -0.020973   0.047912  -0.000248
     3  C    0.003002  -0.000796   0.163410   0.035731  -0.147424  -0.001914
     4  C    0.013213  -0.005222  -0.074441  -0.044174   0.009083   0.018647
     5  C   -0.004658   0.000870   0.059788  -0.013027   0.071940   0.003973
     6  C    0.004568  -0.000916  -0.005293   0.237424  -0.001284   0.001852
     7  H    0.000000   0.000000  -0.000137  -0.000115  -0.000000  -0.000000
     8  N    0.014383  -0.001119  -0.007315  -0.009619   0.220844   0.037151
     9  C    0.129559  -0.032810   0.002449   0.000003  -0.006307   0.039065
    10  N   -0.078221  -0.002145   0.000921  -0.000507   0.031719   0.228953
    11  O    0.019023  -0.001478  -0.000052  -0.005156   0.007506   0.007997
    12  C   -0.379778  -0.016359  -0.000041   0.000641   0.007314  -0.087506
    13  C    6.114266   0.013162   0.000015  -0.000007  -0.000139  -0.000829
    14  C    0.013162   5.551909   0.000000   0.000002  -0.000035  -0.001439
    15  H    0.000015   0.000000   0.481118  -0.000090   0.004942   0.000005
    16  H   -0.000007   0.000002  -0.000090   0.419998  -0.000103   0.000000
    17  H   -0.000139  -0.000035   0.004942  -0.000103   0.344728   0.002481
    18  H   -0.000829  -0.001439   0.000005   0.000000   0.002481   0.346579
    19  H   -0.051678   0.004758   0.000000  -0.000000   0.000008   0.002791
    20  H   -0.056192   0.003565  -0.000000   0.000000   0.000001   0.002806
    21  H    0.422940  -0.035998  -0.000000  -0.000000   0.000002   0.001127
    22  H    0.407402  -0.026729   0.000000   0.000000   0.000002   0.000938
    23  H   -0.061988   0.413952   0.000000   0.000000   0.000000   0.000001
    24  H   -0.083365   0.408480  -0.000000  -0.000000  -0.000000  -0.000003
    25  H   -0.064917   0.413711  -0.000000  -0.000000  -0.000000   0.000002
    26  Cl   0.000002  -0.000001  -0.002522   0.000295  -0.000359   0.000006
    27  C    0.000141  -0.000005   0.002381   0.008708   0.000126  -0.000012
    28  F    0.000003   0.000000  -0.000000   0.002795  -0.000000   0.000000
    29  F    0.000000   0.000000  -0.000000   0.000191  -0.000000  -0.000000
    30  F    0.000001  -0.000000   0.000000  -0.000171  -0.000000  -0.000000
              19         20         21         22         23         24
     1  C   -0.000020   0.000080   0.000001   0.000002  -0.000000   0.000000
     2  C    0.000043  -0.000024  -0.000015   0.000020   0.000000  -0.000000
     3  C   -0.001700  -0.000066  -0.000113   0.000294   0.000009  -0.000001
     4  C   -0.004250  -0.000823  -0.000329  -0.000212   0.000055  -0.000028
     5  C    0.002921   0.002452   0.000627  -0.000759  -0.000066   0.000004
     6  C   -0.000085   0.000918   0.000072  -0.000097  -0.000006   0.000000
     7  H   -0.000000  -0.000000  -0.000000  -0.000000  -0.000000   0.000000
     8  N    0.000969   0.000315   0.000637  -0.000374   0.000025   0.000012
     9  C   -0.007838   0.003901   0.010052  -0.009946   0.001337  -0.001619
    10  N   -0.057660  -0.057973   0.007823   0.007479   0.000681   0.000589
    11  O    0.000996   0.000589  -0.000196  -0.000252  -0.000056   0.000008
    12  C    0.423083   0.412265  -0.094028  -0.065520  -0.009430   0.027110
    13  C   -0.051678  -0.056192   0.422940   0.407402  -0.061988  -0.083365
    14  C    0.004758   0.003565  -0.035998  -0.026729   0.413952   0.408480
    15  H    0.000000  -0.000000  -0.000000   0.000000   0.000000  -0.000000
    16  H   -0.000000   0.000000  -0.000000   0.000000   0.000000  -0.000000
    17  H    0.000008   0.000001   0.000002   0.000002   0.000000  -0.000000
    18  H    0.002791   0.002806   0.001127   0.000938   0.000001  -0.000003
    19  H    0.492638  -0.034916   0.003883  -0.005341  -0.000323  -0.000060
    20  H   -0.034916   0.494626  -0.005440   0.003920   0.002697  -0.000059
    21  H    0.003883  -0.005440   0.511543  -0.033979  -0.004871  -0.003086
    22  H   -0.005341   0.003920  -0.033979   0.511890   0.003962  -0.003073
    23  H   -0.000323   0.002697  -0.004871   0.003962   0.492617  -0.024073
    24  H   -0.000060  -0.000059  -0.003086  -0.003073  -0.024073   0.490752
    25  H    0.002716  -0.000338   0.003964  -0.004876  -0.027776  -0.024053
    26  Cl  -0.000000   0.000000   0.000000  -0.000000   0.000000   0.000000
    27  C   -0.000015   0.000013   0.000000  -0.000000  -0.000000  -0.000000
    28  F    0.000000   0.000000   0.000000  -0.000000  -0.000000  -0.000000
    29  F    0.000000  -0.000000   0.000000  -0.000000  -0.000000  -0.000000
    30  F   -0.000000  -0.000000   0.000000  -0.000000  -0.000000   0.000000
              25         26         27         28         29         30
     1  C    0.000000  -0.139736   1.096557  -0.074015  -0.083045  -0.119120
     2  C    0.000000  -0.183257  -0.446759   0.028261   0.067180   0.026023
     3  C   -0.000003   0.006806   0.303478  -0.005983   0.002797   0.000274
     4  C    0.000028   0.075202  -0.730646   0.079791   0.026656   0.035025
     5  C    0.000005   0.005611  -0.688296  -0.076440  -0.012161  -0.222951
     6  C   -0.000001   0.063800  -0.039290   0.028263  -0.002613   0.298069
     7  H   -0.000000  -0.000137  -0.017737   0.000171   0.003611   0.000063
     8  N    0.000020  -0.002405   0.000156  -0.000470   0.000045  -0.000145
     9  C    0.002198  -0.011397  -0.027888   0.001963   0.000742  -0.004136
    10  N    0.000618  -0.000218   0.001539   0.000001  -0.000001  -0.000006
    11  O   -0.000054  -0.000112  -0.002524  -0.000306  -0.000002   0.000112
    12  C   -0.006956  -0.000287  -0.001818   0.000155   0.000010  -0.000078
    13  C   -0.064917   0.000002   0.000141   0.000003   0.000000   0.000001
    14  C    0.413711  -0.000001  -0.000005   0.000000   0.000000  -0.000000
    15  H   -0.000000  -0.002522   0.002381  -0.000000  -0.000000   0.000000
    16  H   -0.000000   0.000295   0.008708   0.002795   0.000191  -0.000171
    17  H   -0.000000  -0.000359   0.000126  -0.000000  -0.000000  -0.000000
    18  H    0.000002   0.000006  -0.000012   0.000000  -0.000000  -0.000000
    19  H    0.002716  -0.000000  -0.000015   0.000000   0.000000  -0.000000
    20  H   -0.000338   0.000000   0.000013   0.000000  -0.000000  -0.000000
    21  H    0.003964   0.000000   0.000000   0.000000   0.000000   0.000000
    22  H   -0.004876  -0.000000  -0.000000  -0.000000  -0.000000  -0.000000
    23  H   -0.027776   0.000000  -0.000000  -0.000000  -0.000000  -0.000000
    24  H   -0.024053   0.000000  -0.000000  -0.000000  -0.000000   0.000000
    25  H    0.492194  -0.000000   0.000000   0.000000  -0.000000   0.000000
    26  Cl  -0.000000  16.958602  -0.004262  -0.000084  -0.000636  -0.000157
    27  C    0.000000  -0.004262   4.960402   0.154286   0.133365   0.137691
    28  F    0.000000  -0.000084   0.154286   9.212680  -0.033995  -0.038984
    29  F   -0.000000  -0.000636   0.133365  -0.033995   9.234549  -0.039497
    30  F    0.000000  -0.000157   0.137691  -0.038984  -0.039497   9.182710
 Mulliken charges:
               1
     1  C   -0.755003
     2  C    0.310986
     3  C   -0.717929
     4  C    0.089607
     5  C    1.053409
     6  C   -1.164569
     7  H    0.246779
     8  N   -0.634611
     9  C    0.575648
    10  N   -0.654376
    11  O   -0.592763
    12  C   -0.103910
    13  C   -0.360873
    14  C   -0.685390
    15  H    0.219829
    16  H    0.279232
    17  H    0.404299
    18  H    0.397351
    19  H    0.229080
    20  H    0.227683
    21  H    0.215382
    22  H    0.215248
    23  H    0.213251
    24  H    0.212465
    25  H    0.213519
    26  Cl   0.235247
    27  C    1.160411
    28  F   -0.278091
    29  F   -0.297194
    30  F   -0.254721
 Sum of Mulliken charges =  -0.00000
 Mulliken charges with hydrogens summed into heavy atoms:
               1
     1  C   -0.508223
     2  C    0.310986
     3  C   -0.498100
     4  C    0.089607
     5  C    1.332641
     6  C   -1.164569
     8  N   -0.230312
     9  C    0.575648
    10  N   -0.257025
    11  O   -0.592763
    12  C    0.352854
    13  C    0.069758
    14  C   -0.046155
    26  Cl   0.235247
    27  C    1.160411
    28  F   -0.278091
    29  F   -0.297194
    30  F   -0.254721
 Electronic spatial extent (au):  <R**2>=           8492.2973
 Charge=             -0.0000 electrons
 Dipole moment (field-independent basis, Debye):
    X=              4.7563    Y=              4.4922    Z=              1.4491  Tot=              6.7009
 Quadrupole moment (field-independent basis, Debye-Ang):
   XX=            -97.1052   YY=           -114.3076   ZZ=           -115.5496
   XY=              6.6661   XZ=              3.4852   YZ=              0.9299
 Traceless Quadrupole moment (field-independent basis, Debye-Ang):
   XX=             11.8823   YY=             -5.3202   ZZ=             -6.5621
   XY=              6.6661   XZ=              3.4852   YZ=              0.9299
 Octapole moment (field-independent basis, Debye-Ang**2):
  XXX=             76.7729  YYY=            -16.4512  ZZZ=             -3.5431  XYY=             14.6801
  XXY=             12.6188  XXZ=              5.5700  XZZ=             -8.3747  YZZ=            -13.0624
  YYZ=              6.7874  XYZ=              1.4971
 Hexadecapole moment (field-independent basis, Debye-Ang**3):
 XXXX=          -7872.9886 YYYY=          -2190.3867 ZZZZ=           -234.4494 XXXY=            130.4886
 XXXZ=             21.9524 YYYX=            132.3628 YYYZ=              5.1357 ZZZX=             -0.5152
 ZZZY=              3.2394 XXYY=          -1819.5936 XXZZ=          -1463.0377 YYZZ=           -417.7013
 XXYZ=              4.8694 YYXZ=             20.7623 ZZXY=             34.8148
 N-N= 1.384428407239D+03 E-N=-5.992811798441D+03  KE= 1.360849858593D+03
 Calling FoFJK, ICntrl=      2127 FMM=F ISym2X=0 I1Cent= 0 IOpClX= 0 NMat=1 NMatS=1 NMatT=0.
 ***** Axes restored to original set *****
 -------------------------------------------------------------------
 Center     Atomic                   Forces (Hartrees/Bohr)
 Number     Number              X              Y              Z
 -------------------------------------------------------------------
      1        6          -0.004779917    0.014491679   -0.003653680
      2        6           0.011455259    0.004821200    0.000638025
      3        6           0.001653113   -0.000994633   -0.000145773
      4        6           0.003761261    0.004760207    0.003257649
      5        6          -0.004716869    0.007998167   -0.003455099
      6        6          -0.002589867    0.032820537   -0.002943125
      7        1          -0.002072355    0.002178981   -0.000359315
      8        7          -0.020437422   -0.025975199   -0.017910970
      9        6           0.011806515    0.030191269    0.010452840
     10        7          -0.010509369   -0.036344385   -0.012222711
     11        8          -0.002962281    0.011302488    0.000492995
     12        6           0.004991104    0.005986373    0.003738660
     13        6          -0.004928202   -0.004711903   -0.003335971
     14        6           0.005526611    0.000613050    0.002805350
     15        1           0.000388168   -0.002456587    0.001518408
     16        1           0.010131099   -0.001786830    0.004811086
     17        1          -0.006085881    0.016269160    0.001545091
     18        1           0.004105119    0.016231771    0.005269576
     19        1           0.002891679   -0.001188764   -0.010615555
     20        1          -0.006060299   -0.004788536    0.007864427
     21        1          -0.004490755    0.001708304    0.008001676
     22        1           0.002997348    0.004742631   -0.007460400
     23        1          -0.003367655   -0.006565228    0.007887017
     24        1          -0.005281450    0.009969336   -0.000617481
     25        1           0.004849048   -0.003244678   -0.009081560
     26       17           0.007662188    0.005126392    0.001434332
     27        6           0.003774853   -0.045051996    0.009345543
     28        9          -0.025234694   -0.018013204   -0.034082612
     29        9           0.043444060   -0.015319790   -0.003906182
     30        9          -0.015920408   -0.002769811    0.040727759
 -------------------------------------------------------------------
 Cartesian Forces:  Max     0.045051996 RMS     0.013350529

 GradGradGradGradGradGradGradGradGradGradGradGradGradGradGradGradGradGrad
 Berny optimization.
 FormGI is forming the generalized inverse of G from B-inverse, IUseBI=4.
 Internal  Forces:  Max     0.082223260 RMS     0.011639649
 Search for a local minimum.
 Step number   1 out of a maximum of  157
 All quantities printed in internal units (Hartrees-Bohrs-Radians)
 Mixed Optimization -- RFO/linear search
 Second derivative matrix not updated -- first step.
 ITU=  0
     Eigenvalues ---    0.00230   0.00329   0.00423   0.00994   0.01161
     Eigenvalues ---    0.01296   0.01468   0.01631   0.01689   0.01920
     Eigenvalues ---    0.01944   0.02029   0.02060   0.02098   0.02102
     Eigenvalues ---    0.02124   0.02137   0.02156   0.02178   0.03755
     Eigenvalues ---    0.04435   0.04933   0.05553   0.05673   0.05783
     Eigenvalues ---    0.08033   0.09179   0.10768   0.11201   0.11975
     Eigenvalues ---    0.12669   0.16000   0.16000   0.16000   0.16000
     Eigenvalues ---    0.16000   0.16000   0.16000   0.16000   0.16605
     Eigenvalues ---    0.21964   0.22000   0.22000   0.22004   0.23452
     Eigenvalues ---    0.23477   0.23501   0.25000   0.25000   0.25000
     Eigenvalues ---    0.25000   0.25000   0.25000   0.25000   0.25000
     Eigenvalues ---    0.29145   0.29805   0.30033   0.32337   0.32337
     Eigenvalues ---    0.32405   0.32405   0.32504   0.32505   0.32561
     Eigenvalues ---    0.35608   0.35700   0.36692   0.37887   0.39572
     Eigenvalues ---    0.40626   0.41157   0.42437   0.42458   0.43936
     Eigenvalues ---    0.44749   0.45525   0.46257   0.48306   0.48538
     Eigenvalues ---    0.48539   0.51111   0.52290   0.95126
 RFO step:  Lambda=-6.04496827D-02 EMin= 2.30000000D-03
 Linear search not attempted -- first point.
 Maximum step size (   0.300) exceeded in Quadratic search.
    -- Step size scaled by   0.657
 Iteration  1 RMS(Cart)=  0.06029206 RMS(Int)=  0.00319914
 Iteration  2 RMS(Cart)=  0.00583117 RMS(Int)=  0.00003052
 Iteration  3 RMS(Cart)=  0.00000074 RMS(Int)=  0.00003052
 Variable       Old X    -DE/DX   Delta X   Delta X   Delta X     New X
                                 (Linear)    (Quad)   (Total)
    R1        2.63422  -0.00604   0.00000  -0.00709  -0.00710   2.62712
    R2        2.65217  -0.01572   0.00000  -0.02023  -0.02019   2.63198
    R3        2.04553   0.00274   0.00000   0.00432   0.00432   2.04985
    R4        2.63794  -0.00733   0.00000  -0.00874  -0.00879   2.62915
    R5        3.31597  -0.00932   0.00000  -0.01698  -0.01698   3.29899
    R6        2.66031  -0.00945   0.00000  -0.01229  -0.01233   2.64797
    R7        2.04700   0.00269   0.00000   0.00425   0.00425   2.05124
    R8        2.67759  -0.02037   0.00000  -0.02781  -0.02780   2.64979
    R9        2.72139  -0.03306   0.00000  -0.04763  -0.04763   2.67376
   R10        2.65897  -0.01723   0.00000  -0.02289  -0.02284   2.63613
   R11        2.03013   0.00722   0.00000   0.01111   0.01111   2.04123
   R12        3.27077  -0.08222   0.00000  -0.23857  -0.23857   3.03220
   R13        2.58760   0.01081   0.00000   0.01243   0.01243   2.60004
   R14        1.95044  -0.01657   0.00000  -0.02245  -0.02245   1.92800
   R15        2.57622   0.00109   0.00000   0.00123   0.00123   2.57745
   R16        2.30656   0.01104   0.00000   0.00717   0.00717   2.31374
   R17        2.74530  -0.00177   0.00000  -0.00264  -0.00264   2.74265
   R18        1.95070  -0.01712   0.00000  -0.02320  -0.02320   1.92750
   R19        2.89702  -0.00528   0.00000  -0.00986  -0.00986   2.88716
   R20        2.10231  -0.01049   0.00000  -0.01795  -0.01795   2.08436
   R21        2.10232  -0.01044   0.00000  -0.01788  -0.01788   2.08444
   R22        2.88353   0.00214   0.00000   0.00392   0.00392   2.88745
   R23        2.10110  -0.00889   0.00000  -0.01519  -0.01519   2.08591
   R24        2.10109  -0.00889   0.00000  -0.01519  -0.01519   2.08590
   R25        2.09931  -0.01052   0.00000  -0.01794  -0.01794   2.08137
   R26        2.09829  -0.01092   0.00000  -0.01859  -0.01859   2.07970
   R27        2.09930  -0.01052   0.00000  -0.01794  -0.01794   2.08136
   R28        2.61369  -0.04580   0.00000  -0.05514  -0.05514   2.55855
   R29        2.61614  -0.04621   0.00000  -0.05587  -0.05587   2.56027
   R30        2.61371  -0.04342   0.00000  -0.05227  -0.05227   2.56143
    A1        2.09858  -0.01342   0.00000  -0.02939  -0.02935   2.06923
    A2        2.07501   0.00789   0.00000   0.01822   0.01820   2.09321
    A3        2.10960   0.00553   0.00000   0.01117   0.01115   2.12075
    A4        2.09686   0.00425   0.00000   0.01170   0.01163   2.10849
    A5        2.09310  -0.00143   0.00000  -0.00439  -0.00436   2.08874
    A6        2.09323  -0.00281   0.00000  -0.00731  -0.00728   2.08595
    A7        2.11675  -0.00673   0.00000  -0.01357  -0.01366   2.10309
    A8        2.07183   0.00395   0.00000   0.00852   0.00856   2.08040
    A9        2.09460   0.00278   0.00000   0.00505   0.00510   2.09970
   A10        2.05755   0.00965   0.00000   0.02085   0.02082   2.07837
   A11        2.05139   0.00052   0.00000   0.00089   0.00091   2.05229
   A12        2.17424  -0.01017   0.00000  -0.02174  -0.02173   2.15251
   A13        2.11297  -0.01201   0.00000  -0.02859  -0.02853   2.08444
   A14        2.14003  -0.00276   0.00000  -0.01184  -0.01187   2.12816
   A15        2.03019   0.01477   0.00000   0.04043   0.04039   2.07058
   A16        2.08366   0.01827   0.00000   0.03899   0.03908   2.12275
   A17        2.11794  -0.01080   0.00000  -0.02302  -0.02307   2.09487
   A18        2.08158  -0.00747   0.00000  -0.01597  -0.01602   2.06556
   A19        2.23549  -0.01209   0.00000  -0.02832  -0.02832   2.20717
   A20        2.02171   0.00085   0.00000  -0.00131  -0.00131   2.02039
   A21        2.02599   0.01123   0.00000   0.02963   0.02963   2.05562
   A22        2.08452  -0.02455   0.00000  -0.05197  -0.05197   2.03255
   A23        2.11792   0.00785   0.00000   0.01662   0.01662   2.13454
   A24        2.08075   0.01670   0.00000   0.03535   0.03535   2.11610
   A25        2.12691  -0.00658   0.00000  -0.01543  -0.01543   2.11149
   A26        2.07880   0.00708   0.00000   0.01902   0.01902   2.09782
   A27        2.07747  -0.00050   0.00000  -0.00359  -0.00359   2.07388
   A28        1.93750  -0.00415   0.00000  -0.00842  -0.00840   1.92910
   A29        1.90620   0.00077   0.00000   0.00087   0.00089   1.90709
   A30        1.90619   0.00079   0.00000   0.00092   0.00094   1.90713
   A31        1.90560   0.00267   0.00000   0.00877   0.00876   1.91437
   A32        1.90562   0.00266   0.00000   0.00872   0.00871   1.91433
   A33        1.90240  -0.00274   0.00000  -0.01101  -0.01104   1.89136
   A34        1.94142  -0.00088   0.00000  -0.00070  -0.00070   1.94072
   A35        1.91064  -0.00010   0.00000  -0.00116  -0.00116   1.90948
   A36        1.91064  -0.00012   0.00000  -0.00124  -0.00125   1.90939
   A37        1.90108   0.00132   0.00000   0.00554   0.00554   1.90663
   A38        1.90109   0.00132   0.00000   0.00553   0.00553   1.90663
   A39        1.89844  -0.00155   0.00000  -0.00812  -0.00814   1.89030
   A40        1.92578   0.00218   0.00000   0.00622   0.00620   1.93198
   A41        1.91260   0.00344   0.00000   0.01083   0.01079   1.92340
   A42        1.92578   0.00216   0.00000   0.00615   0.00612   1.93190
   A43        1.89673  -0.00258   0.00000  -0.00714  -0.00719   1.88955
   A44        1.90570  -0.00279   0.00000  -0.00942  -0.00943   1.89627
   A45        1.89674  -0.00257   0.00000  -0.00711  -0.00715   1.88959
   A46        1.91009   0.00715   0.00000   0.01571   0.01563   1.92572
   A47        1.95271  -0.00155   0.00000  -0.00352  -0.00351   1.94919
   A48        1.91009   0.00903   0.00000   0.01878   0.01871   1.92879
   A49        1.89371  -0.00259   0.00000  -0.00486  -0.00486   1.88885
   A50        1.90289  -0.00767   0.00000  -0.01577  -0.01593   1.88696
   A51        1.89369  -0.00481   0.00000  -0.01124  -0.01123   1.88246
    D1        0.00002   0.00031   0.00000   0.00243   0.00244   0.00245
    D2        3.14159  -0.00012   0.00000  -0.00104  -0.00104   3.14055
    D3       -3.14159   0.00039   0.00000   0.00311   0.00313  -3.13846
    D4       -0.00001  -0.00004   0.00000  -0.00036  -0.00036  -0.00037
    D5       -0.00000  -0.00005   0.00000  -0.00021  -0.00017  -0.00018
    D6       -3.14158  -0.00043   0.00000  -0.00365  -0.00365   3.13796
    D7       -3.14159  -0.00013   0.00000  -0.00090  -0.00087   3.14072
    D8        0.00002  -0.00051   0.00000  -0.00434  -0.00435  -0.00433
    D9       -0.00003  -0.00049   0.00000  -0.00399  -0.00399  -0.00402
   D10       -3.14159  -0.00050   0.00000  -0.00401  -0.00400   3.13759
   D11        3.14158  -0.00006   0.00000  -0.00051  -0.00051   3.14107
   D12        0.00002  -0.00007   0.00000  -0.00054  -0.00053  -0.00051
   D13        0.00003   0.00040   0.00000   0.00320   0.00320   0.00323
   D14       -3.14158   0.00074   0.00000   0.00614   0.00618  -3.13540
   D15       -3.14159   0.00040   0.00000   0.00323   0.00321  -3.13838
   D16       -0.00002   0.00074   0.00000   0.00616   0.00620   0.00617
   D17       -0.00002  -0.00013   0.00000  -0.00095  -0.00095  -0.00097
   D18        3.14156  -0.00057   0.00000  -0.00465  -0.00460   3.13696
   D19       -3.14159  -0.00049   0.00000  -0.00411  -0.00412   3.13748
   D20       -0.00000  -0.00094   0.00000  -0.00781  -0.00777  -0.00777
   D21       -2.77550  -0.00142   0.00000  -0.01282  -0.01280  -2.78831
   D22        0.36611  -0.00144   0.00000  -0.01302  -0.01300   0.35311
   D23        0.36606  -0.00105   0.00000  -0.00966  -0.00968   0.35638
   D24       -2.77550  -0.00107   0.00000  -0.00987  -0.00988  -2.78539
   D25        0.00001  -0.00005   0.00000  -0.00052  -0.00055  -0.00054
   D26        3.14158   0.00033   0.00000   0.00285   0.00287  -3.13873
   D27       -3.14158   0.00037   0.00000   0.00296   0.00298  -3.13860
   D28       -0.00001   0.00075   0.00000   0.00633   0.00640   0.00639
   D29        2.50225   0.00021   0.00000   0.00162   0.00152   2.50377
   D30        0.40277  -0.00034   0.00000  -0.00056  -0.00060   0.40217
   D31       -1.69668   0.00063   0.00000   0.00321   0.00324  -1.69344
   D32       -0.63933  -0.00017   0.00000  -0.00181  -0.00184  -0.64116
   D33       -2.73880  -0.00073   0.00000  -0.00400  -0.00397  -2.74277
   D34        1.44494   0.00024   0.00000  -0.00023  -0.00013   1.44481
   D35        3.14158  -0.00026   0.00000  -0.00212  -0.00212   3.13946
   D36       -0.00004  -0.00025   0.00000  -0.00205  -0.00205  -0.00209
   D37       -0.00004  -0.00024   0.00000  -0.00192  -0.00191  -0.00195
   D38        3.14153  -0.00023   0.00000  -0.00184  -0.00184   3.13968
   D39        3.14154   0.00005   0.00000   0.00040   0.00040  -3.14124
   D40       -0.00004  -0.00002   0.00000  -0.00020  -0.00020  -0.00024
   D41       -0.00002   0.00004   0.00000   0.00033   0.00033   0.00031
   D42        3.14159  -0.00003   0.00000  -0.00027  -0.00027   3.14132
   D43        3.14157  -0.00003   0.00000  -0.00029  -0.00029   3.14128
   D44        1.03950  -0.00124   0.00000  -0.00646  -0.00646   1.03304
   D45       -1.03952   0.00117   0.00000   0.00584   0.00585  -1.03367
   D46       -0.00003   0.00004   0.00000   0.00030   0.00030   0.00027
   D47       -2.10211  -0.00117   0.00000  -0.00586  -0.00586  -2.10797
   D48        2.10206   0.00124   0.00000   0.00644   0.00644   2.10850
   D49        3.14156   0.00001   0.00000   0.00006   0.00006  -3.14156
   D50        1.03972  -0.00101   0.00000  -0.00565  -0.00564   1.03408
   D51       -1.03977   0.00102   0.00000   0.00570   0.00570  -1.03407
   D52       -1.03919   0.00009   0.00000   0.00155   0.00154  -1.03765
   D53       -3.14103  -0.00092   0.00000  -0.00416  -0.00417   3.13799
   D54        1.06266   0.00110   0.00000   0.00719   0.00718   1.06984
   D55        1.03913  -0.00008   0.00000  -0.00145  -0.00144   1.03769
   D56       -1.06271  -0.00110   0.00000  -0.00716  -0.00714  -1.06985
   D57        3.14098   0.00093   0.00000   0.00419   0.00420  -3.13801
   D58       -1.05373   0.00032   0.00000   0.00182   0.00183  -1.05190
   D59        3.14159  -0.00001   0.00000  -0.00004  -0.00004   3.14155
   D60        1.05371  -0.00034   0.00000  -0.00189  -0.00190   1.05181
   D61        1.05374   0.00050   0.00000   0.00357   0.00358   1.05732
   D62       -1.03413   0.00017   0.00000   0.00171   0.00171  -1.03242
   D63       -3.12201  -0.00016   0.00000  -0.00014  -0.00015  -3.12216
   D64        3.12199   0.00016   0.00000   0.00018   0.00019   3.12217
   D65        1.03412  -0.00017   0.00000  -0.00168  -0.00168   1.03244
   D66       -1.05376  -0.00050   0.00000  -0.00354  -0.00354  -1.05731
         Item               Value     Threshold  Converged?
 Maximum Force            0.082223     0.000450     NO 
 RMS     Force            0.011640     0.000300     NO 
 Maximum Displacement     0.279575     0.001800     NO 
 RMS     Displacement     0.064916     0.001200     NO 
 Predicted change in Energy=-2.943233D-02
 GradGradGradGradGradGradGradGradGradGradGradGradGradGradGradGradGradGrad

                          Input orientation:                          
 ---------------------------------------------------------------------
 Center     Atomic      Atomic             Coordinates (Angstroms)
 Number     Number       Type             X           Y           Z
 ---------------------------------------------------------------------
      1          6           0       -4.239973    3.095647   -0.714969
      2          6           0       -4.150283    1.728828   -0.477386
      3          6           0       -2.961356    1.159418   -0.032525
      4          6           0       -1.827712    1.955082    0.180235
      5          6           0       -1.908834    3.334574   -0.057679
      6          6           0       -3.111994    3.884100   -0.500843
      7          1           0       -5.174864    3.525041   -1.058841
      8          7           0       -0.649282    1.310957    0.625568
      9          6           0        0.420542    1.906207    1.253424
     10          7           0        1.454877    1.087110    1.599157
     11          8           0        0.453050    3.106274    1.494010
     12          6           0        2.632340    1.611572    2.266193
     13          6           0        3.635502    0.492493    2.541063
     14          6           0        4.882075    1.028317    3.243665
     15          1           0       -2.921597    0.089846    0.148253
     16          1           0       -1.064982    3.991329    0.095173
     17          1           0       -0.602909    0.305693    0.457619
     18          1           0        1.410856    0.089508    1.391233
     19          1           0        2.332236    2.083337    3.216968
     20          1           0        3.099513    2.380981    1.628660
     21          1           0        3.929762    0.021309    1.587226
     22          1           0        3.162200   -0.276368    3.176071
     23          1           0        5.385175    1.784598    2.620740
     24          1           0        5.592725    0.209742    3.433600
     25          1           0        4.617569    1.486898    4.209502
     26         17           0       -5.546787    0.713352   -0.734745
     27          6           0       -3.174671    5.464909   -0.768724
     28          9           0       -2.430714    6.127373    0.148219
     29          9           0       -4.444105    5.933745   -0.703080
     30          9           0       -2.686471    5.757907   -1.998789
 ---------------------------------------------------------------------
                    Distance matrix (angstroms):
                    1          2          3          4          5
     1  C    0.000000
     2  C    1.390210   0.000000
     3  C    2.418590   1.391287   0.000000
     4  C    2.814477   2.424457   1.401248   0.000000
     5  C    2.433788   2.789026   2.416555   1.402207   0.000000
     6  C    1.392783   2.392444   2.768737   2.415441   1.394979
     7  H    1.084734   2.148077   3.398399   3.899167   3.421338
     8  N    4.227910   3.694339   2.408680   1.414891   2.479581
     9  C    5.197089   4.890767   3.694400   2.491740   3.030712
    10  N    6.466894   6.011793   4.708580   3.679960   4.371585
    11  O    5.186923   5.193692   4.216483   2.872826   2.835200
    12  C    7.636655   7.317442   6.064485   4.935715   5.384364
    13  C    8.910739   8.441447   7.112432   6.128572   6.750597
    14  C   10.156594   9.793898   8.501177   7.434026   7.895197
    15  H    3.393834   2.141812   1.085470   2.162570   3.405343
    16  H    3.396932   3.868568   3.410610   2.176074   1.080175
    17  H    4.731495   3.934897   2.555653   2.073058   3.338427
    18  H    6.738310   6.091418   4.721020   3.928766   4.863141
    19  H    7.725208   7.469738   6.279725   5.152025   5.502325
    20  H    7.737661   7.577617   6.402021   5.153336   5.369974
    21  H    9.027527   8.512660   7.169825   6.234390   6.911776
    22  H    9.016809   8.416708   7.060773   6.233268   7.015086
    23  H   10.270798  10.026289   8.780390   7.616487   7.923315
    24  H   11.055362  10.607999   9.278373   8.288153   8.844602
    25  H   10.261313   9.944883   8.691498   7.615500   8.013531
    26  Cl   2.717257   1.745752   2.715979   4.026239   4.534746
    27  C    2.598300   3.872338   4.373185   3.877333   2.578033
    28  F    3.634539   4.763979   4.999483   4.215762   2.848592
    29  F    2.845455   4.221208   5.044045   4.843090   3.687795
    30  F    3.339041   4.548724   5.008779   4.466218   3.200808
                    6          7          8          9         10
     6  C    0.000000
     7  H    2.166961   0.000000
     8  N    3.735614   5.312278   0.000000
     9  C    4.412291   6.267037   1.375880   0.000000
    10  N    5.752344   7.547313   2.329263   1.363929   0.000000
    11  O    4.158604   6.194016   2.278703   1.224377   2.256488
    12  C    6.768917   8.698830   3.681176   2.450421   1.451350
    13  C    8.141553   9.988905   4.764281   3.740665   2.448649
    14  C    9.278037  11.219947   6.126191   4.963570   3.801782
    15  H    3.854081   4.281922   2.623425   3.961119   4.717328
    16  H    2.134711   4.294218   2.763787   2.809993   4.128698
    17  H    4.474276   5.793671   1.020251   2.059709   2.479557
    18  H    6.199600   7.821602   2.514428   2.073670   1.019990
    19  H    6.834069   8.758858   4.025092   2.746171   2.092735
    20  H    6.736242   8.774785   4.025494   2.746470   2.092797
    21  H    8.298645  10.108018   4.853413   3.997361   2.694649
    22  H    8.378227  10.094148   4.853046   3.997111   2.694565
    23  H    9.292689  11.317371   6.373360   5.150915   4.120360
    24  H   10.234885  12.129064   6.932558   5.863671   4.610503
    25  H    9.363763  11.304920   6.373010   5.150656   4.120237
    26  Cl   4.004569   2.854638   5.117924   6.401932   7.389864
    27  C    1.604571   2.801434   5.057367   5.447843   6.797404
    28  F    2.432632   3.969822   5.157443   5.212425   6.527426
    29  F    2.452849   2.542132   6.126676   6.611638   7.974218
    30  F    2.436405   3.472938   5.550924   5.921656   7.205021
                   11         12         13         14         15
    11  O    0.000000
    12  C    2.753126   0.000000
    13  C    4.249256   1.527818   0.000000
    14  C    5.195715   2.521299   1.527973   0.000000
    15  H    4.722091   6.135759   6.991653   8.447461   0.000000
    16  H    2.245994   4.903749   6.349708   7.352546   4.321043
    17  H    3.167398   3.929770   4.726495   6.194294   2.349173
    18  H    3.166833   2.138752   2.536446   4.045025   4.507232
    19  H    2.747057   1.102995   2.164749   2.759612   6.402638
    20  H    2.747352   1.103036   2.164752   2.759614   6.610194
    21  H    4.649003   2.161767   1.103815   2.159804   7.001176
    22  H    4.648773   2.161700   1.103810   2.159801   6.805467
    23  H    5.228977   2.780961   2.176520   1.101412   8.831072
    24  H    6.210327   3.477333   2.169629   1.100529   9.126968
    25  H    5.228718   2.780850   2.176462   1.101408   8.676666
    26  Cl   6.833116   8.758456   9.751622  11.166383   2.839026
    27  C    4.882979   7.601335   9.058591  10.034628   5.458590
    28  F    4.387971   7.107234   8.618385   9.437109   6.057450
    29  F    6.066624   8.807601  10.267022  11.252451   6.098685
    30  F    5.393273   7.979469   9.396925  10.350615   6.065641
                   16         17         18         19         20
    16  H    0.000000
    17  H    3.732129   0.000000
    18  H    4.799349   2.230161   0.000000
    19  H    4.992707   4.403305   2.856152   0.000000
    20  H    4.720998   4.402962   2.856358   1.788863   0.000000
    21  H    6.552461   4.679956   2.527440   3.075729   2.501816
    22  H    6.750869   4.680259   2.527197   2.501743   3.075697
    23  H    7.269985   6.536314   4.492241   3.124928   2.562059
    24  H    8.352877   6.873976   4.655507   3.766706   3.766722
    25  H    7.449246   6.536456   4.492032   2.561955   3.124840
    26  Cl   5.614310   5.101946   7.301901   8.920308   9.117300
    27  C    2.714506   5.893673   7.388329   7.592548   7.390767
    28  F    2.535887   6.109710   7.263508   6.961116   6.841824
    29  F    3.978525   6.912089   8.533570   8.724174   8.658251
[...]
 .09420286,0.00000332,0.00000226,0.00000225,0.00001341,-0.00001075,0.00
 000632,0.00001093,0.00001991,0.00001379,0.00002859,0.00003536,0.000040
 95,-0.00015741,0.00029400,0.00010476,0.00011270,-0.00042345,0.00030729
 ,0.00021608,0.00022569,-0.00022863,0.00031704,-0.00032119,0.00043019,-
 0.01466730,0.01886671,-0.01016841,0.06654880,-0.09083170,0.09805750,0.
 00000675,0.00000243,0.00000262,-0.00000758,-0.00000640,-0.00000269,0.0
 0000889,-0.00000425,0.00000659,-0.00002457,0.00002630,-0.00001522,0.00
 000482,-0.00000994,0.00000706,-0.00000541,0.00000204,-0.00000281,0.000
 00016,0.00000058,-0.00000038,0.00009306,-0.00000447,0.00004431,-0.0000
 1631,0.00001255,0.00004728,0.00005860,0.00010110,0.00029719,0.00002959
 ,0.00010723,0.00003798,0.00129727,-0.00152894,-0.00046648,0.00342596,-
 0.02274023,-0.02267823,-0.05234829,0.02408340,0.02331679,0.00000061,-0
 .00000017,-0.00000154,-0.00000226,0.00000267,-0.00000431,0.00001109,-0
 .00001016,-0.00000602,0.00026663,0.00005835,0.00020624,-0.00033078,0.0
 0068606,0.00023629,-0.00001581,0.00019873,0.00004763,-0.00566236,-0.00
 209178,-0.00243081,0.00136798,0.00028229,0.00059063,-0.00260559,0.0132
 8312,0.01049796,-0.00256672,0.01149925,0.01326403,0.05700768,-0.000018
 74,0.00000044,-0.00000685,0.00002282,0.00001189,0.00000947,-0.00003382
 ,-0.00000160,-0.00000738,0.00009783,-0.00006486,0.00002336,-0.00002061
 ,0.00002928,-0.00000779,0.00000876,0.00000062,0.00000696,0.00000012,-0
 .00000123,-0.00000094,-0.00018383,0.00002605,-0.00006122,0.00027993,-0
 .00015513,0.00006246,-0.00014970,0.00042090,0.00022403,-0.00012936,0.0
 0014025,-0.00001109,0.00052998,0.00047516,0.00070356,0.00111741,-0.008
 60090,-0.00745120,0.02357482,-0.18825400,-0.13274086,0.00000454,0.0000
 0183,-0.00000149,0.00001098,-0.00000922,0.00000197,0.00002048,-0.00000
 085,-0.00000407,0.00021688,-0.00012117,0.00012451,-0.00023181,0.000507
 19,-0.00030036,-0.00014063,-0.00002196,0.00003783,-0.00239418,0.000276
 54,-0.00025158,0.00009715,-0.00012027,0.00024578,-0.00106384,0.0105542
 1,0.00957749,0.00235530,-0.01689781,-0.01735298,-0.02395484,0.20181722
 ,0.00000140,0.00000552,0.00000041,-0.00000243,-0.00000782,-0.00000054,
 -0.00000252,-0.00000199,-0.00000068,0.00000398,-0.00000334,0.00000693,
 -0.00000260,-0.00000174,-0.00000167,-0.00000241,0.00000490,-0.00000101
 ,0.00000021,-0.00000038,-0.00000040,0.00001394,0.00004741,0.00002351,0
 .00003787,-0.00027205,-0.00004175,-0.00015639,0.00058494,0.00014446,0.
 00003749,0.00021667,0.00005716,0.00056152,-0.00075211,-0.00010690,0.00
 094922,-0.00642794,-0.00700685,0.02268190,-0.13277057,-0.17662529,0.00
 000164,0.00000137,-0.00000121,-0.00000444,-0.00000349,-0.00000511,0.00
 001285,-0.00000655,-0.00000073,0.00024166,-0.00002662,0.00015638,-0.00
 065731,0.00033703,-0.00007554,-0.00001261,-0.00005879,-0.00008135,-0.0
 0203365,-0.00034007,0.00071992,-0.00017879,0.00046040,0.00060566,0.002
 55137,-0.01891628,-0.01686221,-0.00105173,0.01074351,0.01082160,-0.022
 99592,0.14718542,0.18827259,-0.00849243,-0.00995528,-0.00391895,-0.119
 20669,-0.06470097,-0.03046530,-0.03277535,-0.02721942,-0.01144259,0.00
 142635,0.00580064,-0.00209823,-0.00084964,-0.00199481,0.00034293,0.001
 91712,-0.00110313,-0.00097077,0.00053928,0.00076764,0.00118122,-0.0024
 6886,-0.00181193,-0.00097022,0.00186804,0.00053953,0.00086159,-0.00107
 187,0.00035947,-0.00062074,-0.00069484,-0.00012823,-0.00034189,0.00032
 896,0.00022647,0.00016359,-0.00004952,-0.00012296,0.00001315,-0.000002
 94,0.00007183,-0.00001546,0.00008817,-0.00041340,0.00119913,0.00022733
 ,-0.00004163,0.00033750,0.00009580,-0.00012772,0.00005406,0.00001991,-
 0.00013082,0.00006494,-0.00000640,-0.00002367,0.00001113,-0.00008578,-
 0.00004078,-0.00000976,-0.00000202,0.00001791,0.00000399,0.00001133,0.
 00000592,-0.00000368,0.00000340,-0.00001438,0.00000636,-0.00004593,0.0
 0001306,-0.00002270,0.00000619,-0.00001506,0.00000457,0.15972153,-0.03
 553931,-0.02501892,-0.01073876,-0.06498154,-0.09144842,-0.01860782,-0.
 00223620,0.00184825,-0.00065525,0.00131124,-0.00087357,0.00112212,-0.0
 0198013,0.00064251,-0.00091614,0.00509544,-0.00401748,0.00274899,-0.00
 030383,0.00110239,-0.00050336,-0.00096986,0.00006168,-0.00035626,0.001
 28159,-0.00032735,0.00048510,-0.00064418,0.00042150,-0.00042069,-0.000
 52985,0.00023849,-0.00021683,0.00021559,0.00011615,0.00011956,-0.00002
 136,-0.00007703,0.00000930,-0.00000298,0.00004412,-0.00000914,0.000764
 65,0.00110184,-0.00010461,0.00018198,0.00017844,-0.00000584,-0.0000478
 4,-0.00008781,-0.00002188,-0.00001767,-0.00009021,0.00005224,-0.000001
 42,-0.00001355,0.00001101,-0.00005215,-0.00002723,-0.00000805,-0.00000
 418,0.00001505,0.00000567,0.00000746,0.00000374,-0.00000536,0.00000384
 ,-0.00000971,0.00000298,-0.00002974,0.00000962,-0.00001525,0.00000457,
 -0.00000867,0.00000514,0.09988313,0.11639877,-0.00137931,-0.00090486,0
 .00386483,-0.03038796,-0.01849461,-0.03352581,-0.01395412,-0.01030715,
 -0.00033104,-0.00170457,0.00283768,0.00449243,0.00030667,-0.00093491,-
 0.00088982,-0.00160919,0.00055189,0.00416085,0.00130630,-0.00009901,-0
 .00221397,-0.00093802,-0.00069862,-0.00020548,0.00067097,0.00024588,0.
 00014977,-0.00035073,0.00009721,-0.00021682,-0.00024827,-0.00007245,-0
 .00005000,0.00010927,0.00007676,0.00005482,-0.00001649,-0.00003898,0.0
 0000208,0.00000019,0.00002288,-0.00000395,0.00106212,-0.00055732,-0.00
 240808,0.00031629,-0.00009814,-0.00047650,0.00004868,-0.00003463,0.000
 01213,0.00000888,-0.00003482,0.00001157,-0.00000107,-0.00000809,0.0000
 0305,-0.00003036,-0.00001354,-0.00000299,-0.00000089,0.00000696,0.0000
 0184,0.00000382,0.00000106,0.00000046,0.00000016,-0.00000540,0.0000028
 1,-0.00001439,0.00000432,-0.00000763,0.00000188,-0.00000449,0.00000139
 ,0.04691395,0.02842202,0.02744518,0.01025465,-0.02167109,0.00418386,-0
 .00184075,-0.00515677,-0.00300054,-0.00397672,-0.00058456,-0.00116752,
 -0.00322544,0.00438496,-0.00402848,0.00325446,0.02705819,0.00053218,-0
 .08979206,0.00916640,-0.00879535,-0.00287490,-0.00229498,0.00042477,-0
 .00145558,0.00075382,-0.00083325,0.00111153,0.00353140,0.00037943,0.00
 006898,-0.00085715,0.00023128,0.00004008,-0.00251677,0.00048344,-0.000
 03786,0.00004719,-0.00015134,-0.00003840,0.00003860,-0.00002415,0.0000
 0879,-0.00002509,-0.00000157,-0.00038755,-0.00001298,0.00000203,-0.002
 44207,0.00180592,-0.00074343,-0.00025593,0.00014228,-0.00011541,0.0001
 3962,0.00003778,-0.00011426,-0.00002250,0.00002782,-0.00004631,-0.0000
 6093,0.00002566,0.00003935,0.00001404,-0.00001950,-0.00000764,-0.00000
 376,-0.00002566,0.00003160,-0.00002341,0.00001499,0.00000900,0.0000284
 7,-0.00002784,0.00001813,-0.00000582,0.00001693,-0.00001830,-0.0012823
 1,-0.00168390,-0.00024110,0.56669553,-0.00625038,-0.01675950,-0.000709
 91,-0.00484145,-0.00194037,-0.00085566,-0.00097169,0.00351020,-0.00088
 922,0.00451030,-0.00067275,0.00265143,0.01067832,-0.00958096,0.0051286
 6,0.00726288,-0.22246681,0.01427316,0.00162055,0.00107879,0.00021283,-
 0.00670508,0.00060104,-0.00292790,0.00732100,0.00292641,0.00301442,-0.
 00289070,0.00086970,-0.00159910,-0.00267164,-0.00215538,-0.00124469,0.
 00109149,0.00064047,0.00050331,-0.00014656,-0.00026527,0.00003531,0.00
 001496,0.00019110,-0.00002178,-0.00010193,0.00007164,-0.00007647,-0.00
 059929,0.00115686,-0.00055523,-0.00004982,-0.00004551,0.00003643,0.000
 14742,-0.00031147,0.00013209,-0.00004882,-0.00004553,-0.00002838,-0.00
 032096,-0.00010532,0.00001183,0.00001703,0.00000185,-0.00003321,0.0000
 2419,0.00000498,0.00003711,-0.00001769,-0.00002894,0.00003723,-0.00011
 053,0.00001784,-0.00005167,0.00001214,-0.00004931,-0.00002847,0.002343
 86,0.00232137,0.00064164,-0.00709318,0.63054058,0.00428663,-0.00580758
 ,0.00359463,-0.00311282,-0.00073875,0.00563378,-0.00115463,-0.00053404
 ,-0.00116969,-0.00398258,0.00272875,0.00449218,0.00015789,0.01150862,-
 0.00198386,-0.00871161,0.01706804,-0.07298924,-0.00031803,-0.00157059,
 -0.00275119,-0.00001120,0.00026609,-0.00021159,-0.00022341,0.00140193,
 0.00040369,0.00035948,-0.00040556,0.00007669,0.00051369,-0.00098020,-0
 .00058682,-0.00022072,-0.00003450,0.00008118,0.00000085,0.00003464,0.0
 0000180,-0.00001055,-0.00001155,0.00002550,-0.00001072,0.00000179,-0.0
 0032663,0.00012689,0.00028942,-0.00168917,-0.00017084,0.00008517,0.000
 05554,-0.00000515,-0.00001134,0.00006277,-0.00002872,0.00000217,-0.000
 02771,0.00007248,0.00002651,-0.00003135,0.00000821,-0.00003807,-0.0000
 1378,0.00000021,0.00002635,-0.00001866,0.00001281,0.00001383,-0.000017
 00,0.00001609,-0.00000894,0.00001023,-0.00000860,-0.00000940,-0.000014
 48,-0.00063021,-0.00075908,-0.00016164,0.01474967,-0.01432372,0.534801
 09,-0.00132077,0.00112672,0.00013263,0.00009467,0.00081699,0.00003315,
 0.00075015,0.00004659,0.00022129,-0.00006015,-0.00102367,0.00070590,-0
 .00040643,-0.00024716,-0.00067473,0.01121040,0.00206929,0.00252940,0.0
 0019679,0.00030068,0.00001670,0.00009389,0.00011641,0.00007457,-0.0000
 4164,-0.00060083,-0.00002190,-0.00007795,0.00018086,-0.00008177,-0.000
 03317,0.00042789,-0.00004035,0.00002924,0.00000117,0.00003257,0.000003
 73,-0.00001277,0.00000678,-0.00000128,0.00000818,-0.00000141,0.0000646
 5,0.00001498,-0.00002913,0.00053583,-0.00046288,-0.00013709,-0.0000036
 1,-0.00001900,0.00000120,-0.00002086,-0.00001222,0.00001992,0.00000357
 ,-0.00000620,0.00000942,0.00000265,-0.00000710,-0.00000653,-0.00000248
 ,0.00000496,0.00000107,0.00000155,0.00000429,-0.00000482,0.00000394,-0
 .00000345,-0.00000109,-0.00000765,0.00000571,-0.00000421,0.00000134,-0
 .00000372,0.00000378,0.00025764,0.00021456,-0.00000825,-0.07284967,0.0
 0646951,0.00672866,0.07843968,0.00406619,-0.00188298,0.00047167,0.0004
 8379,-0.00031984,0.00250179,-0.00058821,-0.00126194,-0.00033548,-0.001
 93410,0.00191096,0.00047271,-0.00185429,-0.00145954,-0.00037229,0.0004
 8253,-0.02627960,-0.04148016,0.00023571,-0.00010057,-0.00111543,0.0021
 1466,-0.00009251,0.00093417,-0.00237408,-0.00106604,-0.00105340,0.0009
 0836,-0.00024462,0.00053650,0.00077097,0.00079984,0.00050878,-0.000333
 84,-0.00021053,-0.00018551,0.00004845,0.00008444,-0.00001222,-0.000003
 19,-0.00006352,0.00000235,0.00008643,-0.00004733,-0.00006453,0.0004474
 5,-0.00040835,-0.00088844,0.00001550,0.00002018,-0.00009504,-0.0000467
 8,0.00010548,-0.00006076,0.00002029,0.00001486,0.00001402,0.00009408,0
 .00003174,0.00000085,-0.00000710,0.00000570,0.00001373,-0.00000824,-0.
 00000654,-0.00000913,0.00000348,0.00000772,-0.00000969,0.00003536,-0.0
 0000507,0.00001621,-0.00000295,0.00001878,0.00001207,-0.00080698,-0.00
 088324,-0.00010990,0.00761569,-0.14581084,-0.09751001,-0.00596581,0.14
 161695,0.00142368,-0.00179497,0.00055287,-0.00002387,0.00015771,0.0006
 7153,0.00030433,-0.00034445,0.00001732,-0.00067335,-0.00017127,0.00046
 342,-0.00184326,-0.00009409,0.00087211,-0.00003856,-0.01367233,-0.0102
 9589,0.00044698,0.00040767,-0.00062384,0.00113236,-0.00004107,0.000627
 31,-0.00110775,-0.00104953,-0.00067132,0.00032867,0.00002086,0.0002398
 1,0.00020731,0.00074697,0.00054414,-0.00008130,-0.00009272,-0.00012149
 ,0.00002332,0.00002927,-0.00000627,0.00000326,-0.00002695,-0.00000909,
 0.00011788,-0.00004703,-0.00005893,0.00075947,-0.00022310,-0.00112884,
 0.00006486,-0.00001428,-0.00010204,-0.00002031,0.00005559,-0.00005332,
 0.00002297,0.00000753,0.00001694,0.00001907,0.00000776,0.00001356,-0.0
 0000649,0.00001699,0.00001236,-0.00000439,-0.00001409,0.00000293,-0.00
 000354,-0.00000136,0.00000226,0.00001148,0.00000081,0.00000428,0.00000
 229,0.00001270,0.00001108,-0.00032880,-0.00047756,-0.00001097,0.008867
 22,-0.09902462,-0.21980937,-0.01262924,0.13705920,0.34740375,-0.002992
 76,-0.00278743,-0.00041667,0.00023773,0.00013953,0.00027622,0.00052009
 ,0.00023009,0.00011050,-0.00096750,-0.00061375,0.00008372,0.00227459,0
 .00404696,-0.00044283,-0.01559708,0.00788077,-0.01480342,0.00203291,0.
 00045736,0.00068808,0.00013484,0.00060714,0.00006930,0.00056419,-0.001
 02529,0.00020223,-0.00043992,0.00042371,-0.00028106,-0.00033949,0.0006
 9909,-0.00021670,0.00017220,0.00006382,0.00009978,-0.00000405,-0.00005
 342,0.00001212,-0.00000091,0.00003430,-0.00000599,0.00017798,0.0000033
 1,0.00008184,0.00071069,-0.00057171,0.00035792,-0.00013188,0.00003177,
 -0.00003801,-0.00001676,-0.00005578,0.00004189,0.00000559,-0.00001777,
 0.00001852,-0.00002530,-0.00002656,-0.00001029,-0.00000432,0.00001404,
 0.00000215,0.00000474,0.00000660,-0.00000555,0.00000552,-0.00001136,0.
 00000287,-0.00002668,0.00001448,-0.00001476,0.00000497,-0.00001069,0.0
 0000661,0.00063289,0.00047200,0.00017288,-0.20649754,0.06849047,-0.085
 87547,-0.00559763,-0.00651075,-0.03659763,0.30846607,0.00007018,-0.002
 52420,0.00064921,0.00153808,0.00157501,0.00037795,0.00055704,-0.000675
 93,0.00036310,0.00089503,0.00025687,-0.00016644,-0.00324544,-0.0073052
 3,0.00008191,0.03747809,-0.01047744,0.02316366,0.00108992,-0.00309907,
 0.00093113,0.00165080,-0.00087673,0.00071663,-0.00204468,-0.00049789,-
 0.00080777,0.00086402,-0.00033851,0.00048314,0.00071347,0.00036688,0.0
 0032458,-0.00032157,-0.00017474,-0.00014920,0.00003714,0.00008349,-0.0
 0001180,-0.00000312,-0.00005739,0.00000804,0.00005743,-0.00009756,0.00
 000708,-0.00027145,0.00019579,-0.00000595,0.00019971,-0.00002061,0.000
 05370,-0.00003576,0.00009786,-0.00004139,0.00001124,0.00001730,0.00000
 053,0.00008890,0.00003469,0.00000045,-0.00000235,-0.00000656,0.0000062
 7,-0.00000758,-0.00000253,-0.00000737,0.00000274,0.00001097,-0.0000101
 0,0.00003544,-0.00000912,0.00001730,-0.00000480,0.00001477,0.00000387,
 -0.00064708,-0.00055525,-0.00017794,0.05934521,-0.11445712,0.03965592,
 -0.01418915,0.01630071,-0.01314551,-0.07176289,0.10613577,-0.00153672,
 -0.00134312,-0.00016740,-0.00027718,0.00004650,0.00017244,0.00038573,0
 .00019986,0.00013097,-0.00066242,-0.00068812,-0.00043956,0.00090479,0.
 00351740,0.00119402,-0.01671936,0.00571044,-0.00128449,0.00091863,0.00
 071365,-0.00028831,-0.00008201,0.00046590,-0.00010103,0.00052067,-0.00
 052802,0.00013204,-0.00034011,0.00026286,-0.00018875,-0.00030783,0.000
 36269,-0.00002281,0.00013983,0.00005333,0.00004982,-0.00000699,-0.0000
 3662,0.00000602,0.00000251,0.00002194,-0.00000905,0.00010592,0.0000064
 0,-0.00003568,0.00039942,-0.00025581,0.00005133,-0.00007693,0.00001102
 ,-0.00009027,0.00000202,-0.00003346,0.00000732,0.00000573,-0.00000911,
 0.00001167,-0.00003396,-0.00001923,0.00000126,-0.00000269,0.00001308,0
 .00000279,0.00000244,-0.00000175,0.00000190,-0.00000056,-0.00000827,0.
 00000539,-0.00001727,0.00000801,-0.00000959,0.00000381,-0.00000409,0.0
 0000473,0.00038701,0.00030089,0.00015113,-0.08438949,0.04477272,-0.126
 82905,-0.04779396,-0.00233313,-0.05999214,0.14400092,-0.04617561,0.169
 10851,0.00136189,-0.00177165,0.00097056,0.00037660,0.00032284,-0.00057
 855,0.00037693,-0.00024357,0.00034351,0.00018631,-0.00018821,-0.000857
 76,-0.00144869,0.00041148,-0.00244368,-0.00935345,-0.01050457,0.010418
 71,0.00025917,0.00078520,0.00047315,0.00137117,0.00000964,0.00051859,-
 0.00122967,-0.00152939,-0.00040613,0.00032941,0.00018332,0.00008540,0.
 00043159,0.00107668,-0.00017553,-0.00014156,-0.00009613,0.00002257,0.0
 0003378,0.00001626,0.00000505,-0.00000769,-0.00001175,0.00000711,0.000
 12010,0.00001451,0.00014019,0.00060321,-0.00016173,0.00161042,-0.00003
 668,-0.00000035,0.00006080,-0.00007102,0.00001081,0.00004476,0.0000099
 3,-0.00000791,0.00001900,0.00007342,0.00000358,-0.00002438,-0.00000646
 ,0.00000269,0.00000528,-0.00000110,0.00001516,-0.00002095,0.00001447,-
 0.00000130,-0.00001074,0.00000211,0.00000885,-0.00000088,-0.00000010,-
 0.00000308,0.00000910,-0.00010935,-0.00038992,-0.00003735,-0.19454294,
 -0.07718440,0.07744167,-0.01126642,0.00300738,0.03962336,-0.08330320,-
 0.01209859,0.00446803,0.29596827,0.00363152,-0.00352785,0.00337598,0.0
 0108665,-0.00078366,-0.00140781,-0.00071745,-0.00098920,0.00000428,-0.
 00140011,0.00203940,-0.00139701,-0.00102281,-0.00156819,-0.00024613,-0
 .03841584,-0.01957213,0.02160890,-0.00037853,0.00024276,0.00066652,0.0
 0211432,-0.00010546,0.00091903,-0.00227958,-0.00106583,-0.00087618,0.0
 0087418,-0.00021567,0.00045014,0.00083722,0.00077712,0.00025693,-0.000
 34225,-0.00019886,-0.00012654,0.00004780,0.00007601,-0.00000819,-0.000
 00718,-0.00005482,0.00000900,0.00004371,-0.00005317,0.00003622,-0.0002
 6359,-0.00094309,0.00071797,-0.00002773,0.00004055,0.00002108,-0.00005
 380,0.00008566,-0.00002214,0.00001362,0.00001049,0.00001187,0.00010839
 ,0.00003006,-0.00001192,-0.00000558,-0.00000140,0.00000976,-0.00000632
 ,0.00000420,-0.00001660,0.00000964,0.00000783,-0.00001423,0.00003089,-
 0.00000254,0.00001397,-0.00000389,0.00001184,0.00000993,-0.00073122,-0
 .00106550,-0.00031345,-0.07204337,-0.12923774,0.04963409,0.01074519,0.
 01922569,-0.00828812,-0.00016803,0.01608578,-0.00503036,0.09832414,0.1
 2074770,-0.00162310,0.00288265,-0.00139267,0.00052354,-0.00014978,0.00
 028586,-0.00015174,0.00019226,-0.00007183,0.00079300,-0.00033682,0.000
 16844,0.00017100,-0.00019790,0.00107339,0.01484958,0.00877503,0.002239
 22,0.00007062,-0.00004166,-0.00014867,-0.00081368,0.00009393,-0.000251
 62,0.00080327,0.00022071,0.00016408,-0.00034214,0.00011070,-0.00013002
 ,-0.00038336,-0.00016086,0.00009880,0.00014601,0.00007108,0.00000430,-
 0.00001822,-0.00002762,0.00000147,0.00000526,0.00001722,-0.00001030,-0
 .00002557,0.00003213,-0.00001795,0.00031453,0.00020539,-0.00051126,0.0
 0001767,-0.00002493,-0.00004982,0.00002308,-0.00001808,-0.00002036,0.0
 0000053,-0.00000235,0.00000182,-0.00005406,-0.00001397,0.00001257,0.00
 000090,0.00000884,0.,0.00000111,-0.00000928,0.00001160,-0.00000773,-0.
 00000471,0.00000853,-0.00001024,0.00000043,-0.00000478,0.00000244,0.00
 000024,-0.00000012,0.00029419,0.00053684,0.00015035,0.07372619,0.05088
 186,-0.12060787,0.05091745,0.00309106,-0.05857215,-0.00751919,-0.00614
 540,0.01842678,-0.13171132,-0.05998701,0.15914217\\0.00000303,0.000004
 79,0.00000144,0.00000343,-0.00000911,0.00000598,-0.00000757,-0.0000016
 6,-0.00000004,0.00000170,0.00001071,-0.00000165,0.00000451,-0.00000697
 ,0.00000229,-0.00001323,-0.00000292,-0.00000477,-0.00000075,-0.0000028
 8,0.00000102,0.00000274,-0.00000329,0.00000365,0.00000357,-0.00001442,
 0.00000014,-0.00000557,0.00000815,-0.00000326,0.00000036,0.00000919,0.
 00000008,0.00000157,-0.00000031,0.00000002,-0.00000015,0.00000152,0.00
 000031,0.00000224,0.00000244,-0.00000105,-0.00000032,-0.00000090,0.000
 00412,-0.00000059,0.00000062,-0.00000181,-0.00000068,-0.00000016,0.000
 00273,0.00000040,0.00000079,0.00000195,0.00000049,0.00000138,-0.000002
 09,-0.00000028,0.00000031,-0.00000127,0.00000042,0.00000124,0.00000107
 ,0.00000149,0.00000246,0.00000053,0.00000034,0.00000084,-0.00000170,0.
 00000093,0.00000284,-0.00000020,0.00000154,0.00000301,-0.00000234,-0.0
 0000130,-0.00000129,0.00000395,0.00000327,-0.00000204,-0.00000645,-0.0
 0000058,0.00000078,-0.00000066,0.00000232,-0.00000231,0.00000006,-0.00
 000334,-0.00000281,-0.00000204\\\@


 SUCCESS IS NEVER CERTAIN,
 FAILURE IS NEVER FINAL.
 Job cpu time:       0 days  3 hours  0 minutes 45.8 seconds.
 File lengths (MBytes):  RWF=    454 Int=      0 D2E=      0 Chk=     11 Scr=      1
 Normal termination of Gaussian 09 at Thu Jul 12 22:12:50 2018.
WARNING: pbs_rusage is deprecated and values produced may not be accurate


=============================================================================
                                     Resource usage:
                                       CPU time:              15:29:14
   JobId:    8355193.r-man2            Elapsed time:          03:53:09
   Project:             q95            Requested time:        36:00:00
   Service Units:     15.54 
                                       Max physical memory:      731MB
                                       Max virtual memory:      1438MB
                                       Requested memory:           0MB

                                       Number of cpus:               4

                                       Max jobfs disk use:       0.4GB
                                       Requested jobfs:         16.0GB
=============================================================================

