 Entering Gaussian System, Link 0=/apps/gaussian/g09e01/g09/g09
 AtFile(1): /home/507/hio507/Basis/6-31pGd.gbs
 Initial command:
 /apps/gaussian/g09e01/g09/l1.exe "/jobfs/local/5978098.r-man2/Gau-54057.inp" -scrdir="/jobfs/local/5978098.r-man2/"
 Entering Link 1 = /apps/gaussian/g09e01/g09/l1.exe PID=     54058.
  
 Copyright (c) 1988,1990,1992,1993,1995,1998,2003,2009,2015,
            Gaussian, Inc.  All Rights Reserved.
  
 This is part of the Gaussian(R) 09 program.  It is based on
 the Gaussian(R) 03 system (copyright 2003, Gaussian, Inc.),
 the Gaussian(R) 98 system (copyright 1998, Gaussian, Inc.),
 the Gaussian(R) 94 system (copyright 1995, Gaussian, Inc.),
 the Gaussian 92(TM) system (copyright 1992, Gaussian, Inc.),
 the Gaussian 90(TM) system (copyright 1990, Gaussian, Inc.),
 the Gaussian 88(TM) system (copyright 1988, Gaussian, Inc.),
 the Gaussian 86(TM) system (copyright 1986, Carnegie Mellon
 University), and the Gaussian 82(TM) system (copyright 1983,
 Carnegie Mellon University). Gaussian is a federally registered
 trademark of Gaussian, Inc.
  
 This software contains proprietary and confidential information,
 including trade secrets, belonging to Gaussian, Inc.
  
 This software is provided under written license and may be
 used, copied, transmitted, or stored only in accord with that
 written license.
  
 The following legend is applicable only to US Government
 contracts under FAR:
  
                    RESTRICTED RIGHTS LEGEND
  
 Use, reproduction and disclosure by the US Government is
 subject to restrictions as set forth in subparagraphs (a)
 and (c) of the Commercial Computer Software - Restricted
 Rights clause in FAR 52.227-19.
  
 Gaussian, Inc.
 340 Quinnipiac St., Bldg. 40, Wallingford CT 06492
  
  
 ---------------------------------------------------------------
 Warning -- This program may not be used in any manner that
 competes with the business of Gaussian, Inc. or will provide
 assistance to any competitor of Gaussian, Inc.  The licensee
 of this program is prohibited from giving any competitor of
 Gaussian, Inc. access to this program.  By using this program,
 the user acknowledges that Gaussian, Inc. is engaged in the
 business of creating and licensing software in the field of
 computational chemistry and represents and warrants to the
 licensee that it is not a competitor of Gaussian, Inc. and that
 it will not use this program in any manner prohibited above.
 ---------------------------------------------------------------
  

 Cite this work as:
 Gaussian 09, Revision E.01,
 M. J. Frisch, G. W. Trucks, H. B. Schlegel, G. E. Scuseria, 
 M. A. Robb, J. R. Cheeseman, G. Scalmani, V. Barone, B. Mennucci, 
 G. A. Petersson, H. Nakatsuji, M. Caricato, X. Li, H. P. Hratchian, 
 A. F. Izmaylov, J. Bloino, G. Zheng, J. L. Sonnenberg, M. Hada, 
 M. Ehara, K. Toyota, R. Fukuda, J. Hasegawa, M. Ishida, T. Nakajima, 
 Y. Honda, O. Kitao, H. Nakai, T. Vreven, J. A. Montgomery, Jr., 
 J. E. Peralta, F. Ogliaro, M. Bearpark, J. J. Heyd, E. Brothers, 
 K. N. Kudin, V. N. Staroverov, T. Keith, R. Kobayashi, J. Normand, 
 K. Raghavachari, A. Rendell, J. C. Burant, S. S. Iyengar, J. Tomasi, 
 M. Cossi, N. Rega, J. M. Millam, M. Klene, J. E. Knox, J. B. Cross, 
 V. Bakken, C. Adamo, J. Jaramillo, R. Gomperts, R. E. Stratmann, 
 O. Yazyev, A. J. Austin, R. Cammi, C. Pomelli, J. W. Ochterski, 
 R. L. Martin, K. Morokuma, V. G. Zakrzewski, G. A. Voth, 
 P. Salvador, J. J. Dannenberg, S. Dapprich, A. D. Daniels, 
 O. Farkas, J. B. Foresman, J. V. Ortiz, J. Cioslowski, 
 and D. J. Fox, Gaussian, Inc., Wallingford CT, 2013.
 
 ******************************************
 Gaussian 09:  ES64L-G09RevE.01 30-Nov-2015
                21-Feb-2019 
 ******************************************
 %chk=NM3_C2_EtO.M062X_6-31pGd_bsse.chk
 %mem=196608000
 %nproc=4
 Will use up to    4 processors via shared memory.
 ----------------------------------------------------------------------
 # M062X/Gen 6D SCF=Tight INT(grid=ultrafine) Counterpoise=2 maxdisk=67
 1088640
 ----------------------------------------------------------------------
 1/38=1,62=2/1;
 2/12=2,17=6,18=5,40=1/2;
 1/38=1,53=2,62=2,63=1/22;
 3/5=7,8=2,11=2,16=1,25=1,30=1,74=-55,75=-5/1,2,3;
 4//1;
 5/5=2,32=2,38=5/2;
 6/7=2,8=2,9=2,10=2,28=1/1;
 1/53=2,62=2,63=1/22;
 3/5=7,6=11,8=2,11=2,16=1,25=1,30=1,74=-55,75=-5,82=7/1,2,3;
 4//1;
 5/5=2,32=2,38=5/2;
 6/7=2,8=2,9=2,10=2,28=1/1;
 1/53=2,62=2,63=1/22(-4);
 99/5=1,9=1/99;
 -----------------------------
 NM3_C2_EtO.M062X_6-31pGd_bsse
 -----------------------------
 Symbolic Z-matrix:
 Charge = -1 Multiplicity = 1 in supermolecule
 Charge =  0 Multiplicity = 1 in fragment      1.
 Charge = -1 Multiplicity = 1 in fragment      2.
 C(Fragment=1)        -4.07056   3.70751  -0.93624 
 C(Fragment=1)        -2.87474   4.40112  -0.85179 
 C(Fragment=1)        -1.69917   3.8426   -0.36285 
 C(Fragment=1)        -1.71244   2.50399   0.06945 
 C(Fragment=1)        -2.92055   1.77135  -0.00714 
 C(Fragment=1)        -4.06124   2.37808  -0.50062 
 H(Fragment=1)        -4.97036   4.17413  -1.32158 
 N(Fragment=1)        -0.62015   1.83419   0.5724 
 C(Fragment=1)         0.66558   2.33187   0.74182 
 N(Fragment=1)         1.5148    1.41397   1.26258 
 O(Fragment=1)         1.0001    3.48557   0.45995 
 C(Fragment=1)         2.9149    1.72726   1.43302 
 C(Fragment=1)         3.57641   0.68406   2.32755 
 C(Fragment=1)         5.07058   0.95053   2.495 
 H(Fragment=1)        -0.78417   4.4164   -0.31063 
 H(Fragment=1)        -2.92622   0.73639   0.32631 
 H(Fragment=1)        -0.79376   0.83883   0.84071 
 H(Fragment=1)         1.21848   0.42829   1.38139 
 H(Fragment=1)         3.00539   2.72808   1.87227 
 H(Fragment=1)         3.43012   1.76518   0.45918 
 H(Fragment=1)         3.40874  -0.31336   1.9041 
 H(Fragment=1)         3.07604   0.68876   3.3035 
 H(Fragment=1)         5.58593   0.92092   1.52769 
 H(Fragment=1)         5.53909   0.20508   3.14596 
 H(Fragment=1)         5.24811   1.93956   2.93426 
 Cl(Fragment=1)       -2.84044   6.07205  -1.39045 
 C(Fragment=1)        -5.35      1.61552  -0.59359 
 F(Fragment=1)        -5.78889   1.52024  -1.87038 
 F(Fragment=1)        -6.34727   2.22693   0.08715 
 F(Fragment=1)        -5.26567   0.36612  -0.11893 
 O(Fragment=2)        -1.28925  -0.76237   1.17821 
 O(Fragment=2)         0.8449   -1.30479   1.61837 
 C(Fragment=2)        -0.37383  -1.57609   1.48657 
 C(Fragment=2)        -0.82106  -3.02785   1.71777 
 C(Fragment=2)         0.31041  -3.98302   2.07666 
 H(Fragment=2)        -1.34034  -3.35332   0.808 
 H(Fragment=2)        -1.58562  -3.00718   2.50421 
 H(Fragment=2)         1.06399  -4.00325   1.28397 
 H(Fragment=2)        -0.06412  -5.00254   2.23039 
 H(Fragment=2)         0.81727  -3.65507   2.98884 
 
                          Input orientation:                          
 ---------------------------------------------------------------------
 Center     Atomic      Atomic             Coordinates (Angstroms)
 Number     Number       Type             X           Y           Z
 ---------------------------------------------------------------------
      1          6           0       -4.070561    3.707507   -0.936241
      2          6           0       -2.874743    4.401124   -0.851794
      3          6           0       -1.699168    3.842596   -0.362846
      4          6           0       -1.712438    2.503988    0.069446
      5          6           0       -2.920546    1.771349   -0.007142
      6          6           0       -4.061241    2.378080   -0.500621
      7          1           0       -4.970357    4.174126   -1.321578
      8          7           0       -0.620146    1.834193    0.572404
      9          6           0        0.665578    2.331872    0.741818
     10          7           0        1.514801    1.413967    1.262579
     11          8           0        1.000099    3.485572    0.459946
     12          6           0        2.914905    1.727263    1.433022
     13          6           0        3.576410    0.684056    2.327549
     14          6           0        5.070579    0.950526    2.495002
     15          1           0       -0.784165    4.416403   -0.310629
     16          1           0       -2.926223    0.736392    0.326306
     17          1           0       -0.793762    0.838827    0.840712
     18          1           0        1.218483    0.428291    1.381391
     19          1           0        3.005393    2.728083    1.872274
     20          1           0        3.430124    1.765183    0.459179
     21          1           0        3.408742   -0.313364    1.904096
     22          1           0        3.076044    0.688757    3.303499
     23          1           0        5.585933    0.920915    1.527691
     24          1           0        5.539094    0.205080    3.145961
     25          1           0        5.248112    1.939564    2.934261
     26         17           0       -2.840438    6.072049   -1.390452
     27          6           0       -5.350003    1.615523   -0.593595
     28          9           0       -5.788886    1.520237   -1.870379
     29          9           0       -6.347269    2.226929    0.087151
     30          9           0       -5.265675    0.366117   -0.118925
     31          8           0       -1.289245   -0.762366    1.178205
     32          8           0        0.844900   -1.304788    1.618373
     33          6           0       -0.373830   -1.576089    1.486566
     34          6           0       -0.821064   -3.027852    1.717770
     35          6           0        0.310414   -3.983020    2.076661
     36          1           0       -1.340338   -3.353317    0.808003
     37          1           0       -1.585622   -3.007178    2.504207
     38          1           0        1.063989   -4.003245    1.283973
     39          1           0       -0.064121   -5.002542    2.230387
     40          1           0        0.817274   -3.655070    2.988840
 ---------------------------------------------------------------------
                    Distance matrix (angstroms):
                    1          2          3          4          5
     1  C    0.000000
     2  C    1.384997   0.000000
     3  C    2.443468   1.390324   0.000000
     4  C    2.832067   2.408062   1.406743   0.000000
     5  C    2.436076   2.762472   2.430711   1.414973   0.000000
     6  C    1.399010   2.371457   2.782657   2.420269   1.383051
     7  H    1.084366   2.159588   3.424873   3.916419   3.420936
     8  N    4.206029   3.701443   2.464278   1.376479   2.373112
     9  C    5.209536   4.399463   3.015725   2.477230   3.706132
    10  N    6.425839   5.715048   4.343943   3.609264   4.627333
    11  O    5.264046   4.192052   2.844380   2.910989   4.304438
    12  C    7.637506   6.774211   5.384185   4.886199   6.010699
    13  C    8.847019   8.095813   6.711656   6.031840   6.988807
    14  C   10.145679   9.286324   7.896888   7.369253   8.413831
    15  H    3.419696   2.159539   1.081301   2.159509   3.413582
    16  H    3.425063   3.849784   3.410147   2.159548   1.087362
    17  H    4.703647   4.459262   3.360200   2.052213   2.472178
    18  H    6.640682   6.125767   4.817939   3.823613   4.567646
    19  H    7.675686   6.692953   5.326425   5.055526   6.290016
    20  H    7.872744   6.958318   5.594730   5.209959   6.367770
    21  H    8.954043   8.324873   6.964322   6.126165   6.932441
    22  H    8.840940   8.152300   6.796429   6.056710   6.934800
    23  H   10.348137   9.452875   8.073603   7.609128   8.685571
    24  H   11.012576  10.216726   8.828119   8.205769   9.163010
    25  H   10.244221   9.293775   7.921941   7.548178   8.683727
    26  Cl   2.703807   1.755938   2.707199   4.016808   4.518405
    27  C    2.476040   3.735392   4.282720   3.802745   2.504091
    28  F    2.934179   4.222471   4.938806   4.620402   3.429590
    29  F    2.902212   4.203234   4.941428   4.643138   3.458160
    30  F    3.641591   4.747097   4.986519   4.151080   2.736202
    31  O    5.673303   5.770297   4.873249   3.475271   3.238194
    32  O    7.470670   7.245337   6.073967   4.842100   5.126744
    33  C    6.888555   6.888365   5.876988   4.521850   4.463436
    34  C    7.935242   8.124650   7.232087   5.840614   5.515022
    35  C    9.349584   9.434773   8.439780   7.085345   6.920556
    36  H    7.768638   8.077170   7.299370   5.915398   5.424363
    37  H    7.943462   8.234532   7.426459   6.026366   5.560865
    38  H    9.526209   9.524103   8.479639   7.178280   7.133683
    39  H   10.096735  10.287292   9.361341   7.983396   7.684484
    40  H    9.669784   9.658350   8.589603   7.270234   7.238317
                    6          7          8          9         10
     6  C    0.000000
     7  H    2.173992   0.000000
     8  N    3.645316   5.290254   0.000000
     9  C    4.887598   6.278158   1.389055   0.000000
    10  N    5.927110   7.506904   2.282746   1.354593   0.000000
    11  O    5.269383   6.268515   2.316224   1.233848   2.280501
    12  C    7.268366   8.703580   3.639874   2.429565   1.444817
    13  C    8.318772   9.926930   4.691954   3.701727   2.432522
    14  C    9.716059  11.215091   6.071376   4.938198   3.791728
    15  H    3.863947   4.313342   2.733946   2.748576   4.095711
    16  H    2.160374   4.325739   2.565877   3.952119   4.588944
    17  H    3.852907   5.765731   1.045412   2.090129   2.416241
    18  H    5.934571   7.722633   2.451852   2.082878   1.036088
    19  H    7.462604   8.712309   3.953889   2.628621   2.078581
    20  H    7.577428   8.918642   4.052440   2.836148   2.106481
    21  H    8.296215  10.037521   4.755770   3.984107   2.642391
    22  H    8.262323   9.913814   4.736320   3.882317   2.669975
    23  H    9.965207  11.407760   6.345240   5.178638   4.109441
    24  H   10.496948  12.089697   6.871204   5.835606   4.604722
    25  H    9.932510  11.292587   6.326604   5.095128   4.124122
    26  Cl   3.990936   2.853666   5.171259   5.552265   6.906837
    27  C    1.500348   2.687106   4.876363   6.203523   7.114179
    28  F    2.365774   2.830954   5.725524   7.010166   7.947991
    29  F    2.365215   2.769833   5.761045   7.044119   7.990912
    30  F    2.375783   4.004312   4.920784   6.307522   6.998671
    31  O    4.512740   6.645935   2.748965   3.685929   3.550524
    32  O    6.490291   8.513461   3.618510   3.745103   2.822584
    33  C    5.760326   7.879003   3.539263   4.111834   3.543661
    34  C    6.681624   8.850014   4.999171   5.647054   5.039168
    35  C    8.137404  10.294348   6.080189   6.464194   5.589342
    36  H    6.478018   8.624067   5.242560   6.029050   5.575433
    37  H    6.645200   8.812728   5.301215   6.056350   5.540829
    38  H    8.376996  10.491502   6.117052   6.370744   5.435980
    39  H    8.826605  10.995401   7.056842   7.519437   6.678416
    40  H    8.507358  10.647661   6.167442   6.396529   5.400153
                   11         12         13         14         15
    11  O    0.000000
    12  C    2.775790   0.000000
    13  C    4.239553   1.525138   0.000000
    14  C    5.209292   2.525481   1.526953   0.000000
    15  H    2.154955   4.894376   6.317041   7.359477   0.000000
    16  H    4.794983   6.027057   6.803819   8.288422   4.305414
    17  H    3.219966   3.859321   4.618771   6.094231   3.758288
    18  H    3.200581   2.137251   2.553517   4.043699   4.772690
    19  H    2.567034   1.096710   2.170572   2.795084   4.687883
    20  H    2.977375   1.102387   2.163571   2.738491   5.038036
    21  H    4.724304   2.151731   1.096482   2.169859   6.697475
    22  H    4.496390   2.145495   1.096753   2.168031   6.469814
    23  H    5.361662   2.791693   2.175789   1.096429   7.495066
    24  H    6.211182   3.483901   2.179758   1.094962   8.346668
    25  H    5.153444   2.782561   2.176921   1.096660   7.283708
    26  Cl   4.986337   7.744232   9.166784  10.193671   2.852269
    27  C    6.703046   8.510485   9.438303  10.888993   5.363942
    28  F    7.441994   9.311890  10.297114  11.717896   5.988976
    29  F    7.463710   9.372774  10.289764  11.738577   5.991673
    30  F    7.023248   8.437010   9.179803  10.677654   6.043633
    31  O    4.878726   4.892654   5.204587   6.716793   5.412152
    32  O    4.930881   3.675949   3.452474   4.869422   6.253553
    33  C    5.344347   4.661628   4.628164   6.086240   6.269629
    34  C    6.879204   6.053896   5.786870   7.151435   7.715743
    35  C    7.672633   6.309118   5.701866   6.868337   8.800430
    36  H    7.236656   6.656577   6.540933   7.903725   7.869512
    37  H    7.281536   6.619449   6.348464   7.743934   7.979674
    38  H    7.534288   6.023855   5.419604   6.485307   8.766351
    39  H    8.735852   7.402747   6.752800   7.866014   9.782217
    40  H    7.577433   5.982485   5.184414   6.288559   8.865652
                   16         17         18         19         20
    16  H    0.000000
    17  H    2.196018   0.000000
    18  H    4.287974   2.123677   0.000000
    19  H    6.445225   4.366577   2.953483   0.000000
    20  H    6.440436   4.341073   2.743922   1.761934   0.000000
    21  H    6.612351   4.485462   2.370761   3.068242   2.531521
    22  H    6.700236   4.589471   2.685680   2.492439   3.061735
    23  H    8.598499   6.417102   4.397580   3.169192   2.549906
    24  H    8.938363   6.769112   4.672388   3.795716   3.755059
    25  H    8.664225   6.488360   4.575288   2.603721   3.075958
    26  Cl   5.605699   6.045956   7.483980   7.483397   7.828804
    27  C    2.737480   4.839403   6.960970   8.782423   8.844284
    28  F    3.692517   5.724124   7.801896   9.633571   9.511939
    29  F    3.739311   5.773743   7.883575   9.534679   9.795357
    30  F    2.410056   4.598082   6.655758   8.829175   8.826579
    31  O    2.377331   1.709744   2.783460   5.577534   5.401661
    32  O    4.478529   2.808034   1.788655   4.582166   4.177539
    33  C    3.634347   2.534815   2.562042   5.485784   5.166206
    34  C    4.531820   3.964994   4.027136   6.913497   6.529152
    35  C    5.984347   5.098724   4.557154   7.234887   6.737260
    36  H    4.412797   4.227751   4.601836   7.549932   7.005571
    37  H    4.533737   4.264506   4.574513   7.373601   7.219091
    38  H    6.269216   5.205131   4.435298   7.030358   6.289169
    39  H    6.689732   6.048567   5.644450   8.325427   7.819784
    40  H    6.355139   5.234978   4.406665   6.839534   6.527274
                   21         22         23         24         25
    21  H    0.000000
    22  H    1.753073   0.000000
    23  H    2.530868   3.083332   0.000000
    24  H    2.519804   2.515030   1.770144   0.000000
    25  H    3.085484   2.533522   1.769239   1.771418   0.000000
    26  Cl   9.522594   9.274576  10.298226  11.190036  10.060079
    27  C    9.309923   9.329765  11.161409  11.599399  11.174561
    28  F   10.109654  10.297930  11.886656  12.458589  12.044738
    29  F   10.243735  10.075202  12.090581  12.439043  11.943260
    30  F    8.933074   9.022270  10.989838  11.288421  11.060623
    31  O    4.774893   5.067384   7.086865   7.171766   7.288429
    32  O    2.763664   3.433929   5.238260   5.162236   5.625447
    33  C    4.009570   4.509147   6.461850   6.394437   6.786889
    34  C    5.029355   5.613837   7.528513   7.276207   7.936622
    35  C    4.805807   5.565909   7.223645   6.784001   7.758437
    36  H    5.744257   6.486162   8.170694   8.090415   8.714541
    37  H    5.706175   6.002494   8.234969   7.841685   8.447197
    38  H    4.415613   5.490149   6.689899   6.419001   7.453008
    39  H    5.844282   6.588103   8.216097   7.704130   8.769726
    40  H    4.365703   4.906106   6.768656   6.100903   7.136892
                   26         27         28         29         30
    26  Cl   0.000000
    27  C    5.176246   0.000000
    28  F    5.444508   1.353468   0.000000
    29  F    5.409817   1.353429   2.154792   0.000000
    30  F    6.328998   1.339193   2.161790   2.162159   0.000000
    31  O    7.464142   5.028259   5.894990   5.975775   4.332207
    32  O    8.777953   7.197072   8.009949   8.157509   6.568810
    33  C    8.535537   6.267037   7.083724   7.218260   5.502718
    34  C    9.825839   6.885828   7.631460   7.798114   5.886174
    35  C   11.092932   8.397278   9.114078   9.319139   7.404617
    36  H    9.793927   6.536915   7.121435   7.531807   5.486497
    37  H    9.958679   6.718356   7.569803   7.477387   5.639391
    38  H   11.131426   8.731272   9.349903   9.755726   7.818190
    39  H   11.977687   8.928282   9.598743   9.815124   7.835683
    40  H   11.277140   8.868388   9.697276   9.713310   7.926564
                   31         32         33         34         35
    31  O    0.000000
    32  O    2.245562   0.000000
    33  C    1.263019   1.255501   0.000000
    34  C    2.375447   2.398805   1.536583   0.000000
    35  C    3.706581   2.769229   2.570937   1.523611   0.000000
    36  H    2.617764   3.102972   2.133805   1.096927   2.175087
    37  H    2.623986   3.096817   2.133553   1.097023   2.174860
    38  H    4.006519   2.727911   2.828331   2.166333   1.093910
    39  H    4.537302   3.856718   3.519911   2.176038   1.096966
    40  H    4.010431   2.720803   2.828024   2.166373   1.093860
                   36         37         38         39         40
    36  H    0.000000
    37  H    1.748452   0.000000
    38  H    2.535694   3.082460   0.000000
    39  H    2.524253   2.524168   1.779586   0.000000
    40  H    3.082596   2.535458   1.757460   1.779829   0.000000
 Stoichiometry    C14H17ClF3N2O3(1-)
 Framework group  C1[X(C14H17ClF3N2O3)]
 Deg. of freedom   114
 Full point group                 C1      NOp   1
 Largest Abelian subgroup         C1      NOp   1
 Largest concise Abelian subgroup C1      NOp   1
                         Standard orientation:                         
 ---------------------------------------------------------------------
 Center     Atomic      Atomic             Coordinates (Angstroms)
 Number     Number       Type             X           Y           Z
 ---------------------------------------------------------------------
      1          6           0        3.718793   -0.609356   -0.020107
      2          6           0        3.017278   -1.802569   -0.068432
      3          6           0        1.628933   -1.875038   -0.052734
      4          6           0        0.887836   -0.681171    0.013454
      5          6           0        1.579189    0.552439    0.062305
      6          6           0        2.962079    0.565493    0.045787
      7          1           0        4.802887   -0.588430   -0.032522
      8          7           0       -0.486870   -0.614746    0.035061
      9          6           0       -1.379982   -1.677800   -0.006653
     10          7           0       -2.672403   -1.273801    0.030152
     11          8           0       -1.038625   -2.862238   -0.061083
     12          6           0       -3.742964   -2.237010   -0.086555
     13          6           0       -5.066789   -1.594800    0.314818
     14          6           0       -6.234805   -2.565990    0.159524
     15          1           0        1.115829   -2.826103   -0.090323
     16          1           0        1.002702    1.473086    0.111585
     17          1           0       -0.884738    0.351115    0.076267
     18          1           0       -2.913101   -0.268137   -0.034530
     19          1           0       -3.519459   -3.097950    0.555007
     20          1           0       -3.812450   -2.623912   -1.116475
     21          1           0       -5.230715   -0.696061   -0.291540
     22          1           0       -4.991086   -1.251730    1.353779
     23          1           0       -6.337046   -2.894526   -0.881517
     24          1           0       -7.181409   -2.103843    0.458365
     25          1           0       -6.088249   -3.461059    0.775995
     26         17           0        3.927423   -3.301741   -0.154668
     27          6           0        3.712040    1.864126    0.092211
     28          9           0        4.472950    2.047086   -1.012061
     29          9           0        4.571992    1.912112    1.136218
     30          9           0        2.916050    2.936084    0.195862
     31          8           0       -1.314195    2.005708    0.109611
     32          8           0       -3.467388    1.427869   -0.159484
     33          6           0       -2.540614    2.266672   -0.042087
     34          6           0       -2.905723    3.758710   -0.082159
     35          6           0       -4.391127    4.035818   -0.277547
     36          1           0       -2.309398    4.214503   -0.882096
     37          1           0       -2.539692    4.204268    0.851093
     38          1           0       -4.745749    3.594861   -1.213730
     39          1           0       -4.594772    5.113514   -0.298402
     40          1           0       -4.976951    3.584433    0.528425
 ---------------------------------------------------------------------
 Rotational constants (GHZ):      0.2631468      0.1208738      0.0844217
 Counterpoise: doing full dimer calculation.
 General basis read from cards:  (6D, 7F)
 There are   475 symmetry adapted cartesian basis functions of A   symmetry.
 There are   475 symmetry adapted basis functions of A   symmetry.
   475 basis functions,   828 primitive gaussians,   475 cartesian basis functions
    92 alpha electrons       92 beta electrons
       nuclear repulsion energy      2091.0470586967 Hartrees.
 NAtoms=   40 NActive=   40 NUniq=   40 SFac= 1.00D+00 NAtFMM=   60 NAOKFM=F Big=F
 Integral buffers will be    131072 words long.
 Raffenetti 2 integral format.
 Two-electron integral symmetry is turned on.
 One-electron integrals computed using PRISM.
 NBasis=   475 RedAO= T EigKep=  1.45D-06  NBF=   475
 NBsUse=   473 1.00D-06 EigRej=  6.33D-07 NBFU=   473
 ExpMin= 4.38D-02 ExpMax= 2.52D+04 ExpMxC= 3.78D+03 IAcc=3 IRadAn=         5 AccDes= 0.00D+00
 Harris functional with IExCor= 1009 and IRadAn=       5 diagonalized for initial guess.
 HarFok:  IExCor= 1009 AccDes= 0.00D+00 IRadAn=         5 IDoV= 1 UseB2=F ITyADJ=14
 ICtDFT=  3500011 ScaDFX=  1.000000  1.000000  1.000000  1.000000
 FoFCou: FMM=F IPFlag=           0 FMFlag=      100000 FMFlg1=           0
         NFxFlg=           0 DoJE=T BraDBF=F KetDBF=T FulRan=T
         wScrn=  0.000000 ICntrl=     500 IOpCl=  0 I1Cent=   200000004 NGrid=           0
         NMat0=    1 NMatS0=      1 NMatT0=    0 NMatD0=    1 NMtDS0=    0 NMtDT0=    0
 Petite list used in FoFCou.
 Requested convergence on RMS density matrix=1.00D-08 within 128 cycles.
 Requested convergence on MAX density matrix=1.00D-06.
 Requested convergence on             energy=1.00D-06.
 No special actions if energy rises.
 SCF Done:  E(RM062X) =  -1638.34448569     A.U. after   15 cycles
            NFock= 15  Conv=0.82D-08     -V/T= 2.0066

 **********************************************************************

            Population analysis using the SCF density.

 **********************************************************************

 Orbital symmetries:
       Occupied  (A) (A) (A) (A) (A) (A) (A) (A) (A) (A) (A) (A)
                 (A) (A) (A) (A) (A) (A) (A) (A) (A) (A) (A) (A)
                 (A) (A) (A) (A) (A) (A) (A) (A) (A) (A) (A) (A)
                 (A) (A) (A) (A) (A) (A) (A) (A) (A) (A) (A) (A)
                 (A) (A) (A) (A) (A) (A) (A) (A) (A) (A) (A) (A)
                 (A) (A) (A) (A) (A) (A) (A) (A) (A) (A) (A) (A)
                 (A) (A) (A) (A) (A) (A) (A) (A) (A) (A) (A) (A)
                 (A) (A) (A) (A) (A) (A) (A) (A)
       Virtual   (A) (A) (A) (A) (A) (A) (A) (A) (A) (A) (A) (A)
                 (A) (A) (A) (A) (A) (A) (A) (A) (A) (A) (A) (A)
                 (A) (A) (A) (A) (A) (A) (A) (A) (A) (A) (A) (A)
                 (A) (A) (A) (A) (A) (A) (A) (A) (A) (A) (A) (A)
                 (A) (A) (A) (A) (A) (A) (A) (A) (A) (A) (A) (A)
                 (A) (A) (A) (A) (A) (A) (A) (A) (A) (A) (A) (A)
                 (A) (A) (A) (A) (A) (A) (A) (A) (A) (A) (A) (A)
                 (A) (A) (A) (A) (A) (A) (A) (A) (A) (A) (A) (A)
                 (A) (A) (A) (A) (A) (A) (A) (A) (A) (A) (A) (A)
                 (A) (A) (A) (A) (A) (A) (A) (A) (A) (A) (A) (A)
                 (A) (A) (A) (A) (A) (A) (A) (A) (A) (A) (A) (A)
                 (A) (A) (A) (A) (A) (A) (A) (A) (A) (A) (A) (A)
                 (A) (A) (A) (A) (A) (A) (A) (A) (A) (A) (A) (A)
                 (A) (A) (A) (A) (A) (A) (A) (A) (A) (A) (A) (A)
                 (A) (A) (A) (A) (A) (A) (A) (A) (A) (A) (A) (A)
                 (A) (A) (A) (A) (A) (A) (A) (A) (A) (A) (A) (A)
                 (A) (A) (A) (A) (A) (A) (A) (A) (A) (A) (A) (A)
                 (A) (A) (A) (A) (A) (A) (A) (A) (A) (A) (A) (A)
                 (A) (A) (A) (A) (A) (A) (A) (A) (A) (A) (A) (A)
                 (A) (A) (A) (A) (A) (A) (A) (A) (A) (A) (A) (A)
                 (A) (A) (A) (A) (A) (A) (A) (A) (A) (A) (A) (A)
                 (A) (A) (A) (A) (A) (A) (A) (A) (A) (A) (A) (A)
                 (A) (A) (A) (A) (A) (A) (A) (A) (A) (A) (A) (A)
                 (A) (A) (A) (A) (A) (A) (A) (A) (A) (A) (A) (A)
                 (A) (A) (A) (A) (A) (A) (A) (A) (A) (A) (A) (A)
                 (A) (A) (A) (A) (A) (A) (A) (A) (A) (A) (A) (A)
                 (A) (A) (A) (A) (A) (A) (A) (A) (A) (A) (A) (A)
                 (A) (A) (A) (A) (A) (A) (A) (A) (A) (A) (A) (A)
                 (A) (A) (A) (A) (A) (A) (A) (A) (A) (A) (A) (A)
                 (A) (A) (A) (A) (A) (A) (A) (A) (A) (A) (A) (A)
                 (A) (A) (A) (A) (A) (A) (A) (A) (A) (A) (A) (A)
                 (A) (A) (A) (A) (A) (A) (A) (A) (A)
 The electronic state is 1-A.
 Alpha  occ. eigenvalues -- -102.58220 -25.21217 -25.20949 -25.20908 -19.49226
 Alpha  occ. eigenvalues --  -19.47176 -19.46926 -14.66794 -14.65017 -10.72018
 Alpha  occ. eigenvalues --  -10.56173 -10.52740 -10.51937 -10.51129 -10.48992
 Alpha  occ. eigenvalues --  -10.47362 -10.47234 -10.46410 -10.45981 -10.45510
 Alpha  occ. eigenvalues --  -10.44751 -10.43053 -10.42975  -9.72893  -7.45284
 Alpha  occ. eigenvalues --   -7.44645  -7.44631  -1.37582  -1.28466  -1.27953
 Alpha  occ. eigenvalues --   -1.05359  -1.03394  -0.94230  -0.93577  -0.91181
 Alpha  occ. eigenvalues --   -0.89584  -0.85140  -0.79067  -0.77517  -0.75102
 Alpha  occ. eigenvalues --   -0.74024  -0.71382  -0.68106  -0.63730  -0.61655
 Alpha  occ. eigenvalues --   -0.61417  -0.59876  -0.59368  -0.57861  -0.57007
 Alpha  occ. eigenvalues --   -0.53370  -0.51177  -0.48894  -0.48289  -0.48102
 Alpha  occ. eigenvalues --   -0.47736  -0.46070  -0.45087  -0.44525  -0.43934
 Alpha  occ. eigenvalues --   -0.42965  -0.42706  -0.42015  -0.41622  -0.41074
 Alpha  occ. eigenvalues --   -0.40919  -0.40420  -0.39526  -0.38590  -0.38140
 Alpha  occ. eigenvalues --   -0.37543  -0.36584  -0.35718  -0.35204  -0.34226
 Alpha  occ. eigenvalues --   -0.33765  -0.32925  -0.32601  -0.31883  -0.31009
 Alpha  occ. eigenvalues --   -0.30604  -0.29828  -0.29025  -0.28881  -0.26869
 Alpha  occ. eigenvalues --   -0.22866  -0.21662  -0.20191  -0.19720  -0.19347
 Alpha  occ. eigenvalues --   -0.19195  -0.15890
 Alpha virt. eigenvalues --    0.09834   0.09873   0.10108   0.11008   0.11091
 Alpha virt. eigenvalues --    0.11369   0.12206   0.12579   0.13089   0.13153
 Alpha virt. eigenvalues --    0.13602   0.13751   0.14342   0.15011   0.15242
 Alpha virt. eigenvalues --    0.15367   0.15618   0.16453   0.16728   0.17005
 Alpha virt. eigenvalues --    0.17118   0.17893   0.18184   0.18415   0.18893
 Alpha virt. eigenvalues --    0.19725   0.19870   0.19948   0.20555   0.20873
 Alpha virt. eigenvalues --    0.21246   0.21469   0.21821   0.22203   0.22759
 Alpha virt. eigenvalues --    0.23067   0.23178   0.23595   0.24156   0.24581
 Alpha virt. eigenvalues --    0.24792   0.25716   0.25734   0.26098   0.27014
 Alpha virt. eigenvalues --    0.27533   0.28267   0.28420   0.28949   0.29103
 Alpha virt. eigenvalues --    0.29738   0.30046   0.30191   0.30991   0.31806
 Alpha virt. eigenvalues --    0.31947   0.32062   0.32921   0.33177   0.33224
 Alpha virt. eigenvalues --    0.33574   0.34022   0.34472   0.34542   0.34712
 Alpha virt. eigenvalues --    0.35161   0.35319   0.35599   0.36201   0.36576
 Alpha virt. eigenvalues --    0.36837   0.37271   0.37943   0.38220   0.38741
 Alpha virt. eigenvalues --    0.38897   0.39083   0.39308   0.39842   0.40019
 Alpha virt. eigenvalues --    0.40308   0.40649   0.41017   0.41240   0.41840
 Alpha virt. eigenvalues --    0.42076   0.42186   0.42638   0.43069   0.43361
 Alpha virt. eigenvalues --    0.43777   0.44351   0.44913   0.45399   0.45636
 Alpha virt. eigenvalues --    0.46042   0.46217   0.46635   0.46820   0.47277
 Alpha virt. eigenvalues --    0.47764   0.48285   0.48656   0.49309   0.49585
 Alpha virt. eigenvalues --    0.49899   0.50089   0.50399   0.50622   0.51751
 Alpha virt. eigenvalues --    0.52304   0.53520   0.53908   0.54141   0.54693
 Alpha virt. eigenvalues --    0.55172   0.56011   0.56181   0.57255   0.57791
 Alpha virt. eigenvalues --    0.58618   0.60255   0.61155   0.62578   0.63431
 Alpha virt. eigenvalues --    0.63587   0.65507   0.65733   0.67282   0.69027
 Alpha virt. eigenvalues --    0.70045   0.71342   0.71539   0.73175   0.74371
 Alpha virt. eigenvalues --    0.77899   0.78363   0.79293   0.80455   0.80545
 Alpha virt. eigenvalues --    0.81070   0.82442   0.83335   0.83737   0.84615
 Alpha virt. eigenvalues --    0.86210   0.86495   0.86889   0.87117   0.87662
 Alpha virt. eigenvalues --    0.88106   0.89047   0.89449   0.90254   0.91915
 Alpha virt. eigenvalues --    0.92119   0.92938   0.93237   0.93923   0.95440
 Alpha virt. eigenvalues --    0.95765   0.97515   0.97989   0.98596   0.99302
 Alpha virt. eigenvalues --    0.99638   1.01516   1.01736   1.02840   1.03388
 Alpha virt. eigenvalues --    1.04369   1.07274   1.07699   1.08987   1.09266
 Alpha virt. eigenvalues --    1.09902   1.10108   1.10456   1.11042   1.13066
 Alpha virt. eigenvalues --    1.13810   1.14466   1.15310   1.16410   1.17406
 Alpha virt. eigenvalues --    1.17721   1.18790   1.20442   1.20602   1.21050
 Alpha virt. eigenvalues --    1.23293   1.24098   1.25709   1.27376   1.27546
 Alpha virt. eigenvalues --    1.28591   1.29071   1.29900   1.31174   1.31572
 Alpha virt. eigenvalues --    1.32247   1.33664   1.33989   1.34891   1.36026
 Alpha virt. eigenvalues --    1.38586   1.39417   1.40870   1.43110   1.43925
 Alpha virt. eigenvalues --    1.45608   1.46383   1.48006   1.48119   1.48592
 Alpha virt. eigenvalues --    1.50479   1.50818   1.51880   1.52539   1.53581
 Alpha virt. eigenvalues --    1.54132   1.54853   1.55098   1.56931   1.58138
 Alpha virt. eigenvalues --    1.59043   1.59802   1.60142   1.61335   1.62885
 Alpha virt. eigenvalues --    1.63334   1.65077   1.66043   1.67771   1.68288
 Alpha virt. eigenvalues --    1.69540   1.69620   1.69873   1.71128   1.72682
 Alpha virt. eigenvalues --    1.73389   1.76127   1.77389   1.77676   1.78721
 Alpha virt. eigenvalues --    1.79027   1.82268   1.83201   1.83830   1.84183
 Alpha virt. eigenvalues --    1.85169   1.86168   1.86648   1.88755   1.90289
 Alpha virt. eigenvalues --    1.91833   1.92998   1.94426   1.95344   1.96685
 Alpha virt. eigenvalues --    1.96974   1.97584   1.97909   1.98869   1.99140
 Alpha virt. eigenvalues --    1.99813   2.01258   2.02112   2.03235   2.03657
 Alpha virt. eigenvalues --    2.04144   2.05495   2.07296   2.07589   2.07893
 Alpha virt. eigenvalues --    2.08394   2.09068   2.09536   2.12180   2.13374
 Alpha virt. eigenvalues --    2.13811   2.14287   2.16413   2.17122   2.17912
 Alpha virt. eigenvalues --    2.18373   2.18762   2.19978   2.20358   2.21425
 Alpha virt. eigenvalues --    2.21563   2.22568   2.22772   2.23151   2.23874
 Alpha virt. eigenvalues --    2.25195   2.25432   2.26857   2.29078   2.31194
 Alpha virt. eigenvalues --    2.32575   2.33016   2.34613   2.36025   2.38009
 Alpha virt. eigenvalues --    2.38840   2.40566   2.41930   2.42032   2.42905
 Alpha virt. eigenvalues --    2.43377   2.46939   2.49327   2.49498   2.50545
 Alpha virt. eigenvalues --    2.50661   2.51276   2.52511   2.54697   2.58534
 Alpha virt. eigenvalues --    2.60011   2.60863   2.62180   2.65651   2.66972
 Alpha virt. eigenvalues --    2.68044   2.72745   2.74126   2.75414   2.75841
 Alpha virt. eigenvalues --    2.76537   2.76983   2.81136   2.83467   2.87926
 Alpha virt. eigenvalues --    2.88229   2.89349   2.89861   2.90089   2.91508
 Alpha virt. eigenvalues --    2.93602   2.97373   2.99471   3.06654   3.06950
 Alpha virt. eigenvalues --    3.11241   3.13753   3.21575   3.23693   3.26295
 Alpha virt. eigenvalues --    3.28096   3.28221   3.35500   3.37465   3.40784
 Alpha virt. eigenvalues --    3.41840   3.48509   3.54011   4.34921   4.37305
 Alpha virt. eigenvalues --    4.38524   4.42093   4.44326   4.50209   4.51920
 Alpha virt. eigenvalues --    4.53918   4.55837   4.57762   4.58548   4.60964
 Alpha virt. eigenvalues --    4.62363   4.67920   4.71303   4.74148   4.82814
 Alpha virt. eigenvalues --    4.84890   4.89886   4.99731   5.61957   6.22945
 Alpha virt. eigenvalues --    7.02972
          Condensed to atoms (all electrons):
               1          2          3          4          5          6
     1  C   22.455612  -3.745520  -4.184350  -4.058071  -0.025568  -5.823277
     2  C   -3.745520  13.177728   1.710422  -2.762669  -2.549102   0.592455
     3  C   -4.184350   1.710422  11.540959   0.200149  -2.884712   0.026539
     4  C   -4.058071  -2.762669   0.200149  19.765114  -1.268155  -2.670160
     5  C   -0.025568  -2.549102  -2.884712  -1.268155  11.331923   2.404913
     6  C   -5.823277   0.592455   0.026539  -2.670160   2.404913  14.055739
     7  H    0.131180   0.019753   0.026533   0.046391   0.008648   0.122302
     8  N   -0.081068   0.014138  -0.225386   0.271343   0.061116   0.099919
     9  C   -0.193329   0.016557  -0.338172  -0.205964  -0.242495  -0.716090
    10  N   -0.009734   0.001276  -0.059354  -0.067565  -0.072473  -0.022432
    11  O   -0.007865   0.252311   0.501016  -0.606041  -0.227337  -0.032196
    12  C    0.002528  -0.002078  -0.135498  -0.293643  -0.064273  -0.085072
    13  C    0.000811  -0.003001  -0.011585  -0.003942   0.011910   0.000983
    14  C    0.000073  -0.000035  -0.003036  -0.003863  -0.003149  -0.001035
    15  H    0.091707  -0.049149   0.272099  -0.023417   0.024331  -0.022737
    16  H   -0.074849   0.014931   0.032177  -0.023363   0.312538   0.000561
    17  H   -0.002612   0.021975   0.083916  -0.023156  -0.062604  -0.005694
    18  H   -0.000000  -0.000654  -0.005545   0.006452  -0.001324  -0.000975
    19  H    0.000154  -0.000485  -0.009572  -0.014485   0.002268  -0.000428
    20  H   -0.000086   0.000034   0.002949   0.014874  -0.000762   0.000408
    21  H    0.000009   0.000001  -0.000063  -0.003782   0.000324  -0.000052
    22  H   -0.000007  -0.000038  -0.000450   0.002639   0.000293   0.000072
    23  H   -0.000000  -0.000003  -0.000045   0.000250   0.000013   0.000002
    24  H    0.000000   0.000000  -0.000001  -0.000040  -0.000004  -0.000000
    25  H    0.000000   0.000001  -0.000022  -0.000223   0.000007  -0.000001
    26  Cl  -0.111719  -0.134137   0.039996  -0.046579  -0.002555   0.009654
    27  C    2.306715  -1.020243  -0.169263  -1.886556  -0.758559  -1.221843
    28  F   -0.262115   0.074833   0.013028   0.011746   0.034361   0.119180
    29  F   -0.266693   0.082416   0.013897   0.024342   0.048684   0.099366
    30  F   -0.132940   0.040208   0.010386   0.199970   0.107687  -0.128191
    31  O    0.004332   0.003563  -0.032791  -0.293721   0.261915   0.071619
    32  O    0.001516   0.000068  -0.003623  -0.010401  -0.008077  -0.002801
    33  C    0.011734  -0.011684  -0.034429   0.052352  -0.039658  -0.005387
    34  C    0.003803  -0.006664  -0.027244  -0.049629   0.055254   0.012956
    35  C    0.000748  -0.000224  -0.001325  -0.006805   0.000934   0.001666
    36  H    0.000060  -0.000026  -0.000258  -0.003387   0.003046   0.001159
    37  H    0.000066  -0.000020  -0.000127  -0.002614   0.001904   0.000727
    38  H    0.000002  -0.000001  -0.000010  -0.000250   0.000229   0.000031
    39  H    0.000000   0.000000   0.000001   0.000013  -0.000020   0.000006
    40  H    0.000001  -0.000001  -0.000012  -0.000242   0.000270   0.000032
               7          8          9         10         11         12
     1  C    0.131180  -0.081068  -0.193329  -0.009734  -0.007865   0.002528
     2  C    0.019753   0.014138   0.016557   0.001276   0.252311  -0.002078
     3  C    0.026533  -0.225386  -0.338172  -0.059354   0.501016  -0.135498
     4  C    0.046391   0.271343  -0.205964  -0.067565  -0.606041  -0.293643
     5  C    0.008648   0.061116  -0.242495  -0.072473  -0.227337  -0.064273
     6  C    0.122302   0.099919  -0.716090  -0.022432  -0.032196  -0.085072
     7  H    0.472628  -0.000123   0.001946  -0.000004   0.000004   0.000008
     8  N   -0.000123   7.937172   0.103617  -0.349608  -0.044804  -0.149837
     9  C    0.001946   0.103617   6.772839   0.396958   0.718008  -0.835005
    10  N   -0.000004  -0.349608   0.396958   7.792724  -0.189355   0.349032
    11  O    0.000004  -0.044804   0.718008  -0.189355   8.345065  -0.107227
    12  C    0.000008  -0.149837  -0.835005   0.349032  -0.107227   7.103251
    13  C    0.000000   0.014830   0.154675  -0.032788   0.014110  -0.464516
    14  C    0.000000  -0.001696  -0.069992  -0.020295  -0.002295   0.086956
    15  H   -0.000102  -0.017733   0.014151   0.000791  -0.003304   0.002118
    16  H   -0.000102  -0.010378  -0.012101   0.000030   0.000075  -0.001020
    17  H   -0.000000   0.087759  -0.024147   0.006956   0.002410   0.001109
    18  H    0.000000   0.006999  -0.002171   0.143080   0.003766  -0.020131
    19  H   -0.000000   0.000477  -0.109647  -0.043310  -0.000622   0.521422
    20  H    0.000000  -0.001349   0.059729  -0.070565   0.001877   0.390401
    21  H   -0.000000   0.000909  -0.008269   0.008738  -0.000062  -0.094251
    22  H    0.000000  -0.000901   0.005653   0.001511  -0.000197  -0.057557
    23  H    0.000000   0.000022   0.005443  -0.000468  -0.000006   0.006629
    24  H   -0.000000   0.000013  -0.001938   0.000433   0.000002   0.029571
    25  H   -0.000000   0.000032  -0.005299   0.000909  -0.000046  -0.025673
    26  Cl  -0.002596   0.000800   0.017100   0.000905  -0.001803   0.001582
    27  C   -0.057553  -0.027285  -0.213585  -0.005316  -0.001593  -0.010624
    28  F    0.000079   0.000090  -0.001362  -0.000002   0.000000  -0.000013
    29  F    0.000384   0.000146  -0.000289   0.000002   0.000000   0.000002
    30  F    0.000340   0.000338   0.000038  -0.000003   0.000005  -0.000009
    31  O    0.000003   0.005079  -0.020484   0.006213  -0.000255   0.003201
    32  O    0.000000   0.007700  -0.008224  -0.025782   0.000308   0.019613
    33  C   -0.000001  -0.015148   0.009460  -0.000924  -0.001348   0.004737
    34  C   -0.000001  -0.028054  -0.051461  -0.036660  -0.001235   0.036683
    35  C   -0.000000   0.005239   0.002280   0.005808   0.000047  -0.003785
    36  H    0.000000  -0.000248  -0.000488   0.000087  -0.000001   0.000183
    37  H    0.000000  -0.000012  -0.000033  -0.000066  -0.000000  -0.000111
    38  H   -0.000000   0.000011   0.000043  -0.000081  -0.000000  -0.000280
    39  H    0.000000  -0.000007   0.000025   0.000026   0.000000  -0.000003
    40  H   -0.000000   0.000007   0.000050  -0.000067  -0.000000  -0.000154
              13         14         15         16         17         18
     1  C    0.000811   0.000073   0.091707  -0.074849  -0.002612  -0.000000
     2  C   -0.003001  -0.000035  -0.049149   0.014931   0.021975  -0.000654
     3  C   -0.011585  -0.003036   0.272099   0.032177   0.083916  -0.005545
     4  C   -0.003942  -0.003863  -0.023417  -0.023363  -0.023156   0.006452
     5  C    0.011910  -0.003149   0.024331   0.312538  -0.062604  -0.001324
     6  C    0.000983  -0.001035  -0.022737   0.000561  -0.005694  -0.000975
     7  H    0.000000   0.000000  -0.000102  -0.000102  -0.000000   0.000000
     8  N    0.014830  -0.001696  -0.017733  -0.010378   0.087759   0.006999
     9  C    0.154675  -0.069992   0.014151  -0.012101  -0.024147  -0.002171
    10  N   -0.032788  -0.020295   0.000791   0.000030   0.006956   0.143080
    11  O    0.014110  -0.002295  -0.003304   0.000075   0.002410   0.003766
    12  C   -0.464516   0.086956   0.002118  -0.001020   0.001109  -0.020131
    13  C    6.431856  -0.256277  -0.000024   0.000045  -0.000996  -0.004591
    14  C   -0.256277   5.852401   0.000012  -0.000004  -0.000152   0.001867
    15  H   -0.000024   0.000012   0.412091  -0.000088  -0.000182   0.000000
    16  H    0.000045  -0.000004  -0.000088   0.408015   0.006238   0.000003
    17  H   -0.000996  -0.000152  -0.000182   0.006238   0.271332   0.009429
    18  H   -0.004591   0.001867   0.000000   0.000003   0.009429   0.250464
    19  H   -0.033594   0.005747  -0.000001  -0.000000   0.000010   0.002033
    20  H   -0.084539  -0.019319  -0.000000   0.000000  -0.000001   0.001002
    21  H    0.444060  -0.024103  -0.000000  -0.000000   0.000007   0.002643
    22  H    0.424333  -0.062371   0.000000   0.000000  -0.000002  -0.000449
    23  H   -0.060288   0.395182   0.000000   0.000000  -0.000000  -0.000007
    24  H   -0.121344   0.446921   0.000000   0.000000  -0.000000   0.000000
    25  H   -0.071456   0.449355  -0.000000  -0.000000  -0.000000   0.000004
    26  Cl  -0.000025   0.000003   0.005574   0.000146  -0.000003  -0.000002
    27  C   -0.000056  -0.000073   0.002889   0.032539   0.005073  -0.000082
    28  F   -0.000000   0.000000   0.000001  -0.000161   0.000002   0.000000
    29  F    0.000000  -0.000000   0.000001  -0.000119   0.000002  -0.000000
    30  F    0.000001  -0.000000  -0.000001   0.008238   0.000007  -0.000000
    31  O   -0.004930  -0.000845   0.000008  -0.000139   0.100829   0.000086
    32  O   -0.013983   0.003809   0.000002   0.000123  -0.001315   0.078707
    33  C   -0.001986  -0.006044   0.000039   0.002733  -0.006526  -0.010277
    34  C   -0.008798   0.004631  -0.000004  -0.000961   0.018762   0.024533
    35  C    0.003232   0.000293   0.000000   0.000189  -0.003170  -0.003540
    36  H   -0.000169  -0.000014   0.000000  -0.000005  -0.000007  -0.000024
    37  H    0.000226   0.000018   0.000000  -0.000001  -0.000004  -0.000024
    38  H    0.000183   0.000105   0.000000   0.000000  -0.000000  -0.000011
    39  H   -0.000026  -0.000010  -0.000000  -0.000000   0.000000   0.000000
    40  H   -0.000162  -0.000132  -0.000000   0.000000  -0.000000  -0.000012
              19         20         21         22         23         24
     1  C    0.000154  -0.000086   0.000009  -0.000007  -0.000000   0.000000
     2  C   -0.000485   0.000034   0.000001  -0.000038  -0.000003   0.000000
     3  C   -0.009572   0.002949  -0.000063  -0.000450  -0.000045  -0.000001
     4  C   -0.014485   0.014874  -0.003782   0.002639   0.000250  -0.000040
     5  C    0.002268  -0.000762   0.000324   0.000293   0.000013  -0.000004
     6  C   -0.000428   0.000408  -0.000052   0.000072   0.000002  -0.000000
     7  H   -0.000000   0.000000  -0.000000   0.000000   0.000000  -0.000000
     8  N    0.000477  -0.001349   0.000909  -0.000901   0.000022   0.000013
     9  C   -0.109647   0.059729  -0.008269   0.005653   0.005443  -0.001938
    10  N   -0.043310  -0.070565   0.008738   0.001511  -0.000468   0.000433
    11  O   -0.000622   0.001877  -0.000062  -0.000197  -0.000006   0.000002
    12  C    0.521422   0.390401  -0.094251  -0.057557   0.006629   0.029571
    13  C   -0.033594  -0.084539   0.444060   0.424333  -0.060288  -0.121344
    14  C    0.005747  -0.019319  -0.024103  -0.062371   0.395182   0.446921
    15  H   -0.000001  -0.000000  -0.000000   0.000000   0.000000   0.000000
    16  H   -0.000000   0.000000  -0.000000   0.000000   0.000000   0.000000
    17  H    0.000010  -0.000001   0.000007  -0.000002  -0.000000  -0.000000
    18  H    0.002033   0.001002   0.002643  -0.000449  -0.000007   0.000000
    19  H    0.505578  -0.045707   0.003905  -0.006008  -0.000216  -0.000080
    20  H   -0.045707   0.551230  -0.005443   0.004532   0.002911  -0.000084
    21  H    0.003905  -0.005443   0.467204  -0.032124  -0.004257  -0.002834
    22  H   -0.006008   0.004532  -0.032124   0.503508   0.003944  -0.002968
    23  H   -0.000216   0.002911  -0.004257   0.003944   0.509542  -0.027268
    24  H   -0.000080  -0.000084  -0.002834  -0.002968  -0.027268   0.510167
    25  H    0.002628  -0.000496   0.003752  -0.004757  -0.033093  -0.028089
    26  Cl  -0.000004   0.000002  -0.000000   0.000000   0.000000   0.000000
    27  C   -0.000011   0.000011  -0.000002   0.000002   0.000000  -0.000000
    28  F   -0.000000   0.000000  -0.000000   0.000000  -0.000000   0.000000
    29  F    0.000000  -0.000000   0.000000  -0.000000   0.000000   0.000000
    30  F   -0.000000  -0.000000   0.000000  -0.000000   0.000000  -0.000000
    31  O   -0.000021   0.000015  -0.000104   0.000087   0.000001   0.000000
    32  O   -0.000686   0.000914  -0.006022   0.000855   0.000057   0.000003
    33  C    0.001049  -0.000086  -0.000863   0.000385   0.000083  -0.000054
    34  C    0.000044   0.000158  -0.000985   0.000844   0.000014   0.000041
    35  C    0.000040  -0.000074   0.000569  -0.000268  -0.000010  -0.000010
    36  H    0.000000  -0.000000   0.000000  -0.000000  -0.000000   0.000000
    37  H    0.000000   0.000000   0.000000  -0.000000  -0.000000  -0.000000
    38  H   -0.000000   0.000000  -0.000002   0.000000  -0.000000   0.000000
    39  H    0.000000   0.000000   0.000000  -0.000000   0.000000  -0.000000
    40  H   -0.000000  -0.000000  -0.000002   0.000000  -0.000000   0.000000
              25         26         27         28         29         30
     1  C    0.000000  -0.111719   2.306715  -0.262115  -0.266693  -0.132940
     2  C    0.000001  -0.134137  -1.020243   0.074833   0.082416   0.040208
     3  C   -0.000022   0.039996  -0.169263   0.013028   0.013897   0.010386
     4  C   -0.000223  -0.046579  -1.886556   0.011746   0.024342   0.199970
     5  C    0.000007  -0.002555  -0.758559   0.034361   0.048684   0.107687
     6  C   -0.000001   0.009654  -1.221843   0.119180   0.099366  -0.128191
     7  H   -0.000000  -0.002596  -0.057553   0.000079   0.000384   0.000340
     8  N    0.000032   0.000800  -0.027285   0.000090   0.000146   0.000338
     9  C   -0.005299   0.017100  -0.213585  -0.001362  -0.000289   0.000038
    10  N    0.000909   0.000905  -0.005316  -0.000002   0.000002  -0.000003
    11  O   -0.000046  -0.001803  -0.001593   0.000000   0.000000   0.000005
    12  C   -0.025673   0.001582  -0.010624  -0.000013   0.000002  -0.000009
    13  C   -0.071456  -0.000025  -0.000056  -0.000000   0.000000   0.000001
    14  C    0.449355   0.000003  -0.000073   0.000000  -0.000000  -0.000000
    15  H   -0.000000   0.005574   0.002889   0.000001   0.000001  -0.000001
    16  H   -0.000000   0.000146   0.032539  -0.000161  -0.000119   0.008238
    17  H   -0.000000  -0.000003   0.005073   0.000002   0.000002   0.000007
    18  H    0.000004  -0.000002  -0.000082   0.000000  -0.000000  -0.000000
    19  H    0.002628  -0.000004  -0.000011  -0.000000   0.000000  -0.000000
    20  H   -0.000496   0.000002   0.000011   0.000000  -0.000000  -0.000000
    21  H    0.003752  -0.000000  -0.000002  -0.000000   0.000000   0.000000
    22  H   -0.004757   0.000000   0.000002   0.000000  -0.000000  -0.000000
    23  H   -0.033093   0.000000   0.000000  -0.000000   0.000000   0.000000
    24  H   -0.028089   0.000000  -0.000000   0.000000   0.000000  -0.000000
    25  H    0.513651  -0.000000  -0.000000  -0.000000  -0.000000   0.000000
    26  Cl  -0.000000  17.106216  -0.024452  -0.000438  -0.000498  -0.000079
    27  C   -0.000000  -0.024452   7.324825   0.132317   0.117627   0.009005
    28  F   -0.000000  -0.000438   0.132317   9.270410  -0.063206  -0.044643
    29  F   -0.000000  -0.000498   0.117627  -0.063206   9.274835  -0.043496
    30  F    0.000000  -0.000079   0.009005  -0.044643  -0.043496   9.308005
    31  O   -0.000000   0.000080   0.002593  -0.000022  -0.000021  -0.000469
    32  O   -0.000049   0.000001  -0.000896   0.000000  -0.000000  -0.000011
    33  C   -0.000090  -0.000086  -0.009709   0.000103   0.000084   0.000908
    34  C   -0.000021  -0.000036   0.000180  -0.000021  -0.000018  -0.000717
    35  C    0.000009   0.000001  -0.000675  -0.000001   0.000000  -0.000068
    36  H    0.000000   0.000000   0.000094   0.000000  -0.000000   0.000003
    37  H    0.000000   0.000000  -0.000036  -0.000000   0.000000   0.000001
    38  H   -0.000000  -0.000000   0.000000  -0.000000  -0.000000   0.000000
    39  H   -0.000000   0.000000  -0.000001  -0.000000  -0.000000   0.000000
    40  H   -0.000000   0.000000   0.000001  -0.000000  -0.000000   0.000000
              31         32         33         34         35         36
     1  C    0.004332   0.001516   0.011734   0.003803   0.000748   0.000060
     2  C    0.003563   0.000068  -0.011684  -0.006664  -0.000224  -0.000026
     3  C   -0.032791  -0.003623  -0.034429  -0.027244  -0.001325  -0.000258
     4  C   -0.293721  -0.010401   0.052352  -0.049629  -0.006805  -0.003387
     5  C    0.261915  -0.008077  -0.039658   0.055254   0.000934   0.003046
     6  C    0.071619  -0.002801  -0.005387   0.012956   0.001666   0.001159
     7  H    0.000003   0.000000  -0.000001  -0.000001  -0.000000   0.000000
     8  N    0.005079   0.007700  -0.015148  -0.028054   0.005239  -0.000248
     9  C   -0.020484  -0.008224   0.009460  -0.051461   0.002280  -0.000488
    10  N    0.006213  -0.025782  -0.000924  -0.036660   0.005808   0.000087
    11  O   -0.000255   0.000308  -0.001348  -0.001235   0.000047  -0.000001
    12  C    0.003201   0.019613   0.004737   0.036683  -0.003785   0.000183
    13  C   -0.004930  -0.013983  -0.001986  -0.008798   0.003232  -0.000169
    14  C   -0.000845   0.003809  -0.006044   0.004631   0.000293  -0.000014
    15  H    0.000008   0.000002   0.000039  -0.000004   0.000000   0.000000
    16  H   -0.000139   0.000123   0.002733  -0.000961   0.000189  -0.000005
    17  H    0.100829  -0.001315  -0.006526   0.018762  -0.003170  -0.000007
    18  H    0.000086   0.078707  -0.010277   0.024533  -0.003540  -0.000024
    19  H   -0.000021  -0.000686   0.001049   0.000044   0.000040   0.000000
    20  H    0.000015   0.000914  -0.000086   0.000158  -0.000074  -0.000000
    21  H   -0.000104  -0.006022  -0.000863  -0.000985   0.000569   0.000000
    22  H    0.000087   0.000855   0.000385   0.000844  -0.000268  -0.000000
    23  H    0.000001   0.000057   0.000083   0.000014  -0.000010  -0.000000
    24  H    0.000000   0.000003  -0.000054   0.000041  -0.000010   0.000000
    25  H   -0.000000  -0.000049  -0.000090  -0.000021   0.000009   0.000000
    26  Cl   0.000080   0.000001  -0.000086  -0.000036   0.000001   0.000000
    27  C    0.002593  -0.000896  -0.009709   0.000180  -0.000675   0.000094
    28  F   -0.000022   0.000000   0.000103  -0.000021  -0.000001   0.000000
    29  F   -0.000021  -0.000000   0.000084  -0.000018   0.000000  -0.000000
    30  F   -0.000469  -0.000011   0.000908  -0.000717  -0.000068   0.000003
    31  O    8.580562  -0.179887   0.373076  -0.223708   0.031299  -0.002682
    32  O   -0.179887   8.479726   0.396005  -0.133185   0.042773   0.001124
    33  C    0.373076   0.396005   5.713757  -0.993551   0.014412  -0.077756
    34  C   -0.223708  -0.133185  -0.993551   7.555465  -0.347792   0.438574
    35  C    0.031299   0.042773   0.014412  -0.347792   5.855813  -0.040583
    36  H   -0.002682   0.001124  -0.077756   0.438574  -0.040583   0.501713
    37  H   -0.003566   0.002368  -0.070116   0.433315  -0.043339  -0.029298
    38  H    0.000090  -0.004308  -0.011311  -0.056301   0.424086  -0.003991
    39  H   -0.000311   0.002358   0.038392  -0.095050   0.395477  -0.002035
    40  H    0.000035  -0.005124  -0.009085  -0.061353   0.428280   0.003640
              37         38         39         40
     1  C    0.000066   0.000002   0.000000   0.000001
     2  C   -0.000020  -0.000001   0.000000  -0.000001
     3  C   -0.000127  -0.000010   0.000001  -0.000012
     4  C   -0.002614  -0.000250   0.000013  -0.000242
     5  C    0.001904   0.000229  -0.000020   0.000270
     6  C    0.000727   0.000031   0.000006   0.000032
     7  H    0.000000  -0.000000   0.000000  -0.000000
     8  N   -0.000012   0.000011  -0.000007   0.000007
     9  C   -0.000033   0.000043   0.000025   0.000050
    10  N   -0.000066  -0.000081   0.000026  -0.000067
    11  O   -0.000000  -0.000000   0.000000  -0.000000
    12  C   -0.000111  -0.000280  -0.000003  -0.000154
    13  C    0.000226   0.000183  -0.000026  -0.000162
    14  C    0.000018   0.000105  -0.000010  -0.000132
    15  H    0.000000   0.000000  -0.000000  -0.000000
    16  H   -0.000001   0.000000  -0.000000   0.000000
    17  H   -0.000004  -0.000000   0.000000  -0.000000
    18  H   -0.000024  -0.000011   0.000000  -0.000012
    19  H    0.000000  -0.000000   0.000000  -0.000000
    20  H    0.000000   0.000000   0.000000  -0.000000
    21  H    0.000000  -0.000002   0.000000  -0.000002
    22  H   -0.000000   0.000000  -0.000000   0.000000
    23  H   -0.000000  -0.000000   0.000000  -0.000000
    24  H   -0.000000   0.000000  -0.000000   0.000000
    25  H    0.000000  -0.000000  -0.000000  -0.000000
    26  Cl   0.000000  -0.000000   0.000000   0.000000
    27  C   -0.000036   0.000000  -0.000001   0.000001
    28  F   -0.000000  -0.000000  -0.000000  -0.000000
    29  F    0.000000  -0.000000  -0.000000  -0.000000
    30  F    0.000001   0.000000   0.000000   0.000000
    31  O   -0.003566   0.000090  -0.000311   0.000035
    32  O    0.002368  -0.004308   0.002358  -0.005124
    33  C   -0.070116  -0.011311   0.038392  -0.009085
    34  C    0.433315  -0.056301  -0.095050  -0.061353
    35  C   -0.043339   0.424086   0.395477   0.428280
    36  H   -0.029298  -0.003991  -0.002035   0.003640
    37  H    0.502234   0.003648  -0.002052  -0.003959
    38  H    0.003648   0.491121  -0.030345  -0.027084
    39  H   -0.002052  -0.030345   0.550008  -0.030291
    40  H   -0.003959  -0.027084  -0.030291   0.490076
 Mulliken charges:
               1
     1  C   -0.031251
     2  C    0.263063
     3  C   -0.347195
     4  C   -0.266912
     5  C   -0.461740
     6  C   -0.881915
     7  H    0.230283
     8  N   -0.664120
     9  C    0.781972
    10  N   -0.708626
    11  O   -0.611412
    12  C   -0.208268
    13  C   -0.322179
    14  C   -0.772635
    15  H    0.290928
    16  H    0.304710
    17  H    0.514754
    18  H    0.518750
    19  H    0.219520
    20  H    0.197463
    21  H    0.251099
    22  H    0.219440
    23  H    0.201568
    24  H    0.197563
    25  H    0.198967
    26  Cl   0.142950
    27  C    1.474543
    28  F   -0.284168
    29  F   -0.287449
    30  F   -0.334514
    31  O   -0.680729
    32  O   -0.633653
    33  C    0.686806
    34  C   -0.461809
    35  C   -0.761525
    36  H    0.211291
    37  H    0.210873
    38  H    0.214425
    39  H    0.173844
    40  H    0.215288
 Sum of Mulliken charges =  -1.00000
 Mulliken charges with hydrogens summed into heavy atoms:
               1
     1  C    0.199033
     2  C    0.263063
     3  C   -0.056266
     4  C   -0.266912
     5  C   -0.157030
     6  C   -0.881915
     8  N   -0.149366
     9  C    0.781972
    10  N   -0.189876
    11  O   -0.611412
    12  C    0.208716
    13  C    0.148360
    14  C   -0.174537
    26  Cl   0.142950
    27  C    1.474543
    28  F   -0.284168
    29  F   -0.287449
    30  F   -0.334514
    31  O   -0.680729
    32  O   -0.633653
    33  C    0.686806
    34  C   -0.039645
    35  C   -0.157968
         Mulliken charges condensed to fragments:
      1     -0.174810
      2     -0.825190
 Electronic spatial extent (au):  <R**2>=          11874.3919
 Charge=             -1.0000 electrons
 Dipole moment (field-independent basis, Debye):
    X=              1.4825    Y=             -0.1229    Z=              0.1115  Tot=              1.4917
 Quadrupole moment (field-independent basis, Debye-Ang):
   XX=           -193.1752   YY=           -181.1858   ZZ=           -148.5156
   XY=              5.8128   XZ=             -1.0433   YZ=             -0.7157
 Traceless Quadrupole moment (field-independent basis, Debye-Ang):
   XX=            -18.8830   YY=             -6.8936   ZZ=             25.7766
   XY=              5.8128   XZ=             -1.0433   YZ=             -0.7157
 Octapole moment (field-independent basis, Debye-Ang**2):
  XXX=             82.1711  YYY=             64.4672  ZZZ=              1.1669  XYY=             22.7176
  XXY=            -26.3752  XXZ=              5.0071  XZZ=             10.2734  YZZ=             12.7608
  YYZ=              3.3722  XYZ=             -3.5806
 Hexadecapole moment (field-independent basis, Debye-Ang**3):
 XXXX=         -11458.9912 YYYY=          -5145.3292 ZZZZ=           -275.8258 XXXY=            196.1730
 XXXZ=            -22.9729 YYYX=            176.1769 YYYZ=             -0.4196 ZZZX=              8.3068
 ZZZY=              7.6870 XXYY=          -2914.1012 XXZZ=          -1839.2996 YYZZ=           -851.8600
 XXYZ=             12.5166 YYXZ=             -9.6969 ZZXY=             42.4716
 N-N= 2.091047058697D+03 E-N=-8.055888635823D+03  KE= 1.627553958880D+03
 CPIOFr:  IOpCl= 0 IRwI=-1 IRwCP=  731 ICalc= -1 LCPTot=      351879 Len1MO=      910887 IndFrg=      351879
 CPIOFr:  IOpCl= 0 IRwI=-1 IRwCP=  731 ICalc=  0 LCPTot=      351879 Len1MO=      910887 IndFrg=     1262766
 Counterpoise: doing DCBS calculation for fragment   1 NewBq=T
 Basis read from rwf:  (6D, 7F)
 There are   475 symmetry adapted cartesian basis functions of A   symmetry.
 There are   475 symmetry adapted basis functions of A   symmetry.
   475 basis functions,   828 primitive gaussians,   475 cartesian basis functions
    72 alpha electrons       72 beta electrons
       nuclear repulsion energy      1409.6548020142 Hartrees.
 NAtoms=   40 NActive=   40 NUniq=   40 SFac= 1.00D+00 NAtFMM=   60 NAOKFM=F Big=F
 Integral buffers will be    131072 words long.
 Raffenetti 2 integral format.
 Two-electron integral symmetry is turned on.
 One-electron integrals computed using PRISM.
 NBasis=   475 RedAO= T EigKep=  1.45D-06  NBF=   475
 NBsUse=   473 1.00D-06 EigRej=  6.33D-07 NBFU=   473
 ExpMin= 4.38D-02 ExpMax= 2.52D+04 ExpMxC= 3.78D+03 IAcc=3 IRadAn=         5 AccDes= 0.00D+00
 Harris functional with IExCor= 1009 and IRadAn=       5 diagonalized for initial guess.
 HarFok:  IExCor= 1009 AccDes= 0.00D+00 IRadAn=         5 IDoV= 1 UseB2=F ITyADJ=14
 ICtDFT=  3500011 ScaDFX=  1.000000  1.000000  1.000000  1.000000
 FoFCou: FMM=F IPFlag=           0 FMFlag=      100000 FMFlg1=           0
         NFxFlg=           0 DoJE=T BraDBF=F KetDBF=T FulRan=T
         wScrn=  0.000000 ICntrl=     500 IOpCl=  0 I1Cent=   200000004 NGrid=           0
         NMat0=    1 NMatS0=      1 NMatT0=    0 NMatD0=    1 NMtDS0=    0 NMtDT0=    0
 Petite list used in FoFCou.
 Requested convergence on RMS density matrix=1.00D-08 within 128 cycles.
 Requested convergence on MAX density matrix=1.00D-06.
 Requested convergence on             energy=1.00D-06.
 No special actions if energy rises.
 SCF Done:  E(RM062X) =  -1370.53484434     A.U. after   15 cycles
            NFock= 15  Conv=0.42D-08     -V/T= 2.0064

 **********************************************************************

            Population analysis using the SCF density.

 **********************************************************************

 Orbital symmetries:
       Occupied  (A) (A) (A) (A) (A) (A) (A) (A) (A) (A) (A) (A)
                 (A) (A) (A) (A) (A) (A) (A) (A) (A) (A) (A) (A)
                 (A) (A) (A) (A) (A) (A) (A) (A) (A) (A) (A) (A)
                 (A) (A) (A) (A) (A) (A) (A) (A) (A) (A) (A) (A)
                 (A) (A) (A) (A) (A) (A) (A) (A) (A) (A) (A) (A)
                 (A) (A) (A) (A) (A) (A) (A) (A) (A) (A) (A) (A)
       Virtual   (A) (A) (A) (A) (A) (A) (A) (A) (A) (A) (A) (A)
                 (A) (A) (A) (A) (A) (A) (A) (A) (A) (A) (A) (A)
                 (A) (A) (A) (A) (A) (A) (A) (A) (A) (A) (A) (A)
                 (A) (A) (A) (A) (A) (A) (A) (A) (A) (A) (A) (A)
                 (A) (A) (A) (A) (A) (A) (A) (A) (A) (A) (A) (A)
                 (A) (A) (A) (A) (A) (A) (A) (A) (A) (A) (A) (A)
                 (A) (A) (A) (A) (A) (A) (A) (A) (A) (A) (A) (A)
                 (A) (A) (A) (A) (A) (A) (A) (A) (A) (A) (A) (A)
                 (A) (A) (A) (A) (A) (A) (A) (A) (A) (A) (A) (A)
                 (A) (A) (A) (A) (A) (A) (A) (A) (A) (A) (A) (A)
                 (A) (A) (A) (A) (A) (A) (A) (A) (A) (A) (A) (A)
                 (A) (A) (A) (A) (A) (A) (A) (A) (A) (A) (A) (A)
                 (A) (A) (A) (A) (A) (A) (A) (A) (A) (A) (A) (A)
                 (A) (A) (A) (A) (A) (A) (A) (A) (A) (A) (A) (A)
                 (A) (A) (A) (A) (A) (A) (A) (A) (A) (A) (A) (A)
                 (A) (A) (A) (A) (A) (A) (A) (A) (A) (A) (A) (A)
                 (A) (A) (A) (A) (A) (A) (A) (A) (A) (A) (A) (A)
                 (A) (A) (A) (A) (A) (A) (A) (A) (A) (A) (A) (A)
                 (A) (A) (A) (A) (A) (A) (A) (A) (A) (A) (A) (A)
                 (A) (A) (A) (A) (A) (A) (A) (A) (A) (A) (A) (A)
                 (A) (A) (A) (A) (A) (A) (A) (A) (A) (A) (A) (A)
                 (A) (A) (A) (A) (A) (A) (A) (A) (A) (A) (A) (A)
                 (A) (A) (A) (A) (A) (A) (A) (A) (A) (A) (A) (A)
                 (A) (A) (A) (A) (A) (A) (A) (A) (A) (A) (A) (A)
                 (A) (A) (A) (A) (A) (A) (A) (A) (A) (A) (A) (A)
                 (A) (A) (A) (A) (A) (A) (A) (A) (A) (A) (A) (A)
                 (A) (A) (A) (A) (A) (A) (A) (A) (A) (A) (A) (A)
                 (A) (A) (A) (A) (A) (A) (A) (A) (A) (A) (A) (A)
                 (A) (A) (A) (A) (A) (A) (A) (A) (A) (A) (A) (A)
                 (A) (A) (A) (A) (A) (A) (A) (A) (A) (A) (A) (A)
                 (A) (A) (A) (A) (A) (A) (A) (A) (A) (A) (A) (A)
                 (A) (A) (A) (A) (A) (A) (A) (A) (A) (A) (A) (A)
                 (A) (A) (A) (A) (A) (A) (A) (A) (A) (A) (A) (A)
                 (A) (A) (A) (A) (A)
 The electronic state is 1-A.
 Alpha  occ. eigenvalues -- -102.67507 -25.31074 -25.30016 -25.30002 -19.62873
 Alpha  occ. eigenvalues --  -14.83013 -14.81108 -10.81785 -10.70582 -10.63453
 Alpha  occ. eigenvalues --  -10.63382 -10.60124 -10.59790 -10.58851 -10.58170
 Alpha  occ. eigenvalues --  -10.57520 -10.56963 -10.55541  -9.82153  -7.54560
 Alpha  occ. eigenvalues --   -7.53891  -7.53872  -1.46970  -1.38025  -1.37001
 Alpha  occ. eigenvalues --   -1.19301  -1.08462  -1.05471  -1.00820  -0.95689
 Alpha  occ. eigenvalues --   -0.90983  -0.88756  -0.85434  -0.81716  -0.80186
 Alpha  occ. eigenvalues --   -0.74779  -0.72982  -0.70898  -0.70116  -0.69089
 Alpha  occ. eigenvalues --   -0.69065  -0.66279  -0.64207  -0.60272  -0.59801
 Alpha  occ. eigenvalues --   -0.57666  -0.57464  -0.57383  -0.55528  -0.55362
 Alpha  occ. eigenvalues --   -0.54175  -0.53267  -0.53105  -0.51564  -0.51352
 Alpha  occ. eigenvalues --   -0.51194  -0.49698  -0.49343  -0.48644  -0.47099
 Alpha  occ. eigenvalues --   -0.46537  -0.44641  -0.44094  -0.43049  -0.42342
 Alpha  occ. eigenvalues --   -0.41594  -0.38792  -0.38282  -0.36159  -0.34050
 Alpha  occ. eigenvalues --   -0.32175  -0.28963
 Alpha virt. eigenvalues --   -0.02683  -0.01273  -0.00344   0.01046   0.01819
 Alpha virt. eigenvalues --    0.02015   0.02473   0.02889   0.03851   0.04121
 Alpha virt. eigenvalues --    0.04481   0.04696   0.05331   0.05432   0.05816
 Alpha virt. eigenvalues --    0.06140   0.06551   0.06825   0.07331   0.07993
 Alpha virt. eigenvalues --    0.08355   0.08599   0.08907   0.09147   0.09480
 Alpha virt. eigenvalues --    0.09668   0.09797   0.10522   0.10738   0.10953
 Alpha virt. eigenvalues --    0.12030   0.12169   0.12914   0.12944   0.13443
 Alpha virt. eigenvalues --    0.13627   0.13775   0.14085   0.14354   0.14560
 Alpha virt. eigenvalues --    0.15257   0.15420   0.15809   0.16206   0.16787
 Alpha virt. eigenvalues --    0.17372   0.17683   0.18500   0.18564   0.18740
 Alpha virt. eigenvalues --    0.19097   0.19208   0.19910   0.19962   0.20328
 Alpha virt. eigenvalues --    0.20917   0.21085   0.21519   0.21894   0.22574
 Alpha virt. eigenvalues --    0.22911   0.23369   0.23628   0.24133   0.24236
 Alpha virt. eigenvalues --    0.24610   0.25184   0.25506   0.25767   0.26090
 Alpha virt. eigenvalues --    0.26275   0.26864   0.27227   0.27500   0.27673
 Alpha virt. eigenvalues --    0.28186   0.28401   0.28929   0.29029   0.29872
 Alpha virt. eigenvalues --    0.30107   0.30533   0.30688   0.30998   0.31301
 Alpha virt. eigenvalues --    0.31653   0.32376   0.32739   0.32971   0.33249
 Alpha virt. eigenvalues --    0.33417   0.33918   0.34211   0.34777   0.35426
 Alpha virt. eigenvalues --    0.36213   0.36300   0.37006   0.37430   0.38474
 Alpha virt. eigenvalues --    0.38864   0.39306   0.39568   0.40117   0.40159
 Alpha virt. eigenvalues --    0.40280   0.41100   0.41471   0.41859   0.42007
 Alpha virt. eigenvalues --    0.43049   0.43639   0.44601   0.45145   0.45258
 Alpha virt. eigenvalues --    0.45734   0.46393   0.47039   0.48994   0.49624
 Alpha virt. eigenvalues --    0.50293   0.51318   0.51899   0.52296   0.53538
 Alpha virt. eigenvalues --    0.55063   0.55579   0.56795   0.57870   0.59957
 Alpha virt. eigenvalues --    0.60919   0.61086   0.62200   0.64585   0.65732
 Alpha virt. eigenvalues --    0.65822   0.66948   0.67479   0.68572   0.69768
 Alpha virt. eigenvalues --    0.70345   0.70915   0.71858   0.72196   0.72880
 Alpha virt. eigenvalues --    0.73224   0.73969   0.74637   0.75086   0.75542
 Alpha virt. eigenvalues --    0.76376   0.76557   0.77876   0.77967   0.78541
 Alpha virt. eigenvalues --    0.78985   0.80926   0.81424   0.82197   0.82614
 Alpha virt. eigenvalues --    0.83367   0.84325   0.84952   0.85307   0.86300
 Alpha virt. eigenvalues --    0.87079   0.87169   0.88402   0.89673   0.90620
 Alpha virt. eigenvalues --    0.91428   0.91790   0.92438   0.94178   0.94627
 Alpha virt. eigenvalues --    0.95251   0.97267   0.98562   0.99567   1.00350
 Alpha virt. eigenvalues --    1.00449   1.01635   1.02763   1.03160   1.03538
 Alpha virt. eigenvalues --    1.03997   1.05026   1.05173   1.06507   1.08865
 Alpha virt. eigenvalues --    1.09530   1.11510   1.12914   1.15220   1.16383
 Alpha virt. eigenvalues --    1.17721   1.18398   1.18893   1.19220   1.21102
 Alpha virt. eigenvalues --    1.21877   1.22732   1.23632   1.25177   1.26962
 Alpha virt. eigenvalues --    1.27370   1.29166   1.29848   1.30713   1.33044
 Alpha virt. eigenvalues --    1.33992   1.35933   1.37362   1.38655   1.39518
 Alpha virt. eigenvalues --    1.40562   1.42471   1.43810   1.45127   1.45452
 Alpha virt. eigenvalues --    1.46533   1.48990   1.49535   1.51058   1.51615
 Alpha virt. eigenvalues --    1.54299   1.55375   1.56942   1.58528   1.58630
 Alpha virt. eigenvalues --    1.59629   1.64029   1.64320   1.67665   1.69149
 Alpha virt. eigenvalues --    1.69478   1.71594   1.73289   1.74103   1.74695
 Alpha virt. eigenvalues --    1.75680   1.76047   1.77578   1.79502   1.80911
 Alpha virt. eigenvalues --    1.83087   1.84024   1.85767   1.86382   1.87063
 Alpha virt. eigenvalues --    1.88206   1.88957   1.89559   1.90421   1.91591
 Alpha virt. eigenvalues --    1.92127   1.93335   1.93564   1.94111   1.94950
 Alpha virt. eigenvalues --    1.95545   1.97399   2.00596   2.01052   2.02214
 Alpha virt. eigenvalues --    2.02592   2.03823   2.04593   2.05861   2.07528
 Alpha virt. eigenvalues --    2.08667   2.08910   2.09262   2.11143   2.12291
 Alpha virt. eigenvalues --    2.12782   2.13159   2.14156   2.14656   2.14767
 Alpha virt. eigenvalues --    2.15359   2.17148   2.19022   2.19689   2.21660
 Alpha virt. eigenvalues --    2.21915   2.22879   2.23192   2.24270   2.26842
 Alpha virt. eigenvalues --    2.27911   2.30321   2.31376   2.31814   2.34216
 Alpha virt. eigenvalues --    2.35157   2.37433   2.38486   2.39677   2.40224
 Alpha virt. eigenvalues --    2.40579   2.40814   2.42433   2.43359   2.48955
 Alpha virt. eigenvalues --    2.50949   2.52028   2.53139   2.54817   2.59349
 Alpha virt. eigenvalues --    2.60462   2.62481   2.62982   2.63831   2.64268
 Alpha virt. eigenvalues --    2.64838   2.67270   2.69634   2.70025   2.71078
 Alpha virt. eigenvalues --    2.72679   2.74796   2.76370   2.77281   2.77588
 Alpha virt. eigenvalues --    2.79235   2.79669   2.80488   2.81627   2.83264
 Alpha virt. eigenvalues --    2.85423   2.85660   2.87143   2.88663   2.95066
 Alpha virt. eigenvalues --    2.96523   2.98660   3.00864   3.02597   3.03581
 Alpha virt. eigenvalues --    3.05665   3.10738   3.12335   3.14149   3.16734
 Alpha virt. eigenvalues --    3.18812   3.22254   3.25150   3.27207   3.28670
 Alpha virt. eigenvalues --    3.30934   3.32280   3.33974   3.35864   3.41470
 Alpha virt. eigenvalues --    3.54536   3.55796   3.64008   3.71016   3.76243
 Alpha virt. eigenvalues --    3.77824   3.84180   3.86889   4.06055   4.15548
 Alpha virt. eigenvalues --    4.23532   4.26844   4.27855   4.29713   4.32886
 Alpha virt. eigenvalues --    4.39192   4.40606   4.42381   4.45740   4.46670
 Alpha virt. eigenvalues --    4.47452   4.50052   4.53274   4.56448   4.59387
 Alpha virt. eigenvalues --    4.60819   4.65405   4.73428   4.78432   4.79520
 Alpha virt. eigenvalues --    4.85403   5.21928   5.22373   5.26609   5.53221
 Alpha virt. eigenvalues --    5.57781   5.68271   6.13663   6.44935   6.51205
 Alpha virt. eigenvalues --    6.94387  23.86838  24.12253  24.29538  38.25026
 Alpha virt. eigenvalues --   38.80932
          Condensed to atoms (all electrons):
               1          2          3          4          5          6
     1  C   20.153787  -3.629484  -3.603658  -4.304877  -0.133822  -4.209895
     2  C   -3.629484  11.826100   1.663466  -2.256620  -2.059238   0.737820
     3  C   -3.603658   1.663466  10.493466   0.121520  -2.367121  -0.288535
     4  C   -4.304877  -2.256620   0.121520  17.619121  -0.408871  -1.601435
     5  C   -0.133822  -2.059238  -2.367121  -0.408871   9.984623   2.131628
     6  C   -4.209895   0.737820  -0.288535  -1.601435   2.131628  11.996632
     7  H    0.130042   0.026693   0.029165   0.043729   0.005019   0.118990
     8  N   -0.064556  -0.011492  -0.308055   0.110285   0.237380   0.118224
     9  C   -0.233535   0.227574  -0.072604  -0.407945  -0.384783  -0.636855
    10  N   -0.021158   0.022993   0.005986  -0.047164  -0.121487  -0.011081
    11  O   -0.008285   0.243275   0.483384  -0.607210  -0.202374  -0.025956
    12  C   -0.005923   0.024476  -0.013820  -0.280090  -0.096811  -0.068044
    13  C    0.000089  -0.003040  -0.011277   0.012618   0.008876   0.002388
    14  C   -0.000040   0.000006  -0.001253  -0.000753  -0.001396  -0.000523
    15  H    0.085488  -0.033387   0.278572  -0.039137   0.019944  -0.021663
    16  H   -0.085381   0.032580   0.059639   0.126721   0.212896  -0.086212
    17  H   -0.008821   0.041266   0.145931   0.124923  -0.247099  -0.055352
    18  H    0.000200   0.000384   0.004151  -0.000072  -0.004192  -0.001507
    19  H    0.000132  -0.000005  -0.003833  -0.013240   0.001051  -0.000335
    20  H   -0.000053  -0.000341  -0.002569   0.013506   0.000397   0.000294
    21  H    0.000005   0.000031   0.000490  -0.004074  -0.000298  -0.000091
    22  H   -0.000005  -0.000068  -0.001018   0.003538   0.000576   0.000087
    23  H   -0.000000  -0.000004  -0.000052   0.000375   0.000018   0.000002
    24  H    0.000000   0.000000   0.000004  -0.000056  -0.000003  -0.000000
    25  H    0.000000   0.000001  -0.000020  -0.000289  -0.000002  -0.000002
    26  Cl  -0.132716  -0.130695   0.054294  -0.004367  -0.000956   0.019924
    27  C    2.769217  -1.184091  -0.252842  -1.660415  -0.720401  -1.595800
    28  F   -0.283426   0.076417   0.014597   0.011201   0.037138   0.159964
    29  F   -0.284835   0.085265   0.015535   0.020672   0.049943   0.128190
    30  F   -0.145605   0.038828   0.009815   0.212192   0.123241  -0.128476
    31  O   -0.005763   0.008792   0.021912   0.059445  -0.049611  -0.020346
    32  O   -0.000077   0.000830   0.006899  -0.004618  -0.000977  -0.000549
    33  C    0.000054  -0.003245  -0.020770   0.021618   0.002548  -0.000755
    34  C    0.002163  -0.002174  -0.009783   0.000081   0.001616   0.004977
    35  C    0.000156   0.000213   0.001061  -0.001000  -0.001217   0.000214
    36  H   -0.000004   0.000001   0.000004   0.000060  -0.000039  -0.000027
    37  H   -0.000003   0.000001   0.000006   0.000072  -0.000046  -0.000022
    38  H   -0.000000   0.000000   0.000000   0.000009  -0.000005  -0.000000
    39  H   -0.000000   0.000000   0.000000   0.000001   0.000000  -0.000000
    40  H    0.000000  -0.000000   0.000000   0.000005  -0.000004  -0.000000
               7          8          9         10         11         12
     1  C    0.130042  -0.064556  -0.233535  -0.021158  -0.008285  -0.005923
     2  C    0.026693  -0.011492   0.227574   0.022993   0.243275   0.024476
     3  C    0.029165  -0.308055  -0.072604   0.005986   0.483384  -0.013820
     4  C    0.043729   0.110285  -0.407945  -0.047164  -0.607210  -0.280090
     5  C    0.005019   0.237380  -0.384783  -0.121487  -0.202374  -0.096811
     6  C    0.118990   0.118224  -0.636855  -0.011081  -0.025956  -0.068044
     7  H    0.440915  -0.000117   0.001869  -0.000004   0.000002   0.000008
     8  N   -0.000117   7.823554   0.110676  -0.417177  -0.035412  -0.143700
     9  C    0.001869   0.110676   6.429973   0.277562   0.711136  -0.642750
    10  N   -0.000004  -0.417177   0.277562   7.688003  -0.166315   0.358809
    11  O    0.000002  -0.035412   0.711136  -0.166315   8.221563  -0.077215
    12  C    0.000008  -0.143700  -0.642750   0.358809  -0.077215   6.732763
    13  C    0.000000   0.011085   0.117481  -0.043310   0.009865  -0.283515
    14  C    0.000000  -0.000241  -0.022062  -0.010678  -0.000347  -0.002192
    15  H   -0.000094  -0.017279   0.018002   0.000390  -0.002528   0.002473
    16  H   -0.000109  -0.021592  -0.018155   0.000391   0.000104  -0.001234
    17  H   -0.000000   0.156837  -0.021949   0.028873   0.003421   0.002889
    18  H   -0.000000   0.030099   0.019501   0.198749   0.002837  -0.058255
    19  H   -0.000000   0.002880  -0.067436  -0.036060  -0.002492   0.478306
    20  H    0.000000  -0.003064   0.017810  -0.061190  -0.000402   0.413059
    21  H   -0.000000   0.001609  -0.003175   0.007285  -0.000034  -0.077824
    22  H    0.000000  -0.001210   0.004808   0.002988  -0.000292  -0.079089
    23  H    0.000000   0.000022   0.010444  -0.000263  -0.000026  -0.000404
    24  H   -0.000000   0.000019  -0.002131   0.000832   0.000004   0.022457
    25  H   -0.000000   0.000023  -0.006934   0.001234  -0.000032  -0.016420
    26  Cl  -0.003054   0.001319   0.023651   0.001061  -0.001081   0.001980
    27  C   -0.052770  -0.030505  -0.173238  -0.003646  -0.001372  -0.008018
    28  F    0.000029   0.000157  -0.001190  -0.000000   0.000000  -0.000010
    29  F    0.000333   0.000171  -0.000566   0.000003   0.000000  -0.000000
    30  F    0.000368   0.000652   0.000327  -0.000003   0.000006  -0.000002
    31  O    0.000002   0.023384   0.000997   0.006950   0.000423   0.005038
    32  O    0.000000   0.005439   0.015588   0.023306   0.000237  -0.007518
    33  C   -0.000003  -0.013496  -0.004883  -0.012978   0.000726   0.000207
[...]
    16  H    0.000000  -0.000000  -0.000000  -0.000000  -0.000000   0.000000
    17  H    0.000006   0.000000   0.000008  -0.000000  -0.000000  -0.000000
    18  H    0.003249   0.001301   0.003829  -0.000423  -0.000005  -0.000002
    19  H    0.463415  -0.037411   0.003887  -0.005316  -0.000155  -0.000064
    20  H   -0.037411   0.513508  -0.005808   0.004192   0.002743  -0.000060
    21  H    0.003887  -0.005808   0.524111  -0.038897  -0.004645  -0.002857
    22  H   -0.005316   0.004192  -0.038897   0.498184   0.003769  -0.002708
    23  H   -0.000155   0.002743  -0.004645   0.003769   0.490634  -0.025071
    24  H   -0.000064  -0.000060  -0.002857  -0.002708  -0.025071   0.484201
    25  H    0.002153  -0.000532   0.003921  -0.004670  -0.030122  -0.024810
    26  Cl  -0.000003   0.000001  -0.000000   0.000000   0.000000   0.000000
    27  C   -0.000010   0.000009  -0.000003   0.000003   0.000000  -0.000000
    28  F   -0.000000   0.000000   0.000000   0.000000   0.000000   0.000000
    29  F    0.000000  -0.000000   0.000000   0.000000   0.000000   0.000000
    30  F   -0.000000  -0.000000   0.000000   0.000000   0.000000  -0.000000
              25         26         27         28         29         30
     1  C    0.000000  -0.147836   1.034449  -0.266107  -0.252010  -0.098455
     2  C    0.000001  -0.103614  -1.455053   0.078674   0.089144   0.040024
     3  C   -0.000042   0.023676   0.494538   0.010053   0.007934   0.003474
     4  C   -0.000297   0.018449  -2.742151   0.031755   0.042678   0.194056
     5  C    0.000004  -0.033475   2.855656  -0.047291  -0.057917  -0.024867
     6  C   -0.000002   0.048123  -3.787033   0.239169   0.222237  -0.045070
     7  H   -0.000000  -0.003694  -0.021218  -0.000022   0.000301   0.000370
     8  N    0.000028   0.000761  -0.012046   0.000071   0.000096  -0.000105
     9  C   -0.007872   0.021748  -0.228119  -0.000946  -0.000211   0.000280
    10  N    0.001544   0.001263  -0.003535  -0.000002   0.000001  -0.000035
    11  O   -0.000059  -0.000658  -0.002484   0.000000   0.000000   0.000005
    12  C   -0.014746   0.001737  -0.009264  -0.000009   0.000001  -0.000016
    13  C   -0.065943  -0.000016   0.000364  -0.000000   0.000000   0.000001
    14  C    0.435576   0.000004  -0.000021  -0.000000   0.000000   0.000000
    15  H   -0.000000   0.003577   0.003728   0.000001   0.000001  -0.000001
    16  H   -0.000000   0.000209  -0.006153  -0.000252  -0.000229   0.006851
    17  H    0.000000   0.000024  -0.001017  -0.000002  -0.000001  -0.000020
    18  H    0.000007   0.000001  -0.000115   0.000000   0.000000   0.000000
    19  H    0.002153  -0.000003  -0.000010  -0.000000   0.000000  -0.000000
    20  H   -0.000532   0.000001   0.000009   0.000000  -0.000000  -0.000000
    21  H    0.003921  -0.000000  -0.000003   0.000000   0.000000   0.000000
    22  H   -0.004670   0.000000   0.000003   0.000000   0.000000   0.000000
    23  H   -0.030122   0.000000   0.000000   0.000000   0.000000   0.000000
    24  H   -0.024810   0.000000  -0.000000   0.000000   0.000000  -0.000000
    25  H    0.488615  -0.000000  -0.000000  -0.000000  -0.000000  -0.000000
    26  Cl  -0.000000  16.967866  -0.020034  -0.000454  -0.000490  -0.000057
    27  C   -0.000000  -0.020034   8.088676   0.090569   0.080931   0.029763
    28  F   -0.000000  -0.000454   0.090569   9.238309  -0.063717  -0.045108
    29  F   -0.000000  -0.000490   0.080931  -0.063717   9.243195  -0.044307
    30  F   -0.000000  -0.000057   0.029763  -0.045108  -0.044307   9.315089
 Mulliken charges:
               1
     1  C   -0.031780
     2  C    0.383639
     3  C    0.079114
     4  C   -0.511115
     5  C   -0.253505
     6  C   -1.507369
     7  H    0.257705
     8  N   -0.597837
     9  C    0.842444
    10  N   -0.660614
    11  O   -0.579160
    12  C   -0.193406
    13  C   -0.330289
    14  C   -0.732024
    15  H    0.299133
    16  H    0.216276
    17  H    0.404153
    18  H    0.394279
    19  H    0.247265
    20  H    0.221841
    21  H    0.206147
    22  H    0.227349
    23  H    0.216027
    24  H    0.216221
    25  H    0.217245
    26  Cl   0.222890
    27  C    1.609569
    28  F   -0.264690
    29  F   -0.267635
    30  F   -0.331873
    31  O    0.000000
    32  O    0.000000
    33  C    0.000000
    34  C    0.000000
    35  C    0.000000
    36  H    0.000000
    37  H    0.000000
    38  H    0.000000
    39  H    0.000000
    40  H    0.000000
 Sum of Mulliken charges =  -0.00000
 Mulliken charges with hydrogens summed into heavy atoms:
               1
     1  C    0.225925
     2  C    0.383639
     3  C    0.378247
     4  C   -0.511115
     5  C   -0.037229
     6  C   -1.507369
     8  N   -0.193684
     9  C    0.842444
    10  N   -0.266335
    11  O   -0.579160
    12  C    0.275699
    13  C    0.103207
    14  C   -0.082531
    26  Cl   0.222890
    27  C    1.609569
    28  F   -0.264690
    29  F   -0.267635
    30  F   -0.331873
    31  O    0.000000
    32  O    0.000000
    33  C    0.000000
    34  C    0.000000
    35  C    0.000000
         Mulliken charges condensed to fragments:
      1     -0.000000
      2      0.000000
 Electronic spatial extent (au):  <R**2>=           9071.7157
 Charge=             -0.0000 electrons
 Dipole moment (field-independent basis, Debye):
    X=             -6.2426    Y=              2.2385    Z=              0.0277  Tot=              6.6319
 Quadrupole moment (field-independent basis, Debye-Ang):
   XX=           -107.0020   YY=           -126.3374   ZZ=           -115.4949
   XY=             -2.4395   XZ=             -0.1828   YZ=             -0.6239
 Traceless Quadrupole moment (field-independent basis, Debye-Ang):
   XX=              9.2761   YY=            -10.0593   ZZ=              0.7832
   XY=             -2.4395   XZ=             -0.1828   YZ=             -0.6239
 Octapole moment (field-independent basis, Debye-Ang**2):
  XXX=           -332.9801  YYY=            319.9946  ZZZ=             -8.5453  XYY=           -105.2818
  XXY=             57.2026  XXZ=             -2.7390  XZZ=            -83.8494  YZZ=             98.1127
  YYZ=             -0.4070  XYZ=              0.7308
 Hexadecapole moment (field-independent basis, Debye-Ang**3):
 XXXX=          -8131.8561 YYYY=          -3062.9401 ZZZZ=           -217.6366 XXXY=           -688.5740
 XXXZ=             27.7047 YYYX=           -739.4454 YYYZ=            -37.6200 ZZZX=             50.6390
 ZZZY=            -25.7730 XXYY=          -1930.4824 XXZZ=          -1464.4294 YYZZ=           -532.2319
 XXYZ=            -17.3621 YYXZ=              8.1314 ZZXY=           -236.6435
 N-N= 1.409654802014D+03 E-N=-6.043864284585D+03  KE= 1.361848338273D+03
 CPIOFr:  IOpCl= 0 IRwI=-1 IRwCP=  731 ICalc=  3 LCPTot=      351879 Len1MO=      910887 IndFrg=     3995427
 Counterpoise: doing MCBS calculation for fragment   2
 Basis read from rwf:  (6D, 7F)
 There are   105 symmetry adapted cartesian basis functions of A   symmetry.
 There are   105 symmetry adapted basis functions of A   symmetry.
   105 basis functions,   180 primitive gaussians,   105 cartesian basis functions
    20 alpha electrons       20 beta electrons
       nuclear repulsion energy       168.5552672490 Hartrees.
 NAtoms=   40 NActive=   10 NUniq=   10 SFac= 1.00D+00 NAtFMM=   60 NAOKFM=F Big=F
 Integral buffers will be    131072 words long.
 Raffenetti 2 integral format.
 Two-electron integral symmetry is turned on.
 One-electron integrals computed using PRISM.
 NBasis=   105 RedAO= T EigKep=  1.22D-04  NBF=   105
 NBsUse=   105 1.00D-06 EigRej= -1.00D+00 NBFU=   105
 ExpMin= 4.38D-02 ExpMax= 5.48D+03 ExpMxC= 8.25D+02 IAcc=3 IRadAn=         5 AccDes= 0.00D+00
 Harris functional with IExCor= 1009 and IRadAn=       5 diagonalized for initial guess.
 HarFok:  IExCor= 1009 AccDes= 0.00D+00 IRadAn=         5 IDoV= 1 UseB2=F ITyADJ=14
 ICtDFT=  3500011 ScaDFX=  1.000000  1.000000  1.000000  1.000000
 FoFCou: FMM=F IPFlag=           0 FMFlag=      100000 FMFlg1=           0
         NFxFlg=           0 DoJE=T BraDBF=F KetDBF=T FulRan=T
         wScrn=  0.000000 ICntrl=     500 IOpCl=  0 I1Cent=   200000004 NGrid=           0
         NMat0=    1 NMatS0=      1 NMatT0=    0 NMatD0=    1 NMtDS0=    0 NMtDT0=    0
 Petite list used in FoFCou.
 Keep R1 ints in memory in canonical form, NReq=16474200.
 Requested convergence on RMS density matrix=1.00D-08 within 128 cycles.
 Requested convergence on MAX density matrix=1.00D-06.
 Requested convergence on             energy=1.00D-06.
 No special actions if energy rises.
 SCF Done:  E(RM062X) =  -267.728452579     A.U. after   14 cycles
            NFock= 14  Conv=0.39D-08     -V/T= 2.0084

 **********************************************************************

            Population analysis using the SCF density.

 **********************************************************************

 Orbital symmetries:
       Occupied  (A) (A) (A) (A) (A) (A) (A) (A) (A) (A) (A) (A)
                 (A) (A) (A) (A) (A) (A) (A) (A)
       Virtual   (A) (A) (A) (A) (A) (A) (A) (A) (A) (A) (A) (A)
                 (A) (A) (A) (A) (A) (A) (A) (A) (A) (A) (A) (A)
                 (A) (A) (A) (A) (A) (A) (A) (A) (A) (A) (A) (A)
                 (A) (A) (A) (A) (A) (A) (A) (A) (A) (A) (A) (A)
                 (A) (A) (A) (A) (A) (A) (A) (A) (A) (A) (A) (A)
                 (A) (A) (A) (A) (A) (A) (A) (A) (A) (A) (A) (A)
                 (A) (A) (A) (A) (A) (A) (A) (A) (A) (A) (A) (A)
                 (A)
 The electronic state is 1-A.
 Alpha  occ. eigenvalues --  -19.38451 -19.37838 -10.43611 -10.38707 -10.37520
 Alpha  occ. eigenvalues --   -0.94241  -0.84493  -0.69941  -0.56014  -0.39520
 Alpha  occ. eigenvalues --   -0.36288  -0.33527  -0.30150  -0.27617  -0.27375
 Alpha  occ. eigenvalues --   -0.25039  -0.22653  -0.10894  -0.10868  -0.10118
 Alpha virt. eigenvalues --    0.14602   0.16484   0.18622   0.19559   0.21562
 Alpha virt. eigenvalues --    0.21843   0.22429   0.22870   0.23453   0.25917
 Alpha virt. eigenvalues --    0.28393   0.29723   0.30033   0.37977   0.38880
 Alpha virt. eigenvalues --    0.42274   0.42490   0.43635   0.45445   0.46289
 Alpha virt. eigenvalues --    0.46767   0.48019   0.49557   0.49770   0.50802
 Alpha virt. eigenvalues --    0.55098   0.56071   0.57264   0.71413   0.75497
 Alpha virt. eigenvalues --    0.84431   0.86596   0.89584   0.92070   0.94776
 Alpha virt. eigenvalues --    0.99414   1.02000   1.08459   1.10015   1.14571
 Alpha virt. eigenvalues --    1.20059   1.21294   1.31128   1.32726   1.34115
 Alpha virt. eigenvalues --    1.34603   1.49206   1.54796   1.57837   1.59073
 Alpha virt. eigenvalues --    1.61091   1.63261   1.63280   1.74384   1.78220
 Alpha virt. eigenvalues --    1.80777   1.86898   2.02460   2.02719   2.08649
 Alpha virt. eigenvalues --    2.09997   2.12103   2.14343   2.16601   2.22643
 Alpha virt. eigenvalues --    2.26505   2.28273   2.29478   2.45072   2.52344
 Alpha virt. eigenvalues --    2.54068   2.54318   2.73539   2.74101   2.78546
 Alpha virt. eigenvalues --    2.97676   3.13179   3.27448   3.32560   3.42458
 Alpha virt. eigenvalues --    4.36348   4.41514   4.58162   4.67129   4.82381
          Condensed to atoms (all electrons):
               1          2          3          4          5          6
     1  O    8.622771  -0.169541   0.530765  -0.393449   0.080924  -0.003207
     2  O   -0.169541   8.591689   0.458616  -0.322166   0.097967   0.001356
     3  C    0.530765   0.458616   4.836406  -0.359749   0.051194  -0.015422
     4  C   -0.393449  -0.322166  -0.359749   7.547862  -0.659038   0.389863
     5  C    0.080924   0.097967   0.051194  -0.659038   6.041671  -0.056459
     6  H   -0.003207   0.001356  -0.015422   0.389863  -0.056459   0.529354
     7  H   -0.003129   0.001220  -0.015404   0.389459  -0.056068  -0.032476
     8  H   -0.000089  -0.006508  -0.002936  -0.048184   0.410881  -0.004336
     9  H   -0.000324   0.002777   0.012102  -0.059109   0.378064  -0.002027
    10  H   -0.000111  -0.006550  -0.002410  -0.048649   0.410973   0.003864
               7          8          9         10
     1  O   -0.003129  -0.000089  -0.000324  -0.000111
     2  O    0.001220  -0.006508   0.002777  -0.006550
     3  C   -0.015404  -0.002936   0.012102  -0.002410
     4  C    0.389459  -0.048184  -0.059109  -0.048649
     5  C   -0.056068   0.410881   0.378064   0.410973
     6  H   -0.032476  -0.004336  -0.002027   0.003864
     7  H    0.529561   0.003864  -0.002019  -0.004345
     8  H    0.003864   0.499787  -0.033788  -0.025799
     9  H   -0.002019  -0.033788   0.588116  -0.033734
    10  H   -0.004345  -0.025799  -0.033734   0.499060
 Mulliken charges:
               1
     1  C    0.000000
     2  C    0.000000
     3  C    0.000000
     4  C    0.000000
     5  C    0.000000
     6  C    0.000000
     7  H    0.000000
     8  N    0.000000
     9  C    0.000000
    10  N    0.000000
    11  O    0.000000
    12  C    0.000000
    13  C    0.000000
    14  C    0.000000
    15  H    0.000000
    16  H    0.000000
    17  H    0.000000
    18  H    0.000000
    19  H    0.000000
    20  H    0.000000
    21  H    0.000000
    22  H    0.000000
    23  H    0.000000
    24  H    0.000000
    25  H    0.000000
    26  Cl   0.000000
    27  C    0.000000
    28  F    0.000000
    29  F    0.000000
    30  F    0.000000
    31  O   -0.664609
    32  O   -0.648860
    33  C    0.506838
    34  C   -0.436840
    35  C   -0.700109
    36  H    0.189491
    37  H    0.189338
    38  H    0.207109
    39  H    0.149942
    40  H    0.207700
 Sum of Mulliken charges =  -1.00000
 Mulliken charges with hydrogens summed into heavy atoms:
               1
     1  C    0.000000
     2  C    0.000000
     3  C    0.000000
     4  C    0.000000
     5  C    0.000000
     6  C    0.000000
     8  N    0.000000
     9  C    0.000000
    10  N    0.000000
    11  O    0.000000
    12  C    0.000000
    13  C    0.000000
    14  C    0.000000
    26  Cl   0.000000
    27  C    0.000000
    28  F    0.000000
    29  F    0.000000
    30  F    0.000000
    31  O   -0.664609
    32  O   -0.648860
    33  C    0.506838
    34  C   -0.058011
    35  C   -0.135358
         Mulliken charges condensed to fragments:
      1      0.000000
      2     -1.000000
 Electronic spatial extent (au):  <R**2>=           2789.1004
 Charge=             -1.0000 electrons
 Dipole moment (field-independent basis, Debye):
    X=             11.5672    Y=             -8.1260    Z=              0.1339  Tot=             14.1368
 Quadrupole moment (field-independent basis, Debye-Ang):
   XX=            -71.7645   YY=            -51.4775   ZZ=            -32.5404
   XY=             19.3651   XZ=             -1.7736   YZ=              0.1969
 Traceless Quadrupole moment (field-independent basis, Debye-Ang):
   XX=            -19.8371   YY=              0.4500   ZZ=             19.3871
   XY=             19.3651   XZ=             -1.7736   YZ=              0.1969
 Octapole moment (field-independent basis, Debye-Ang**2):
  XXX=            448.3509  YYY=           -340.5770  ZZZ=              9.7726  XYY=            150.3613
  XXY=           -165.0909  XXZ=             12.1129  XZZ=             97.8360  YZZ=            -91.7147
  YYZ=              4.6343  XYZ=             -3.9544
 Hexadecapole moment (field-independent basis, Debye-Ang**3):
 XXXX=          -2689.8675 YYYY=          -2120.3409 ZZZZ=            -55.7099 XXXY=           1216.8930
 XXXZ=            -83.2275 YYYX=           1104.6160 YYYZ=             44.2150 ZZZX=            -44.0919
 ZZZY=             35.0631 XXYY=           -873.5578 XXZZ=           -351.0231 YYZZ=           -316.3544
 XXYZ=             33.3340 YYXZ=            -28.7534 ZZXY=            296.0284
 N-N= 1.685552672490D+02 E-N=-9.724527967999D+02  KE= 2.654898745275D+02
 CPIOFr:  IOpCl= 0 IRwI=-1 IRwCP=  731 ICalc=  4 LCPTot=      351879 Len1MO=      910887 IndFrg=     4906314
 CPIOFr:  IOpCl= 0 IRwI=-2 IRwCP=  731 ICalc=  0 LCPTot=      351879 Len1MO=      910887 IndFrg=     1262766
 Counterpoise corrected energy =   -1638.342738754536
                   BSSE energy =       0.001746940014
               sum of monomers =   -1638.262520405058
           complexation energy =     -51.43 kcal/mole (raw)
           complexation energy =     -50.34 kcal/mole (corrected)
 1\1\GINC-R3845\SP\RM062X\Gen\C14H17Cl1F3N2O3(1-)\ROOT\21-Feb-2019\0\\#
  M062X/Gen 6D SCF=Tight INT(grid=ultrafine) Counterpoise=2 maxdisk=671
 088640\\NM3_C2_EtO.M062X_6-31pGd_bsse\\-1,1\C,0,-4.0705611683,3.707506
 8963,-0.9362405015\C,0,-2.874743224,4.4011244627,-0.8517935115\C,0,-1.
 6991683193,3.8425963406,-0.3628459648\C,0,-1.7124383455,2.5039878164,0
 .0694457618\C,0,-2.9205458749,1.7713489247,-0.0071420257\C,0,-4.061241
 3986,2.3780798524,-0.5006207207\H,0,-4.9703568883,4.1741258591,-1.3215
 777002\N,0,-0.620146224,1.8341929139,0.5724037606\C,0,0.6655779731,2.3
 318720221,0.7418181782\N,0,1.5148009843,1.4139667503,1.2625785077\O,0,
 1.000098775,3.4855720857,0.4599460768\C,0,2.9149047475,1.7272625702,1.
 43302161\C,0,3.5764099369,0.6840563425,2.3275485202\C,0,5.0705786774,0
 .9505256042,2.4950019659\H,0,-0.7841650184,4.416403236,-0.3106292918\H
 ,0,-2.9262232332,0.7363915155,0.3263061042\H,0,-0.7937623794,0.8388270
 573,0.8407122543\H,0,1.2184829694,0.4282906953,1.3813907953\H,0,3.0053
 933734,2.7280834549,1.8722740734\H,0,3.4301235922,1.7651829609,0.45917
 92028\H,0,3.4087415914,-0.3133643689,1.904096117\H,0,3.0760441402,0.68
 87567732,3.3034993887\H,0,5.5859334234,0.9209152964,1.5276912099\H,0,5
 .5390936979,0.2050802195,3.14596099\H,0,5.2481116869,1.9395644519,2.93
 42606498\Cl,0,-2.8404375396,6.0720488856,-1.3904519917\C,0,-5.35000301
 59,1.6155233157,-0.5935949145\F,0,-5.7888858805,1.5202370425,-1.870379
 4948\F,0,-6.3472685634,2.2269292497,0.0871508769\F,0,-5.2656748087,0.3
 661173789,-0.1189252227\O,0,-1.2892453754,-0.7623658346,1.1782054715\O
 ,0,0.8449003571,-1.3047876415,1.6183734615\C,0,-0.373830276,-1.5760887
 657,1.486565896\C,0,-0.8210639742,-3.0278515702,1.7177703702\C,0,0.310
 4139812,-3.9830198294,2.0766609742\H,0,-1.3403380673,-3.3533165264,0.8
 080028631\H,0,-1.5856223345,-3.0071780928,2.5042067608\H,0,1.063988616
 3,-4.0032454087,1.283972798\H,0,-0.0641210063,-5.0025424227,2.23038654
 98\H,0,0.8172743921,-3.6550695133,2.9888401513\\Version=ES64L-G09RevE.
 01\State=1-A\HF=-267.7284526\RMSD=3.860e-09\Dipole=-0.4766584,0.288232
 1,-0.1618144\Quadrupole=-6.534893,-8.468315,15.003208,3.9636542,-7.071
 3931,8.6961445\PG=C01 [X(C14H17Cl1F3N2O3)]\\@


 "WHERE SHALL I START, PLEASE YOUR MAJESTY?" HE ASKED.
 "BEGIN AT THE BEGINNING," THE KING SAID GRAVELY,
 "AND GO ON TILL YOU COME TO THE END: THEN STOP." 

                                      -- LEWIS CARROLL
 Job cpu time:       0 days  1 hours 51 minutes 52.5 seconds.
 File lengths (MBytes):  RWF=    185 Int=      0 D2E=      0 Chk=     51 Scr=      1
 Normal termination of Gaussian 09 at Thu Feb 21 21:55:34 2019.
WARNING: pbs_rusage is deprecated and values produced may not be accurate


=============================================================================
                                     Resource usage:
                                       CPU time:              01:23:04
   JobId:    5978098.r-man2            Elapsed time:          00:22:28
   Project:             q95            Requested time:        48:00:00
   Service Units:      1.50 
                                       Max physical memory:      151MB
                                       Max virtual memory:       410MB
                                       Requested memory:           0MB

                                       Number of cpus:               4

                                       Max jobfs disk use:       0.2GB
                                       Requested jobfs:          5.0GB
=============================================================================

