 Entering Gaussian System, Link 0=/apps/gaussian/g09e01/g09/g09
 AtFile(1): /home/507/hio507/Basis/6-31pGd.gbs
 Initial command:
 /apps/gaussian/g09e01/g09/l1.exe "/jobfs/local/6169201.r-man2/Gau-14632.inp" -scrdir="/jobfs/local/6169201.r-man2/"
 Entering Link 1 = /apps/gaussian/g09e01/g09/l1.exe PID=     14633.
  
 Copyright (c) 1988,1990,1992,1993,1995,1998,2003,2009,2015,
            Gaussian, Inc.  All Rights Reserved.
  
 This is part of the Gaussian(R) 09 program.  It is based on
 the Gaussian(R) 03 system (copyright 2003, Gaussian, Inc.),
 the Gaussian(R) 98 system (copyright 1998, Gaussian, Inc.),
 the Gaussian(R) 94 system (copyright 1995, Gaussian, Inc.),
 the Gaussian 92(TM) system (copyright 1992, Gaussian, Inc.),
 the Gaussian 90(TM) system (copyright 1990, Gaussian, Inc.),
 the Gaussian 88(TM) system (copyright 1988, Gaussian, Inc.),
 the Gaussian 86(TM) system (copyright 1986, Carnegie Mellon
 University), and the Gaussian 82(TM) system (copyright 1983,
 Carnegie Mellon University). Gaussian is a federally registered
 trademark of Gaussian, Inc.
  
 This software contains proprietary and confidential information,
 including trade secrets, belonging to Gaussian, Inc.
  
 This software is provided under written license and may be
 used, copied, transmitted, or stored only in accord with that
 written license.
  
 The following legend is applicable only to US Government
 contracts under FAR:
  
                    RESTRICTED RIGHTS LEGEND
  
 Use, reproduction and disclosure by the US Government is
 subject to restrictions as set forth in subparagraphs (a)
 and (c) of the Commercial Computer Software - Restricted
 Rights clause in FAR 52.227-19.
  
 Gaussian, Inc.
 340 Quinnipiac St., Bldg. 40, Wallingford CT 06492
  
  
 ---------------------------------------------------------------
 Warning -- This program may not be used in any manner that
 competes with the business of Gaussian, Inc. or will provide
 assistance to any competitor of Gaussian, Inc.  The licensee
 of this program is prohibited from giving any competitor of
 Gaussian, Inc. access to this program.  By using this program,
 the user acknowledges that Gaussian, Inc. is engaged in the
 business of creating and licensing software in the field of
 computational chemistry and represents and warrants to the
 licensee that it is not a competitor of Gaussian, Inc. and that
 it will not use this program in any manner prohibited above.
 ---------------------------------------------------------------
  

 Cite this work as:
 Gaussian 09, Revision E.01,
 M. J. Frisch, G. W. Trucks, H. B. Schlegel, G. E. Scuseria, 
 M. A. Robb, J. R. Cheeseman, G. Scalmani, V. Barone, B. Mennucci, 
 G. A. Petersson, H. Nakatsuji, M. Caricato, X. Li, H. P. Hratchian, 
 A. F. Izmaylov, J. Bloino, G. Zheng, J. L. Sonnenberg, M. Hada, 
 M. Ehara, K. Toyota, R. Fukuda, J. Hasegawa, M. Ishida, T. Nakajima, 
 Y. Honda, O. Kitao, H. Nakai, T. Vreven, J. A. Montgomery, Jr., 
 J. E. Peralta, F. Ogliaro, M. Bearpark, J. J. Heyd, E. Brothers, 
 K. N. Kudin, V. N. Staroverov, T. Keith, R. Kobayashi, J. Normand, 
 K. Raghavachari, A. Rendell, J. C. Burant, S. S. Iyengar, J. Tomasi, 
 M. Cossi, N. Rega, J. M. Millam, M. Klene, J. E. Knox, J. B. Cross, 
 V. Bakken, C. Adamo, J. Jaramillo, R. Gomperts, R. E. Stratmann, 
 O. Yazyev, A. J. Austin, R. Cammi, C. Pomelli, J. W. Ochterski, 
 R. L. Martin, K. Morokuma, V. G. Zakrzewski, G. A. Voth, 
 P. Salvador, J. J. Dannenberg, S. Dapprich, A. D. Daniels, 
 O. Farkas, J. B. Foresman, J. V. Ortiz, J. Cioslowski, 
 and D. J. Fox, Gaussian, Inc., Wallingford CT, 2013.
 
 ******************************************
 Gaussian 09:  ES64L-G09RevE.01 30-Nov-2015
                26-Feb-2019 
 ******************************************
 %chk=3SF5Chloro_EtO.M062X_6-31pGd_opt_water.chk
 %mem=196608000
 %nproc=8
 Will use up to    8 processors via shared memory.
 ----------------------------------------------------------------------
 # M062X/Gen 6D SCF=Tight INT(grid=ultrafine) OPT=CalcFC IOP(2/17=4) SC
 RF=(SMD,Solvent=h2o) maxdisk=3221225472
 ----------------------------------------------------------------------
 1/10=4,14=-1,18=20,19=15,26=4,38=1/1,3;
 2/9=110,12=2,17=4,18=5,40=1/2;
 3/5=7,8=2,11=2,16=1,25=1,30=1,70=32201,71=2,72=1,74=-55,75=-5,140=1/1,2,3;
 4//1;
 5/5=2,32=2,38=5,53=1/2;
 8/6=4,10=90,11=11/1;
 11/6=1,8=1,9=11,15=111,16=1/1,2,10;
 10/6=1,13=1/2;
 6/7=2,8=2,9=2,10=2,28=1/1;
 7/10=1,18=20,25=1/1,2,3,16;
 1/10=4,14=-1,18=20,19=15,26=4/3(2);
 2/9=110,17=4/2;
 99//99;
 2/9=110,17=4/2;
 3/5=7,6=1,8=2,11=2,16=1,25=1,30=1,70=32205,71=1,72=1,74=-55,75=-5,82=7/1,2,3;
 4/5=5,16=3,69=1/1;
 5/5=2,32=2,38=5,53=1/2;
 7//1,2,3,16;
 1/14=-1,18=20,19=15,26=4/3(-5);
 2/9=110,17=4/2;
 6/7=2,8=2,9=2,10=2,19=2,28=1/1;
 99/9=1/99;
 --------------------------------------
 3SF5Chloro_EtO.M062X_6-31pGd_opt_water
 --------------------------------------
 Symbolic Z-matrix:
 Charge = -1 Multiplicity = 1
 C                    -1.87835   2.0501   -0.0895 
 C                    -0.46243   1.49907  -0.04227 
 C                     0.57471   2.62872  -0.06674 
 N                     1.91334   2.07968  -0.01021 
 C                     3.03715   2.83402  -0.02448 
 O                     2.92415   4.04584  -0.09287 
 N                     4.26793   2.21779   0.03694 
 C                     5.54793   2.91369   0.01015 
 C                     5.74607   4.3367   -0.08006 
 C                     6.6864    2.1158    0.08274 
 C                     7.9635    2.66145   0.07731 
 C                     8.15033   4.04124  -0.00537 
 C                     7.04995   4.92456  -0.08877 
 H                    -2.60168   1.20833  -0.072 
 H                    -2.02791   2.63604  -1.02063 
 H                    -2.06172   2.7014    0.79093 
 H                    -0.30314   0.83154  -0.91903 
 H                    -0.33953   0.9006    0.88837 
 H                     0.41578   3.29388   0.80821 
 H                     0.45735   3.21192  -1.00435 
 H                     2.03198   0.97824   0.04135 
 H                     4.27464   1.01847   0.12929 
 H                     4.9155    5.00346  -0.13954 
 H                     6.57778   1.04498   0.14847 
 H                     9.17277   4.38813  -0.00005 
 S                     7.32085   6.77556  -0.19466 
 F                     5.64422   7.09051  -0.29165 
 F                     7.40078   6.67962  -1.89961 
 F                     7.24732   6.88737   1.51241 
 Cl                    9.34336   1.58485   0.18367 
 F                     7.56897   8.46874  -0.30019 
 F                     9.02144   6.60984  -0.10344 
 O                     2.01253  -1.08288  -0.07116 
 O                     4.22763  -1.19524  -0.15603 
 C                     3.14177  -1.7714    0.04203 
 C                     2.91542  -3.23719   0.38995 
 C                     4.16179  -4.05491   0.64962 
 H                     2.3373   -3.69768  -0.44166 
 H                     2.24005  -3.31609   1.27614 
 H                     5.04434  -3.407     0.50532 
 H                     4.21836  -4.91198  -0.06452 
 H                     4.12224  -4.45729   1.68177 
 
 Add virtual bond connecting atoms H22        and N7         Dist= 2.27D+00.
 Add virtual bond connecting atoms O33        and H21        Dist= 3.90D+00.

 GradGradGradGradGradGradGradGradGradGradGradGradGradGradGradGradGradGrad
 Berny optimization.
 Initialization pass.
                           ----------------------------
                           !    Initial Parameters    !
                           ! (Angstroms and Degrees)  !
 --------------------------                            --------------------------
 ! Name  Definition              Value          Derivative Info.                !
 --------------------------------------------------------------------------------
 ! R1    R(1,2)                  1.5201         calculate D2E/DX2 analytically  !
 ! R2    R(1,14)                 1.11           calculate D2E/DX2 analytically  !
 ! R3    R(1,15)                 1.1103         calculate D2E/DX2 analytically  !
 ! R4    R(1,16)                 1.1104         calculate D2E/DX2 analytically  !
 ! R5    R(2,3)                  1.5337         calculate D2E/DX2 analytically  !
 ! R6    R(2,17)                 1.1134         calculate D2E/DX2 analytically  !
 ! R7    R(2,18)                 1.1133         calculate D2E/DX2 analytically  !
 ! R8    R(3,4)                  1.448          calculate D2E/DX2 analytically  !
 ! R9    R(3,19)                 1.1105         calculate D2E/DX2 analytically  !
 ! R10   R(3,20)                 1.1104         calculate D2E/DX2 analytically  !
 ! R11   R(4,5)                  1.3536         calculate D2E/DX2 analytically  !
 ! R12   R(4,21)                 1.109          calculate D2E/DX2 analytically  !
 ! R13   R(5,6)                  1.219          calculate D2E/DX2 analytically  !
 ! R14   R(5,7)                  1.3778         calculate D2E/DX2 analytically  !
 ! R15   R(7,8)                  1.4572         calculate D2E/DX2 analytically  !
 ! R16   R(7,22)                 1.2029         calculate D2E/DX2 analytically  !
 ! R17   R(8,9)                  1.4396         calculate D2E/DX2 analytically  !
 ! R18   R(8,10)                 1.3921         calculate D2E/DX2 analytically  !
 ! R19   R(9,13)                 1.4303         calculate D2E/DX2 analytically  !
 ! R20   R(9,23)                 1.0667         calculate D2E/DX2 analytically  !
 ! R21   R(10,11)                1.3888         calculate D2E/DX2 analytically  !
 ! R22   R(10,24)                1.0783         calculate D2E/DX2 analytically  !
 ! R23   R(11,12)                1.3948         calculate D2E/DX2 analytically  !
 ! R24   R(11,30)                1.7534         calculate D2E/DX2 analytically  !
 ! R25   R(12,13)                1.4135         calculate D2E/DX2 analytically  !
 ! R26   R(12,25)                1.0797         calculate D2E/DX2 analytically  !
 ! R27   R(13,26)                1.8737         calculate D2E/DX2 analytically  !
 ! R28   R(21,33)                2.0643         calculate D2E/DX2 analytically  !
 ! R29   R(26,27)                1.7087         calculate D2E/DX2 analytically  !
 ! R30   R(26,28)                1.7095         calculate D2E/DX2 analytically  !
 ! R31   R(26,29)                1.7123         calculate D2E/DX2 analytically  !
 ! R32   R(26,31)                1.7145         calculate D2E/DX2 analytically  !
 ! R33   R(26,32)                1.7111         calculate D2E/DX2 analytically  !
 ! R34   R(33,35)                1.3274         calculate D2E/DX2 analytically  !
 ! R35   R(34,35)                1.2451         calculate D2E/DX2 analytically  !
 ! R36   R(35,36)                1.5234         calculate D2E/DX2 analytically  !
 ! R37   R(36,37)                1.5131         calculate D2E/DX2 analytically  !
 ! R38   R(36,38)                1.1126         calculate D2E/DX2 analytically  !
 ! R39   R(36,39)                1.117          calculate D2E/DX2 analytically  !
 ! R40   R(37,40)                1.1043         calculate D2E/DX2 analytically  !
 ! R41   R(37,41)                1.117          calculate D2E/DX2 analytically  !
 ! R42   R(37,42)                1.1085         calculate D2E/DX2 analytically  !
 ! A1    A(2,1,14)             109.366          calculate D2E/DX2 analytically  !
 ! A2    A(2,1,15)             110.0499         calculate D2E/DX2 analytically  !
 ! A3    A(2,1,16)             109.9871         calculate D2E/DX2 analytically  !
 ! A4    A(14,1,15)            109.0055         calculate D2E/DX2 analytically  !
 ! A5    A(14,1,16)            108.9473         calculate D2E/DX2 analytically  !
 ! A6    A(15,1,16)            109.4615         calculate D2E/DX2 analytically  !
 ! A7    A(1,2,3)              111.2468         calculate D2E/DX2 analytically  !
 ! A8    A(1,2,17)             109.0337         calculate D2E/DX2 analytically  !
 ! A9    A(1,2,18)             108.8853         calculate D2E/DX2 analytically  !
 ! A10   A(3,2,17)             109.4067         calculate D2E/DX2 analytically  !
 ! A11   A(3,2,18)             109.5501         calculate D2E/DX2 analytically  !
 ! A12   A(17,2,18)            108.6741         calculate D2E/DX2 analytically  !
 ! A13   A(2,3,4)              110.1974         calculate D2E/DX2 analytically  !
 ! A14   A(2,3,19)             109.3788         calculate D2E/DX2 analytically  !
 ! A15   A(2,3,20)             109.1982         calculate D2E/DX2 analytically  !
 ! A16   A(4,3,19)             109.1879         calculate D2E/DX2 analytically  !
 ! A17   A(4,3,20)             109.2584         calculate D2E/DX2 analytically  !
 ! A18   A(19,3,20)            109.6067         calculate D2E/DX2 analytically  !
 ! A19   A(3,4,5)              123.7683         calculate D2E/DX2 analytically  !
 ! A20   A(3,4,21)             118.5099         calculate D2E/DX2 analytically  !
 ! A21   A(5,4,21)             117.7205         calculate D2E/DX2 analytically  !
 ! A22   A(4,5,6)              118.5313         calculate D2E/DX2 analytically  !
 ! A23   A(4,5,7)              119.4678         calculate D2E/DX2 analytically  !
 ! A24   A(6,5,7)              122.0009         calculate D2E/DX2 analytically  !
 ! A25   A(5,7,8)              124.7684         calculate D2E/DX2 analytically  !
 ! A26   A(5,7,22)             117.0222         calculate D2E/DX2 analytically  !
 ! A27   A(8,7,22)             118.207          calculate D2E/DX2 analytically  !
 ! A28   A(7,8,9)              126.4503         calculate D2E/DX2 analytically  !
 ! A29   A(7,8,10)             116.339          calculate D2E/DX2 analytically  !
 ! A30   A(9,8,10)             117.2105         calculate D2E/DX2 analytically  !
 ! A31   A(8,9,13)             122.1496         calculate D2E/DX2 analytically  !
 ! A32   A(8,9,23)             120.9426         calculate D2E/DX2 analytically  !
 ! A33   A(13,9,23)            116.9073         calculate D2E/DX2 analytically  !
 ! A34   A(8,10,11)            121.7782         calculate D2E/DX2 analytically  !
 ! A35   A(8,10,24)            119.338          calculate D2E/DX2 analytically  !
 ! A36   A(11,10,24)           118.8835         calculate D2E/DX2 analytically  !
 ! A37   A(10,11,12)           120.8012         calculate D2E/DX2 analytically  !
 ! A38   A(10,11,30)           118.8289         calculate D2E/DX2 analytically  !
 ! A39   A(12,11,30)           120.3694         calculate D2E/DX2 analytically  !
 ! A40   A(11,12,13)           121.1576         calculate D2E/DX2 analytically  !
 ! A41   A(11,12,25)           116.3829         calculate D2E/DX2 analytically  !
 ! A42   A(13,12,25)           122.4594         calculate D2E/DX2 analytically  !
 ! A43   A(9,13,12)            116.9017         calculate D2E/DX2 analytically  !
 ! A44   A(9,13,26)            122.5589         calculate D2E/DX2 analytically  !
 ! A45   A(12,13,26)           120.5384         calculate D2E/DX2 analytically  !
 ! A46   A(13,26,27)            92.4891         calculate D2E/DX2 analytically  !
 ! A47   A(13,26,28)            90.4401         calculate D2E/DX2 analytically  !
 ! A48   A(13,26,29)            90.1121         calculate D2E/DX2 analytically  !
 ! A49   A(13,26,32)            92.5794         calculate D2E/DX2 analytically  !
 ! A50   A(27,26,28)            89.9778         calculate D2E/DX2 analytically  !
 ! A51   A(27,26,29)            90.1385         calculate D2E/DX2 analytically  !
 ! A52   A(27,26,31)            87.5057         calculate D2E/DX2 analytically  !
 ! A53   A(28,26,31)            89.2706         calculate D2E/DX2 analytically  !
 ! A54   A(28,26,32)            90.0724         calculate D2E/DX2 analytically  !
 ! A55   A(29,26,31)            90.1771         calculate D2E/DX2 analytically  !
 ! A56   A(29,26,32)            89.7625         calculate D2E/DX2 analytically  !
 ! A57   A(31,26,32)            87.4264         calculate D2E/DX2 analytically  !
 ! A58   A(21,33,35)           120.3467         calculate D2E/DX2 analytically  !
 ! A59   A(33,35,34)           119.23           calculate D2E/DX2 analytically  !
 ! A60   A(33,35,36)           113.0879         calculate D2E/DX2 analytically  !
 ! A61   A(34,35,36)           127.672          calculate D2E/DX2 analytically  !
 ! A62   A(35,36,37)           115.8987         calculate D2E/DX2 analytically  !
 ! A63   A(35,36,38)           107.7421         calculate D2E/DX2 analytically  !
 ! A64   A(35,36,39)           109.8153         calculate D2E/DX2 analytically  !
 ! A65   A(37,36,38)           109.4274         calculate D2E/DX2 analytically  !
 ! A66   A(37,36,39)           108.8877         calculate D2E/DX2 analytically  !
 ! A67   A(38,36,39)           104.4536         calculate D2E/DX2 analytically  !
 ! A68   A(36,37,40)           108.5905         calculate D2E/DX2 analytically  !
 ! A69   A(36,37,41)           110.2825         calculate D2E/DX2 analytically  !
 ! A70   A(36,37,42)           109.0606         calculate D2E/DX2 analytically  !
 ! A71   A(40,37,41)           109.0355         calculate D2E/DX2 analytically  !
 ! A72   A(40,37,42)           111.2938         calculate D2E/DX2 analytically  !
 ! A73   A(41,37,42)           108.5765         calculate D2E/DX2 analytically  !
 ! A74   L(4,21,33,1,-1)       173.1208         calculate D2E/DX2 analytically  !
 ! A75   L(13,26,31,27,-1)     179.9948         calculate D2E/DX2 analytically  !
 ! A76   L(27,26,32,13,-1)     185.0684         calculate D2E/DX2 analytically  !
 ! A77   L(28,26,29,13,-1)     180.5523         calculate D2E/DX2 analytically  !
 ! A78   L(4,21,33,1,-2)       174.1484         calculate D2E/DX2 analytically  !
 ! A79   L(13,26,31,27,-2)     180.2895         calculate D2E/DX2 analytically  !
 ! A80   L(27,26,32,13,-2)     180.0892         calculate D2E/DX2 analytically  !
 ! A81   L(28,26,29,13,-2)     179.8596         calculate D2E/DX2 analytically  !
 ! D1    D(14,1,2,3)           179.9102         calculate D2E/DX2 analytically  !
 ! D2    D(14,1,2,17)           59.1625         calculate D2E/DX2 analytically  !
 ! D3    D(14,1,2,18)          -59.2612         calculate D2E/DX2 analytically  !
 ! D4    D(15,1,2,3)            60.1917         calculate D2E/DX2 analytically  !
 ! D5    D(15,1,2,17)          -60.5559         calculate D2E/DX2 analytically  !
 ! D6    D(15,1,2,18)         -178.9797         calculate D2E/DX2 analytically  !
 ! D7    D(16,1,2,3)           -60.4813         calculate D2E/DX2 analytically  !
 ! D8    D(16,1,2,17)          178.771          calculate D2E/DX2 analytically  !
 ! D9    D(16,1,2,18)           60.3473         calculate D2E/DX2 analytically  !
 ! D10   D(1,2,3,4)            179.5452         calculate D2E/DX2 analytically  !
 ! D11   D(1,2,3,19)            59.5035         calculate D2E/DX2 analytically  !
 ! D12   D(1,2,3,20)           -60.4396         calculate D2E/DX2 analytically  !
 ! D13   D(17,2,3,4)           -59.9267         calculate D2E/DX2 analytically  !
 ! D14   D(17,2,3,19)         -179.9684         calculate D2E/DX2 analytically  !
 ! D15   D(17,2,3,20)           60.0885         calculate D2E/DX2 analytically  !
 ! D16   D(18,2,3,4)            59.1079         calculate D2E/DX2 analytically  !
 ! D17   D(18,2,3,19)          -60.9338         calculate D2E/DX2 analytically  !
 ! D18   D(18,2,3,20)          179.1231         calculate D2E/DX2 analytically  !
 ! D19   D(2,3,4,5)            179.574          calculate D2E/DX2 analytically  !
 ! D20   D(2,3,4,21)            -0.0195         calculate D2E/DX2 analytically  !
 ! D21   D(19,3,4,5)           -60.269          calculate D2E/DX2 analytically  !
 ! D22   D(19,3,4,21)          120.1375         calculate D2E/DX2 analytically  !
 ! D23   D(20,3,4,5)            59.5952         calculate D2E/DX2 analytically  !
 ! D24   D(20,3,4,21)         -119.9983         calculate D2E/DX2 analytically  !
 ! D25   D(3,4,5,6)             -0.2361         calculate D2E/DX2 analytically  !
 ! D26   D(3,4,5,7)            179.8195         calculate D2E/DX2 analytically  !
 ! D27   D(21,4,5,6)           179.3604         calculate D2E/DX2 analytically  !
 ! D28   D(21,4,5,7)            -0.584          calculate D2E/DX2 analytically  !
 ! D29   D(3,4,33,35)         -176.3935         calculate D2E/DX2 analytically  !
 ! D30   D(5,4,33,35)            7.9534         calculate D2E/DX2 analytically  !
 ! D31   D(4,5,7,8)            179.0797         calculate D2E/DX2 analytically  !
 ! D32   D(4,5,7,22)            -1.5017         calculate D2E/DX2 analytically  !
 ! D33   D(6,5,7,8)             -0.8627         calculate D2E/DX2 analytically  !
 ! D34   D(6,5,7,22)           178.5559         calculate D2E/DX2 analytically  !
 ! D35   D(5,7,8,9)              0.1553         calculate D2E/DX2 analytically  !
 ! D36   D(5,7,8,10)           179.9853         calculate D2E/DX2 analytically  !
 ! D37   D(22,7,8,9)          -179.257          calculate D2E/DX2 analytically  !
 ! D38   D(22,7,8,10)            0.573          calculate D2E/DX2 analytically  !
 ! D39   D(7,8,9,13)           179.4967         calculate D2E/DX2 analytically  !
 ! D40   D(7,8,9,23)            -0.2305         calculate D2E/DX2 analytically  !
 ! D41   D(10,8,9,13)           -0.332          calculate D2E/DX2 analytically  !
 ! D42   D(10,8,9,23)          179.9408         calculate D2E/DX2 analytically  !
 ! D43   D(7,8,10,11)         -179.4586         calculate D2E/DX2 analytically  !
 ! D44   D(7,8,10,24)            0.328          calculate D2E/DX2 analytically  !
 ! D45   D(9,8,10,11)            0.3876         calculate D2E/DX2 analytically  !
 ! D46   D(9,8,10,24)         -179.8257         calculate D2E/DX2 analytically  !
 ! D47   D(8,9,13,12)            0.0537         calculate D2E/DX2 analytically  !
 ! D48   D(8,9,13,26)         -179.5967         calculate D2E/DX2 analytically  !
 ! D49   D(23,9,13,12)         179.7914         calculate D2E/DX2 analytically  !
 ! D50   D(23,9,13,26)           0.1409         calculate D2E/DX2 analytically  !
 ! D51   D(8,10,11,12)          -0.1676         calculate D2E/DX2 analytically  !
 ! D52   D(8,10,11,30)         179.5617         calculate D2E/DX2 analytically  !
 ! D53   D(24,10,11,12)       -179.9552         calculate D2E/DX2 analytically  !
 ! D54   D(24,10,11,30)         -0.2259         calculate D2E/DX2 analytically  !
 ! D55   D(10,11,12,13)         -0.1334         calculate D2E/DX2 analytically  !
 ! D56   D(10,11,12,25)        179.7635         calculate D2E/DX2 analytically  !
 ! D57   D(30,11,12,13)       -179.8585         calculate D2E/DX2 analytically  !
 ! D58   D(30,11,12,25)          0.0384         calculate D2E/DX2 analytically  !
 ! D59   D(11,12,13,9)           0.182          calculate D2E/DX2 analytically  !
 ! D60   D(11,12,13,26)        179.8399         calculate D2E/DX2 analytically  !
 ! D61   D(25,12,13,9)        -179.7086         calculate D2E/DX2 analytically  !
 ! D62   D(25,12,13,26)         -0.0507         calculate D2E/DX2 analytically  !
 ! D63   D(9,13,26,27)          -1.4647         calculate D2E/DX2 analytically  !
 ! D64   D(9,13,26,28)         -91.4615         calculate D2E/DX2 analytically  !
 ! D65   D(9,13,26,29)          88.6788         calculate D2E/DX2 analytically  !
 ! D66   D(9,13,26,32)         178.4461         calculate D2E/DX2 analytically  !
 ! D67   D(12,13,26,27)        178.8973         calculate D2E/DX2 analytically  !
 ! D68   D(12,13,26,28)         88.9004         calculate D2E/DX2 analytically  !
 ! D69   D(12,13,26,29)        -90.9592         calculate D2E/DX2 analytically  !
 ! D70   D(12,13,26,32)         -1.1919         calculate D2E/DX2 analytically  !
 ! D71   D(21,33,35,34)        -19.863          calculate D2E/DX2 analytically  !
 ! D72   D(21,33,35,36)        161.2033         calculate D2E/DX2 analytically  !
 ! D73   D(33,35,36,37)       -175.0192         calculate D2E/DX2 analytically  !
 ! D74   D(33,35,36,38)         62.0544         calculate D2E/DX2 analytically  !
 ! D75   D(33,35,36,39)        -51.1392         calculate D2E/DX2 analytically  !
 ! D76   D(34,35,36,37)          6.1564         calculate D2E/DX2 analytically  !
 ! D77   D(34,35,36,38)       -116.7699         calculate D2E/DX2 analytically  !
 ! D78   D(34,35,36,39)        130.0365         calculate D2E/DX2 analytically  !
 ! D79   D(35,36,37,40)         -1.4818         calculate D2E/DX2 analytically  !
 ! D80   D(35,36,37,41)       -120.8986         calculate D2E/DX2 analytically  !
 ! D81   D(35,36,37,42)        119.9566         calculate D2E/DX2 analytically  !
 ! D82   D(38,36,37,40)        120.5545         calculate D2E/DX2 analytically  !
 ! D83   D(38,36,37,41)          1.1376         calculate D2E/DX2 analytically  !
 ! D84   D(38,36,37,42)       -118.0072         calculate D2E/DX2 analytically  !
 ! D85   D(39,36,37,40)       -125.8426         calculate D2E/DX2 analytically  !
 ! D86   D(39,36,37,41)        114.7405         calculate D2E/DX2 analytically  !
 ! D87   D(39,36,37,42)         -4.4042         calculate D2E/DX2 analytically  !
 --------------------------------------------------------------------------------
 Trust Radius=3.00D-01 FncErr=1.00D-07 GrdErr=1.00D-06
 Number of steps in this run=    220 maximum allowed number of steps=    252.
 GradGradGradGradGradGradGradGradGradGradGradGradGradGradGradGradGradGrad

                          Input orientation:                          
 ---------------------------------------------------------------------
 Center     Atomic      Atomic             Coordinates (Angstroms)
 Number     Number       Type             X           Y           Z
 ---------------------------------------------------------------------
      1          6           0       -1.878350    2.050100   -0.089500
      2          6           0       -0.462430    1.499070   -0.042270
      3          6           0        0.574710    2.628720   -0.066740
      4          7           0        1.913340    2.079680   -0.010210
      5          6           0        3.037150    2.834020   -0.024480
      6          8           0        2.924150    4.045840   -0.092870
      7          7           0        4.267930    2.217790    0.036940
      8          6           0        5.547930    2.913690    0.010150
      9          6           0        5.746070    4.336700   -0.080060
     10          6           0        6.686400    2.115800    0.082740
     11          6           0        7.963500    2.661450    0.077310
     12          6           0        8.150330    4.041240   -0.005370
     13          6           0        7.049950    4.924560   -0.088770
     14          1           0       -2.601680    1.208330   -0.072000
     15          1           0       -2.027910    2.636040   -1.020630
     16          1           0       -2.061720    2.701400    0.790930
     17          1           0       -0.303140    0.831540   -0.919030
     18          1           0       -0.339530    0.900600    0.888370
     19          1           0        0.415780    3.293880    0.808210
     20          1           0        0.457350    3.211920   -1.004350
     21          1           0        2.031980    0.978240    0.041350
     22          1           0        4.274640    1.018470    0.129290
     23          1           0        4.915500    5.003460   -0.139540
     24          1           0        6.577780    1.044980    0.148470
     25          1           0        9.172770    4.388130   -0.000050
     26         16           0        7.320850    6.775560   -0.194660
     27          9           0        5.644220    7.090510   -0.291650
     28          9           0        7.400780    6.679620   -1.899610
     29          9           0        7.247320    6.887370    1.512410
     30         17           0        9.343360    1.584850    0.183670
     31          9           0        7.568970    8.468740   -0.300190
     32          9           0        9.021440    6.609840   -0.103440
     33          8           0        2.012530   -1.082880   -0.071160
     34          8           0        4.227630   -1.195240   -0.156030
     35          6           0        3.141770   -1.771400    0.042030
     36          6           0        2.915420   -3.237190    0.389950
     37          6           0        4.161790   -4.054910    0.649620
     38          1           0        2.337300   -3.697680   -0.441660
     39          1           0        2.240050   -3.316090    1.276140
     40          1           0        5.044340   -3.407000    0.505320
     41          1           0        4.218360   -4.911980   -0.064520
     42          1           0        4.122240   -4.457290    1.681770
 ---------------------------------------------------------------------
                    Distance matrix (angstroms):
                    1          2          3          4          5
     1  C    0.000000
     2  C    1.520097   0.000000
     3  C    2.520481   1.533743   0.000000
     4  N    3.792634   2.445898   1.447954   0.000000
     5  C    4.978042   3.745593   2.471345   1.353581   0.000000
     6  O    5.200673   4.237632   2.743862   2.212319   1.218997
     7  N    6.149867   4.785304   3.717457   2.359108   1.377799
     8  C    7.476988   6.174814   4.981971   3.729106   2.512282
     9  C    7.959925   6.826349   5.446130   4.448465   3.098287
    10  C    8.566734   7.176472   6.134997   4.774102   3.720801
    11  C    9.862230   8.506569   7.390267   6.078697   4.930422
    12  C   10.224781   8.980180   7.706426   6.538179   5.253794
    13  C    9.379609   8.256634   6.870233   5.872331   4.525158
    14  H    1.109995   2.159121   3.479510   4.598747   5.868691
    15  H    1.110269   2.168091   2.771929   4.106572   5.165883
    16  H    1.110393   2.167383   2.773381   4.102373   5.165361
    17  H    2.157382   1.113408   2.174138   2.701220   3.995958
    18  H    2.155353   1.113266   2.175883   2.696868   3.996671
    19  H    2.759693   2.171615   1.110511   2.094464   2.788624
    20  H    2.764466   2.169205   1.110409   2.095278   2.785376
    21  H    4.056684   2.549576   2.204405   1.109010   2.111544
    22  H    6.242709   4.764477   4.039903   2.592559   2.202555
    23  H    7.408187   6.419684   4.948449   4.192634   2.871917
    24  H    8.518981   7.057417   6.212197   4.780459   3.970722
    25  H   11.296090  10.059102   8.776480   7.617635   6.329430
    26  S   10.342452   9.404468   7.919789   7.164250   5.823640
    27  F    9.057354   8.283572   6.757077   6.253566   4.998590
    28  F   10.526690   9.597806   8.146437   7.405490   6.111139
    29  F   10.451945   9.533680   8.071774   7.340545   6.042947
    30  Cl  11.234672   9.808768   8.834115   7.449003   6.432110
    31  F   11.423449  10.637021   9.114823   8.537583   7.236261
    32  F   11.815111  10.773463   9.337982   8.429480   7.076353
    33  O    4.995483   3.576692   3.980367   3.164702   4.048967
    34  O    6.915175   5.410075   5.289089   4.012767   4.203509
    35  C    6.310528   4.867580   5.095359   4.042596   4.607088
    36  C    7.153009   5.833425   6.332171   5.425256   6.086556
    37  C    8.619788   7.260084   7.619135   6.566894   7.012602
    38  H    7.136715   5.916436   6.578041   5.808940   6.582320
    39  H    6.900883   5.676915   6.318026   5.556597   6.336469
    40  H    8.835009   7.395532   7.532248   6.338185   6.577221
    41  H    9.254245   7.938001   8.374864   7.362023   7.835648
    42  H    9.027215   7.711662   8.115035   7.104506   7.566499
                    6          7          8          9         10
     6  O    0.000000
     7  N    2.272523   0.000000
     8  C    2.859475   1.457187   0.000000
     9  C    2.836899   2.586188   1.439568   0.000000
    10  C    4.232070   2.421053   1.392125   2.417255   0.000000
    11  C    5.228819   3.722325   2.429632   2.783563   1.388794
    12  C    5.226914   4.289498   2.836211   2.423498   2.420366
    13  C    4.218340   3.883560   2.511861   1.430300   2.837379
    14  H    6.211819   6.944236   8.326533   8.914690   9.333589
    15  H    5.231747   6.397733   7.650683   8.013219   8.799277
    16  H    5.239038   6.392718   7.652546   8.024613   8.796253
    17  H    4.629219   4.871370   6.279629   7.041517   7.176805
    18  H    4.637561   4.867095   6.283788   7.055435   7.175614
    19  H    2.769352   4.073314   5.207726   5.503498   6.421437
    20  H    2.758862   4.073463   5.199246   5.485435   6.417500
    21  H    3.197523   2.556556   4.013583   5.008838   4.791595
    22  H    3.322371   1.202889   2.286333   3.635875   2.650073
    23  H    2.210133   2.865388   2.188496   1.066749   3.394713
    24  H    4.734176   2.592938   2.138177   3.402850   1.078320
    25  H    6.258676   5.363693   3.913252   3.428020   3.369328
    26  S    5.176167   5.490649   4.254319   2.905358   4.710928
    27  F    4.087580   5.074007   4.188816   2.763804   5.096474
    28  F    5.499211   5.785577   4.611124   3.396778   5.026779
    29  F    5.416735   5.732256   4.575461   3.360897   5.012631
    30  Cl   6.880349   5.116848   4.025073   4.536819   2.711371
    31  F    6.417116   7.077068   5.919417   4.521634   6.425373
    32  F    6.614465   6.473459   5.073431   3.986949   5.067886
    33  O    5.209155   3.999117   5.336500   6.581128   5.665713
    34  O    5.401108   3.418718   4.319041   5.737054   4.131047
    35  C    5.822872   4.145105   5.266943   6.641248   5.260835
    36  C    7.299022   5.631226   6.701319   8.099216   6.555087
    37  C    8.228317   6.303444   7.133841   8.570968   6.691238
    38  H    7.773554   6.240927   7.363592   8.735086   7.279163
    39  H    7.519321   6.022603   7.166237   8.526233   7.120369
    40  H    7.771606   5.697408   6.360025   7.797434   5.777219
    41  H    9.050874   7.130664   7.938164   9.374018   7.450007
    42  H    8.768580   6.876291   7.691440   9.114556   7.234454
                   11         12         13         14         15
    11  C    0.000000
    12  C    1.394834   0.000000
    13  C    2.446185   1.413523   0.000000
    14  H   10.665687  11.119152  10.342370   0.000000
    15  H   10.051587  10.324820   9.408147   1.807614   0.000000
    16  H   10.050666  10.330306   9.420130   1.807059   1.813054
    17  H    8.525175   9.088350   8.456363   2.478450   2.498274
    18  H    8.526354   9.096159   8.470624   2.476758   3.083287
    19  H    7.609353   7.813048   6.890276   3.772182   3.122344
    20  H    7.603637   7.801774   6.872685   3.773767   2.551161
    21  H    6.165827   6.842394   6.385170   4.640754   4.512074
    22  H    4.038536   4.916934   4.796607   6.881885   6.607646
    23  H    3.849979   3.377572   2.136511   8.421138   7.388636
    24  H    2.130319   3.387352   3.915401   9.183560   8.829279
    25  H    2.109441   1.079696   2.191345  12.196474  11.382734
    26  S    4.172873   2.863629   1.873713  11.378299  10.257542
    27  F    5.013159   3.957346   2.590092  10.131296   8.901421
    28  F    4.513375   3.333320   2.546067  11.546618  10.296764
    29  F    4.520047   3.349558   2.540739  11.478878  10.512849
    30  Cl   1.753395   2.737318   4.060495  11.953707  11.483080
    31  F    5.832905   4.475227   3.588216  12.498310  11.253423
    32  F    4.091661   2.714066   2.593676  12.816950  11.777965
    33  O    7.032503   7.995844   7.839977   5.151755   5.572882
    34  O    5.374498   6.544539   6.739582   7.240420   7.386340
    35  C    6.549846   7.672985   7.754151   6.471400   6.876072
    36  C    7.770123   8.974191   9.161751   7.100313   7.805196
    37  C    7.738865   9.049039   9.461372   8.600404   9.266657
    38  H    8.506585   9.688785   9.832427   6.971306   7.714031
    39  H    8.362180   9.523864   9.638798   6.762411   7.675838
    40  H    6.747649   8.086053   8.590128   8.949648   9.426748
    41  H    8.450031   9.778754  10.236015   9.163580   9.843914
    42  H    8.246577   9.554944   9.986261   8.965827   9.769475
                   16         17         18         19         20
    16  H    0.000000
    17  H    3.084306   0.000000
    18  H    2.493655   1.809085   0.000000
    19  H    2.547418   3.092462   2.510918   0.000000
    20  H    3.135183   2.500367   3.091861   1.814888   0.000000
    21  H    4.504390   2.529157   2.519431   2.926152   2.926136
    22  H    6.589346   4.699999   4.677677   4.530919   4.546214
    23  H    7.405866   6.726569   6.745769   4.905953   4.881866
    24  H    8.820286   6.966504   6.958267   6.592651   6.594262
    25  H   11.387909  10.163008  10.170349   8.862028   8.851589
    26  S   10.276322   9.694396   9.714398   7.797938   7.775780
    27  F    8.934080   8.656755   8.689804   6.554439   6.515752
    28  F   10.611510   9.721726  10.053970   8.221055   7.812660
    29  F   10.232356   9.979701   9.684582   7.751065   8.120758
    30  Cl  11.475683   9.738500   9.732582   9.111121   9.111527
    31  F   11.278428  10.985440  11.010622   8.898081   8.871592
    32  F   11.786104  11.000079  11.009399   9.267366   9.257491
    33  O    5.627032   3.121893   3.222899   4.741195   4.662053
    34  O    7.458985   5.021741   5.132472   5.967592   5.861546
    35  C    6.902398   4.423385   4.469376   5.803026   5.756257
    36  C    7.758837   5.350432   5.288140   7.005570   7.041108
    37  C    9.186935   6.802474   6.698952   8.249997   8.322578
    38  H    7.862498   5.264375   5.484394   7.357739   7.182855
    39  H    7.412883   5.337548   4.958334   6.873036   7.140978
    40  H    9.374978   6.970620   6.905664   8.149669   8.193271
    41  H    9.906299   7.359495   7.447714   9.086111   9.001457
    42  H    9.501674   7.370202   7.017397   8.636063   8.914227
                   21         22         23         24         25
    21  H    0.000000
    22  H    2.244744   0.000000
    23  H    4.954776   4.045135   0.000000
    24  H    4.547552   2.303372   4.302986   0.000000
    25  H    7.913277   5.946681   4.303770   4.234700   0.000000
    26  S    7.850909   6.521382   2.988158   5.788734   3.027755
    27  F    7.107673   6.238799   2.215840   6.132999   4.454049
    28  F    8.068276   6.777743   3.476201   6.051539   3.463987
    29  F    8.017581   6.722636   3.422783   6.036732   3.498727
    30  Cl   7.337882   5.100555   5.603330   2.818001   2.814468
    31  F    9.321078   8.157425   4.367479   7.503064   4.394728
    32  F    8.977106   7.338235   4.409139   6.082976   2.229257
    33  O    2.064280   3.094025   6.743548   5.041580   9.011440
    34  O    3.095780   2.232516   6.236772   3.261060   7.460078
    35  C    2.965157   3.012372   7.005556   4.444040   8.620588
    36  C    4.321092   4.475049   8.496411   5.639874   9.871780
    37  C    5.498971   5.101241   9.123865   5.665425   9.839559
    38  H    4.710706   5.130433   9.080101   6.389268  10.597122
    39  H    4.473172   4.923742   8.853084   6.253517  10.442522
    40  H    5.340404   4.507618   8.436130   4.722172   8.835349
    41  H    6.283801   5.933883   9.940200   6.410741  10.537665
    42  H    6.050219   5.693625   9.667069   6.217368  10.323654
                   26         27         28         29         30
    26  S    0.000000
    27  F    1.708710   0.000000
    28  F    1.709517   2.416582   0.000000
    29  F    1.712307   2.421947   3.421782   0.000000
    30  Cl   5.583650   6.649952   5.836982   5.854541   0.000000
    31  F    1.714514   2.367330   2.405698   2.426872   7.125344
    32  F    1.711079   3.416443   2.420255   2.415677   5.043470
    33  O    9.484123   8.946625   9.624597   9.666209   7.805305
    34  O    8.550038   8.407067   8.667316   8.788106   5.832237
    35  C    9.516893   9.214502   9.660687   9.694940   7.052956
    36  C   10.954668  10.703846  11.122215  11.069417   8.038223
    37  C   11.313335  11.282906  11.498685  11.401684   7.672853
    38  H   11.601101  11.284647  11.638419  11.830890   8.796649
    39  H   11.393822  11.060907  11.689001  11.368341   8.698834
    40  H   10.457390  10.544797  10.633739  10.575510   6.595726
    41  H   12.093013  12.089021  12.159792  12.283565   8.278649
    42  H   11.829160  11.813657  12.149316  11.768437   8.124768
                   31         32         33         34         35
    31  F    0.000000
    32  F    2.367253   0.000000
    33  O   11.052598  10.406911   0.000000
    34  O   10.226331   9.159839   2.219571   0.000000
    35  C   11.161437  10.238987   1.327424   1.245102   0.000000
    36  C   12.615888  11.597022   2.380942   2.487880   1.523425
    37  C   13.013563  11.743943   3.737888   2.971720   2.573718
    38  H   13.244326  12.289715   2.660813   3.149149   2.142821
    39  H   13.029368  12.100189   2.618055   3.240307   2.173061
    40  H   12.167818  10.794674   3.863384   2.448731   2.551391
    41  H   13.795862  12.482925   4.419020   3.717878   3.321693
    42  H   13.523696  12.233990   4.348595   3.745609   3.296069
                   36         37         38         39         40
    36  C    0.000000
    37  C    1.513120   0.000000
    38  H    1.112587   2.155753   0.000000
    39  H    1.116997   2.152084   1.762358   0.000000
    40  H    2.138795   1.104312   2.882591   2.909720   0.000000
    41  H    2.170050   1.117034   2.270495   2.873664   1.808846
    42  H    2.147989   1.108516   2.876104   2.238194   1.826859
                   41         42
    41  H    0.000000
    42  H    1.807072   0.000000
 Stoichiometry    C13H17ClF5N2O3S(1-)
 Framework group  C1[X(C13H17ClF5N2O3S)]
 Deg. of freedom   120
 Full point group                 C1      NOp   1
 Largest Abelian subgroup         C1      NOp   1
 Largest concise Abelian subgroup C1      NOp   1
                         Standard orientation:                         
 ---------------------------------------------------------------------
 Center     Atomic      Atomic             Coordinates (Angstroms)
 Number     Number       Type             X           Y           Z
 ---------------------------------------------------------------------
      1          6           0        5.218693   -4.749383    0.043233
      2          6           0        4.733200   -3.309043    0.022996
      3          6           0        3.201185   -3.238595    0.041294
      4          7           0        2.764074   -1.858224    0.032328
      5          6           0        1.464240   -1.480602    0.036172
      6          8           0        0.606361   -2.346596    0.043424
      7          7           0        1.147993   -0.139600    0.030663
      8          6           0       -0.207733    0.394394    0.014722
      9          6           0       -1.427825   -0.369570    0.005347
     10          6           0       -0.325208    1.781550    0.011687
     11          6           0       -1.563318    2.410692    0.008110
     12          6           0       -2.742810    1.666150    0.003928
     13          6           0       -2.715564    0.252895    0.000383
     14          1           0        6.328483   -4.763984    0.027667
     15          1           0        4.837428   -5.292125   -0.847140
     16          1           0        4.864348   -5.256424    0.965362
     17          1           0        5.115551   -2.809858   -0.895862
     18          1           0        5.141166   -2.778740    0.912773
     19          1           0        2.820363   -3.736090    0.958195
     20          1           0        2.801147   -3.755279   -0.856490
     21          1           0        3.533259   -1.059507    0.014773
     22          1           0        2.065268    0.638313    0.050645
     23          1           0       -1.407176   -1.436119    0.006136
     24          1           0        0.566860    2.387333    0.015613
     25          1           0       -3.664827    2.227956    0.005310
     26         16           0       -4.310721   -0.730098   -0.000703
     27          9           0       -3.478508   -2.221983   -0.037984
     28          9           0       -4.340571   -0.704801   -1.709772
     29          9           0       -4.297072   -0.760526    1.711279
     30         17           0       -1.621230    4.163112    0.016195
     31          9           0       -5.770339   -1.629531   -0.010354
     32          9           0       -5.272813    0.684319    0.039201
     33          8           0        5.121279    0.238166   -0.220787
     34          8           0        3.782604    2.002649   -0.365858
     35          6           0        4.927183    1.550577   -0.176517
     36          6           0        6.206024    2.335015    0.088142
     37          6           0        6.040174    3.828227    0.267991
     38          1           0        6.904585    2.139208   -0.755376
     39          1           0        6.727119    1.918572    0.984087
     40          1           0        4.972801    4.081657    0.141528
     41          1           0        6.638638    4.379277   -0.497482
     42          1           0        6.405317    4.114354    1.274773
 ---------------------------------------------------------------------
 Rotational constants (GHZ):      0.2206594      0.0810623      0.0610605
 General basis read from cards:  (6D, 7F)
 There are   517 symmetry adapted cartesian basis functions of A   symmetry.
 There are   517 symmetry adapted basis functions of A   symmetry.
   517 basis functions,   916 primitive gaussians,   517 cartesian basis functions
   106 alpha electrons      106 beta electrons
       nuclear repulsion energy      2636.2362381587 Hartrees.
 NAtoms=   42 NActive=   42 NUniq=   42 SFac= 1.00D+00 NAtFMM=   60 NAOKFM=F Big=F
 Integral buffers will be    131072 words long.
 Raffenetti 2 integral format.
 Two-electron integral symmetry is turned on.
 Force inversion solution in PCM.
 ------------------------------------------------------------------------------
 Polarizable Continuum Model (PCM)
 =================================
 Model                : PCM (using non-symmetric T matrix).
 Atomic radii         : SMD-Coulomb.
 Polarization charges : Total charges.
 Charge compensation  : None.
 Solution method      : Matrix inversion.
 Cavity type          : VdW (van der Waals Surface) (Alpha=1.000).
 Cavity algorithm     : GePol (No added spheres)
                        Default sphere list used, NSphG=   42.
                        Lebedev-Laikov grids with approx.  5.0 points / Ang**2.
                        Smoothing algorithm: York/Karplus (Gamma=1.0000).
                        Polarization charges: spherical gaussians, with
                                              point-specific exponents (IZeta= 3).
                        Self-potential: point-specific (ISelfS= 7).
                        Self-field    : sphere-specific E.n sum rule (ISelfD= 2).
 1st derivatives      : Analytical E(r).r(x)/FMM algorithm (CHGder, D1EAlg=3).
                        Cavity 1st derivative terms included.
 2nd derivatives      : Analytical E(r).r(xy)/FMM algorithm (CHGder, D2EAlg=3).
                        Cavity 2nd derivative terms included.
 Solvent              : Water, Eps=  78.355300 Eps(inf)=   1.777849
 ------------------------------------------------------------------------------
 ------------------------------------------------------------------------------
 Atomic radii for non-electrostatic terms: SMD-CDS.
 ------------------------------------------------------------------------------
 Nuclear repulsion after PCM non-electrostatic terms =     2636.2539905946 Hartrees.
 One-electron integrals computed using PRISM.
 NBasis=   517 RedAO= T EigKep=  1.55D-06  NBF=   517
 NBsUse=   514 1.00D-06 EigRej=  9.58D-07 NBFU=   514
 ExpMin= 4.05D-02 ExpMax= 2.52D+04 ExpMxC= 3.78D+03 IAcc=3 IRadAn=         5 AccDes= 0.00D+00
 Harris functional with IExCor= 1009 and IRadAn=       5 diagonalized for initial guess.
 HarFok:  IExCor= 1009 AccDes= 0.00D+00 IRadAn=         5 IDoV= 1 UseB2=F ITyADJ=14
 ICtDFT=  3500011 ScaDFX=  1.000000  1.000000  1.000000  1.000000
 FoFCou: FMM=F IPFlag=           0 FMFlag=      100000 FMFlg1=           0
         NFxFlg=           0 DoJE=T BraDBF=F KetDBF=T FulRan=T
         wScrn=  0.000000 ICntrl=     500 IOpCl=  0 I1Cent=   200000004 NGrid=           0
         NMat0=    1 NMatS0=      1 NMatT0=    0 NMatD0=    1 NMtDS0=    0 NMtDT0=    0
 Petite list used in FoFCou.
 Requested convergence on RMS density matrix=1.00D-08 within 128 cycles.
 Requested convergence on MAX density matrix=1.00D-06.
 Requested convergence on             energy=1.00D-06.
 No special actions if energy rises.
 Inv3:  Mode=1 IEnd=    35356467.
 Iteration    1 A*A^-1 deviation from unit magnitude is 6.44D-15 for   1404.
 Iteration    1 A*A^-1 deviation from orthogonality  is 9.04D-15 for   3421   1203.
 Iteration    1 A^-1*A deviation from unit magnitude is 6.33D-15 for   3423.
 Iteration    1 A^-1*A deviation from orthogonality  is 1.20D-12 for   3430   3417.
 Error on total polarization charges =  0.05908
 SCF Done:  E(RM062X) =  -2197.87967317     A.U. after   17 cycles
            NFock= 17  Conv=0.30D-08     -V/T= 2.0070
 SMD-CDS (non-electrostatic) energy       (kcal/mol) =      11.14
 (included in total energy above)
 DoSCS=F DFT=T ScalE2(SS,OS)=  1.000000  1.000000
 Range of M.O.s used for correlation:     1   514
 NBasis=   517 NAE=   106 NBE=   106 NFC=     0 NFV=     0
 NROrb=    514 NOA=   106 NOB=   106 NVA=   408 NVB=   408

 **** Warning!!: The largest alpha MO coefficient is  0.11043503D+03

 Symmetrizing basis deriv contribution to polar:
 IMax=3 JMax=2 DiffMx= 0.00D+00
 G2DrvN: will do    43 centers at a time, making    1 passes.
 Calling FoFCou, ICntrl=  3107 FMM=F I1Cent=   0 AccDes= 0.00D+00.
 NEqPCM:  Using equilibrium solvation (IEInf=0, Eps=  78.3553, EpsInf=   1.7778)
 G2PCM: DoFxE=T DoFxN=T DoGrad=T DoDP/DQ/DG/TGxP=FFFF NFrqRd=   0 IEInf=0 SqF1=F DoCFld=F IF1Alg=4.
 End of G2Drv F.D. properties file   721 does not exist.
 End of G2Drv F.D. properties file   722 does not exist.
 End of G2Drv F.D. properties file   788 does not exist.
          IDoAtm=111111111111111111111111111111111111111111
 NEqPCM:  Using equilibrium solvation (IEInf=0, Eps=  78.3553, EpsInf=   1.7778)
          Differentiating once with respect to nuclear coordinates.
          There are   129 degrees of freedom in the 1st order CPHF.  IDoFFX=6 NUNeed=     0.
    123 vectors produced by pass  0 Test12= 4.32D-14 1.00D-09 XBig12= 1.98D-01 9.55D-02.
 AX will form   123 AO Fock derivatives at one time.
    123 vectors produced by pass  1 Test12= 4.32D-14 1.00D-09 XBig12= 2.80D-02 3.49D-02.
    123 vectors produced by pass  2 Test12= 4.32D-14 1.00D-09 XBig12= 9.27D-04 4.92D-03.
    123 vectors produced by pass  3 Test12= 4.32D-14 1.00D-09 XBig12= 1.29D-05 5.26D-04.
    123 vectors produced by pass  4 Test12= 4.32D-14 1.00D-09 XBig12= 1.01D-07 4.13D-05.
    123 vectors produced by pass  5 Test12= 4.32D-14 1.00D-09 XBig12= 4.56D-10 2.11D-06.
     93 vectors produced by pass  6 Test12= 4.32D-14 1.00D-09 XBig12= 2.09D-12 1.82D-07.
     32 vectors produced by pass  7 Test12= 4.32D-14 1.00D-09 XBig12= 9.62D-15 6.85D-09.
      9 vectors produced by pass  8 Test12= 4.32D-14 1.00D-09 XBig12= 7.70D-16 2.36D-09.
      8 vectors produced by pass  9 Test12= 4.32D-14 1.00D-09 XBig12= 1.06D-15 2.42D-09.
      8 vectors produced by pass 10 Test12= 4.32D-14 1.00D-09 XBig12= 8.25D-15 6.66D-09.
      8 vectors produced by pass 11 Test12= 4.32D-14 1.00D-09 XBig12= 8.72D-15 7.66D-09.
      8 vectors produced by pass 12 Test12= 4.32D-14 1.00D-09 XBig12= 3.45D-14 1.19D-08.
      8 vectors produced by pass 13 Test12= 4.32D-14 1.00D-09 XBig12= 1.32D-14 8.30D-09.
      8 vectors produced by pass 14 Test12= 4.32D-14 1.00D-09 XBig12= 8.09D-15 6.82D-09.
      8 vectors produced by pass 15 Test12= 4.32D-14 1.00D-09 XBig12= 1.48D-14 1.15D-08.
      8 vectors produced by pass 16 Test12= 4.32D-14 1.00D-09 XBig12= 4.15D-15 5.61D-09.
      8 vectors produced by pass 17 Test12= 4.32D-14 1.00D-09 XBig12= 1.52D-14 8.69D-09.
      8 vectors produced by pass 18 Test12= 4.32D-14 1.00D-09 XBig12= 1.02D-14 6.04D-09.
      8 vectors produced by pass 19 Test12= 4.32D-14 1.00D-09 XBig12= 7.14D-15 5.99D-09.
      8 vectors produced by pass 20 Test12= 4.32D-14 1.00D-09 XBig12= 5.38D-15 5.13D-09.
      8 vectors produced by pass 21 Test12= 4.32D-14 1.00D-09 XBig12= 4.72D-15 4.13D-09.
      8 vectors produced by pass 22 Test12= 4.32D-14 1.00D-09 XBig12= 1.45D-14 8.10D-09.
      8 vectors produced by pass 23 Test12= 4.32D-14 1.00D-09 XBig12= 1.38D-14 8.06D-09.
      6 vectors produced by pass 24 Test12= 4.32D-14 1.00D-09 XBig12= 4.81D-15 3.95D-09.
      6 vectors produced by pass 25 Test12= 4.32D-14 1.00D-09 XBig12= 1.13D-14 5.32D-09.
      3 vectors produced by pass 26 Test12= 4.32D-14 1.00D-09 XBig12= 2.71D-15 2.96D-09.
      3 vectors produced by pass 27 Test12= 4.32D-14 1.00D-09 XBig12= 1.33D-14 6.04D-09.
      3 vectors produced by pass 28 Test12= 4.32D-14 1.00D-09 XBig12= 1.99D-14 8.57D-09.
      3 vectors produced by pass 29 Test12= 4.32D-14 1.00D-09 XBig12= 6.25D-15 5.21D-09.
      3 vectors produced by pass 30 Test12= 4.32D-14 1.00D-09 XBig12= 8.35D-15 5.37D-09.
      3 vectors produced by pass 31 Test12= 4.32D-14 1.00D-09 XBig12= 1.84D-14 9.21D-09.
      3 vectors produced by pass 32 Test12= 4.32D-14 1.00D-09 XBig12= 5.37D-15 4.69D-09.
      3 vectors produced by pass 33 Test12= 4.32D-14 1.00D-09 XBig12= 1.45D-14 7.37D-09.
      3 vectors produced by pass 34 Test12= 4.32D-14 1.00D-09 XBig12= 6.63D-15 5.14D-09.
      3 vectors produced by pass 35 Test12= 4.32D-14 1.00D-09 XBig12= 9.43D-15 6.82D-09.
      3 vectors produced by pass 36 Test12= 4.32D-14 1.00D-09 XBig12= 6.06D-15 5.29D-09.
      3 vectors produced by pass 37 Test12= 4.32D-14 1.00D-09 XBig12= 5.77D-15 5.03D-09.
      3 vectors produced by pass 38 Test12= 4.32D-14 1.00D-09 XBig12= 1.35D-14 7.24D-09.
      3 vectors produced by pass 39 Test12= 4.32D-14 1.00D-09 XBig12= 1.40D-14 6.70D-09.
      3 vectors produced by pass 40 Test12= 4.32D-14 1.00D-09 XBig12= 1.88D-14 8.06D-09.
      3 vectors produced by pass 41 Test12= 4.32D-14 1.00D-09 XBig12= 1.09D-14 6.95D-09.
      3 vectors produced by pass 42 Test12= 4.32D-14 1.00D-09 XBig12= 6.08D-15 4.87D-09.
      3 vectors produced by pass 43 Test12= 4.32D-14 1.00D-09 XBig12= 1.32D-14 6.99D-09.
      3 vectors produced by pass 44 Test12= 4.32D-14 1.00D-09 XBig12= 5.92D-15 4.10D-09.
      3 vectors produced by pass 45 Test12= 4.32D-14 1.00D-09 XBig12= 7.22D-15 6.13D-09.
      3 vectors produced by pass 46 Test12= 4.32D-14 1.00D-09 XBig12= 1.26D-14 6.72D-09.
      3 vectors produced by pass 47 Test12= 4.32D-14 1.00D-09 XBig12= 1.46D-14 7.74D-09.
      2 vectors produced by pass 48 Test12= 4.32D-14 1.00D-09 XBig12= 5.07D-15 4.43D-09.
 InvSVY:  IOpt=1 It=  1 EMax= 1.11D-15
 Solved reduced A of dimension  1072 with   129 vectors.
 End of Minotr F.D. properties file   721 does not exist.
 End of Minotr F.D. properties file   722 does not exist.
 End of Minotr F.D. properties file   788 does not exist.

 **********************************************************************

            Population analysis using the SCF density.

 **********************************************************************

 Orbital symmetries:
       Occupied  (A) (A) (A) (A) (A) (A) (A) (A) (A) (A) (A) (A)
                 (A) (A) (A) (A) (A) (A) (A) (A) (A) (A) (A) (A)
                 (A) (A) (A) (A) (A) (A) (A) (A) (A) (A) (A) (A)
                 (A) (A) (A) (A) (A) (A) (A) (A) (A) (A) (A) (A)
                 (A) (A) (A) (A) (A) (A) (A) (A) (A) (A) (A) (A)
                 (A) (A) (A) (A) (A) (A) (A) (A) (A) (A) (A) (A)
                 (A) (A) (A) (A) (A) (A) (A) (A) (A) (A) (A) (A)
                 (A) (A) (A) (A) (A) (A) (A) (A) (A) (A) (A) (A)
                 (A) (A) (A) (A) (A) (A) (A) (A) (A) (A)
       Virtual   (A) (A) (A) (A) (A) (A) (A) (A) (A) (A) (A) (A)
                 (A) (A) (A) (A) (A) (A) (A) (A) (A) (A) (A) (A)
                 (A) (A) (A) (A) (A) (A) (A) (A) (A) (A) (A) (A)
                 (A) (A) (A) (A) (A) (A) (A) (A) (A) (A) (A) (A)
                 (A) (A) (A) (A) (A) (A) (A) (A) (A) (A) (A) (A)
                 (A) (A) (A) (A) (A) (A) (A) (A) (A) (A) (A) (A)
                 (A) (A) (A) (A) (A) (A) (A) (A) (A) (A) (A) (A)
                 (A) (A) (A) (A) (A) (A) (A) (A) (A) (A) (A) (A)
                 (A) (A) (A) (A) (A) (A) (A) (A) (A) (A) (A) (A)
                 (A) (A) (A) (A) (A) (A) (A) (A) (A) (A) (A) (A)
                 (A) (A) (A) (A) (A) (A) (A) (A) (A) (A) (A) (A)
                 (A) (A) (A) (A) (A) (A) (A) (A) (A) (A) (A) (A)
                 (A) (A) (A) (A) (A) (A) (A) (A) (A) (A) (A) (A)
                 (A) (A) (A) (A) (A) (A) (A) (A) (A) (A) (A) (A)
                 (A) (A) (A) (A) (A) (A) (A) (A) (A) (A) (A) (A)
                 (A) (A) (A) (A) (A) (A) (A) (A) (A) (A) (A) (A)
                 (A) (A) (A) (A) (A) (A) (A) (A) (A) (A) (A) (A)
                 (A) (A) (A) (A) (A) (A) (A) (A) (A) (A) (A) (A)
                 (A) (A) (A) (A) (A) (A) (A) (A) (A) (A) (A) (A)
                 (A) (A) (A) (A) (A) (A) (A) (A) (A) (A) (A) (A)
                 (A) (A) (A) (A) (A) (A) (A) (A) (A) (A) (A) (A)
                 (A) (A) (A) (A) (A) (A) (A) (A) (A) (A) (A) (A)
                 (A) (A) (A) (A) (A) (A) (A) (A) (A) (A) (A) (A)
                 (A) (A) (A) (A) (A) (A) (A) (A) (A) (A) (A) (A)
                 (A) (A) (A) (A) (A) (A) (A) (A) (A) (A) (A) (A)
                 (A) (A) (A) (A) (A) (A) (A) (A) (A) (A) (A) (A)
                 (A) (A) (A) (A) (A) (A) (A) (A) (A) (A) (A) (A)
                 (A) (A) (A) (A) (A) (A) (A) (A) (A) (A) (A) (A)
                 (A) (A) (A) (A) (A) (A) (A) (A) (A) (A) (A) (A)
                 (A) (A) (A) (A) (A) (A) (A) (A) (A) (A) (A) (A)
                 (A) (A) (A) (A) (A) (A) (A) (A) (A) (A) (A) (A)
                 (A) (A) (A) (A) (A) (A) (A) (A) (A) (A) (A) (A)
                 (A) (A) (A) (A) (A) (A) (A) (A) (A) (A) (A) (A)
                 (A) (A) (A) (A) (A) (A) (A) (A) (A) (A) (A) (A)
 The electronic state is 1-A.
 Alpha  occ. eigenvalues -- -102.68839 -90.34886 -25.33179 -25.32136 -25.32114
 Alpha  occ. eigenvalues --  -25.31813 -25.31789 -19.61480 -19.61452 -19.59117
 Alpha  occ. eigenvalues --  -14.81619 -14.77817 -10.68495 -10.65402 -10.64560
 Alpha  occ. eigenvalues --  -10.64203 -10.64077 -10.59478 -10.59352 -10.58270
 Alpha  occ. eigenvalues --  -10.57693 -10.54260 -10.54243 -10.53212 -10.52819
 Alpha  occ. eigenvalues --   -9.83460  -8.63464  -7.55873  -7.55194  -7.55178
 Alpha  occ. eigenvalues --   -6.55806  -6.55793  -6.55418  -1.45043  -1.37979
 Alpha  occ. eigenvalues --   -1.37569  -1.36434  -1.34800  -1.18754  -1.15967
 Alpha  occ. eigenvalues --   -1.04455  -1.04255  -1.02033  -1.00314  -0.97272
 Alpha  occ. eigenvalues --   -0.93267  -0.87953  -0.86374  -0.85976  -0.84573
 Alpha  occ. eigenvalues --   -0.77473  -0.74763  -0.72538  -0.71550  -0.71502
 Alpha  occ. eigenvalues --   -0.71436  -0.67567  -0.66727  -0.64943  -0.62022
 Alpha  occ. eigenvalues --   -0.61477  -0.60594  -0.60310  -0.59707  -0.59207
 Alpha  occ. eigenvalues --   -0.58251  -0.56930  -0.55409  -0.55305  -0.55202
 Alpha  occ. eigenvalues --   -0.55048  -0.54991  -0.54774  -0.53645  -0.53339
 Alpha  occ. eigenvalues --   -0.53091  -0.52774  -0.52278  -0.52165  -0.52007
 Alpha  occ. eigenvalues --   -0.51140  -0.50152  -0.49930  -0.49178  -0.48796
 Alpha  occ. eigenvalues --   -0.46202  -0.45643  -0.45616  -0.45463  -0.44632
 Alpha  occ. eigenvalues --   -0.44056  -0.42358  -0.41416  -0.40812  -0.39521
 Alpha  occ. eigenvalues --   -0.39149  -0.39083  -0.38576  -0.38426  -0.35341
 Alpha  occ. eigenvalues --   -0.33292  -0.32892  -0.32640  -0.31922  -0.31421
 Alpha  occ. eigenvalues --   -0.28448
 Alpha virt. eigenvalues --   -0.10950  -0.02808  -0.00425   0.01155   0.01877
 Alpha virt. eigenvalues --    0.02810   0.03214   0.03364   0.03710   0.03884
 Alpha virt. eigenvalues --    0.04002   0.04250   0.04542   0.05218   0.05900
 Alpha virt. eigenvalues --    0.06164   0.06199   0.06478   0.06497   0.07095
 Alpha virt. eigenvalues --    0.07371   0.07699   0.07886   0.08292   0.08461
 Alpha virt. eigenvalues --    0.09030   0.09176   0.09533   0.09909   0.09977
 Alpha virt. eigenvalues --    0.10497   0.10792   0.11001   0.11111   0.11953
 Alpha virt. eigenvalues --    0.12205   0.12493   0.12666   0.12815   0.13443
 Alpha virt. eigenvalues --    0.13635   0.13901   0.14035   0.14340   0.14828
 Alpha virt. eigenvalues --    0.15514   0.15814   0.16682   0.17104   0.17526
 Alpha virt. eigenvalues --    0.17680   0.18407   0.18577   0.18943   0.19607
 Alpha virt. eigenvalues --    0.19982   0.20308   0.20860   0.21091   0.21615
 Alpha virt. eigenvalues --    0.22124   0.22291   0.22858   0.23195   0.23503
 Alpha virt. eigenvalues --    0.23797   0.24302   0.24493   0.25152   0.25320
 Alpha virt. eigenvalues --    0.25415   0.25662   0.26472   0.26794   0.27317
 Alpha virt. eigenvalues --    0.27780   0.27868   0.28238   0.28704   0.28888
 Alpha virt. eigenvalues --    0.28990   0.29320   0.29552   0.29759   0.30174
 Alpha virt. eigenvalues --    0.30788   0.30962   0.31066   0.31451   0.31741
 Alpha virt. eigenvalues --    0.32575   0.32688   0.32971   0.33112   0.33515
 Alpha virt. eigenvalues --    0.33691   0.33911   0.34312   0.34432   0.35017
 Alpha virt. eigenvalues --    0.35192   0.35324   0.35858   0.36062   0.36362
 Alpha virt. eigenvalues --    0.36566   0.36982   0.37031   0.37764   0.38504
 Alpha virt. eigenvalues --    0.38994   0.39556   0.39709   0.40067   0.40411
 Alpha virt. eigenvalues --    0.40770   0.41537   0.42809   0.43064   0.43312
 Alpha virt. eigenvalues --    0.44017   0.44844   0.44940   0.46641   0.46757
 Alpha virt. eigenvalues --    0.47808   0.48008   0.49378   0.50356   0.50977
 Alpha virt. eigenvalues --    0.51078   0.51746   0.52979   0.53573   0.54341
 Alpha virt. eigenvalues --    0.55613   0.56878   0.57133   0.57645   0.57854
 Alpha virt. eigenvalues --    0.58472   0.60631   0.61635   0.63804   0.64540
 Alpha virt. eigenvalues --    0.66771   0.69775   0.69890   0.70023   0.70823
 Alpha virt. eigenvalues --    0.70961   0.71612   0.72052   0.72739   0.74128
 Alpha virt. eigenvalues --    0.74959   0.75902   0.76096   0.76246   0.76552
 Alpha virt. eigenvalues --    0.76909   0.77431   0.77694   0.78617   0.78928
 Alpha virt. eigenvalues --    0.79702   0.80843   0.81467   0.81904   0.83629
 Alpha virt. eigenvalues --    0.83994   0.84642   0.85571   0.87184   0.87503
 Alpha virt. eigenvalues --    0.87846   0.88423   0.89434   0.90360   0.91030
 Alpha virt. eigenvalues --    0.92109   0.92879   0.94311   0.95304   0.96756
 Alpha virt. eigenvalues --    0.97705   0.98298   0.99041   0.99597   1.00203
 Alpha virt. eigenvalues --    1.01142   1.01799   1.01916   1.02484   1.04070
 Alpha virt. eigenvalues --    1.05457   1.05796   1.06082   1.06712   1.07170
 Alpha virt. eigenvalues --    1.07574   1.09726   1.12327   1.12730   1.13520
 Alpha virt. eigenvalues --    1.13946   1.14858   1.16160   1.17272   1.17446
 Alpha virt. eigenvalues --    1.18005   1.19144   1.19682   1.20030   1.21406
 Alpha virt. eigenvalues --    1.23400   1.24209   1.24368   1.25629   1.28661
 Alpha virt. eigenvalues --    1.29046   1.30351   1.31427   1.31544   1.33224
 Alpha virt. eigenvalues --    1.34643   1.35766   1.36450   1.38268   1.39544
 Alpha virt. eigenvalues --    1.39725   1.40597   1.42353   1.44090   1.44597
 Alpha virt. eigenvalues --    1.45624   1.45861   1.46418   1.47718   1.47991
 Alpha virt. eigenvalues --    1.50122   1.50273   1.50566   1.50862   1.51306
 Alpha virt. eigenvalues --    1.52820   1.55953   1.56515   1.56863   1.57873
 Alpha virt. eigenvalues --    1.58113   1.59198   1.59841   1.59897   1.61013
 Alpha virt. eigenvalues --    1.62950   1.64603   1.67199   1.68400   1.69515
 Alpha virt. eigenvalues --    1.71518   1.72161   1.72989   1.73690   1.74015
 Alpha virt. eigenvalues --    1.75613   1.75704   1.76333   1.78177   1.79220
 Alpha virt. eigenvalues --    1.80117   1.81529   1.82382   1.82637   1.83465
 Alpha virt. eigenvalues --    1.84021   1.84083   1.84577   1.84883   1.85458
 Alpha virt. eigenvalues --    1.86509   1.86950   1.87141   1.87687   1.88796
 Alpha virt. eigenvalues --    1.89093   1.89163   1.90287   1.90572   1.91097
 Alpha virt. eigenvalues --    1.92538   1.92986   1.93337   1.94176   1.95914
 Alpha virt. eigenvalues --    1.96493   1.96798   1.96851   1.97022   1.97314
 Alpha virt. eigenvalues --    1.97818   1.98456   1.98713   1.99119   1.99536
 Alpha virt. eigenvalues --    1.99885   2.01835   2.02406   2.02605   2.03527
 Alpha virt. eigenvalues --    2.03564   2.03819   2.06091   2.06573   2.07105
 Alpha virt. eigenvalues --    2.07923   2.08194   2.09813   2.12220   2.13128
 Alpha virt. eigenvalues --    2.14310   2.15093   2.15442   2.16621   2.16675
 Alpha virt. eigenvalues --    2.17515   2.20134   2.20822   2.21271   2.21927
 Alpha virt. eigenvalues --    2.22640   2.23266   2.23942   2.25468   2.26017
 Alpha virt. eigenvalues --    2.26744   2.28053   2.29065   2.30348   2.30499
 Alpha virt. eigenvalues --    2.37468   2.37494   2.38467   2.38861   2.39298
 Alpha virt. eigenvalues --    2.40895   2.42012   2.42762   2.47044   2.50334
 Alpha virt. eigenvalues --    2.51835   2.56015   2.56703   2.59686   2.62293
 Alpha virt. eigenvalues --    2.62485   2.63776   2.66946   2.67512   2.70370
 Alpha virt. eigenvalues --    2.71045   2.71384   2.73520   2.75499   2.77816
 Alpha virt. eigenvalues --    2.78484   2.80609   2.81466   2.82832   2.83519
 Alpha virt. eigenvalues --    2.84567   2.87863   2.93235   2.98422   3.00749
 Alpha virt. eigenvalues --    3.04000   3.13319   3.15047   3.16207   3.17810
 Alpha virt. eigenvalues --    3.26530   3.30395   3.34895   4.18987   4.20240
 Alpha virt. eigenvalues --    4.21828   4.27266   4.28592   4.30142   4.35602
 Alpha virt. eigenvalues --    4.35705   4.39778   4.43971   4.44727   4.45823
 Alpha virt. eigenvalues --    4.47585   4.50180   4.52823   4.54029   4.63981
 Alpha virt. eigenvalues --    4.69504   4.71432   4.76248   5.84221   5.85338
 Alpha virt. eigenvalues --    6.06510   6.35663   7.95766
          Condensed to atoms (all electrons):
               1          2          3          4          5          6
     1  C    5.818034  -0.168800   0.010508  -0.012075  -0.038434  -0.002324
     2  C   -0.168800   6.273345  -0.435368  -0.066676   0.172083   0.021669
     3  C    0.010508  -0.435368   6.900715   0.354411  -0.708522  -0.120807
     4  N   -0.012075  -0.066676   0.354411   7.725294   0.406110  -0.213937
     5  C   -0.038434   0.172083  -0.708522   0.406110   5.968711   0.591418
     6  O   -0.002324   0.021669  -0.120807  -0.213937   0.591418   8.510636
     7  N   -0.002780   0.011897  -0.159941  -0.335458   0.231792  -0.090437
     8  C   -0.002730   0.004410  -0.128523  -0.067623  -0.101612  -0.211054
     9  C   -0.004119   0.006577  -0.211691  -0.098546  -0.848804   0.307027
    10  C   -0.000301   0.001894   0.015692  -0.030568   0.086441  -0.086347
    11  C   -0.000127   0.000588  -0.006217  -0.001968  -0.054782  -0.011499
    12  C    0.000051  -0.000151   0.007116  -0.006777   0.039392  -0.021933
    13  C   -0.000175   0.000245  -0.024540  -0.000280  -0.337225   0.048958
    14  H    0.443825  -0.118805   0.027239   0.000492  -0.001601   0.000005
    15  H    0.420964  -0.066327  -0.011875   0.000607   0.000509  -0.000041
    16  H    0.417331  -0.063077  -0.011973   0.000512   0.001028  -0.000027
    17  H   -0.033226   0.425770  -0.085821   0.007579   0.000298  -0.000140
    18  H   -0.023737   0.418182  -0.083675   0.007655  -0.003126  -0.000133
    19  H   -0.006885  -0.042193   0.444990  -0.051058  -0.035642   0.002456
    20  H   -0.004851  -0.043461   0.440246  -0.053949  -0.031161   0.003255
    21  H   -0.002061   0.000131  -0.056875   0.194300   0.016451   0.006503
    22  H    0.000091   0.000669   0.005197   0.031462  -0.034624   0.003651
    23  H    0.000009  -0.000005   0.003280  -0.000876   0.019666   0.001462
    24  H   -0.000003   0.000049  -0.000824   0.000355  -0.017983   0.000096
    25  H    0.000000  -0.000000   0.000008   0.000002   0.001787   0.000004
    26  S   -0.000053   0.000176  -0.003892   0.000289  -0.061573   0.004567
    27  F    0.000000   0.000006  -0.000012   0.000056   0.000600  -0.001000
    28  F   -0.000000  -0.000001   0.000020  -0.000001   0.001981   0.000081
    29  F   -0.000000  -0.000001   0.000025   0.000003   0.002437   0.000074
    30  Cl  -0.000000   0.000002  -0.000190  -0.000008  -0.007522  -0.000126
    31  F    0.000000  -0.000000   0.000011   0.000001   0.000431  -0.000023
    32  F    0.000000  -0.000000   0.000006   0.000002  -0.000109   0.000028
    33  O    0.006972   0.006578  -0.005448  -0.027691  -0.001391  -0.000519
    34  O    0.000183  -0.000816   0.006847   0.004993  -0.005278  -0.000138
    35  C   -0.003594  -0.006896   0.005220  -0.002560  -0.003994  -0.000742
    36  C    0.002045  -0.000858   0.007798  -0.005996  -0.002886  -0.000352
    37  C   -0.000372  -0.001012  -0.000400   0.001306  -0.000426   0.000032
    38  H    0.000047   0.000234  -0.000097   0.000047   0.000020   0.000000
    39  H    0.000018   0.000092  -0.000044  -0.000066   0.000010  -0.000000
    40  H   -0.000000   0.000015  -0.000038  -0.000019  -0.000001   0.000000
    41  H    0.000000  -0.000002   0.000002  -0.000000  -0.000000  -0.000000
    42  H    0.000001   0.000012  -0.000012   0.000001   0.000021   0.000000
               7          8          9         10         11         12
     1  C   -0.002780  -0.002730  -0.004119  -0.000301  -0.000127   0.000051
     2  C    0.011897   0.004410   0.006577   0.001894   0.000588  -0.000151
     3  C   -0.159941  -0.128523  -0.211691   0.015692  -0.006217   0.007116
     4  N   -0.335458  -0.067623  -0.098546  -0.030568  -0.001968  -0.006777
     5  C    0.231792  -0.101612  -0.848804   0.086441  -0.054782   0.039392
     6  O   -0.090437  -0.211054   0.307027  -0.086347  -0.011499  -0.021933
     7  N    7.664619  -0.025284   0.199379  -0.066131   0.034250  -0.095903
     8  C   -0.025284  12.012592  -2.929035   0.557752  -1.057726   1.250130
     9  C    0.199379  -2.929035  12.645472  -2.605228  -0.778072  -3.466584
    10  C   -0.066131   0.557752  -2.605228   8.172836   1.026380  -0.666030
    11  C    0.034250  -1.057726  -0.778072   1.026380   8.287583  -0.458269
    12  C   -0.095903   1.250130  -3.466584  -0.666030  -0.458269  15.453597
    13  C    0.042936  -3.279718   3.364696  -0.305213  -1.131740  -5.377000
    14  H    0.000012  -0.000027  -0.000002  -0.000000  -0.000000   0.000000
    15  H    0.000015   0.000013  -0.000027   0.000003   0.000000   0.000000
    16  H    0.000023   0.000012  -0.000014   0.000002   0.000000   0.000000
    17  H    0.000260  -0.000629  -0.000047   0.000155   0.000004   0.000001
    18  H    0.000108  -0.000725  -0.000228   0.000191   0.000003   0.000002
    19  H   -0.000343  -0.002521   0.000005   0.000024  -0.000013  -0.000000
    20  H   -0.000194  -0.001887  -0.000260  -0.000126  -0.000028   0.000005
    21  H    0.029313   0.010828   0.005603  -0.002226  -0.000488  -0.000097
    22  H    0.189052   0.056989   0.047344  -0.074720  -0.016713  -0.008883
    23  H   -0.011236   0.052391   0.291428   0.028028  -0.026133   0.024692
    24  H   -0.004519  -0.069719  -0.017664   0.343625   0.010670   0.030218
    25  H    0.000208   0.010258   0.015505   0.016286   0.064051   0.258722
    26  S   -0.004548  -0.183585  -0.035436  -0.024698  -0.093079  -0.183755
    27  F    0.000220  -0.034313  -0.016497  -0.005430   0.002243  -0.092368
    28  F    0.000160   0.018742   0.016392   0.002647   0.024302   0.041165
    29  F    0.000212   0.018527   0.016870   0.002825   0.027604   0.039748
    30  Cl  -0.001194   0.028353   0.040474  -0.017682  -0.164862  -0.060936
    31  F    0.000027  -0.006363   0.003075  -0.001010   0.005676   0.034364
    32  F   -0.000058   0.019516   0.026711  -0.001700  -0.022297   0.085283
    33  O    0.008382  -0.003041   0.000714  -0.000188  -0.001189  -0.000016
    34  O   -0.007456  -0.041182   0.001054   0.033730   0.002432  -0.001794
    35  C   -0.008092   0.012166  -0.008227  -0.008660  -0.000805   0.001587
    36  C   -0.005120  -0.012924  -0.003415   0.007981   0.000540   0.000061
    37  C    0.000662  -0.001790  -0.000154   0.000998   0.001396   0.000238
    38  H    0.000011   0.000116   0.000003  -0.000108  -0.000011  -0.000000
    39  H    0.000052  -0.000395  -0.000016   0.000284   0.000023   0.000001
    40  H    0.000081  -0.000304  -0.000006   0.000187   0.000123   0.000009
    41  H   -0.000004  -0.000027  -0.000002   0.000019   0.000009   0.000000
    42  H   -0.000002   0.000053   0.000003  -0.000057  -0.000001  -0.000000
              13         14         15         16         17         18
     1  C   -0.000175   0.443825   0.420964   0.417331  -0.033226  -0.023737
     2  C    0.000245  -0.118805  -0.066327  -0.063077   0.425770   0.418182
     3  C   -0.024540   0.027239  -0.011875  -0.011973  -0.085821  -0.083675
     4  N   -0.000280   0.000492   0.000607   0.000512   0.007579   0.007655
     5  C   -0.337225  -0.001601   0.000509   0.001028   0.000298  -0.003126
     6  O    0.048958   0.000005  -0.000041  -0.000027  -0.000140  -0.000133
     7  N    0.042936   0.000012   0.000015   0.000023   0.000260   0.000108
     8  C   -3.279718  -0.000027   0.000013   0.000012  -0.000629  -0.000725
     9  C    3.364696  -0.000002  -0.000027  -0.000014  -0.000047  -0.000228
    10  C   -0.305213  -0.000000   0.000003   0.000002   0.000155   0.000191
    11  C   -1.131740  -0.000000   0.000000   0.000000   0.000004   0.000003
    12  C   -5.377000   0.000000   0.000000   0.000000   0.000001   0.000002
    13  C   13.526817  -0.000000   0.000000   0.000000  -0.000007  -0.000009
    14  H   -0.000000   0.481873  -0.023611  -0.023714  -0.003261  -0.003296
    15  H    0.000000  -0.023611   0.487874  -0.028472  -0.004771   0.003885
    16  H    0.000000  -0.023714  -0.028472   0.487973   0.003869  -0.004798
    17  H   -0.000007  -0.003261  -0.004771   0.003869   0.489881  -0.031601
    18  H   -0.000009  -0.003296   0.003885  -0.004798  -0.031601   0.489926
    19  H   -0.000044  -0.000049  -0.000333   0.002747   0.003716  -0.005055
    20  H   -0.000065  -0.000055   0.002688  -0.000294  -0.005312   0.003735
    21  H    0.000068  -0.000002  -0.000000  -0.000002   0.000452   0.000708
    22  H    0.011349  -0.000000  -0.000000  -0.000000   0.000002   0.000002
    23  H   -0.093276  -0.000000   0.000000   0.000000  -0.000000  -0.000000
    24  H    0.021515  -0.000000  -0.000000   0.000000  -0.000000  -0.000000
    25  H   -0.056229   0.000000  -0.000000  -0.000000   0.000000   0.000000
    26  S    0.269590  -0.000000  -0.000000  -0.000000  -0.000000  -0.000000
    27  F    0.138125  -0.000000   0.000000   0.000000   0.000000  -0.000000
    28  F   -0.127293  -0.000000  -0.000000  -0.000000   0.000000  -0.000000
    29  F   -0.130434  -0.000000  -0.000000  -0.000000  -0.000000  -0.000000
    30  Cl  -0.006202   0.000000   0.000000   0.000000   0.000000   0.000000
    31  F   -0.138963  -0.000000   0.000000   0.000000   0.000000   0.000000
    32  F   -0.111143  -0.000000   0.000000   0.000000  -0.000000  -0.000000
    33  O   -0.000280  -0.000062   0.000006   0.000006   0.000321  -0.000598
    34  O    0.001037  -0.000000   0.000000   0.000000   0.000027   0.000034
    35  C   -0.002479  -0.000102  -0.000010   0.000003  -0.000309  -0.000444
    36  C   -0.000941   0.000050   0.000003  -0.000017  -0.000629  -0.000152
    37  C    0.000034  -0.000001   0.000000  -0.000000  -0.000059  -0.000043
    38  H   -0.000000  -0.000000   0.000000   0.000000  -0.000000   0.000000
    39  H   -0.000001  -0.000000  -0.000000   0.000000   0.000000  -0.000000
    40  H   -0.000004   0.000000   0.000000   0.000000   0.000000   0.000000
    41  H   -0.000000  -0.000000   0.000000  -0.000000   0.000000   0.000000
    42  H    0.000000   0.000000  -0.000000   0.000000  -0.000000  -0.000000
              19         20         21         22         23         24
     1  C   -0.006885  -0.004851  -0.002061   0.000091   0.000009  -0.000003
     2  C   -0.042193  -0.043461   0.000131   0.000669  -0.000005   0.000049
     3  C    0.444990   0.440246  -0.056875   0.005197   0.003280  -0.000824
     4  N   -0.051058  -0.053949   0.194300   0.031462  -0.000876   0.000355
     5  C   -0.035642  -0.031161   0.016451  -0.034624   0.019666  -0.017983
     6  O    0.002456   0.003255   0.006503   0.003651   0.001462   0.000096
     7  N   -0.000343  -0.000194   0.029313   0.189052  -0.011236  -0.004519
     8  C   -0.002521  -0.001887   0.010828   0.056989   0.052391  -0.069719
     9  C    0.000005  -0.000260   0.005603   0.047344   0.291428  -0.017664
    10  C    0.000024  -0.000126  -0.002226  -0.074720   0.028028   0.343625
    11  C   -0.000013  -0.000028  -0.000488  -0.016713  -0.026133   0.010670
    12  C   -0.000000   0.000005  -0.000097  -0.008883   0.024692   0.030218
    13  C   -0.000044  -0.000065   0.000068   0.011349  -0.093276   0.021515
    14  H   -0.000049  -0.000055  -0.000002  -0.000000  -0.000000  -0.000000
    15  H   -0.000333   0.002688  -0.000000  -0.000000   0.000000  -0.000000
    16  H    0.002747  -0.000294  -0.000002  -0.000000   0.000000   0.000000
    17  H    0.003716  -0.005312   0.000452   0.000002  -0.000000  -0.000000
    18  H   -0.005055   0.003735   0.000708   0.000002  -0.000000  -0.000000
    19  H    0.494263  -0.039555   0.001677   0.000002  -0.000000  -0.000000
    20  H   -0.039555   0.494745   0.001860   0.000004  -0.000000   0.000000
    21  H    0.001677   0.001860   0.261622   0.003311  -0.000000   0.000006
    22  H    0.000002   0.000004   0.003311   0.262691  -0.000047   0.004211
    23  H   -0.000000  -0.000000  -0.000000  -0.000047   0.397173  -0.000085
    24  H   -0.000000   0.000000   0.000006   0.004211  -0.000085   0.410741
    25  H   -0.000000  -0.000000  -0.000000   0.000000  -0.000115  -0.000115
    26  S   -0.000004  -0.000012  -0.000006   0.000327  -0.002314   0.002137
    27  F    0.000000  -0.000000   0.000000  -0.000000   0.003186   0.000001
    28  F   -0.000000   0.000000  -0.000000   0.000000   0.000193   0.000001
    29  F    0.000000  -0.000000  -0.000000   0.000000   0.000161   0.000001
    30  Cl   0.000000   0.000000   0.000007   0.000047   0.000024   0.002419
    31  F   -0.000000  -0.000000   0.000000   0.000000   0.000153   0.000000
    32  F   -0.000000  -0.000000  -0.000000  -0.000000   0.000011   0.000002
    33  O    0.000056  -0.000021   0.040327   0.001612   0.000000   0.000003
    34  O   -0.000001  -0.000001   0.001127   0.026559   0.000003  -0.000833
    35  C    0.000141   0.000213  -0.006067  -0.002789  -0.000032   0.000197
    36  C    0.000014  -0.000033   0.002521   0.001891  -0.000002   0.000539
    37  C    0.000001  -0.000000  -0.000228   0.000055   0.000000  -0.000046
    38  H    0.000000   0.000000   0.000003  -0.000001   0.000000   0.000000
    39  H   -0.000000  -0.000000  -0.000007  -0.000005  -0.000000  -0.000000
    40  H   -0.000000   0.000000  -0.000001  -0.000006  -0.000000  -0.000001
    41  H   -0.000000  -0.000000   0.000000   0.000000   0.000000   0.000000
    42  H    0.000000   0.000000   0.000000   0.000000  -0.000000   0.000000
              25         26         27         28         29         30
     1  C    0.000000  -0.000053   0.000000  -0.000000  -0.000000  -0.000000
     2  C   -0.000000   0.000176   0.000006  -0.000001  -0.000001   0.000002
     3  C    0.000008  -0.003892  -0.000012   0.000020   0.000025  -0.000190
     4  N    0.000002   0.000289   0.000056  -0.000001   0.000003  -0.000008
     5  C    0.001787  -0.061573   0.000600   0.001981   0.002437  -0.007522
[...]
 00067779,0.00123904,0.00081911,-0.00083491,-0.00008103,-0.00137111,0.0
 0155319,-0.00039575,-0.02818153,-0.07820126,-0.28692615,-0.00115760,-0
 .00259273,-0.01038093,0.03350450,0.08347294,0.31062850,-0.00000099,0.0
 0000021,-0.00000052,-0.00000050,-0.00000348,0.00000038,0.00000317,-0.0
 0000202,0.00000548,0.00002005,0.00002555,-0.00000070,-0.00006844,-0.00
 000534,0.00000345,0.00001710,-0.00000533,-0.00000295,0.00000137,-0.000
 11121,0.00001217,0.00002541,-0.00000522,0.00000364,-0.00000715,-0.0000
 0549,0.00000026,-0.00000356,0.00000520,-0.00000314,0.00000258,0.000001
 05,0.00000160,-0.00000248,-0.00000153,-0.00000051,0.00000109,-0.000001
 27,-0.00000009,0.00000102,0.00000088,0.00000018,-0.00000017,0.00000031
 ,-0.00000009,0.00000004,-0.00000003,-0.00000036,0.00000031,0.00000049,
 0.00000120,0.00000078,-0.00000033,0.00000017,0.00000002,0.00000038,0.0
 0000054,0.00000088,0.00000035,-0.00000088,0.00000881,-0.00010454,-0.00
 002429,0.00000154,0.00015265,-0.00002478,-0.00000037,0.00000037,0.0000
 0007,0.00000103,0.00000201,0.00000228,0.00000012,-0.00000022,0.0000002
 0,-0.00000059,0.00000702,0.00000052,0.00000139,-0.00000212,-0.00000080
 ,0.00000064,-0.00000128,0.00000111,-0.00000138,-0.00000175,-0.00000140
 ,-0.00000071,0.00000034,-0.00000060,0.,-0.00000102,0.00000002,-0.00000
 113,-0.00000120,0.00000074,0.00037559,0.00180192,-0.00072942,0.0007331
 0,-0.00121693,0.00045279,-0.00166744,-0.00041983,-0.00145361,-0.217459
 40,-0.06968785,0.10937874,-0.02162794,-0.00809254,0.01354408,0.0028549
 6,0.00156359,-0.00155619,0.23833544,-0.00000156,0.00000152,-0.00000015
 ,0.00000800,-0.00000913,0.00000110,-0.00003375,0.00001049,0.00000276,-
 0.00000085,-0.00009173,0.00003122,-0.00011019,0.00007418,0.00003049,0.
 00003499,-0.00010587,-0.00003158,-0.00003045,-0.00041785,0.00012256,0.
 00012956,0.00000806,0.00001586,-0.00003345,-0.00002594,-0.00000114,-0.
 00002539,0.00001577,-0.00000414,0.00001664,-0.00000164,0.00000639,-0.0
 0001414,-0.00000424,-0.00000307,0.00000918,-0.00000313,0.00000162,0.00
 000289,0.00000020,0.00000043,0.00000047,-0.00000042,0.00000010,0.00000
 095,-0.00000103,-0.00000051,0.00000023,0.00000142,-0.00000153,0.000004
 01,-0.00000011,-0.00000006,0.00000668,-0.00000382,-0.00000152,0.000009
 16,-0.00000491,0.00000137,-0.00000872,0.00019794,-0.00004938,0.0000941
 3,0.00070120,-0.00024447,0.00000012,0.00000272,-0.00000075,0.00000846,
 0.00000523,0.00000409,0.00000047,-0.00000044,0.00000008,0.00000278,0.0
 0001909,-0.00000302,0.00000296,-0.00000580,-0.00000172,0.00000166,-0.0
 0000393,0.00000463,-0.00000452,-0.00000546,-0.00000419,-0.00000812,0.0
 0000337,-0.00000304,-0.00000045,-0.00000260,0.00000046,-0.00000594,-0.
 00000339,0.00000445,0.00222317,0.00052636,-0.00308660,0.00036136,-0.00
 661810,-0.00439158,-0.02811621,-0.00865724,0.02124775,-0.07115596,-0.0
 7603730,0.04861791,0.01203000,0.00429063,-0.00767977,0.00895652,0.0037
 1150,-0.00534010,0.07415920,0.08221674,0.00000132,0.00000011,-0.000000
 10,-0.00000299,0.00000313,0.00000020,0.00001504,-0.00000151,0.00000139
 ,0.00000275,0.00006045,0.00001154,-0.00001520,-0.00001876,-0.00000222,
 0.00000084,0.00002592,0.00000051,0.00000812,0.00001643,0.00001855,-0.0
 0002012,-0.00000199,0.00000099,0.00000476,0.00000370,-0.00000201,0.000
 00554,-0.00000280,0.00000050,-0.00000409,0.00000080,-0.00000026,0.0000
 0285,0.00000013,-0.00000039,-0.00000153,0.00000053,0.00000021,-0.00000
 210,-0.00000062,0.00000003,-0.00000045,0.00000027,-0.00000006,-0.00000
 032,0.00000007,0.00000032,0.00000029,-0.00000021,-0.00000086,-0.000000
 83,0.00000248,-0.00000030,-0.00000368,0.00000165,0.00000091,-0.0000031
 0,0.00000205,-0.00000070,0.00001004,-0.00009651,-0.00002442,0.00000531
 ,-0.00004679,-0.00003344,0.00000014,-0.00000053,0.00000016,-0.00000154
 ,0.00000158,0.00000009,-0.00000015,0.00000015,0.00000005,-0.00000103,-
 0.00000547,0.00000110,-0.00000054,0.00000149,0.00000025,-0.00000028,0.
 00000109,-0.00000098,0.00000104,0.00000134,0.00000073,0.00000165,0.000
 00008,0.00000074,0.00000026,0.00000091,-0.00000020,0.00000117,0.000000
 91,-0.00000092,-0.00101186,0.00114778,0.00011042,0.00020059,-0.0004148
 6,-0.00074502,-0.00158711,-0.00332863,0.00041368,0.10871587,0.04663328
 ,-0.11329305,-0.01219587,-0.00510634,0.00734996,0.02454791,0.01118070,
 -0.01568519,-0.11703378,-0.05027417,0.12082585,0.00000024,-0.00000073,
 0.00000025,-0.00000043,0.00000132,-0.00000166,0.00000820,-0.00000008,-
 0.00000003,-0.00000097,0.00003682,0.00000683,-0.00000614,-0.00001048,-
 0.00000453,0.00000035,0.00001564,0.00000258,0.00000315,0.00002733,-0.0
 0000098,-0.00000857,-0.00000235,0.00000066,0.00000207,0.00000199,-0.00
 000008,0.00000347,-0.00000176,0.00000067,-0.00000083,0.00000132,0.0000
 0130,0.00000110,0.00000082,-0.00000114,-0.00000056,0.00000074,-0.00000
 038,-0.00000039,0.00000006,-0.00000020,0.,0.,0.00000006,-0.00000041,0.
 00000055,0.00000029,0.00000020,-0.00000063,0.00000146,-0.00000062,-0.0
 0000026,0.00000006,-0.00000194,0.00000175,0.00000053,-0.00000187,0.000
 00108,-0.00000013,0.00000873,-0.00006062,-0.00000647,-0.00000199,-0.00
 004169,0.00000902,0.00000013,-0.00000018,0.,-0.00000031,-0.00000073,-0
 .00000106,0.00000002,-0.00000015,0.00000004,0.00000009,-0.00000418,0.0
 0000048,-0.00000073,0.00000118,0.00000040,-0.00000032,0.00000084,-0.00
 000073,0.00000047,0.00000125,0.00000075,0.00000042,0.00000089,0.000000
 19,0.00000003,0.00000061,-0.00000006,0.00000070,0.00000065,-0.00000082
 ,-0.00013530,0.00033955,0.00024417,0.00037468,0.00045634,0.00036263,0.
 00055379,-0.00150929,0.00000485,-0.00325688,-0.00840787,-0.02843726,-0
 .05085079,-0.00826553,-0.02557808,-0.00439220,0.00293530,-0.00229166,0
 .00124512,-0.00077075,0.00055796,0.05411928,0.00000008,-0.00000047,-0.
 00000040,0.00000007,0.00000062,0.00000028,0.00000282,-0.00000116,0.000
 00013,-0.00000244,0.00000163,0.00000264,0.00001488,-0.00000643,0.00000
 080,-0.00000490,0.00000960,-0.00000025,0.00000107,0.00003986,-0.000001
 51,-0.00001264,0.00000005,-0.00000529,0.00000276,0.00000177,0.00000062
 ,0.00000321,-0.00000449,0.00000122,-0.00000336,0.00000067,0.00000195,0
 .00000170,0.00000087,-0.00000140,-0.00000028,0.00000120,0.00000031,-0.
 00000031,-0.00000006,0.,-0.00000014,0.00000008,-0.00000006,0.00000008,
 0.,0.00000009,-0.00000001,0.00000004,-0.00000033,0.00000046,-0.0000002
 6,0.00000013,-0.00000080,0.00000040,0.00000008,-0.00000052,0.00000044,
 -0.00000031,0.00000169,-0.00000969,-0.00000621,-0.00000567,-0.00006457
 ,0.00000719,0.00000032,-0.00000016,0.00000026,-0.00000294,0.00000088,0
 .00000187,-0.00000012,0.00000004,0.00000001,-0.00000135,-0.00000444,0.
 00000200,-0.00000033,0.00000128,-0.00000002,-0.00000040,0.00000078,-0.
 00000125,0.00000083,0.00000116,0.00000037,0.00000188,0.00000042,-0.000
 00018,0.00000025,0.00000063,-0.00000029,0.00000124,0.00000067,-0.00000
 107,0.00007942,0.00014399,-0.00021729,0.00038410,-0.00013555,0.0003826
 8,-0.00075782,-0.00003028,0.00044128,0.00111136,0.00352316,0.01349975,
 -0.00863866,-0.06904600,-0.07399454,0.00231632,-0.00058038,0.00117038,
 -0.00059730,0.00033327,-0.00047039,0.00712649,0.07092469,0.00000092,-0
 .00000057,-0.00000004,-0.00000005,0.00000114,-0.00000228,0.00000642,0.
 00000058,-0.00000079,0.00000528,0.00004437,0.00001356,-0.00002606,-0.0
 0000468,-0.00000544,0.00000633,0.00000998,0.00000206,0.00000304,-0.000
 00374,0.00000316,-0.00000419,-0.00000581,-0.00000283,0.00000183,0.0000
 0207,0.00000211,0.00000139,0.00000049,0.00000249,-0.00000138,0.0000012
 6,0.00000280,0.00000095,-0.00000170,-0.00000028,-0.00000196,-0.0000009
 1,0.00000004,-0.00000038,-0.00000024,-0.00000016,-0.00000008,0.0000000
 1,-0.00000008,-0.00000063,0.00000073,0.00000077,0.00000003,-0.00000044
 ,0.00000175,-0.00000040,-0.00000117,0.00000057,-0.00000180,0.00000198,
 0.00000101,-0.00000103,0.00000067,-0.00000013,0.00000360,-0.00006584,-
 0.00001636,0.00001165,0.00000889,-0.00000077,-0.00000042,-0.00000048,-
 0.00000040,0.00000187,0.00000560,-0.00000357,0.00000020,-0.00000023,-0
 .00000031,0.00000057,0.00000287,-0.00000595,0.00000002,-0.00000073,0.0
 0000063,0.00000080,-0.00000053,0.00000219,-0.00000007,-0.00000053,0.00
 000080,0.00000185,0.00000082,-0.00000066,-0.00000005,-0.00000037,0.000
 00069,-0.00000103,-0.00000034,0.00000137,0.00008765,0.00068547,0.00011
 201,0.00109282,-0.00016854,0.00099960,-0.00082418,-0.00188407,-0.00038
 282,-0.00106753,-0.00274724,-0.01118358,-0.02684207,-0.07215182,-0.297
 79962,-0.00249943,0.00116965,0.00051674,-0.00009355,0.00007038,0.00077
 616,0.03163595,0.08004430,0.32091978,0.00000069,-0.00000014,-0.0000004
 6,-0.00000059,-0.00000073,0.00000150,0.00000759,0.00000121,0.00000186,
 0.00000342,0.00005338,0.00000598,-0.00002942,-0.00000938,-0.00000174,0
 .00000531,0.00001557,0.00000089,0.00000637,0.00001439,-0.00000443,-0.0
 0001112,-0.00000582,0.00000061,0.00000304,0.00000285,0.00000015,0.0000
 0229,0.00000108,0.00000271,0.00000123,-0.00000016,-0.00000129,0.000000
 88,0.00000016,0.00000004,-0.00000091,-0.00000057,-0.00000108,-0.000000
 13,-0.00000008,0.00000015,-0.00000054,0.00000078,-0.00000050,-0.000000
 25,0.00000021,0.00000038,0.00000004,-0.00000137,0.00000119,0.00000015,
 -0.00000004,-0.00000224,-0.00000177,0.00000153,0.00000072,-0.00000163,
 0.00000208,-0.00000086,0.00001206,-0.00006947,-0.00001416,0.00000472,-
 0.00002286,0.00001164,-0.00000045,-0.00000021,0.00000061,-0.00000126,0
 .00000922,0.00000344,0.00000007,-0.00000009,0.00000045,-0.00000057,0.0
 0000378,0.00000338,0.00000081,-0.00000083,-0.00000084,-0.00000012,-0.0
 0000055,-0.00000072,-0.00000039,-0.00000061,-0.00000084,0.00000365,0.0
 0000716,0.00000140,0.,-0.00000065,-0.00000027,0.00000038,-0.00000056,-
 0.00000060,0.00018046,0.00074272,-0.00015120,0.00143595,0.00015885,0.0
 0020733,-0.00037249,-0.00238489,-0.00009193,-0.02248084,-0.00827658,0.
 01454105,-0.22286146,-0.06675667,0.11255675,0.00120251,-0.00043043,-0.
 00006316,-0.00390907,0.00283089,-0.00294189,0.00358507,0.00181122,-0.0
 0193644,0.24322289,0.00000009,-0.00000040,0.00000005,-0.00000013,0.000
 00072,-0.00000046,0.00000386,-0.00000100,-0.00000103,-0.00000162,0.000
 01156,0.00000078,0.00001353,-0.00000815,-0.00000297,-0.00000404,0.0000
 1193,0.00000288,-0.00000051,0.00003828,-0.00000687,-0.00000929,0.00000
 085,-0.00000147,0.00000229,0.00000146,-0.00000042,0.00000200,-0.000003
 62,0.00000696,-0.00000487,0.00000018,-0.00000334,0.00000152,0.00000133
 ,0.00000083,0.00000029,0.00000074,-0.00000049,-0.00000027,0.00000002,0
 .00000002,-0.00000002,0.00000002,0.,-0.00000008,0.00000008,0.00000003,
 -0.00000024,0.00000010,0.00000015,-0.00000021,-0.00000024,0.00000008,-
 0.00000115,0.00000038,0.00000046,-0.00000059,0.00000057,-0.00000022,-0
 .00000047,-0.00001817,-0.00000243,-0.00001090,-0.00006474,0.00001588,0
 .00000027,-0.00000027,-0.00000001,-0.00000019,0.00000444,-0.00000447,-
 0.00000012,0.00000017,0.,-0.00000127,-0.00000566,0.00000088,-0.0000006
 6,0.00000155,0.00000037,-0.00000036,0.00000111,-0.00000095,0.00000106,
 0.00000134,0.00000090,0.00000281,0.00000322,0.00000117,0.00000017,0.00
 000082,-0.00000013,0.00000129,0.00000092,-0.00000082,-0.00011681,0.000
 14289,0.00021913,0.00056245,-0.00004829,0.00000828,-0.00014368,-0.0000
 4747,-0.00087139,0.01110937,0.00395118,-0.00760607,-0.06841656,-0.0733
 5970,0.04336210,-0.00074041,0.00034221,-0.00017634,0.00243696,-0.00060
 190,0.00100663,0.00860527,0.00241660,-0.00478574,0.07266543,0.07562225
 ,-0.00000039,-0.00000020,-0.00000034,-0.00000008,0.00000068,0.00000059
 ,0.00000136,-0.00000031,0.00000011,-0.00000653,-0.00000389,-0.00000255
 ,0.00001599,-0.00000489,-0.00000086,-0.00000437,0.00000551,0.00000117,
 -0.00000070,0.00002222,-0.00000380,-0.00000387,0.00000403,0.00000128,0
 .00000018,0.00000113,-0.00000039,0.00000120,-0.00000398,-0.00000163,0.
 00000019,-0.00000091,0.00000192,0.00000064,0.00000128,-0.00000120,0.00
 000056,0.00000098,-0.00000021,-0.00000006,0.00000014,-0.00000002,0.000
 00003,-0.00000011,0.00000013,0.00000004,0.00000002,0.,0.00000019,-0.00
 000023,0.00000019,0.00000004,-0.00000029,0.00000012,-0.00000053,0.0000
 0048,-0.00000002,-0.00000055,0.00000022,0.,0.00000635,-0.00000056,0.00
 000196,-0.00000691,-0.00004601,0.00000024,0.00000041,0.00000006,0.0000
 0002,-0.00000043,-0.00000761,-0.00000217,-0.00000020,0.00000018,-0.000
 00007,0.00000028,-0.00000558,0.00000201,-0.00000092,0.00000162,0.00000
 029,-0.00000077,0.00000106,-0.00000153,0.00000067,0.00000129,0.0000004
 4,-0.00000215,-0.00000208,-0.00000123,0.,0.00000077,-0.00000029,0.0000
 0090,0.00000088,-0.00000090,-0.00000733,-0.00015818,-0.00020983,-0.000
 51617,0.00049221,-0.00006618,0.00079383,-0.00000084,0.00055773,-0.0123
 4299,-0.00507561,0.00764806,0.11380519,0.04242019,-0.12145187,0.000586
 98,-0.00064588,0.00079719,-0.00273913,0.00148844,-0.00001705,0.0247169
 8,0.01057196,-0.01473301,-0.12161183,-0.04854359,0.12697906,0.00000137
 ,-0.00000155,0.00000036,-0.00000391,0.00000127,-0.00000249,0.00004229,
 -0.00000051,0.00000395,0.00002547,0.00022222,0.00004771,-0.00008544,-0
 .00005498,-0.00000683,0.00001591,0.00007702,0.00000632,0.00003494,0.00
 007480,-0.00000790,-0.00004711,-0.00001426,-0.00000234,0.00001164,0.00
 001079,-0.00000044,0.00001138,-0.00000287,0.00000215,-0.00000489,0.000
 00132,-0.00000251,0.00000588,0.00000103,0.00000103,-0.00000402,-0.0000
 0059,-0.00000096,-0.00000221,0.00000022,-0.00000007,-0.00000080,0.0000
 0094,-0.00000042,-0.00000107,0.00000113,0.00000071,-0.00000033,-0.0000
 0175,0.00000403,-0.00000058,-0.00000104,-0.00000257,-0.00001003,0.0000
 0706,0.00000227,-0.00000808,0.00000640,-0.00000134,0.00002529,-0.00034
 067,-0.00008691,-0.00001161,-0.00014132,0.00001429,-0.00000036,-0.0000
 0153,0.00000049,-0.00000326,0.00000345,0.00000072,-0.00000011,-0.00000
 004,0.00000013,-0.00000151,-0.00000487,0.00000113,-0.00000061,0.000001
 57,0.00000039,-0.00000033,0.00000106,-0.00000129,0.00000125,0.00000149
 ,0.00000109,0.00000329,-0.00000039,0.00000122,0.00000022,0.00000067,-0
 .00000015,0.00000167,0.00000086,-0.00000128,-0.00152799,0.00350902,-0.
 00068928,0.00119734,0.00023570,0.00044959,-0.00445209,-0.00278911,-0.0
 0254554,0.00114619,0.03067276,0.00167484,-0.04809536,-0.01166588,0.000
 26559,0.00111641,-0.00075616,0.00023173,0.00111977,-0.00057400,0.00074
 500,-0.00124605,-0.00283224,0.00043957,-0.00000659,-0.02595419,-0.0026
 8610,0.05075409,-0.00000162,0.00000163,0.00000010,0.00000310,-0.000002
 85,0.00000112,-0.00003473,0.00000323,-0.00000245,-0.00000963,-0.000145
 44,-0.00003083,0.00002132,0.00006069,0.00000757,0.00000137,-0.00007719
 ,-0.00000799,-0.00003318,-0.00013075,0.00001300,0.00005920,0.00000729,
 0.00000650,-0.00001392,-0.00001319,0.00000021,-0.00001445,0.00000674,-
 0.00000421,0.00000904,-0.00000227,0.00000259,-0.00000828,-0.00000288,-
 0.00000039,0.00000412,-0.00000091,0.00000204,0.00000249,0.00000043,0.0
 0000010,0.00000090,-0.00000106,0.00000066,0.00000097,-0.00000099,-0.00
 000094,-0.00000029,0.00000171,-0.00000261,0.00000011,0.00000053,0.0000
 0174,0.00000808,-0.00000559,-0.00000217,0.00000703,-0.00000554,0.00000
 155,-0.00003381,0.00026344,0.00006062,0.00003881,0.00025997,-0.0000278
 2,-0.00000004,0.00000152,-0.00000035,0.00000380,0.00000300,0.00000060,
 0.00000030,-0.00000031,0.00000005,0.00000352,0.00001377,-0.00000303,0.
 00000145,-0.00000381,-0.00000074,0.00000082,-0.00000281,0.00000285,-0.
 00000285,-0.00000366,-0.00000226,-0.00000439,0.00000171,-0.00000160,-0
 .00000057,-0.00000209,0.00000050,-0.00000368,-0.00000231,0.00000278,0.
 00131583,-0.00206300,0.00058160,0.00043192,-0.00114328,0.00019759,0.00
 091394,0.00293859,0.00045383,-0.00200498,-0.01108414,-0.00114343,-0.01
 003847,-0.32023627,-0.00987850,-0.00019936,0.00046824,0.00028940,0.000
 10935,0.00048626,-0.00032407,-0.00048051,-0.00752086,-0.00022556,-0.00
 035983,-0.00839732,-0.00051459,0.01030715,0.34632976,0.00000053,-0.000
 00064,0.00000011,-0.00000190,0.00000040,-0.00000109,0.00001893,-0.0000
 0073,0.00000148,0.00001242,0.00010163,0.00002514,-0.00003779,-0.000023
 92,-0.00000326,0.00000714,0.00003477,0.00000296,0.00001287,0.00003246,
 0.00000238,-0.00002034,-0.00000575,-0.00000137,0.00000495,0.00000397,-
 0.00000064,0.00000598,-0.00000275,-0.00000033,-0.00000311,0.00000096,0
 .00000166,0.00000274,0.00000025,-0.00000036,-0.00000176,0.00000002,-0.
 00000032,-0.00000093,0.00000010,0.00000005,-0.00000037,0.00000048,-0.0
 0000019,-0.00000053,0.00000051,0.00000033,0.,-0.00000105,0.00000215,-0
 .00000060,-0.00000066,-0.00000141,-0.00000467,0.00000341,0.00000094,-0
 .00000338,0.00000287,-0.00000053,0.00001023,-0.00015901,-0.00004121,-0
 .00000273,-0.00005926,0.00000322,-0.00000009,-0.00000067,0.00000013,-0
 .00000089,-0.00000025,-0.00000208,-0.00000011,-0.00000002,0.00000002,-
 0.00000079,-0.00000265,0.00000018,-0.00000034,0.00000083,0.00000030,-0
 .00000014,0.00000060,-0.00000055,0.00000064,0.00000078,0.00000061,0.00
 000121,-0.00000081,-0.00000009,0.00000009,0.00000035,-0.00000003,0.000
 00081,0.00000047,-0.00000054,-0.00073251,0.00162325,-0.00024424,0.0004
 5988,0.00009745,0.00046177,-0.00248063,-0.00129361,-0.00038558,0.00103
 285,0.01435431,-0.00038671,0.00032201,-0.01059730,-0.04906269,0.000737
 63,-0.00007977,0.00030343,0.00025715,-0.00052965,0.00029283,-0.0012228
 2,-0.03142953,0.00077880,-0.00051574,0.01738163,0.00050261,0.00214413,
 0.01054652,0.04775214\\0.00000013,0.00000061,0.00000059,-0.00000026,0.
 00000029,0.00000066,0.00000026,-0.00000091,0.00000099,-0.00000169,0.00
 000255,0.00000167,0.00000152,0.00000010,-0.00000058,0.00000332,-0.0000
 0064,0.00000056,-0.00000320,-0.00000196,-0.00000033,-0.00000023,0.0000
 0116,0.00000109,0.00000234,-0.00000057,0.00000034,-0.00000073,-0.00000
 054,-0.00000104,0.00000098,-0.00000004,-0.00000074,-0.00000169,0.00000
 044,-0.00000168,0.00000026,-0.00000158,-0.00000037,-0.00000019,0.00000
 029,0.00000111,-0.00000002,0.00000055,0.00000098,0.00000014,0.00000054
 ,0.00000145,-0.00000069,0.00000053,0.00000048,0.00000026,0.00000030,0.
 00000114,-0.00000026,0.00000062,0.00000066,0.00000055,-0.00000057,0.00
 000009,0.00000084,-0.00000144,-0.00000098,0.00000063,0.00000362,0.0000
 0004,-0.00000128,0.00000127,-0.00000137,0.00000026,0.00000010,-0.00000
 042,0.00000122,0.00000017,-0.00000139,0.00000375,0.00000220,0.00000075
 ,0.00000025,-0.00000071,-0.00000014,-0.00000144,-0.00000114,-0.0000031
 0,-0.00000028,-0.00000109,-0.00000197,0.00000038,-0.00000055,-0.000000
 73,0.00000024,-0.00000208,-0.00000048,-0.00000116,-0.00000058,0.000000
 16,0.00000463,-0.00000228,0.00000445,-0.00000424,0.00000046,-0.0000017
 5,-0.00000092,0.00000128,-0.00000193,0.00000266,0.00000098,-0.00000103
 ,-0.00000265,-0.00000120,0.00000124,-0.00000070,-0.00000106,0.00000053
 ,-0.00000124,0.00000005,0.00000143,-0.00000053,0.,0.00000106,-0.000001
 03,0.00000126,-0.00000083,-0.00000018,-0.00000044,-0.00000063\\\@


 IF OTHER PEOPLE ARE GOING TO TALK, CONVERSATION IS SIMPLY IMPOSSIBLE.

                                               -- WHISTLER'S PRINCIPLE
 Job cpu time:       0 days  8 hours 58 minutes  4.7 seconds.
 File lengths (MBytes):  RWF=   1489 Int=      0 D2E=      0 Chk=     37 Scr=      1
 Normal termination of Gaussian 09 at Tue Feb 26 15:40:37 2019.
WARNING: pbs_rusage is deprecated and values produced may not be accurate


=============================================================================
                                     Resource usage:
                                       CPU time:              55:48:56
   JobId:    6169201.r-man2            Elapsed time:          07:03:47
   Project:             q95            Requested time:        50:00:00
   Service Units:     56.50 
                                       Max physical memory:     1576MB
                                       Max virtual memory:      3561MB
                                       Requested memory:           0MB

                                       Number of cpus:               8

                                       Max jobfs disk use:       1.5GB
                                       Requested jobfs:         24.0GB
=============================================================================

