 Entering Gaussian System, Link 0=/apps/gaussian/g09e01/g09/g09
 AtFile(1): /home/507/hio507/Basis/6-31pGd.gbs
 Initial command:
 /apps/gaussian/g09e01/g09/l1.exe "/jobfs/local/8278631.r-man2/Gau-54578.inp" -scrdir="/jobfs/local/8278631.r-man2/"
 Entering Link 1 = /apps/gaussian/g09e01/g09/l1.exe PID=     54579.
  
 Copyright (c) 1988,1990,1992,1993,1995,1998,2003,2009,2015,
            Gaussian, Inc.  All Rights Reserved.
  
 This is part of the Gaussian(R) 09 program.  It is based on
 the Gaussian(R) 03 system (copyright 2003, Gaussian, Inc.),
 the Gaussian(R) 98 system (copyright 1998, Gaussian, Inc.),
 the Gaussian(R) 94 system (copyright 1995, Gaussian, Inc.),
 the Gaussian 92(TM) system (copyright 1992, Gaussian, Inc.),
 the Gaussian 90(TM) system (copyright 1990, Gaussian, Inc.),
 the Gaussian 88(TM) system (copyright 1988, Gaussian, Inc.),
 the Gaussian 86(TM) system (copyright 1986, Carnegie Mellon
 University), and the Gaussian 82(TM) system (copyright 1983,
 Carnegie Mellon University). Gaussian is a federally registered
 trademark of Gaussian, Inc.
  
 This software contains proprietary and confidential information,
 including trade secrets, belonging to Gaussian, Inc.
  
 This software is provided under written license and may be
 used, copied, transmitted, or stored only in accord with that
 written license.
  
 The following legend is applicable only to US Government
 contracts under FAR:
  
                    RESTRICTED RIGHTS LEGEND
  
 Use, reproduction and disclosure by the US Government is
 subject to restrictions as set forth in subparagraphs (a)
 and (c) of the Commercial Computer Software - Restricted
 Rights clause in FAR 52.227-19.
  
 Gaussian, Inc.
 340 Quinnipiac St., Bldg. 40, Wallingford CT 06492
  
  
 ---------------------------------------------------------------
 Warning -- This program may not be used in any manner that
 competes with the business of Gaussian, Inc. or will provide
 assistance to any competitor of Gaussian, Inc.  The licensee
 of this program is prohibited from giving any competitor of
 Gaussian, Inc. access to this program.  By using this program,
 the user acknowledges that Gaussian, Inc. is engaged in the
 business of creating and licensing software in the field of
 computational chemistry and represents and warrants to the
 licensee that it is not a competitor of Gaussian, Inc. and that
 it will not use this program in any manner prohibited above.
 ---------------------------------------------------------------
  

 Cite this work as:
 Gaussian 09, Revision E.01,
 M. J. Frisch, G. W. Trucks, H. B. Schlegel, G. E. Scuseria, 
 M. A. Robb, J. R. Cheeseman, G. Scalmani, V. Barone, B. Mennucci, 
 G. A. Petersson, H. Nakatsuji, M. Caricato, X. Li, H. P. Hratchian, 
 A. F. Izmaylov, J. Bloino, G. Zheng, J. L. Sonnenberg, M. Hada, 
 M. Ehara, K. Toyota, R. Fukuda, J. Hasegawa, M. Ishida, T. Nakajima, 
 Y. Honda, O. Kitao, H. Nakai, T. Vreven, J. A. Montgomery, Jr., 
 J. E. Peralta, F. Ogliaro, M. Bearpark, J. J. Heyd, E. Brothers, 
 K. N. Kudin, V. N. Staroverov, T. Keith, R. Kobayashi, J. Normand, 
 K. Raghavachari, A. Rendell, J. C. Burant, S. S. Iyengar, J. Tomasi, 
 M. Cossi, N. Rega, J. M. Millam, M. Klene, J. E. Knox, J. B. Cross, 
 V. Bakken, C. Adamo, J. Jaramillo, R. Gomperts, R. E. Stratmann, 
 O. Yazyev, A. J. Austin, R. Cammi, C. Pomelli, J. W. Ochterski, 
 R. L. Martin, K. Morokuma, V. G. Zakrzewski, G. A. Voth, 
 P. Salvador, J. J. Dannenberg, S. Dapprich, A. D. Daniels, 
 O. Farkas, J. B. Foresman, J. V. Ortiz, J. Cioslowski, 
 and D. J. Fox, Gaussian, Inc., Wallingford CT, 2013.
 
 ******************************************
 Gaussian 09:  ES64L-G09RevE.01 30-Nov-2015
                 9-Jul-2018 
 ******************************************
 %chk=aryl_urea_Cl_CF3_a1.M062X.SMD.h2o.opt.chk
 %mem=196608000
 %nproc=4
 Will use up to    4 processors via shared memory.
 ----------------------------------------------------------------------
 # M062X/Gen 6D SCF=Tight INT(grid=ultrafine) OPT IOP(2/17=4) Freq=Nora
 man SCRF=(SMD,Solvent=h2o) maxdisk=2147483648
 ----------------------------------------------------------------------
 1/14=-1,18=20,19=15,26=4,38=1/1,3;
 2/9=110,12=2,17=4,18=5,40=1/2;
 3/5=7,8=2,11=2,16=1,25=1,30=1,70=32201,71=1,72=1,74=-55,75=-5/1,2,3;
 4//1;
 5/5=2,32=2,38=5,53=1/2;
 6/7=2,8=2,9=2,10=2,28=1/1;
 7//1,2,3,16;
 1/14=-1,18=20,19=15,26=4/3(2);
 2/9=110,17=4/2;
 99//99;
 2/9=110,17=4/2;
 3/5=7,6=1,8=2,11=2,16=1,25=1,30=1,70=32205,71=1,72=1,74=-55,75=-5,82=7/1,2,3;
 4/5=5,16=3,69=1/1;
 5/5=2,32=2,38=5,53=1/2;
 7//1,2,3,16;
 1/14=-1,18=20,19=15,26=4/3(-5);
 2/9=110,17=4/2;
 6/7=2,8=2,9=2,10=2,19=2,28=1/1;
 99/9=1/99;
 -------------------------------------
 aryl_urea_Cl_CF3_a1.M062X.SMD.h2o.opt
 -------------------------------------
 Symbolic Z-matrix:
 Charge = -1 Multiplicity = 1
 C                    -4.27224   3.07376  -0.71609 
 C                    -4.18195   1.70417  -0.47274 
 C                    -2.97894   1.14791  -0.03458 
 C                    -1.83707   1.94516   0.17122 
 C                    -1.94518   3.33533  -0.08057 
 C                    -3.15533   3.90122  -0.52232 
 H                    -5.21493   3.4836   -1.0553 
 N                    -0.63867   1.28743   0.62411 
 C                     0.58253   1.84663   0.89048 
 N                     1.60549   1.0513    1.3142 
 O                     0.7753    3.04441   0.75639 
 C                     2.92202   1.58861   1.61172 
 C                     3.87841   0.47988   2.06587 
 C                     5.26315   1.03875   2.37974 
 H                    -2.93479   0.08099   0.14737 
 H                    -1.1224    4.01338   0.05133 
 H                     1.44055   0.03856   1.42702 
 H                     2.83344   2.34849   2.41942 
 H                     3.33343   2.07547   0.69993 
 H                     3.97094  -0.28221   1.26158 
 H                     3.47197  -0.0097    2.97764 
 H                     5.70042   1.51648   1.47715 
 H                     5.93218   0.21448   2.70517 
 H                     5.20059   1.78948   3.19619 
 Cl                   -5.58357   0.67726  -0.71772 
 C                    -3.22508   5.3875   -0.77817 
 F                    -2.92583   6.06974   0.38716 
 F                    -4.48219   5.77898  -1.20594 
 F                    -2.3038    5.73087  -1.75097 
 

 GradGradGradGradGradGradGradGradGradGradGradGradGradGradGradGradGradGrad
 Berny optimization.
 Initialization pass.
                           ----------------------------
                           !    Initial Parameters    !
                           ! (Angstroms and Degrees)  !
 --------------------------                            --------------------------
 ! Name  Definition              Value          Derivative Info.                !
 --------------------------------------------------------------------------------
 ! R1    R(1,2)                  1.394          estimate D2E/DX2                !
 ! R2    R(1,6)                  1.4035         estimate D2E/DX2                !
 ! R3    R(1,7)                  1.0824         estimate D2E/DX2                !
 ! R4    R(2,3)                  1.3959         estimate D2E/DX2                !
 ! R5    R(2,25)                 1.7547         estimate D2E/DX2                !
 ! R6    R(3,4)                  1.4078         estimate D2E/DX2                !
 ! R7    R(3,15)                 1.0832         estimate D2E/DX2                !
 ! R8    R(4,5)                  1.4169         estimate D2E/DX2                !
 ! R9    R(4,8)                  1.4401         estimate D2E/DX2                !
 ! R10   R(5,6)                  1.4071         estimate D2E/DX2                !
 ! R11   R(5,16)                 1.0743         estimate D2E/DX2                !
 ! R12   R(6,26)                 1.5098         estimate D2E/DX2                !
 ! R13   R(8,9)                  1.3693         estimate D2E/DX2                !
 ! R14   R(9,10)                 1.3633         estimate D2E/DX2                !
 ! R15   R(9,11)                 1.2206         estimate D2E/DX2                !
 ! R16   R(10,12)                1.4527         estimate D2E/DX2                !
 ! R17   R(10,17)                1.0323         estimate D2E/DX2                !
 ! R18   R(12,13)                1.533          estimate D2E/DX2                !
 ! R19   R(12,18)                1.1125         estimate D2E/DX2                !
 ! R20   R(12,19)                1.1125         estimate D2E/DX2                !
 ! R21   R(13,14)                1.5259         estimate D2E/DX2                !
 ! R22   R(13,20)                1.1119         estimate D2E/DX2                !
 ! R23   R(13,21)                1.1118         estimate D2E/DX2                !
 ! R24   R(14,22)                1.1109         estimate D2E/DX2                !
 ! R25   R(14,23)                1.1104         estimate D2E/DX2                !
 ! R26   R(14,24)                1.1109         estimate D2E/DX2                !
 ! R27   R(26,27)                1.3831         estimate D2E/DX2                !
 ! R28   R(26,28)                1.3844         estimate D2E/DX2                !
 ! R29   R(26,29)                1.3831         estimate D2E/DX2                !
 ! A1    A(2,1,6)              120.2399         estimate D2E/DX2                !
 ! A2    A(2,1,7)              118.8892         estimate D2E/DX2                !
 ! A3    A(6,1,7)              120.8709         estimate D2E/DX2                !
 ! A4    A(1,2,3)              120.1411         estimate D2E/DX2                !
 ! A5    A(1,2,25)             119.9258         estimate D2E/DX2                !
 ! A6    A(3,2,25)             119.9331         estimate D2E/DX2                !
 ! A7    A(2,3,4)              121.2807         estimate D2E/DX2                !
 ! A8    A(2,3,15)             118.7073         estimate D2E/DX2                !
 ! A9    A(4,3,15)             120.012          estimate D2E/DX2                !
 ! A10   A(3,4,5)              117.8892         estimate D2E/DX2                !
 ! A11   A(3,4,8)              117.536          estimate D2E/DX2                !
 ! A12   A(5,4,8)              124.5749         estimate D2E/DX2                !
 ! A13   A(4,5,6)              121.064          estimate D2E/DX2                !
 ! A14   A(4,5,16)             122.6147         estimate D2E/DX2                !
 ! A15   A(6,5,16)             116.3212         estimate D2E/DX2                !
 ! A16   A(1,6,5)              119.385          estimate D2E/DX2                !
 ! A17   A(1,6,26)             121.3491         estimate D2E/DX2                !
 ! A18   A(5,6,26)             119.2658         estimate D2E/DX2                !
 ! A19   A(4,8,9)              128.0841         estimate D2E/DX2                !
 ! A20   A(8,9,10)             119.434          estimate D2E/DX2                !
 ! A21   A(8,9,11)             121.348          estimate D2E/DX2                !
 ! A22   A(10,9,11)            119.218          estimate D2E/DX2                !
 ! A23   A(9,10,12)            121.8629         estimate D2E/DX2                !
 ! A24   A(9,10,17)            119.1062         estimate D2E/DX2                !
 ! A25   A(12,10,17)           119.0309         estimate D2E/DX2                !
 ! A26   A(10,12,13)           111.0103         estimate D2E/DX2                !
 ! A27   A(10,12,18)           109.2178         estimate D2E/DX2                !
 ! A28   A(10,12,19)           109.2167         estimate D2E/DX2                !
 ! A29   A(13,12,18)           109.1829         estimate D2E/DX2                !
 ! A30   A(13,12,19)           109.1834         estimate D2E/DX2                !
 ! A31   A(18,12,19)           109.0001         estimate D2E/DX2                !
 ! A32   A(12,13,14)           111.2348         estimate D2E/DX2                !
 ! A33   A(12,13,20)           109.4714         estimate D2E/DX2                !
 ! A34   A(12,13,21)           109.4715         estimate D2E/DX2                !
 ! A35   A(14,13,20)           108.924          estimate D2E/DX2                !
 ! A36   A(14,13,21)           108.925          estimate D2E/DX2                !
 ! A37   A(20,13,21)           108.7727         estimate D2E/DX2                !
 ! A38   A(13,14,22)           110.3397         estimate D2E/DX2                !
 ! A39   A(13,14,23)           109.5841         estimate D2E/DX2                !
 ! A40   A(13,14,24)           110.3394         estimate D2E/DX2                !
 ! A41   A(22,14,23)           108.6746         estimate D2E/DX2                !
 ! A42   A(22,14,24)           109.1889         estimate D2E/DX2                !
 ! A43   A(23,14,24)           108.6746         estimate D2E/DX2                !
 ! A44   A(6,26,27)            109.44           estimate D2E/DX2                !
 ! A45   A(6,26,28)            111.8821         estimate D2E/DX2                !
 ! A46   A(6,26,29)            109.4399         estimate D2E/DX2                !
 ! A47   A(27,26,28)           108.501          estimate D2E/DX2                !
 ! A48   A(27,26,29)           109.0275         estimate D2E/DX2                !
 ! A49   A(28,26,29)           108.5007         estimate D2E/DX2                !
 ! D1    D(6,1,2,3)              0.0009         estimate D2E/DX2                !
 ! D2    D(6,1,2,25)           179.9999         estimate D2E/DX2                !
 ! D3    D(7,1,2,3)           -179.9996         estimate D2E/DX2                !
 ! D4    D(7,1,2,25)            -0.0006         estimate D2E/DX2                !
 ! D5    D(2,1,6,5)             -0.0003         estimate D2E/DX2                !
 ! D6    D(2,1,6,26)          -179.9991         estimate D2E/DX2                !
 ! D7    D(7,1,6,5)           -179.9998         estimate D2E/DX2                !
 ! D8    D(7,1,6,26)             0.0013         estimate D2E/DX2                !
 ! D9    D(1,2,3,4)             -0.0018         estimate D2E/DX2                !
 ! D10   D(1,2,3,15)          -179.9998         estimate D2E/DX2                !
 ! D11   D(25,2,3,4)           179.9992         estimate D2E/DX2                !
 ! D12   D(25,2,3,15)            0.0011         estimate D2E/DX2                !
 ! D13   D(2,3,4,5)              0.002          estimate D2E/DX2                !
 ! D14   D(2,3,4,8)           -179.9994         estimate D2E/DX2                !
 ! D15   D(15,3,4,5)          -180.0            estimate D2E/DX2                !
 ! D16   D(15,3,4,8)            -0.0013         estimate D2E/DX2                !
 ! D17   D(3,4,5,6)             -0.0014         estimate D2E/DX2                !
 ! D18   D(3,4,5,16)           179.9983         estimate D2E/DX2                !
 ! D19   D(8,4,5,6)           -179.9999         estimate D2E/DX2                !
 ! D20   D(8,4,5,16)            -0.0002         estimate D2E/DX2                !
 ! D21   D(3,4,8,9)            179.9877         estimate D2E/DX2                !
 ! D22   D(5,4,8,9)             -0.0138         estimate D2E/DX2                !
 ! D23   D(4,5,6,1)              0.0005         estimate D2E/DX2                !
 ! D24   D(4,5,6,26)           179.9994         estimate D2E/DX2                !
 ! D25   D(16,5,6,1)          -179.9992         estimate D2E/DX2                !
 ! D26   D(16,5,6,26)           -0.0002         estimate D2E/DX2                !
 ! D27   D(1,6,26,27)          120.2893         estimate D2E/DX2                !
 ! D28   D(1,6,26,28)           -0.0011         estimate D2E/DX2                !
 ! D29   D(1,6,26,29)         -120.2912         estimate D2E/DX2                !
 ! D30   D(5,6,26,27)          -59.7095         estimate D2E/DX2                !
 ! D31   D(5,6,26,28)          180.0            estimate D2E/DX2                !
 ! D32   D(5,6,26,29)           59.7099         estimate D2E/DX2                !
 ! D33   D(4,8,9,10)           179.9996         estimate D2E/DX2                !
 ! D34   D(4,8,9,11)            -0.0019         estimate D2E/DX2                !
 ! D35   D(8,9,10,12)          179.9979         estimate D2E/DX2                !
 ! D36   D(8,9,10,17)           -0.0022         estimate D2E/DX2                !
 ! D37   D(11,9,10,12)          -0.0006         estimate D2E/DX2                !
 ! D38   D(11,9,10,17)         179.9993         estimate D2E/DX2                !
 ! D39   D(9,10,12,13)         179.9987         estimate D2E/DX2                !
 ! D40   D(9,10,12,18)          59.5584         estimate D2E/DX2                !
 ! D41   D(9,10,12,19)         -59.5611         estimate D2E/DX2                !
 ! D42   D(17,10,12,13)         -0.0011         estimate D2E/DX2                !
 ! D43   D(17,10,12,18)       -120.4414         estimate D2E/DX2                !
 ! D44   D(17,10,12,19)        120.4391         estimate D2E/DX2                !
 ! D45   D(10,12,13,14)        179.9976         estimate D2E/DX2                !
 ! D46   D(10,12,13,20)         59.5716         estimate D2E/DX2                !
 ! D47   D(10,12,13,21)        -59.5749         estimate D2E/DX2                !
 ! D48   D(18,12,13,14)        -59.5414         estimate D2E/DX2                !
 ! D49   D(18,12,13,20)       -179.9674         estimate D2E/DX2                !
 ! D50   D(18,12,13,21)         60.8861         estimate D2E/DX2                !
 ! D51   D(19,12,13,14)         59.5377         estimate D2E/DX2                !
 ! D52   D(19,12,13,20)        -60.8883         estimate D2E/DX2                !
 ! D53   D(19,12,13,21)        179.9652         estimate D2E/DX2                !
 ! D54   D(12,13,14,22)        -60.3743         estimate D2E/DX2                !
 ! D55   D(12,13,14,23)        179.9997         estimate D2E/DX2                !
 ! D56   D(12,13,14,24)         60.3739         estimate D2E/DX2                !
 ! D57   D(20,13,14,22)         60.3742         estimate D2E/DX2                !
 ! D58   D(20,13,14,23)        -59.2518         estimate D2E/DX2                !
 ! D59   D(20,13,14,24)       -178.8776         estimate D2E/DX2                !
 ! D60   D(21,13,14,22)        178.8763         estimate D2E/DX2                !
 ! D61   D(21,13,14,23)         59.2503         estimate D2E/DX2                !
 ! D62   D(21,13,14,24)        -60.3754         estimate D2E/DX2                !
 --------------------------------------------------------------------------------
 Trust Radius=3.00D-01 FncErr=1.00D-07 GrdErr=1.00D-06
 Number of steps in this run=    150 maximum allowed number of steps=    174.
 GradGradGradGradGradGradGradGradGradGradGradGradGradGradGradGradGradGrad

                          Input orientation:                          
 ---------------------------------------------------------------------
 Center     Atomic      Atomic             Coordinates (Angstroms)
 Number     Number       Type             X           Y           Z
 ---------------------------------------------------------------------
      1          6           0       -4.272240    3.073760   -0.716090
      2          6           0       -4.181950    1.704170   -0.472740
      3          6           0       -2.978940    1.147910   -0.034580
      4          6           0       -1.837070    1.945160    0.171220
      5          6           0       -1.945180    3.335330   -0.080570
      6          6           0       -3.155330    3.901220   -0.522320
      7          1           0       -5.214930    3.483600   -1.055300
      8          7           0       -0.638670    1.287430    0.624110
      9          6           0        0.582530    1.846630    0.890480
     10          7           0        1.605490    1.051300    1.314200
     11          8           0        0.775300    3.044410    0.756390
     12          6           0        2.922020    1.588610    1.611720
     13          6           0        3.878410    0.479880    2.065870
     14          6           0        5.263150    1.038750    2.379740
     15          1           0       -2.934790    0.080990    0.147370
     16          1           0       -1.122400    4.013380    0.051330
     17          1           0        1.440550    0.038560    1.427020
     18          1           0        2.833440    2.348490    2.419420
     19          1           0        3.333430    2.075470    0.699930
     20          1           0        3.970940   -0.282210    1.261580
     21          1           0        3.471970   -0.009700    2.977640
     22          1           0        5.700420    1.516480    1.477150
     23          1           0        5.932180    0.214480    2.705170
     24          1           0        5.200590    1.789480    3.196190
     25         17           0       -5.583570    0.677260   -0.717720
     26          6           0       -3.225080    5.387500   -0.778170
     27          9           0       -2.925830    6.069740    0.387160
     28          9           0       -4.482190    5.778980   -1.205940
     29          9           0       -2.303800    5.730870   -1.750970
 ---------------------------------------------------------------------
                    Distance matrix (angstroms):
                    1          2          3          4          5
     1  C    0.000000
     2  C    1.393969   0.000000
     3  C    2.417846   1.395938   0.000000
     4  C    2.826855   2.443609   1.407774   0.000000
     5  C    2.426420   2.796001   2.419831   1.416919   0.000000
     6  C    1.403469   2.425579   2.801735   2.458654   1.407067
     7  H    1.082449   2.138409   3.390718   3.909103   3.415164
     8  N    4.264967   3.732504   2.435201   1.440097   2.529315
     9  C    5.258869   4.957715   3.745399   2.526165   3.090062
    10  N    6.539123   6.092114   4.779701   3.735854   4.446283
    11  O    5.258015   5.280278   4.279797   2.894003   2.861145
    12  C    7.705955   7.404372   6.142137   4.985088   5.441003
    13  C    8.994477   8.538901   7.202875   6.197052   6.831910
    14  C   10.229814   9.888849   8.589115   7.490812   7.955339
    15  H    3.389839   2.138845   1.083224   2.163490   3.409107
    16  H    3.375398   3.868843   3.415412   2.191497   1.074298
    17  H    6.814788   6.164077   4.785272   3.994365   4.960311
    18  H    7.800521   7.615473   6.422404   5.199110   5.482610
    19  H    7.800507   7.615376   6.422296   5.199095   5.482714
    20  H    9.117222   8.568733   7.212912   6.315302   7.063175
    21  H    9.117245   8.568837   7.213028   6.315329   7.063100
    22  H   10.329055  10.074648   8.817736   7.661787   8.011860
    23  H   11.136009  10.705789   9.369396   8.353287   8.919241
    24  H   10.329076  10.074740   8.817834   7.661810   8.011794
    25  Cl   2.731813   1.754736   2.733549   4.053893   4.550734
    26  C    2.540431   3.817828   4.311338   3.831138   2.517179
    27  F    3.464950   4.623361   4.940151   4.271322   2.942353
    28  F    2.757217   4.151121   5.007859   4.857098   3.697878
    29  F    3.464963   4.623379   4.940175   4.271329   2.942356
                    6          7          8          9         10
     6  C    0.000000
     7  H    2.168047   0.000000
     8  N    3.805230   5.346563   0.000000
     9  C    4.493211   6.330582   1.369302   0.000000
    10  N    5.844678   7.618973   2.359711   1.363281   0.000000
    11  O    4.221265   6.273593   2.259156   1.220581   2.229990
    12  C    6.843718   8.770059   3.707371   2.461702   1.452746
    13  C    8.238798  10.072381   4.809867   3.756644   2.461238
    14  C    9.353421  11.294554   6.162431   4.977828   3.809726
    15  H    3.884750   4.268865   2.637223   4.005151   4.787185
    16  H    2.115292   4.272482   2.827167   2.881972   4.220206
    17  H    6.312066   7.894658   2.554897   2.072002   1.032267
    18  H    6.850560   8.839594   4.050251   2.766969   2.100494
    19  H    6.850640   8.839577   4.050226   2.766971   2.100483
    20  H    8.453822  10.194580   4.911073   4.018830   2.715948
    21  H    8.453764  10.194606   4.911111   4.018838   2.715972
    22  H    9.386649  11.376631   6.400328   5.161974   4.124487
    23  H   10.324320  12.210092   6.975536   5.880116   4.621181
    24  H    9.386595  11.376654   6.400360   5.161981   4.124505
    25  Cl   4.040848   2.850509   5.159927   6.478775   7.480053
    26  C    1.509752   2.767876   5.046432   5.460773   6.820194
    27  F    2.362690   3.742832   5.306386   5.513309   6.824735
    28  F    2.398724   2.414202   6.188356   6.746091   8.109372
    29  F    2.362690   3.742841   5.306394   5.513210   6.824675
                   11         12         13         14         15
    11  O    0.000000
    12  C    2.731181   0.000000
    13  C    4.233302   1.533042   0.000000
    14  C    5.176749   2.524498   1.525895   0.000000
    15  H    4.787226   6.222496   7.089390   8.550263   0.000000
    16  H    2.244388   4.967057   6.446091   7.419243   4.331013
    17  H    3.150783   2.152097   2.558526   4.064520   4.558827
    18  H    2.736040   1.112494   2.169945   2.760522   6.601231
    19  H    2.736067   1.112498   2.169955   2.760502   6.601050
    20  H    4.640445   2.173200   1.111857   2.159867   7.004462
    21  H    4.640428   2.173195   1.111848   2.159874   7.004657
    22  H    5.206810   2.782592   2.177350   1.110900   8.854140
    23  H    6.196746   3.484958   2.167282   1.110372   9.229481
    24  H    5.206790   2.782584   2.177346   1.110900   8.854301
    25  Cl   6.943459   8.865772   9.864907  11.286110   2.849553
    26  C    4.883440   7.611175   9.090262  10.046595   5.394436
    27  F    4.794509   7.468428   8.964501   9.815326   5.993555
    28  F    6.242581   8.962184  10.425202  11.414838   6.057473
    29  F    4.794244   7.468279   8.964423   9.815166   5.993579
                   16         17         18         19         20
    16  H    0.000000
    17  H    4.925488   0.000000
    18  H    4.901875   2.874157   0.000000
    19  H    4.902101   2.874136   1.811402   0.000000
    20  H    6.771921   2.556000   3.091130   2.506098   0.000000
    21  H    6.771757   2.556055   2.506071   3.091131   1.807787
    22  H    7.403941   4.509241   3.130445   2.553269   2.504567
    23  H    8.440474   4.673260   3.773306   3.773297   2.485380
    24  H    7.403788   4.509278   2.553285   3.130398   3.089766
    25  Cl   5.623448   7.371981   9.136778   9.136608   9.804431
    26  C    2.645286   7.432505   7.494386   7.494556   9.385568
    27  F    2.755677   7.518093   7.151711   7.431713   9.416863
    28  F    3.998282   8.658161   8.856068   8.856198  10.690280
    29  F    2.755678   7.518123   7.431277   7.151729   9.198095
                   21         22         23         24         25
    21  H    0.000000
    22  H    3.089771   0.000000
    23  H    2.485383   1.804702   0.000000
    24  H    2.504584   1.810927   1.804702   0.000000
    25  Cl   9.804611  11.526065  12.022597  11.526224   0.000000
    26  C    9.385433   9.986782  11.079224   9.986651   5.268063
    27  F    9.197936   9.814909  10.868375   9.604685   6.112543
    28  F   10.690174  11.360168  12.438631  11.360065   5.242036
    29  F    9.416656   9.604654  10.868262   9.814521   6.112567
                   26         27         28         29
    26  C    0.000000
    27  F    1.383111   0.000000
    28  F    1.384402   2.246056   0.000000
    29  F    1.383112   2.252411   2.246053   0.000000
 Stoichiometry    C11H11ClF3N2O(1-)
 Framework group  C1[X(C11H11ClF3N2O)]
 Deg. of freedom    81
 Full point group                 C1      NOp   1
 Largest Abelian subgroup         C1      NOp   1
 Largest concise Abelian subgroup C1      NOp   1
                         Standard orientation:                         
 ---------------------------------------------------------------------
 Center     Atomic      Atomic             Coordinates (Angstroms)
 Number     Number       Type             X           Y           Z
 ---------------------------------------------------------------------
      1          6           0        3.007638    0.437831   -0.000041
      2          6           0        2.466741    1.722579   -0.000027
      3          6           0        1.082147    1.900180    0.000065
      4          6           0        0.204056    0.799823    0.000107
      5          6           0        0.769522   -0.499372    0.000097
      6          6           0        2.164412   -0.684085    0.000018
      7          1           0        4.084044    0.323605   -0.000106
      8          7           0       -1.209323    1.075942    0.000188
      9          6           0       -2.244912    0.180095    0.000009
     10          7           0       -3.528367    0.639745    0.000135
     11          8           0       -2.043169   -1.023698   -0.000290
     12          6           0       -4.666357   -0.263279   -0.000088
     13          6           0       -5.986498    0.516107    0.000152
     14          6           0       -7.185495   -0.427694   -0.000139
     15          1           0        0.686940    2.908735    0.000071
     16          1           0        0.170889   -1.391423    0.000154
     17          1           0       -3.696999    1.658145    0.000400
     18          1           0       -4.622357   -0.908060    0.905431
     19          1           0       -4.622378   -0.907557   -0.905970
     20          1           0       -6.035760    1.161953   -0.903552
     21          1           0       -6.035750    1.161410    0.904235
     22          1           0       -7.170420   -1.070848   -0.905802
     23          1           0       -8.125007    0.164121    0.000049
     24          1           0       -7.170411   -1.071409    0.905125
     25         17           0        3.528689    3.119492   -0.000099
     26          6           0        2.723189   -2.086626    0.000023
     27          9           0        2.282497   -2.757708    1.126271
     28          9           0        4.107586   -2.090482   -0.000061
     29          9           0        2.282365   -2.757768   -1.126139
 ---------------------------------------------------------------------
 Rotational constants (GHZ):      0.5155111      0.1533420      0.1211993
 General basis read from cards:  (6D, 7F)
 There are   368 symmetry adapted cartesian basis functions of A   symmetry.
 There are   368 symmetry adapted basis functions of A   symmetry.
   368 basis functions,   644 primitive gaussians,   368 cartesian basis functions
    72 alpha electrons       72 beta electrons
       nuclear repulsion energy      1380.7356878806 Hartrees.
 NAtoms=   29 NActive=   29 NUniq=   29 SFac= 1.00D+00 NAtFMM=   60 NAOKFM=F Big=F
 Integral buffers will be    131072 words long.
 Raffenetti 2 integral format.
 Two-electron integral symmetry is turned on.
 ------------------------------------------------------------------------------
 Polarizable Continuum Model (PCM)
 =================================
 Model                : PCM (using non-symmetric T matrix).
 Atomic radii         : SMD-Coulomb.
 Polarization charges : Total charges.
 Charge compensation  : None.
 Solution method      : On-the-fly selection.
 Cavity type          : VdW (van der Waals Surface) (Alpha=1.000).
 Cavity algorithm     : GePol (No added spheres)
                        Default sphere list used, NSphG=   29.
                        Lebedev-Laikov grids with approx.  5.0 points / Ang**2.
                        Smoothing algorithm: York/Karplus (Gamma=1.0000).
                        Polarization charges: spherical gaussians, with
                                              point-specific exponents (IZeta= 3).
                        Self-potential: point-specific (ISelfS= 7).
                        Self-field    : sphere-specific E.n sum rule (ISelfD= 2).
 1st derivatives      : Analytical E(r).r(x)/FMM algorithm (CHGder, D1EAlg=3).
                        Cavity 1st derivative terms included.
 Solvent              : Water, Eps=  78.355300 Eps(inf)=   1.777849
 ------------------------------------------------------------------------------
 ------------------------------------------------------------------------------
 Atomic radii for non-electrostatic terms: SMD-CDS.
 ------------------------------------------------------------------------------
 Nuclear repulsion after PCM non-electrostatic terms =     1380.7447557551 Hartrees.
 One-electron integrals computed using PRISM.
 NBasis=   368 RedAO= T EigKep=  1.35D-06  NBF=   368
 NBsUse=   367 1.00D-06 EigRej=  7.91D-07 NBFU=   367
 ExpMin= 4.38D-02 ExpMax= 2.52D+04 ExpMxC= 3.78D+03 IAcc=3 IRadAn=         5 AccDes= 0.00D+00
 Harris functional with IExCor= 1009 and IRadAn=       5 diagonalized for initial guess.
 HarFok:  IExCor= 1009 AccDes= 0.00D+00 IRadAn=         5 IDoV= 1 UseB2=F ITyADJ=14
 ICtDFT=  3500011 ScaDFX=  1.000000  1.000000  1.000000  1.000000
 FoFCou: FMM=F IPFlag=           0 FMFlag=      100000 FMFlg1=           0
         NFxFlg=           0 DoJE=T BraDBF=F KetDBF=T FulRan=T
         wScrn=  0.000000 ICntrl=     500 IOpCl=  0 I1Cent=   200000004 NGrid=           0
         NMat0=    1 NMatS0=      1 NMatT0=    0 NMatD0=    1 NMtDS0=    0 NMtDT0=    0
 Petite list used in FoFCou.
 Requested convergence on RMS density matrix=1.00D-08 within 128 cycles.
 Requested convergence on MAX density matrix=1.00D-06.
 Requested convergence on             energy=1.00D-06.
 No special actions if energy rises.
 Inv3:  Mode=1 IEnd=    18421452.
 Iteration    1 A*A^-1 deviation from unit magnitude is 5.33D-15 for   2458.
 Iteration    1 A*A^-1 deviation from orthogonality  is 3.09D-15 for   1859   1354.
 Iteration    1 A^-1*A deviation from unit magnitude is 5.33D-15 for   2460.
 Iteration    1 A^-1*A deviation from orthogonality  is 9.36D-13 for   1350   1301.
 Error on total polarization charges =  0.04996
 SCF Done:  E(RM062X) =  -1370.05235009     A.U. after   15 cycles
            NFock= 15  Conv=0.75D-08     -V/T= 2.0068
 SMD-CDS (non-electrostatic) energy       (kcal/mol) =       5.69
 (included in total energy above)

 **********************************************************************

            Population analysis using the SCF density.

 **********************************************************************

 Orbital symmetries:
       Occupied  (A) (A) (A) (A) (A) (A) (A) (A) (A) (A) (A) (A)
                 (A) (A) (A) (A) (A) (A) (A) (A) (A) (A) (A) (A)
                 (A) (A) (A) (A) (A) (A) (A) (A) (A) (A) (A) (A)
                 (A) (A) (A) (A) (A) (A) (A) (A) (A) (A) (A) (A)
                 (A) (A) (A) (A) (A) (A) (A) (A) (A) (A) (A) (A)
                 (A) (A) (A) (A) (A) (A) (A) (A) (A) (A) (A) (A)
       Virtual   (A) (A) (A) (A) (A) (A) (A) (A) (A) (A) (A) (A)
                 (A) (A) (A) (A) (A) (A) (A) (A) (A) (A) (A) (A)
                 (A) (A) (A) (A) (A) (A) (A) (A) (A) (A) (A) (A)
                 (A) (A) (A) (A) (A) (A) (A) (A) (A) (A) (A) (A)
                 (A) (A) (A) (A) (A) (A) (A) (A) (A) (A) (A) (A)
                 (A) (A) (A) (A) (A) (A) (A) (A) (A) (A) (A) (A)
                 (A) (A) (A) (A) (A) (A) (A) (A) (A) (A) (A) (A)
                 (A) (A) (A) (A) (A) (A) (A) (A) (A) (A) (A) (A)
                 (A) (A) (A) (A) (A) (A) (A) (A) (A) (A) (A) (A)
                 (A) (A) (A) (A) (A) (A) (A) (A) (A) (A) (A) (A)
                 (A) (A) (A) (A) (A) (A) (A) (A) (A) (A) (A) (A)
                 (A) (A) (A) (A) (A) (A) (A) (A) (A) (A) (A) (A)
                 (A) (A) (A) (A) (A) (A) (A) (A) (A) (A) (A) (A)
                 (A) (A) (A) (A) (A) (A) (A) (A) (A) (A) (A) (A)
                 (A) (A) (A) (A) (A) (A) (A) (A) (A) (A) (A) (A)
                 (A) (A) (A) (A) (A) (A) (A) (A) (A) (A) (A) (A)
                 (A) (A) (A) (A) (A) (A) (A) (A) (A) (A) (A) (A)
                 (A) (A) (A) (A) (A) (A) (A) (A) (A) (A) (A) (A)
                 (A) (A) (A) (A) (A) (A) (A) (A) (A) (A) (A) (A)
                 (A) (A) (A) (A) (A) (A) (A) (A) (A) (A) (A) (A)
                 (A) (A) (A) (A) (A) (A) (A) (A) (A) (A) (A) (A)
                 (A) (A) (A) (A) (A) (A) (A) (A) (A) (A) (A) (A)
                 (A) (A) (A) (A) (A) (A) (A) (A) (A) (A) (A) (A)
                 (A) (A) (A) (A) (A) (A) (A) (A) (A) (A) (A) (A)
                 (A) (A) (A) (A) (A) (A) (A)
 The electronic state is 1-A.
 Alpha  occ. eigenvalues -- -102.67746 -25.31070 -25.30855 -25.30854 -19.58690
 Alpha  occ. eigenvalues --  -14.76113 -14.70519 -10.82559 -10.64506 -10.62061
 Alpha  occ. eigenvalues --  -10.59812 -10.58483 -10.57149 -10.56368 -10.55769
 Alpha  occ. eigenvalues --  -10.55288 -10.54146 -10.53230  -9.82384  -7.54782
 Alpha  occ. eigenvalues --   -7.54132  -7.54117  -1.44860  -1.37148  -1.37088
 Alpha  occ. eigenvalues --   -1.15580  -1.00736  -1.00101  -0.95971  -0.93016
 Alpha  occ. eigenvalues --   -0.87464  -0.86119  -0.82197  -0.80427  -0.75948
 Alpha  occ. eigenvalues --   -0.71578  -0.70055  -0.68506  -0.67643  -0.66526
 Alpha  occ. eigenvalues --   -0.64366  -0.61961  -0.57975  -0.57478  -0.57243
 Alpha  occ. eigenvalues --   -0.55730  -0.54702  -0.54341  -0.53842  -0.53111
 Alpha  occ. eigenvalues --   -0.52025  -0.52003  -0.51118  -0.49561  -0.48753
 Alpha  occ. eigenvalues --   -0.48035  -0.46985  -0.45408  -0.44424  -0.43920
 Alpha  occ. eigenvalues --   -0.42429  -0.41248  -0.40621  -0.38972  -0.38720
 Alpha  occ. eigenvalues --   -0.38382  -0.34935  -0.34768  -0.30581  -0.30483
 Alpha  occ. eigenvalues --   -0.27955  -0.23464
 Alpha virt. eigenvalues --   -0.00107   0.01582   0.02017   0.03003   0.03054
 Alpha virt. eigenvalues --    0.04100   0.04263   0.04469   0.05051   0.05447
 Alpha virt. eigenvalues --    0.05898   0.06212   0.06423   0.07494   0.07741
 Alpha virt. eigenvalues --    0.08374   0.08448   0.08520   0.09691   0.10234
 Alpha virt. eigenvalues --    0.10451   0.10994   0.11153   0.11889   0.12191
 Alpha virt. eigenvalues --    0.12785   0.13444   0.13577   0.13904   0.14258
 Alpha virt. eigenvalues --    0.14487   0.15327   0.15502   0.15849   0.16571
 Alpha virt. eigenvalues --    0.17953   0.18375   0.18377   0.19289   0.19532
 Alpha virt. eigenvalues --    0.19827   0.20667   0.21003   0.21149   0.21265
 Alpha virt. eigenvalues --    0.21725   0.22394   0.22727   0.23446   0.23751
 Alpha virt. eigenvalues --    0.24163   0.24407   0.24775   0.25459   0.25543
 Alpha virt. eigenvalues --    0.26351   0.26846   0.27429   0.27628   0.28052
 Alpha virt. eigenvalues --    0.29031   0.29240   0.29848   0.30078   0.30167
 Alpha virt. eigenvalues --    0.30776   0.30956   0.31321   0.31904   0.32226
 Alpha virt. eigenvalues --    0.33110   0.33543   0.33601   0.33785   0.33986
 Alpha virt. eigenvalues --    0.35233   0.36124   0.36494   0.37321   0.37506
 Alpha virt. eigenvalues --    0.38637   0.38887   0.39016   0.39318   0.39564
 Alpha virt. eigenvalues --    0.40051   0.40875   0.42063   0.42421   0.43669
 Alpha virt. eigenvalues --    0.44877   0.44945   0.45770   0.46341   0.48638
 Alpha virt. eigenvalues --    0.49138   0.51976   0.52584   0.54277   0.55213
 Alpha virt. eigenvalues --    0.56962   0.59269   0.60531   0.62850   0.64961
 Alpha virt. eigenvalues --    0.69119   0.69869   0.70434   0.70516   0.71428
 Alpha virt. eigenvalues --    0.71837   0.74251   0.74980   0.75578   0.75608
 Alpha virt. eigenvalues --    0.76233   0.77759   0.79143   0.79170   0.80784
 Alpha virt. eigenvalues --    0.81255   0.81259   0.82759   0.84489   0.85010
 Alpha virt. eigenvalues --    0.85993   0.87461   0.87635   0.89123   0.90205
 Alpha virt. eigenvalues --    0.90990   0.91175   0.93869   0.95155   0.98072
 Alpha virt. eigenvalues --    0.98684   0.98947   1.00257   1.00456   1.01149
 Alpha virt. eigenvalues --    1.01367   1.03641   1.05777   1.06138   1.06820
 Alpha virt. eigenvalues --    1.07597   1.09309   1.11094   1.12914   1.13323
 Alpha virt. eigenvalues --    1.13993   1.14532   1.15726   1.17463   1.18003
 Alpha virt. eigenvalues --    1.19240   1.21584   1.22276   1.23349   1.23896
 Alpha virt. eigenvalues --    1.24944   1.27170   1.28877   1.29598   1.31043
 Alpha virt. eigenvalues --    1.34688   1.34731   1.37196   1.38956   1.40358
 Alpha virt. eigenvalues --    1.42594   1.42818   1.43948   1.45775   1.47394
 Alpha virt. eigenvalues --    1.48027   1.48908   1.52514   1.52684   1.52956
 Alpha virt. eigenvalues --    1.54696   1.55426   1.57808   1.58992   1.61583
 Alpha virt. eigenvalues --    1.62121   1.65034   1.65081   1.67944   1.68257
 Alpha virt. eigenvalues --    1.70297   1.73736   1.73994   1.74721   1.75238
 Alpha virt. eigenvalues --    1.76393   1.79052   1.79878   1.82792   1.84840
 Alpha virt. eigenvalues --    1.85534   1.86797   1.87350   1.87422   1.88041
 Alpha virt. eigenvalues --    1.88481   1.90151   1.90608   1.91196   1.91582
 Alpha virt. eigenvalues --    1.93033   1.95111   1.96062   1.98021   1.98664
 Alpha virt. eigenvalues --    1.98944   2.02584   2.03132   2.04374   2.04540
 Alpha virt. eigenvalues --    2.04988   2.05078   2.06017   2.06871   2.07990
 Alpha virt. eigenvalues --    2.09158   2.09358   2.10145   2.13997   2.15459
 Alpha virt. eigenvalues --    2.18558   2.21648   2.22049   2.22660   2.22817
 Alpha virt. eigenvalues --    2.24133   2.27458   2.28797   2.28868   2.29374
 Alpha virt. eigenvalues --    2.30840   2.32165   2.36984   2.38399   2.40267
 Alpha virt. eigenvalues --    2.41928   2.41942   2.43960   2.48162   2.50184
 Alpha virt. eigenvalues --    2.53291   2.60164   2.63024   2.65441   2.66721
 Alpha virt. eigenvalues --    2.67117   2.69266   2.74401   2.75275   2.76340
 Alpha virt. eigenvalues --    2.76472   2.78040   2.80687   2.82316   2.83617
 Alpha virt. eigenvalues --    2.89676   2.92532   2.98756   3.04493   3.11408
 Alpha virt. eigenvalues --    3.13663   3.15419   3.25937   3.27688   3.29370
 Alpha virt. eigenvalues --    3.35926   3.42256   4.18172   4.27041   4.27981
 Alpha virt. eigenvalues --    4.33065   4.37294   4.41159   4.43337   4.44792
 Alpha virt. eigenvalues --    4.46871   4.51494   4.51790   4.59077   4.62147
 Alpha virt. eigenvalues --    4.67874   4.80393   5.45086   5.97876   6.78448
          Condensed to atoms (all electrons):
               1          2          3          4          5          6
     1  C   22.164610  -3.834128  -2.820419  -0.936068  -2.393284  -6.891531
     2  C   -3.834128   9.171935  -1.615790   1.872211  -0.286919   1.288371
     3  C   -2.820419  -1.615790  16.484720  -1.919786  -2.123520  -0.914926
     4  C   -0.936068   1.872211  -1.919786  15.282817  -2.496068  -2.492914
     5  C   -2.393284  -0.286919  -2.123520  -2.496068  10.473653   2.353789
     6  C   -6.891531   1.288371  -0.914926  -2.492914   2.353789  14.015669
     7  H    0.325822  -0.019963   0.026306   0.013299   0.019056  -0.040051
     8  N    0.062636   0.093827  -0.203977   0.296391  -0.210871  -0.012334
     9  C    0.551649  -0.120125  -0.914708  -0.701980  -0.142968   0.085741
    10  N    0.006453  -0.004001  -0.027058  -0.128931   0.003338   0.034383
    11  O   -0.017962   0.020332  -0.158090  -0.241102   0.291055   0.090802
    12  C    0.032135  -0.005006  -0.092154  -0.352330  -0.007582   0.030101
    13  C    0.000386  -0.001243   0.006286  -0.002521   0.007881   0.000257
    14  C    0.000143  -0.000068  -0.002191  -0.007647   0.003473   0.000790
    15  H    0.033067  -0.094886   0.491580  -0.127590  -0.000392   0.021646
    16  H    0.076901  -0.016032  -0.031818  -0.133284   0.347631  -0.006346
    17  H   -0.000133   0.000296   0.000819   0.019997  -0.004908  -0.000612
    18  H   -0.000001  -0.000030  -0.000601  -0.004692   0.002245   0.000149
    19  H   -0.000001  -0.000030  -0.000606  -0.004710   0.002254   0.000150
    20  H    0.000003  -0.000005   0.000129  -0.000681  -0.000123  -0.000005
    21  H    0.000003  -0.000005   0.000129  -0.000683  -0.000121  -0.000004
    22  H    0.000000   0.000000   0.000005   0.000030  -0.000031  -0.000000
    23  H    0.000000  -0.000000  -0.000002  -0.000046   0.000008   0.000000
    24  H    0.000000   0.000000   0.000005   0.000030  -0.000031  -0.000000
    25  Cl  -0.175844  -0.064158   0.009481   0.007652   0.015957   0.038375
    26  C    1.115617  -0.934213   0.763336  -1.895755  -0.249754  -1.318688
    27  F   -0.096295   0.033668  -0.015700   0.060310  -0.043623   0.085871
    28  F   -0.123672   0.116400   0.009776   0.026936   0.058285  -0.045134
    29  F   -0.096273   0.033663  -0.015706   0.060295  -0.043641   0.085889
               7          8          9         10         11         12
     1  C    0.325822   0.062636   0.551649   0.006453  -0.017962   0.032135
     2  C   -0.019963   0.093827  -0.120125  -0.004001   0.020332  -0.005006
     3  C    0.026306  -0.203977  -0.914708  -0.027058  -0.158090  -0.092154
     4  C    0.013299   0.296391  -0.701980  -0.128931  -0.241102  -0.352330
     5  C    0.019056  -0.210871  -0.142968   0.003338   0.291055  -0.007582
     6  C   -0.040051  -0.012334   0.085741   0.034383   0.090802   0.030101
     7  H    0.431219   0.000066   0.001156  -0.000000   0.000006   0.000005
     8  N    0.000066   7.809445   0.324088  -0.319813  -0.130645  -0.049788
     9  C    0.001156   0.324088   5.933650   0.386188   0.475894  -0.575013
    10  N   -0.000000  -0.319813   0.386188   7.714484  -0.238536   0.215994
    11  O    0.000006  -0.130645   0.475894  -0.238536   8.783800  -0.072923
    12  C    0.000005  -0.049788  -0.575013   0.215994  -0.072923   6.833381
    13  C    0.000000   0.001615   0.142998  -0.067268   0.019868  -0.416729
    14  C    0.000000  -0.001220  -0.034394  -0.008009  -0.004163   0.026394
    15  H   -0.000121   0.001001  -0.026100  -0.000302   0.000112  -0.001044
    16  H   -0.000115  -0.003276   0.043539   0.000995  -0.003988   0.006354
    17  H   -0.000000   0.023922   0.024560   0.248017   0.011049  -0.072374
    18  H    0.000000  -0.000994  -0.029588  -0.057938   0.003306   0.433929
    19  H    0.000000  -0.000993  -0.029636  -0.057941   0.003307   0.433994
    20  H   -0.000000  -0.000013  -0.007239   0.005813  -0.000197  -0.074094
    21  H   -0.000000  -0.000012  -0.007237   0.005812  -0.000197  -0.074089
    22  H   -0.000000   0.000020   0.000519   0.000464  -0.000053  -0.009090
    23  H    0.000000   0.000008  -0.002083   0.000472   0.000006   0.027252
    24  H   -0.000000   0.000020   0.000518   0.000464  -0.000053  -0.009094
    25  Cl   0.001828  -0.004993  -0.012193  -0.000019  -0.000349  -0.000437
    26  C   -0.031688   0.016970  -0.091426   0.004531  -0.002179  -0.005288
    27  F   -0.000109  -0.000085   0.003122  -0.000031   0.000081   0.000045
    28  F    0.007943   0.000136   0.002013   0.000003  -0.000015   0.000029
    29  F   -0.000109  -0.000085   0.003128  -0.000031   0.000080   0.000045
              13         14         15         16         17         18
     1  C    0.000386   0.000143   0.033067   0.076901  -0.000133  -0.000001
     2  C   -0.001243  -0.000068  -0.094886  -0.016032   0.000296  -0.000030
     3  C    0.006286  -0.002191   0.491580  -0.031818   0.000819  -0.000601
     4  C   -0.002521  -0.007647  -0.127590  -0.133284   0.019997  -0.004692
     5  C    0.007881   0.003473  -0.000392   0.347631  -0.004908   0.002245
     6  C    0.000257   0.000790   0.021646  -0.006346  -0.000612   0.000149
     7  H    0.000000   0.000000  -0.000121  -0.000115  -0.000000   0.000000
     8  N    0.001615  -0.001220   0.001001  -0.003276   0.023922  -0.000994
     9  C    0.142998  -0.034394  -0.026100   0.043539   0.024560  -0.029588
    10  N   -0.067268  -0.008009  -0.000302   0.000995   0.248017  -0.057938
    11  O    0.019868  -0.004163   0.000112  -0.003988   0.011049   0.003306
    12  C   -0.416729   0.026394  -0.001044   0.006354  -0.072374   0.433929
    13  C    6.189067  -0.070727   0.000047  -0.000064   0.001838  -0.043273
    14  C   -0.070727   5.648347  -0.000001   0.000012  -0.003698   0.003443
    15  H    0.000047  -0.000001   0.439886  -0.000086   0.000004  -0.000000
    16  H   -0.000064   0.000012  -0.000086   0.435250   0.000001  -0.000000
    17  H    0.001838  -0.003698   0.000004   0.000001   0.278370   0.002144
    18  H   -0.043273   0.003443  -0.000000  -0.000000   0.002144   0.515730
    19  H   -0.043289   0.003457  -0.000000   0.000000   0.002144  -0.042348
    20  H    0.426645  -0.035530  -0.000000  -0.000000   0.000479   0.003844
    21  H    0.426633  -0.035524  -0.000000  -0.000000   0.000479  -0.005636
    22  H   -0.062731   0.414935  -0.000000  -0.000000   0.000000  -0.000326
    23  H   -0.087972   0.413080  -0.000000  -0.000000  -0.000003  -0.000058
    24  H   -0.062726   0.414933  -0.000000  -0.000000   0.000000   0.002671
    25  Cl   0.000023  -0.000002   0.002466   0.000013  -0.000002  -0.000000
    26  C    0.000536   0.000024   0.006178   0.004417  -0.000019  -0.000006
    27  F   -0.000000  -0.000000   0.000001   0.000727   0.000000   0.000000
    28  F   -0.000000   0.000000  -0.000001   0.000237  -0.000000  -0.000000
    29  F   -0.000000  -0.000000   0.000001   0.000727   0.000000   0.000000
              19         20         21         22         23         24
     1  C   -0.000001   0.000003   0.000003   0.000000   0.000000   0.000000
     2  C   -0.000030  -0.000005  -0.000005   0.000000  -0.000000   0.000000
     3  C   -0.000606   0.000129   0.000129   0.000005  -0.000002   0.000005
     4  C   -0.004710  -0.000681  -0.000683   0.000030  -0.000046   0.000030
     5  C    0.002254  -0.000123  -0.000121  -0.000031   0.000008  -0.000031
     6  C    0.000150  -0.000005  -0.000004  -0.000000   0.000000  -0.000000
     7  H    0.000000  -0.000000  -0.000000  -0.000000   0.000000  -0.000000
     8  N   -0.000993  -0.000013  -0.000012   0.000020   0.000008   0.000020
     9  C   -0.029636  -0.007239  -0.007237   0.000519  -0.002083   0.000518
    10  N   -0.057941   0.005813   0.005812   0.000464   0.000472   0.000464
    11  O    0.003307  -0.000197  -0.000197  -0.000053   0.000006  -0.000053
    12  C    0.433994  -0.074094  -0.074089  -0.009090   0.027252  -0.009094
    13  C   -0.043289   0.426645   0.426633  -0.062731  -0.087972  -0.062726
    14  C    0.003457  -0.035530  -0.035524   0.414935   0.413080   0.414933
    15  H   -0.000000  -0.000000  -0.000000  -0.000000  -0.000000  -0.000000
    16  H    0.000000  -0.000000  -0.000000  -0.000000  -0.000000  -0.000000
    17  H    0.002144   0.000479   0.000479   0.000000  -0.000003   0.000000
    18  H   -0.042348   0.003844  -0.005636  -0.000326  -0.000058   0.002671
    19  H    0.515731  -0.005636   0.003844   0.002671  -0.000058  -0.000326
    20  H   -0.005636   0.494479  -0.031020  -0.004583  -0.002994   0.003811
    21  H    0.003844  -0.031020   0.494475   0.003811  -0.002994  -0.004583
    22  H    0.002671  -0.004583   0.003811   0.488768  -0.024049  -0.028492
    23  H   -0.000058  -0.002994  -0.002994  -0.024049   0.484375  -0.024049
    24  H   -0.000326   0.003811  -0.004583  -0.028492  -0.024049   0.488770
    25  Cl  -0.000000  -0.000000  -0.000000   0.000000  -0.000000   0.000000
    26  C   -0.000006  -0.000000  -0.000000  -0.000000  -0.000000  -0.000000
    27  F    0.000000  -0.000000  -0.000000  -0.000000   0.000000  -0.000000
    28  F   -0.000000   0.000000   0.000000   0.000000  -0.000000   0.000000
    29  F    0.000000  -0.000000  -0.000000  -0.000000   0.000000  -0.000000
              25         26         27         28         29
     1  C   -0.175844   1.115617  -0.096295  -0.123672  -0.096273
     2  C   -0.064158  -0.934213   0.033668   0.116400   0.033663
     3  C    0.009481   0.763336  -0.015700   0.009776  -0.015706
     4  C    0.007652  -1.895755   0.060310   0.026936   0.060295
     5  C    0.015957  -0.249754  -0.043623   0.058285  -0.043641
     6  C    0.038375  -1.318688   0.085871  -0.045134   0.085889
     7  H    0.001828  -0.031688  -0.000109   0.007943  -0.000109
     8  N   -0.004993   0.016970  -0.000085   0.000136  -0.000085
     9  C   -0.012193  -0.091426   0.003122   0.002013   0.003128
    10  N   -0.000019   0.004531  -0.000031   0.000003  -0.000031
    11  O   -0.000349  -0.002179   0.000081  -0.000015   0.000080
    12  C   -0.000437  -0.005288   0.000045   0.000029   0.000045
    13  C    0.000023   0.000536  -0.000000  -0.000000  -0.000000
    14  C   -0.000002   0.000024  -0.000000   0.000000  -0.000000
    15  H    0.002466   0.006178   0.000001  -0.000001   0.000001
    16  H    0.000013   0.004417   0.000727   0.000237   0.000727
    17  H   -0.000002  -0.000019   0.000000  -0.000000   0.000000
    18  H   -0.000000  -0.000006   0.000000  -0.000000   0.000000
    19  H   -0.000000  -0.000006   0.000000  -0.000000   0.000000
    20  H   -0.000000  -0.000000  -0.000000   0.000000  -0.000000
    21  H   -0.000000  -0.000000  -0.000000   0.000000  -0.000000
    22  H    0.000000  -0.000000  -0.000000   0.000000  -0.000000
    23  H   -0.000000  -0.000000   0.000000  -0.000000   0.000000
    24  H    0.000000  -0.000000  -0.000000   0.000000  -0.000000
    25  Cl  17.023398  -0.010530  -0.000211  -0.000775  -0.000211
    26  C   -0.010530   6.871260   0.098771   0.070620   0.098769
    27  F   -0.000211   0.098771   9.238623  -0.036212  -0.048767
    28  F   -0.000775   0.070620  -0.036212   9.292638  -0.036212
    29  F   -0.000211   0.098769  -0.048767  -0.036212   9.238625
 Mulliken charges:
               1
     1  C   -0.983813
     2  C    0.365899
     3  C   -0.935521
     4  C   -0.193181
     5  C    0.425212
     6  C   -0.409438
     7  H    0.265450
     8  N   -0.691047
     9  C    0.715925
    10  N   -0.717535
    11  O   -0.829246
    12  C   -0.222623
    13  C   -0.365536
    14  C   -0.725857
    15  H    0.254533
    16  H    0.278204
    17  H    0.467631
    18  H    0.218030
    19  H    0.218029
    20  H    0.226917
    21  H    0.226920
    22  H    0.218132
    23  H    0.219108
    24  H    0.218131
    25  Cl   0.170529
    26  C    1.488521
    27  F   -0.280186
    28  F   -0.342997
    29  F   -0.280189
 Sum of Mulliken charges =  -1.00000
 Mulliken charges with hydrogens summed into heavy atoms:
               1
     1  C   -0.718364
     2  C    0.365899
     3  C   -0.680988
     4  C   -0.193181
     5  C    0.703416
     6  C   -0.409438
     8  N   -0.691047
     9  C    0.715925
    10  N   -0.249904
    11  O   -0.829246
    12  C    0.213435
    13  C    0.088300
    14  C   -0.070486
    25  Cl   0.170529
    26  C    1.488521
    27  F   -0.280186
    28  F   -0.342997
    29  F   -0.280189
 Electronic spatial extent (au):  <R**2>=           8309.2460
 Charge=             -1.0000 electrons
 Dipole moment (field-independent basis, Debye):
    X=             -0.6986    Y=              1.4682    Z=              0.0006  Tot=              1.6259
 Quadrupole moment (field-independent basis, Debye-Ang):
   XX=           -118.3650   YY=           -131.4188   ZZ=           -118.5240
   XY=             -5.7332   XZ=             -0.0024   YZ=             -0.0017
 Traceless Quadrupole moment (field-independent basis, Debye-Ang):
   XX=              4.4043   YY=             -8.6496   ZZ=              4.2453
   XY=             -5.7332   XZ=             -0.0024   YZ=             -0.0017
 Octapole moment (field-independent basis, Debye-Ang**2):
  XXX=            -58.6270  YYY=            -33.2449  ZZZ=             -0.0026  XYY=             -7.5929
  XXY=             15.0012  XXZ=              0.0077  XZZ=             10.1765  YZZ=            -15.5617
  YYZ=              0.0028  XYZ=              0.0028
 Hexadecapole moment (field-independent basis, Debye-Ang**3):
 XXXX=          -8153.5796 YYYY=          -2158.5009 ZZZZ=           -225.4634 XXXY=           -237.7777
 XXXZ=             -0.0450 YYYX=           -117.4835 YYYZ=             -0.0055 ZZZX=              0.0041
 ZZZY=             -0.0022 XXYY=          -1869.5305 XXZZ=          -1463.2794 YYZZ=           -407.2126
 XXYZ=             -0.0028 YYXZ=             -0.0108 ZZXY=            -25.3843
 N-N= 1.380744755755D+03 E-N=-6.006280869044D+03  KE= 1.360857969298D+03
 D1PCM: PCM CHGder 1st derivatives, ID1Alg=3 FixD1E=F DoIter=F DoCFld=F I1PDM=0.
 Calling FoFJK, ICntrl=      2127 FMM=F ISym2X=0 I1Cent= 0 IOpClX= 0 NMat=1 NMatS=1 NMatT=0.
 ***** Axes restored to original set *****
 -------------------------------------------------------------------
 Center     Atomic                   Forces (Hartrees/Bohr)
 Number     Number              X              Y              Z
 -------------------------------------------------------------------
      1        6          -0.010349557    0.011123140   -0.004775342
      2        6           0.019827990    0.005322465    0.004927131
      3        6          -0.012536433   -0.004186048   -0.002986389
      4        6           0.059510746    0.000381792    0.017249426
      5        6          -0.016389337    0.012158579   -0.006694925
      6        6          -0.001145167   -0.024706952    0.003584751
      7        1          -0.001568265    0.002172225   -0.000800444
      8        7          -0.023365502   -0.024774108   -0.002863416
      9        6          -0.055652400   -0.026406997   -0.011990710
     10        7          -0.005665581   -0.029615271    0.003056433
     11        8           0.028174060    0.069224037   -0.002799022
     12        6           0.002839871    0.002328182    0.000453505
     13        6          -0.004345364   -0.003370716   -0.000734488
     14        6           0.005141776    0.000537211    0.001411137
     15        1           0.002868281   -0.001846417    0.001127510
     16        1           0.008329172   -0.002024965    0.002744128
     17        1           0.002400510    0.016756300   -0.001962427
     18        1           0.002879697   -0.004352158   -0.008596589
     19        1          -0.002425308   -0.001455478    0.009652885
     20        1          -0.003264381    0.005114922    0.007896507
     21        1           0.001795898    0.002349526   -0.009504509
     22        1          -0.002337474   -0.003349483    0.009396938
     23        1          -0.004194881    0.009537189   -0.002734296
     24        1           0.002664655   -0.006080947   -0.007804163
     25       17           0.004008997    0.003342121    0.000636516
     26        6          -0.003402723   -0.008384558    0.000337688
     27        9          -0.006907532   -0.004041900   -0.034407097
     28        9           0.037337627   -0.001146409    0.011044508
     29        9          -0.024229378    0.005394718    0.025134755
 -------------------------------------------------------------------
 Cartesian Forces:  Max     0.069224037 RMS     0.016167618

 GradGradGradGradGradGradGradGradGradGradGradGradGradGradGradGradGradGrad
 Berny optimization.
 FormGI is forming the generalized inverse of G from B-inverse, IUseBI=4.
 Internal  Forces:  Max     0.072687465 RMS     0.012089946
 Search for a local minimum.
 Step number   1 out of a maximum of  150
 All quantities printed in internal units (Hartrees-Bohrs-Radians)
 Mixed Optimization -- RFO/linear search
 Second derivative matrix not updated -- first step.
 ITU=  0
     Eigenvalues ---    0.00329   0.00423   0.00637   0.00994   0.01161
     Eigenvalues ---    0.01460   0.01468   0.01788   0.01921   0.01944
     Eigenvalues ---    0.02030   0.02060   0.02098   0.02102   0.02124
     Eigenvalues ---    0.02150   0.02156   0.02177   0.03755   0.04435
     Eigenvalues ---    0.04933   0.05553   0.05673   0.05783   0.08033
     Eigenvalues ---    0.09179   0.11002   0.11428   0.11975   0.12669
     Eigenvalues ---    0.16000   0.16000   0.16000   0.16000   0.16000
     Eigenvalues ---    0.16000   0.16000   0.21964   0.22000   0.22004
     Eigenvalues ---    0.23452   0.23477   0.23501   0.25000   0.25000
     Eigenvalues ---    0.25000   0.25000   0.25000   0.25000   0.25000
     Eigenvalues ---    0.25000   0.25000   0.29144   0.29806   0.30033
     Eigenvalues ---    0.31375   0.32337   0.32337   0.32404   0.32405
     Eigenvalues ---    0.32505   0.32505   0.32561   0.35608   0.35700
     Eigenvalues ---    0.36692   0.37887   0.39572   0.40626   0.41157
     Eigenvalues ---    0.42437   0.43936   0.44749   0.45525   0.46257
     Eigenvalues ---    0.48306   0.48538   0.48538   0.51111   0.52290
     Eigenvalues ---    0.95126
 RFO step:  Lambda=-4.65467388D-02 EMin= 3.28871621D-03
 Linear search not attempted -- first point.
 Maximum step size (   0.300) exceeded in Quadratic search.
    -- Step size scaled by   0.850
 Iteration  1 RMS(Cart)=  0.07078519 RMS(Int)=  0.00111528
 Iteration  2 RMS(Cart)=  0.00211051 RMS(Int)=  0.00020465
 Iteration  3 RMS(Cart)=  0.00000127 RMS(Int)=  0.00020465
 Iteration  4 RMS(Cart)=  0.00000000 RMS(Int)=  0.00020465
 Variable       Old X    -DE/DX   Delta X   Delta X   Delta X     New X
                                 (Linear)    (Quad)   (Total)
    R1        2.63422  -0.00343   0.00000  -0.00565  -0.00561   2.62861
    R2        2.65217  -0.01132   0.00000  -0.01955  -0.01948   2.63269
    R3        2.04553   0.00244   0.00000   0.00514   0.00514   2.05067
    R4        2.63794  -0.00854   0.00000  -0.01401  -0.01405   2.62389
    R5        3.31597  -0.00525   0.00000  -0.01286  -0.01286   3.30311
    R6        2.66031   0.00031   0.00000   0.00074   0.00067   2.66098
    R7        2.04700   0.00212   0.00000   0.00448   0.00448   2.05148
    R8        2.67759  -0.00391   0.00000  -0.00703  -0.00707   2.67052
    R9        2.72139  -0.05438   0.00000  -0.10450  -0.10450   2.61689
   R10        2.65897  -0.00934   0.00000  -0.01640  -0.01636   2.64261
   R11        2.03013   0.00544   0.00000   0.01118   0.01118   2.04131
   R12        2.85302  -0.00853   0.00000  -0.02011  -0.02011   2.83291
   R13        2.58761  -0.01858   0.00000  -0.02832  -0.02832   2.55929
   R14        2.57623   0.00356   0.00000   0.00532   0.00532   2.58154
   R15        2.30656   0.07269   0.00000   0.06191   0.06191   2.36847
   R16        2.74529  -0.00080   0.00000  -0.00160  -0.00160   2.74369
   R17        1.95070  -0.01704   0.00000  -0.03074  -0.03074   1.91996
   R18        2.89703  -0.00686   0.00000  -0.01724  -0.01724   2.87979
   R19        2.10231  -0.00944   0.00000  -0.02170  -0.02170   2.08061
   R20        2.10232  -0.00945   0.00000  -0.02170  -0.02170   2.08061
   R21        2.88352   0.00144   0.00000   0.00354   0.00354   2.88707
   R22        2.10110  -0.00949   0.00000  -0.02176  -0.02176   2.07935
   R23        2.10109  -0.00948   0.00000  -0.02175  -0.02175   2.07934
   R24        2.09930  -0.01000   0.00000  -0.02287  -0.02287   2.07643
   R25        2.09830  -0.01041   0.00000  -0.02376  -0.02376   2.07454
   R26        2.09930  -0.01000   0.00000  -0.02286  -0.02286   2.07643
   R27        2.61370  -0.03248   0.00000  -0.05188  -0.05188   2.56182
   R28        2.61614  -0.03764   0.00000  -0.06040  -0.06040   2.55574
   R29        2.61370  -0.03248   0.00000  -0.05189  -0.05189   2.56182
    A1        2.09858  -0.01356   0.00000  -0.04241  -0.04230   2.05629
    A2        2.07501   0.00818   0.00000   0.02698   0.02692   2.10193
    A3        2.10960   0.00538   0.00000   0.01543   0.01537   2.12497
    A4        2.09686   0.00952   0.00000   0.02876   0.02876   2.12562
    A5        2.09310  -0.00533   0.00000  -0.01602  -0.01602   2.07708
    A6        2.09323  -0.00419   0.00000  -0.01274  -0.01274   2.08049
    A7        2.11675  -0.00285   0.00000  -0.00713  -0.00724   2.10951
    A8        2.07183   0.00439   0.00000   0.01576   0.01581   2.08765
    A9        2.09460  -0.00154   0.00000  -0.00863  -0.00857   2.08603
   A10        2.05755  -0.00264   0.00000  -0.00625  -0.00637   2.05119
   A11        2.05139  -0.00813   0.00000  -0.02394  -0.02389   2.02750
   A12        2.17424   0.01076   0.00000   0.03020   0.03025   2.20450
   A13        2.11297  -0.00352   0.00000  -0.01063  -0.01063   2.10233
   A14        2.14003  -0.00552   0.00000  -0.02464  -0.02464   2.11539
   A15        2.03019   0.00904   0.00000   0.03527   0.03527   2.06546
   A16        2.08366   0.01305   0.00000   0.03766   0.03777   2.12144
   A17        2.11794  -0.00653   0.00000  -0.01884  -0.01890   2.09904
   A18        2.08158  -0.00652   0.00000  -0.01882  -0.01888   2.06270
   A19        2.23549  -0.03833   0.00000  -0.10986  -0.10986   2.12563
   A20        2.08452  -0.03518   0.00000  -0.10083  -0.10083   1.98369
   A21        2.11792   0.03790   0.00000   0.10861   0.10861   2.22653
   A22        2.08075  -0.00272   0.00000  -0.00778  -0.00778   2.07296
   A23        2.12691   0.00084   0.00000   0.00269   0.00269   2.12960
   A24        2.07880  -0.00075   0.00000  -0.00271  -0.00271   2.07608
   A25        2.07748  -0.00009   0.00000   0.00003   0.00003   2.07751
   A26        1.93750  -0.00368   0.00000  -0.00946  -0.00943   1.92806
   A27        1.90621   0.00208   0.00000   0.00996   0.00996   1.91618
   A28        1.90619   0.00208   0.00000   0.00998   0.00998   1.91617
   A29        1.90560   0.00099   0.00000   0.00238   0.00241   1.90801
   A30        1.90561   0.00099   0.00000   0.00238   0.00240   1.90801
   A31        1.90241  -0.00246   0.00000  -0.01549  -0.01552   1.88690
   A32        1.94141  -0.00066   0.00000   0.00004   0.00004   1.94146
   A33        1.91064  -0.00046   0.00000  -0.00384  -0.00386   1.90677
   A34        1.91064  -0.00046   0.00000  -0.00384  -0.00386   1.90678
   A35        1.90108   0.00152   0.00000   0.00954   0.00954   1.91062
   A36        1.90110   0.00152   0.00000   0.00953   0.00953   1.91063
   A37        1.89844  -0.00147   0.00000  -0.01162  -0.01169   1.88675
   A38        1.92579   0.00202   0.00000   0.00791   0.00786   1.93365
   A39        1.91260   0.00331   0.00000   0.01441   0.01434   1.92694
   A40        1.92579   0.00202   0.00000   0.00791   0.00787   1.93365
   A41        1.89673  -0.00246   0.00000  -0.00931  -0.00938   1.88735
   A42        1.90571  -0.00259   0.00000  -0.01222  -0.01223   1.89347
   A43        1.89673  -0.00246   0.00000  -0.00931  -0.00938   1.88735
   A44        1.91009   0.01847   0.00000   0.05256   0.05148   1.96157
   A45        1.95271   0.01083   0.00000   0.03184   0.03096   1.98367
   A46        1.91009   0.01848   0.00000   0.05256   0.05148   1.96157
   A47        1.89370  -0.01503   0.00000  -0.04230  -0.04308   1.85061
   A48        1.90289  -0.01912   0.00000  -0.05642  -0.05758   1.84531
   A49        1.89370  -0.01503   0.00000  -0.04230  -0.04308   1.85061
    D1        0.00002  -0.00000   0.00000  -0.00001  -0.00001   0.00001
    D2        3.14159  -0.00000   0.00000  -0.00000  -0.00000   3.14159
    D3       -3.14159  -0.00000   0.00000  -0.00000  -0.00000  -3.14159
    D4       -0.00001   0.00000   0.00000   0.00000   0.00000  -0.00001
    D5       -0.00000   0.00000   0.00000   0.00001   0.00001   0.00000
    D6       -3.14158   0.00000   0.00000   0.00001   0.00001  -3.14157
    D7       -3.14159   0.00000   0.00000   0.00000   0.00000  -3.14159
    D8        0.00002   0.00000   0.00000   0.00000   0.00000   0.00002
    D9       -0.00003   0.00000   0.00000   0.00000   0.00000  -0.00003
   D10       -3.14159  -0.00000   0.00000  -0.00000  -0.00000  -3.14159
   D11        3.14158   0.00000   0.00000   0.00000   0.00000   3.14158
   D12        0.00002  -0.00000   0.00000  -0.00001  -0.00001   0.00001
   D13        0.00003  -0.00000   0.00000  -0.00000  -0.00000   0.00003
   D14       -3.14158  -0.00000   0.00000  -0.00001  -0.00001   3.14159
   D15       -3.14159   0.00000   0.00000   0.00000   0.00000  -3.14159
   D16       -0.00002  -0.00000   0.00000  -0.00000  -0.00000  -0.00003
   D17       -0.00002   0.00000   0.00000   0.00000   0.00000  -0.00002
   D18        3.14156  -0.00000   0.00000  -0.00000  -0.00000   3.14156
   D19       -3.14159   0.00000   0.00000   0.00001   0.00001  -3.14158
   D20       -0.00000   0.00000   0.00000   0.00001   0.00001   0.00000
   D21        3.14138  -0.00000   0.00000  -0.00004  -0.00004   3.14134
   D22       -0.00024  -0.00000   0.00000  -0.00005  -0.00005  -0.00029
   D23        0.00001  -0.00000   0.00000  -0.00000  -0.00000   0.00000
   D24        3.14158  -0.00000   0.00000  -0.00000  -0.00000   3.14158
   D25       -3.14158   0.00000   0.00000   0.00000   0.00000  -3.14158
   D26       -0.00000   0.00000   0.00000   0.00000   0.00000  -0.00000
   D27        2.09945   0.00051   0.00000   0.00267   0.00252   2.10197
   D28       -0.00002   0.00000   0.00000   0.00000   0.00000  -0.00002
   D29       -2.09948  -0.00051   0.00000  -0.00268  -0.00253  -2.10200
   D30       -1.04213   0.00051   0.00000   0.00267   0.00252  -1.03961
   D31        3.14159   0.00000   0.00000   0.00000   0.00000  -3.14159
   D32        1.04213  -0.00051   0.00000  -0.00268  -0.00253   1.03961
   D33        3.14159  -0.00000   0.00000  -0.00005  -0.00005   3.14154
   D34       -0.00003  -0.00000   0.00000  -0.00005  -0.00005  -0.00009
   D35        3.14156   0.00000   0.00000   0.00001   0.00001   3.14157
   D36       -0.00004   0.00000   0.00000   0.00001   0.00001  -0.00003
   D37       -0.00001   0.00000   0.00000   0.00001   0.00001  -0.00000
   D38        3.14158   0.00000   0.00000   0.00001   0.00001   3.14159
   D39        3.14157  -0.00000   0.00000  -0.00000  -0.00000   3.14157
   D40        1.03949  -0.00026   0.00000  -0.00349  -0.00347   1.03602
   D41       -1.03954   0.00026   0.00000   0.00349   0.00347  -1.03607
   D42       -0.00002   0.00000   0.00000   0.00000   0.00000  -0.00002
   D43       -2.10210  -0.00026   0.00000  -0.00349  -0.00347  -2.10557
   D44        2.10206   0.00026   0.00000   0.00349   0.00347   2.10553
   D45        3.14155   0.00000   0.00000   0.00001   0.00001   3.14156
   D46        1.03972  -0.00118   0.00000  -0.00939  -0.00938   1.03034
   D47       -1.03978   0.00118   0.00000   0.00940   0.00939  -1.03039
   D48       -1.03919   0.00091   0.00000   0.00799   0.00799  -1.03120
   D49       -3.14102  -0.00027   0.00000  -0.00142  -0.00140   3.14076
   D50        1.06266   0.00208   0.00000   0.01738   0.01736   1.08003
   D51        1.03913  -0.00091   0.00000  -0.00798  -0.00798   1.03115
   D52       -1.06270  -0.00209   0.00000  -0.01739  -0.01737  -1.08007
   D53        3.14098   0.00027   0.00000   0.00141   0.00139  -3.14081
   D54       -1.05373   0.00030   0.00000   0.00248   0.00250  -1.05123
   D55        3.14159  -0.00000   0.00000  -0.00000  -0.00000   3.14159
   D56        1.05372  -0.00030   0.00000  -0.00248  -0.00250   1.05122
   D57        1.05373   0.00031   0.00000   0.00399   0.00400   1.05773
   D58       -1.03414   0.00001   0.00000   0.00150   0.00150  -1.03264
   D59       -3.12200  -0.00029   0.00000  -0.00098  -0.00100  -3.12300
   D60        3.12198   0.00029   0.00000   0.00098   0.00100   3.12298
   D61        1.03411  -0.00001   0.00000  -0.00150  -0.00150   1.03262
   D62       -1.05375  -0.00031   0.00000  -0.00398  -0.00400  -1.05775
         Item               Value     Threshold  Converged?
 Maximum Force            0.072687     0.000450     NO 
 RMS     Force            0.012090     0.000300     NO 
 Maximum Displacement     0.214195     0.001800     NO 
 RMS     Displacement     0.072181     0.001200     NO 
 Predicted change in Energy=-2.486490D-02
 GradGradGradGradGradGradGradGradGradGradGradGradGradGradGradGradGradGrad

                          Input orientation:                          
 ---------------------------------------------------------------------
 Center     Atomic      Atomic             Coordinates (Angstroms)
 Number     Number       Type             X           Y           Z
 ---------------------------------------------------------------------
      1          6           0       -4.222470    3.046117   -0.697220
      2          6           0       -4.101000    1.683411   -0.445910
      3          6           0       -2.907493    1.123558   -0.009965
      4          6           0       -1.766802    1.923309    0.195100
      5          6           0       -1.885980    3.308325   -0.059071
      6          6           0       -3.099877    3.846619   -0.497517
      7          1           0       -5.166033    3.460341   -1.037364
      8          7           0       -0.629257    1.264434    0.630462
      9          6           0        0.531271    1.922509    0.863449
     10          7           0        1.545707    1.111613    1.287221
     11          8           0        0.753702    3.149072    0.733324
     12          6           0        2.868536    1.627873    1.589889
     13          6           0        3.791105    0.500461    2.037254
     14          6           0        5.189211    1.024768    2.360489
     15          1           0       -2.852206    0.055339    0.175418
     16          1           0       -1.048585    3.976661    0.078629
     17          1           0        1.368391    0.116885    1.393650
     18          1           0        2.800491    2.381820    2.389364
     19          1           0        3.292585    2.113015    0.697113
     20          1           0        3.857593   -0.252708    1.237835
     21          1           0        3.365853    0.015949    2.928971
     22          1           0        5.642367    1.496987    1.477867
     23          1           0        5.841842    0.202243    2.680934
     24          1           0        5.150125    1.765937    3.170739
     25         17           0       -5.490121    0.650043   -0.686236
     26          6           0       -3.169343    5.322407   -0.751593
     27          9           0       -2.882173    6.050968    0.354993
     28          9           0       -4.383723    5.744154   -1.171710
     29          9           0       -2.285266    5.725819   -1.696827
 ---------------------------------------------------------------------
                    Distance matrix (angstroms):
                    1          2          3          4          5
     1  C    0.000000
     2  C    1.391000   0.000000
     3  C    2.428523   1.388504   0.000000
     4  C    2.843807   2.432473   1.408129   0.000000
     5  C    2.436221   2.774221   2.412283   1.413179   0.000000
     6  C    1.393162   2.384194   2.773046   2.440477   1.398407
     7  H    1.085168   2.154436   3.408388   3.928894   3.426211
     8  N    4.224727   3.658841   2.370728   1.384798   2.496457
     9  C    5.127986   4.819702   3.636794   2.393289   2.935069
    10  N    6.399389   5.934306   4.638299   3.581102   4.291214
    11  O    5.178740   5.206427   4.249650   2.853966   2.760647
    12  C    7.584501   7.260991   6.014680   4.849647   5.305507
    13  C    8.841668   8.357678   7.032109   6.025642   6.671429
    14  C   10.100257   9.727163   8.437146   7.340464   7.818391
    15  H    3.403509   2.143864   1.085594   2.160509   3.401543
    16  H    3.397263   3.853748   3.406403   2.178453   1.080215
    17  H    6.649051   5.979316   4.611584   3.811709   4.783996
    18  H    7.700018   7.493806   6.318313   5.087750   5.368077
    19  H    7.700059   7.493741   6.318224   5.087771   5.368251
    20  H    8.939469   8.361982   7.015518   6.120144   6.881246
    21  H    8.939453   8.362065   7.015625   6.120148   6.881124
    22  H   10.219874   9.933221   8.686380   7.531470   7.894247
    23  H   10.990447  10.527636   9.200034   8.187363   8.767816
    24  H   10.219858   9.933290   8.686468   7.531472   7.894137
    25  Cl   2.710762   1.747931   2.711370   4.032500   4.522127
    26  C    2.508690   3.768782   4.271874   3.797001   2.486591
    27  F    3.454371   4.604621   4.940972   4.278690   2.947192
    28  F    2.744183   4.134773   4.987867   4.828592   3.661960
    29  F    3.454385   4.604644   4.941000   4.278701   2.947194
                    6          7          8          9         10
     6  C    0.000000
     7  H    2.170172   0.000000
     8  N    3.747530   5.309048   0.000000
     9  C    4.328934   6.199782   1.354316   0.000000
    10  N    5.678644   7.481154   2.277093   1.366094   0.000000
    11  O    4.105072   6.186719   2.339875   1.253341   2.255063
    12  C    6.700900   8.649549   3.645153   2.465225   1.451899
    13  C    8.068920   9.921920   4.701310   3.745204   2.444968
    14  C    9.210865  11.167297   6.074949   4.974281   3.799286
    15  H    3.858495   4.291698   2.571085   3.925255   4.657623
    16  H    2.134632   4.297139   2.799381   2.707661   4.049635
    17  H    6.119874   7.732220   2.426916   2.059651   1.015999
    18  H    6.730087   8.739061   4.013161   2.772859   2.098245
    19  H    6.730238   8.739103   4.013151   2.772871   2.098241
    20  H    8.259681  10.019436   4.775190   3.992011   2.684889
    21  H    8.259571  10.019417   4.775223   3.992018   2.684912
    22  H    9.265514  11.269546   6.332886   5.165451   4.119161
    23  H   10.165549  12.067074   6.870794   5.870667   4.607187
    24  H    9.265413  11.269527   6.332911   5.165453   4.119176
    25  Cl   3.995870   2.850631   5.073378   6.346484   7.321915
    26  C    1.499109   2.745128   4.982896   5.278467   6.642231
    27  F    2.373462   3.723712   5.297398   5.380920   6.698686
    28  F    2.388186   2.417821   6.116513   6.550115   7.916117
    29  F    2.373464   3.723722   5.297414   5.380805   6.698641
                   11         12         13         14         15
    11  O    0.000000
    12  C    2.742312   0.000000
    13  C    4.235704   1.523918   0.000000
    14  C    5.180162   2.518550   1.527770   0.000000
    15  H    4.783828   6.099219   6.913620   8.389203   0.000000
    16  H    2.088485   4.810879   6.272382   7.268471   4.317312
    17  H    3.163547   2.138230   2.535922   4.044465   4.393326
    18  H    2.742351   1.101012   2.155182   2.747437   6.501312
    19  H    2.742381   1.101013   2.155186   2.747415   6.501127
    20  H    4.632578   2.153778   1.100344   2.159978   6.800369
    21  H    4.632564   2.153778   1.100341   2.159983   6.800578
    22  H    5.213711   2.779176   2.175581   1.098800   8.713925
    23  H    6.194042   3.473233   2.169973   1.097798   9.049070
    24  H    5.213692   2.779171   2.175581   1.098801   8.714091
    25  Cl   6.873545   8.718029   9.673723  11.111755   2.838083
    26  C    4.724261   7.455743   8.914968   9.900514   5.357418
    27  F    4.667303   7.359307   8.841423   9.717610   5.998392
    28  F    6.062734   8.784387  10.228469  11.242335   6.043419
    29  F    4.666968   7.359167   8.841380   9.717484   5.998422
                   16         17         18         19         20
    16  H    0.000000
    17  H    4.740140   0.000000
    18  H    4.764284   2.858722   0.000000
    19  H    4.764605   2.858710   1.782730   0.000000
    20  H    6.580418   2.521310   3.063368   2.491637   0.000000
    21  H    6.580194   2.521359   2.491617   3.063371   1.781551
    22  H    7.271554   4.492065   3.112879   2.551576   2.510870
    23  H    8.276244   4.655765   3.753050   3.753039   2.495348
    24  H    7.271344   4.492096   2.551595   3.112834   3.079234
    25  Cl   5.601664   7.186750   9.010694   9.010542   9.586280
    26  C    2.645357   7.231221   7.358776   7.359040   9.187903
    27  F    2.782296   7.372886   7.063567   7.331587   9.270393
    28  F    3.976244   8.445948   8.694795   8.695020  10.473182
    29  F    2.782297   7.372951   7.331044   7.063691   9.060339
                   21         22         23         24         25
    21  H    0.000000
    22  H    3.079236   0.000000
    23  H    2.495346   1.778630   0.000000
    24  H    2.510884   1.783382   1.778629   0.000000
    25  Cl   9.586452  11.372464  11.830120  11.372612   0.000000
    26  C    9.187699   9.861570  10.917865   9.861374   5.217400
    27  F    9.060057   9.729716  10.757603   9.529308   6.087326
    28  F   10.473005  11.206300  12.252258  11.206128   5.235433
[...]
 000732,-0.00006576,-0.00514166,0.00445568,-0.00461348,-0.09343252,0.14
 906404,-0.00000230,0.00000083,-0.00000155,0.00000151,-0.00000024,0.000
 00330,-0.00000516,-0.00000086,-0.00000199,0.00002633,-0.00001367,-0.00
 000359,-0.00000185,0.00000479,-0.00000051,0.00000104,-0.00000073,0.000
 00142,0.,-0.00000002,-0.00000003,-0.00001035,-0.00000870,-0.00001069,0
 .00009717,0.00002952,0.00010855,0.00018994,0.00008872,0.00028454,0.000
 00003,0.00001820,-0.00001001,0.00075625,-0.00000549,0.00042726,0.00424
 948,-0.00460335,0.00316731,-0.09074788,0.09780001,-0.15036370,0.000000
 30,0.00000008,-0.00000064,0.,-0.00000015,-0.00000043,0.00001102,0.0000
 0569,-0.00000347,0.00002022,0.00021099,-0.00014815,0.00004019,-0.00014
 243,0.00036756,-0.00037900,-0.00008671,-0.00001883,-0.00048553,-0.0002
 5395,0.00050693,-0.01651787,0.01848615,-0.01729572,0.09779105,-0.10731
 706,0.15847135,-0.00000423,0.00000170,-0.00000235,0.00000352,-0.000001
 15,0.00000301,-0.00000924,-0.00000170,-0.00000355,0.00002752,-0.000015
 88,0.00001221,-0.00000451,0.00000717,-0.00000276,0.00000298,0.00000003
 ,0.00000119,0.00000008,-0.00000004,-0.00000019,-0.00003538,-0.00001425
 ,-0.00001988,0.00012596,0.00007276,0.00012291,-0.00001471,0.00015895,0
 .00014675,-0.00002784,0.00005895,-0.00005824,0.00129617,-0.00148478,0.
 00019274,-0.00817121,-0.03229886,-0.00731343,-0.06086340,-0.05676527,-
 0.01169026,0.00000034,0.00000033,-0.00000053,0.,-0.00000055,-0.0000008
 9,0.00017120,0.00013495,-0.00001693,-0.00008719,0.00056556,-0.00005091
 ,-0.00001637,0.00009618,-0.00010429,-0.00661874,-0.00082996,0.00081175
 ,0.00165939,0.00051723,0.00006130,0.00118515,0.00839545,0.00068708,0.0
 0409194,0.01666957,0.00496584,0.06728999,-0.00000838,0.00000365,-0.000
 00401,0.00000724,-0.00000291,0.00000446,-0.00001975,0.00000007,-0.0000
 0808,0.00003666,-0.00003257,0.00002136,-0.00000983,0.00001558,-0.00000
 399,0.00000476,0.00000080,0.00000185,0.,-0.00000010,-0.00000009,-0.000
 11663,0.00001074,-0.00004963,0.00010296,-0.00009306,0.00011192,-0.0000
 0524,0.00049038,-0.00013288,-0.00007319,0.00006291,-0.00005905,0.00059
 246,0.00060761,0.00023179,-0.00102499,-0.00452133,-0.00058290,-0.05794
 932,-0.29409716,-0.05028058,0.00000086,-0.00000015,-0.00000064,-0.0000
 0021,-0.00000133,-0.00000049,0.00014919,-0.00007822,0.00008123,-0.0002
 8502,0.00022405,-0.00040417,-0.00013390,-0.00001788,0.00004256,-0.0012
 3401,0.00113655,0.00057443,-0.00012343,0.00040953,0.00032009,-0.000630
 53,-0.00489385,-0.00084256,-0.00401034,-0.01668806,-0.00421115,0.06473
 460,0.31746719,0.00000134,0.00000018,0.00000061,-0.00000033,-0.0000006
 5,-0.00000078,0.00000158,-0.00000021,0.00000065,-0.00000281,0.00000309
 ,-0.00000021,-0.00000013,-0.00000169,0.00000128,-0.00000111,0.00000040
 ,-0.00000090,-0.00000008,0.,0.00000008,0.00001085,0.00000455,0.0000051
 7,-0.00002466,-0.00002404,-0.00000173,-0.00008795,0.00000484,-0.000082
 55,0.00002887,0.00000560,0.00000466,-0.00027210,-0.00026462,0.00003793
 ,0.00127496,0.00559320,0.00042819,-0.01210150,-0.05061980,-0.05973123,
 -0.00000014,0.00000007,0.00000014,0.00000008,0.00000016,0.00000035,-0.
 00001620,0.00000658,-0.00001593,-0.00019506,-0.00013982,0.00001366,0.0
 0003053,-0.00000705,-0.00001996,0.00122204,0.00027839,0.00102411,-0.00
 051858,0.00042057,0.00022602,-0.00733994,-0.02996283,-0.00456308,0.005
 72990,0.01951048,0.00452148,0.01225969,0.05519212,0.05815180,-0.007903
 20,-0.00895865,-0.00492873,-0.09732385,-0.05274610,-0.03194834,-0.0315
 7794,-0.02946391,-0.01492862,0.00401173,0.00666869,-0.00081200,-0.0008
 6806,-0.00171990,0.00007099,0.00252565,-0.00168849,-0.00106882,0.00036
 103,0.00107154,0.00130008,-0.00456497,-0.00118279,-0.00138917,0.002260
 61,0.00158259,-0.00017397,-0.00105676,-0.00001428,-0.00057225,-0.00095
 899,-0.00091071,0.00034764,0.00021162,0.00020077,-0.00004968,-0.000061
 00,-0.00005632,0.00006106,-0.00000794,0.00003329,-0.00003009,0.0000554
 2,-0.00031796,0.00131380,0.00003376,-0.00024386,0.00029045,-0.00000862
 ,-0.00006119,0.00009020,-0.00003867,-0.00001205,0.00000577,-0.00009112
 ,-0.00000077,0.00004140,0.00000278,0.00000789,-0.00000221,0.00000384,0
 .00000033,-0.00000703,-0.00000232,-0.00000037,0.00000195,-0.00002180,-
 0.00000052,-0.00000067,-0.00000109,-0.00000330,0.00000057,0.13563151,-
 0.03472085,-0.02556855,-0.01460454,-0.05269873,-0.08517460,-0.02131010
 ,-0.00394601,-0.00008416,-0.00159967,0.00277387,0.00011113,0.00146311,
 -0.00186266,0.00035095,-0.00085959,0.00531167,-0.00496232,0.00237181,-
 0.00036545,0.00082651,-0.00023865,-0.00226373,0.00003049,-0.00077449,0
 .00154067,0.00079394,0.00009597,-0.00060833,0.00003736,-0.00042241,-0.
 00069362,-0.00045412,0.00013430,0.00013555,0.00011814,-0.00000906,-0.0
 0003162,-0.00003165,0.00003637,-0.00000517,0.00001895,-0.00001801,0.00
 128023,0.00112462,0.00037810,-0.00000611,0.00004837,-0.00001282,-0.000
 00976,-0.00003426,0.00005730,-0.00002164,-0.00000636,0.00000504,-0.000
 05988,-0.00000036,0.00002613,0.00000072,0.00000536,-0.00000197,0.00000
 162,0.00000068,-0.00000442,-0.00000136,-0.00000031,0.00000105,-0.00001
 262,-0.00000039,-0.00000046,-0.00000051,-0.00000164,0.00000046,0.08777
 456,0.11319796,-0.00438857,-0.00316430,0.00184990,-0.03188561,-0.02133
 676,-0.03593089,-0.01545547,-0.01295541,-0.00260904,-0.00095756,0.0030
 0642,0.00562404,0.00002303,-0.00058541,-0.00097455,-0.00104146,-0.0006
 0306,0.00392714,0.00129153,0.00035101,-0.00190903,-0.00189441,-0.00065
 474,-0.00072355,0.00112990,0.00065047,-0.00031369,-0.00050807,-0.00001
 185,-0.00025630,-0.00040871,-0.00039308,0.00017243,0.00009405,0.000106
 04,-0.00000314,-0.00002613,-0.00002570,0.00002987,-0.00000508,0.000015
 44,-0.00001562,0.00136895,-0.00030336,-0.00243489,0.00026849,-0.000108
 56,-0.00052047,-0.00000353,-0.00002934,0.00003763,-0.00001441,-0.00000
 690,0.00000122,-0.00004812,0.00000138,0.00001818,0.00000061,0.00000401
 ,-0.00000154,0.00000135,0.00000073,-0.00000366,-0.00000055,-0.00000021
 ,0.00000096,-0.00000984,-0.00000052,-0.00000028,-0.00000068,-0.0000015
 7,0.00000028,0.05285912,0.03598979,0.03380230,0.00907918,-0.01983728,0
 .00400220,-0.00136107,-0.00382693,-0.00336172,-0.00282774,-0.00043958,
 -0.00089240,-0.00322125,0.00378186,-0.00450824,0.00105105,0.02665381,0
 .00027857,-0.08835920,0.01394108,-0.01017985,-0.00234576,-0.00066428,0
 .00053393,0.00002601,0.00097004,0.00018737,0.00019355,0.00034484,-0.00
 023562,-0.00000484,-0.00007087,0.00007151,0.00020879,-0.00033905,0.000
 12413,-0.00001117,-0.00001128,-0.00002646,-0.00000590,0.00000054,-0.00
 000228,0.00000095,0.00000030,0.00000099,-0.00017472,-0.00002401,0.0001
 0717,-0.00169318,0.00041208,0.00078498,0.00001273,-0.00002448,0.000012
 64,-0.00000646,-0.00000530,-0.00000333,0.00000692,0.00000385,0.0000017
 4,0.00000077,-0.00000370,0.00000060,0.00000049,-0.00000019,0.00000165,
 -0.00000061,0.00000120,0.00000048,0.00000181,-0.00000132,0.00000153,-0
 .00000130,-0.00000089,-0.00000154,-0.00075257,-0.00164458,-0.00038789,
 0.51814208,-0.00603735,-0.01890984,-0.00208730,-0.00484390,-0.00088756
 ,-0.00194641,-0.00123300,0.00389081,-0.00031905,0.00621750,-0.00075303
 ,0.00290862,0.01378357,-0.00965434,0.00566019,0.00788653,-0.22480980,0
 .00713725,0.00152508,0.00044949,0.00052240,-0.00773846,0.00166874,-0.0
 0304062,0.00609961,0.00313123,0.00104228,-0.00220794,0.00019047,-0.001
 76001,-0.00264109,-0.00177471,0.00057507,0.00052275,0.00040946,-0.0000
 0073,-0.00010519,-0.00010720,0.00012614,-0.00001511,0.00006576,-0.0000
 5806,0.00011225,0.00019602,-0.00000087,-0.00083298,-0.00016049,-0.0003
 8115,-0.00004002,-0.00012451,0.00023140,-0.00009025,-0.00002635,0.0000
 1285,-0.00022540,0.00000019,0.00009706,0.00000320,0.00001377,-0.000007
 18,0.00000806,0.00000236,-0.00001551,-0.00000507,-0.00000016,0.0000027
 1,-0.00004432,-0.00000107,-0.00000119,-0.00000430,-0.00000883,0.000000
 37,0.00236965,0.00256136,0.00093885,-0.01881723,0.61006331,0.00346045,
 -0.00813733,0.00417210,-0.00315190,-0.00197774,0.00502799,-0.00108047,
 -0.00023435,-0.00119954,-0.00444596,0.00213193,0.00434803,0.00134377,0
 .01158080,-0.00037400,-0.01063711,0.00862668,-0.07125547,0.00072606,-0
 .00030664,-0.00354362,0.00038165,0.00007944,0.00005597,-0.00018321,0.0
 0000861,-0.00016479,0.00006863,-0.00006108,0.00007045,0.00030817,-0.00
 013285,0.00004287,-0.00003771,-0.00001702,0.00000935,0.00000139,0.0000
 0757,-0.00000224,-0.00000067,-0.00000453,0.00000116,0.00010820,-0.0000
 4906,-0.00039206,0.00049912,0.00020158,-0.00319610,0.00001058,0.000007
 57,0.00000983,-0.00000383,0.00000139,0.00000052,0.00001655,-0.00000229
 ,-0.00000960,0.00000121,-0.00000414,0.00000134,-0.00000059,0.00000148,
 -0.00000419,0.00000220,-0.00000068,-0.00000239,0.00000186,0.00000058,-
 0.00000002,-0.00000027,-0.00000017,0.00000094,-0.00049918,-0.00080651,
 -0.00000559,0.02112763,-0.00901042,0.47872330,-0.00052515,0.00107946,0
 .00014036,0.00039659,0.00004367,0.00057146,0.00008368,-0.00009212,-0.0
 0005675,-0.00004519,-0.00045878,0.00087634,-0.00066346,0.00009475,-0.0
 0018549,0.01014626,-0.00124830,-0.00206973,0.00022925,0.00015101,-0.00
 013308,-0.00000445,-0.00002987,-0.00009569,-0.00003447,-0.00000823,0.0
 0004969,0.00000598,0.00000621,-0.00000310,0.00003756,0.00001191,-0.000
 00010,-0.00000011,-0.00000429,0.00000170,0.00000143,-0.00000004,-0.000
 00071,0.00000005,0.00000007,0.00000048,0.00004526,0.00000674,-0.000050
 90,0.00018572,0.00056185,-0.00015987,0.00000129,0.00000139,-0.00000231
 ,0.00000130,0.00000115,0.00000085,-0.00000006,-0.00000011,0.00000029,-
 0.00000069,0.00000091,-0.00000006,-0.00000020,-0.00000050,0.00000017,0
 .00000003,-0.00000021,0.00000015,0.,0.00000020,-0.00000022,0.00000037,
 0.00000019,0.00000024,0.00003724,0.00007536,-0.00003326,-0.06948843,-0
 .01031171,-0.02009728,0.08364293,0.00557457,-0.00289203,0.00021524,-0.
 00002723,-0.00103388,0.00199696,-0.00057797,-0.00107291,-0.00056146,-0
 .00236092,0.00215310,-0.00015246,-0.00195976,-0.00194153,-0.00056254,-
 0.00811719,-0.02426604,-0.04212304,0.00017914,0.00022683,-0.00072161,0
 .00244391,-0.00053628,0.00081274,-0.00188513,-0.00098713,-0.00034178,0
 .00067378,-0.00006746,0.00055370,0.00079090,0.00054166,-0.00015282,-0.
 00015678,-0.00012869,-0.00000631,0.00003236,0.00003272,-0.00003960,0.0
 0000497,-0.00001994,0.00001827,-0.00000325,-0.00008847,-0.00001798,0.0
 0055526,-0.00045586,-0.00051110,0.00001585,0.00003592,-0.00007598,0.00
 002754,0.00000906,-0.00000426,0.00006911,0.00000053,-0.00002776,-0.000
 00156,-0.00000356,0.00000186,-0.00000238,-0.00000111,0.00000587,0.0000
 0136,0.00000010,-0.00000045,0.00001359,0.00000027,0.00000041,0.0000015
 2,0.00000280,-0.00000020,-0.00099211,-0.00122868,-0.00017243,-0.007826
 59,-0.13131473,-0.08120164,0.01744862,0.13051098,0.00285722,-0.0024436
 2,0.00023196,-0.00023873,0.00007122,0.00048124,0.00024891,-0.00037716,
 -0.00008635,-0.00098362,0.00015534,0.00024801,-0.00239494,0.00049802,0
 .00053428,-0.00476016,-0.01326642,-0.01246352,0.00023592,0.00024549,-0
 .00009737,0.00122635,-0.00023693,0.00038898,-0.00092027,-0.00050601,-0
 .00016020,0.00032916,-0.00003130,0.00028028,0.00038403,0.00028750,-0.0
 0006788,-0.00007224,-0.00006131,-0.00000417,0.00001469,0.00001559,-0.0
 0002027,0.00000289,-0.00001037,0.00000888,0.00005524,-0.00003569,-0.00
 000994,0.00050839,0.00026727,-0.00022957,0.00001209,0.00001690,-0.0000
 4120,0.00001469,0.00000532,-0.00000250,0.00003237,0.00000043,-0.000010
 73,0.00000036,-0.00000152,0.00000109,-0.00000075,-0.00000060,0.0000044
 6,-0.00000011,0.00000048,0.00000064,0.00000649,0.00000002,0.00000011,0
 .00000099,0.00000150,-0.00000053,-0.00052356,-0.00072487,-0.00011702,-
 0.01699953,-0.08993822,-0.19543632,0.03767815,0.11982428,0.33134472,-0
 .00202238,-0.00320685,-0.00076452,0.00017358,-0.00003511,-0.00007125,0
 .00012936,0.00024222,0.00009816,-0.00060433,-0.00117623,-0.00020269,0.
 00283494,0.00562159,0.00068986,-0.02083853,0.00832267,-0.01132023,0.00
 145862,-0.00046438,0.00070636,-0.00124244,0.00082501,-0.00041765,0.001
 19580,0.00050040,0.00020253,-0.00043356,0.00003621,-0.00034124,-0.0005
 2727,-0.00025535,0.00012539,0.00010347,0.00006950,-0.00001771,-0.00002
 131,-0.00002232,0.00002493,-0.00000367,0.00001325,-0.00001216,0.000108
 58,0.00005434,0.00006878,0.00043326,-0.00027212,0.00015777,-0.00000770
 ,-0.00003298,0.00005463,-0.00001882,-0.00000433,0.00000468,-0.00004022
 ,-0.00000030,0.00001868,0.00000087,0.00000415,-0.00000133,0.00000123,0
 .00000010,-0.00000307,-0.00000093,-0.00000048,0.00000070,-0.00000941,0
 .00000028,-0.00000063,-0.00000011,-0.00000102,0.00000073,0.00041848,0.
 00047281,0.00016225,-0.21671715,0.07841820,-0.05772302,-0.02593694,-0.
 00667294,-0.04605974,0.34682596,0.00052267,-0.00259097,0.00018356,0.00
 107964,0.00152991,0.00043962,0.00082213,-0.00071344,0.00029025,0.00045
 846,0.00082133,0.00027625,-0.00334604,-0.00852698,-0.00150422,0.041652
 92,-0.00996482,0.01611450,0.00103206,-0.00307248,0.00035243,0.00233371
 ,-0.00117009,0.00096220,-0.00204407,-0.00105536,-0.00030777,0.00070951
 ,-0.00003990,0.00054532,0.00075267,0.00061420,-0.00024041,-0.00016442,
 -0.00011912,0.00001249,0.00003443,0.00003513,-0.00004041,0.00000521,-0
 .00002116,0.00001878,-0.00000364,-0.00010464,0.00001834,-0.00014307,0.
 00039388,-0.00007510,0.00000737,0.00005035,-0.00008372,0.00003091,0.00
 000898,-0.00000485,0.00006905,-0.00000088,-0.00003107,-0.00000129,-0.0
 0000499,0.00000211,-0.00000248,-0.00000056,0.00000489,0.00000161,0.000
 00019,-0.00000104,0.00001430,0.00000018,0.00000046,0.00000106,0.000002
 49,-0.00000028,-0.00055724,-0.00058622,-0.00022415,0.06294135,-0.11139
 195,0.02397869,-0.01399413,0.01511803,-0.00766379,-0.07925866,0.105845
 15,-0.00066779,-0.00114015,-0.00076344,0.00000263,-0.00000945,0.000129
 96,0.00001395,0.00009494,0.00003374,-0.00008045,-0.00039777,-0.0004086
 9,0.00051400,0.00217714,0.00171277,-0.01205586,0.00362042,0.00402592,0
 .00064721,-0.00030519,0.00031147,-0.00040924,0.00039118,-0.00029552,0.
 00047577,0.00017292,0.00007908,-0.00016791,0.00001136,-0.00010842,-0.0
 0021176,-0.00010716,0.00004880,0.00003890,0.00002725,-0.00000576,-0.00
 000841,-0.00000845,0.00001008,-0.00000146,0.00000472,-0.00000524,0.000
 06869,0.00002287,-0.00002803,0.00015619,-0.00013540,0.00015596,0.00000
 066,-0.00001440,0.00001688,-0.00000589,-0.00000225,0.00000131,-0.00001
 621,0.00000053,0.00000838,0.00000004,0.00000202,-0.00000085,0.00000068
 ,0.00000014,-0.00000055,-0.00000066,0.00000010,0.00000066,-0.00000362,
 -0.00000004,-0.00000019,0.00000009,-0.00000042,-0.00000004,0.00015624,
 0.00019179,0.00008648,-0.05757761,0.02978451,-0.08807798,-0.05581472,-
 0.00062320,-0.04586906,0.10165043,-0.02957195,0.11582159,0.00108299,-0
 .00073978,0.00063305,0.00071631,0.00017738,-0.00048335,0.00019893,-0.0
 0036006,0.00024765,0.00009224,-0.00052238,-0.00109638,-0.00145486,0.00
 005715,-0.00135443,-0.00274805,-0.00945787,0.01130524,0.00002191,0.000
 25176,0.00043490,0.00070414,-0.00017934,0.00035173,-0.00062146,-0.0003
 6718,-0.00007142,0.00023224,-0.00000703,0.00015573,0.00025902,0.000222
 55,-0.00007183,-0.00005595,-0.00004279,0.00000898,0.00001263,0.0000117
 8,-0.00001203,0.00000141,-0.00000717,0.00000591,-0.00000340,-0.0000188
 0,0.00009386,0.00007979,0.00035998,0.00074467,0.00000031,0.00001771,-0
 .00001920,0.00001026,0.00000379,0.00000044,0.00002381,-0.00000133,-0.0
 0001281,0.00000006,-0.00000101,0.00000089,-0.00000126,-0.00000021,-0.0
 0000010,0.00000114,-0.00000060,-0.00000057,0.00000406,0.00000070,-0.00
 000043,0.00000073,0.00000107,0.00000074,-0.00031477,-0.00041445,-0.000
 12993,-0.14175298,-0.06175308,0.06980373,0.00188424,0.00275131,0.02934
 572,-0.08525937,-0.01295398,0.02329609,0.22688590,0.00346456,-0.002017
 21,0.00351107,0.00183388,-0.00105631,-0.00139121,-0.00075846,-0.001158
 20,-0.00012843,-0.00140854,0.00183592,-0.00194265,-0.00230962,-0.00173
 541,-0.00087129,-0.03216143,-0.02234227,0.02771044,-0.00050277,0.00018
 963,0.00074244,0.00216334,-0.00046671,0.00099172,-0.00181473,-0.000923
 32,-0.00027939,0.00065416,-0.00004179,0.00049730,0.00075844,0.00056156
 ,-0.00017776,-0.00015239,-0.00012502,-0.00000632,0.00003132,0.00003198
 ,-0.00003690,0.00000459,-0.00001930,0.00001787,-0.00004155,-0.00007619
 ,0.00005458,-0.00003947,-0.00023947,0.00075701,0.00000522,0.00003314,-
 0.00006645,0.00002591,0.00000862,-0.00000322,0.00006821,-0.00000063,-0
 .00002835,-0.00000097,-0.00000359,0.00000211,-0.00000244,-0.00000096,0
 .00000415,0.00000162,-0.00000028,-0.00000113,0.00001301,0.00000044,0.0
 0000033,0.00000126,0.00000272,0.00000012,-0.00077879,-0.00109219,-0.00
 048680,-0.05551337,-0.12271839,0.05532014,0.00666482,0.01740631,-0.006
 09154,-0.00317766,0.01494375,-0.00418608,0.08297186,0.11900319,-0.0018
 6771,0.00229174,-0.00212445,-0.00006143,0.00029977,0.00041077,0.000156
 24,0.00031089,0.00000900,0.00074182,-0.00070148,0.00047897,0.00068734,
 0.00005517,0.00135672,0.01458836,0.01062144,-0.00099109,0.00002239,-0.
 00010186,-0.00011844,-0.00101107,0.00022102,-0.00049085,0.00081206,0.0
 0044588,0.00011789,-0.00028711,0.00002476,-0.00020854,-0.00033054,-0.0
 0026836,0.00009509,0.00006875,0.00005101,-0.00000140,-0.00001436,-0.00
 001344,0.00001532,-0.00000180,0.00000820,-0.00000746,-0.00001487,0.000
 04085,-0.00000265,0.00005068,0.00006511,-0.00028817,-0.00000215,-0.000
 01700,0.00002607,-0.00001110,-0.00000322,0.00000054,-0.00003096,0.0000
 0093,0.00001412,0.00000106,0.00000152,-0.00000105,0.00000119,0.0000002
 1,-0.00000050,-0.00000123,0.00000048,0.00000103,-0.00000549,-0.0000004
 2,0.,-0.00000041,-0.00000093,-0.00000039,0.00039504,0.00063636,0.00026
 881,0.06693935,0.05952702,-0.12879992,0.03938338,0.00386730,-0.0789080
 2,0.01296941,-0.00345113,0.01312070,-0.13317684,-0.07391177,0.19602790
 \\-0.00000543,-0.00000389,-0.00000384,0.00001043,0.00001253,0.00000499
 ,-0.00000022,0.00000278,0.00000260,-0.00001293,0.00000133,-0.00000629,
 0.00000436,0.00000860,-0.00000157,0.00000105,0.00000046,-0.00000087,0.
 00000290,0.00000570,-0.00000065,0.00000710,-0.00000278,0.00000567,-0.0
 0001242,0.00001792,-0.00000867,0.00001301,-0.00000421,0.00000144,0.000
 00090,-0.00001229,0.00000488,-0.00000182,-0.00000311,0.00000075,0.0000
 0213,-0.00000403,0.00000269,-0.00000434,-0.00000570,0.00000245,-0.0000
 0270,0.00000211,0.00000239,0.00000271,-0.00000409,-0.00000059,-0.00000
 528,-0.00000164,0.00000286,0.00000150,-0.00000122,0.00000079,-0.000001
 25,-0.00000490,0.00000039,-0.00000375,-0.00000254,0.00000087,-0.000001
 99,0.00000124,0.00000157,-0.00000099,-0.00000579,-0.00000008,-0.000000
 86,-0.00000467,0.00000167,0.00000043,-0.00000351,-0.00000002,-0.000008
 40,-0.00000129,-0.00000030,0.00000813,0.00000548,-0.00000481,0.0000044
 6,0.00000385,-0.00000391,0.00000395,0.00000507,-0.00000417,-0.00000068
 ,-0.00000143,-0.00000025\\\@


 There ain't no surer way to find out whether you
 like people or hate them than to travel with them.
                                     -- Mark Twain
 Job cpu time:       0 days  3 hours  4 minutes 12.6 seconds.
 File lengths (MBytes):  RWF=    541 Int=      0 D2E=      0 Chk=     20 Scr=      1
 Normal termination of Gaussian 09 at Tue Jul 10 01:40:45 2018.
WARNING: pbs_rusage is deprecated and values produced may not be accurate


=============================================================================
                                     Resource usage:
                                       CPU time:              27:18:03
   JobId:    8278631.r-man2            Elapsed time:          06:51:37
   Project:             q95            Requested time:        96:00:00
   Service Units:     27.44 
                                       Max physical memory:      712MB
                                       Max virtual memory:      1620MB
                                       Requested memory:           0MB

                                       Number of cpus:               4

                                       Max jobfs disk use:       0.5GB
                                       Requested jobfs:         16.0GB
=============================================================================

