 Entering Gaussian System, Link 0=/apps/gaussian/g09e01/g09/g09
 AtFile(1): /home/507/hio507/Basis/6-31pGd.gbs
 Initial command:
 /apps/gaussian/g09e01/g09/l1.exe "/jobfs/local/8352689.r-man2/Gau-18547.inp" -scrdir="/jobfs/local/8352689.r-man2/"
 Entering Link 1 = /apps/gaussian/g09e01/g09/l1.exe PID=     18575.
  
 Copyright (c) 1988,1990,1992,1993,1995,1998,2003,2009,2015,
            Gaussian, Inc.  All Rights Reserved.
  
 This is part of the Gaussian(R) 09 program.  It is based on
 the Gaussian(R) 03 system (copyright 2003, Gaussian, Inc.),
 the Gaussian(R) 98 system (copyright 1998, Gaussian, Inc.),
 the Gaussian(R) 94 system (copyright 1995, Gaussian, Inc.),
 the Gaussian 92(TM) system (copyright 1992, Gaussian, Inc.),
 the Gaussian 90(TM) system (copyright 1990, Gaussian, Inc.),
 the Gaussian 88(TM) system (copyright 1988, Gaussian, Inc.),
 the Gaussian 86(TM) system (copyright 1986, Carnegie Mellon
 University), and the Gaussian 82(TM) system (copyright 1983,
 Carnegie Mellon University). Gaussian is a federally registered
 trademark of Gaussian, Inc.
  
 This software contains proprietary and confidential information,
 including trade secrets, belonging to Gaussian, Inc.
  
 This software is provided under written license and may be
 used, copied, transmitted, or stored only in accord with that
 written license.
  
 The following legend is applicable only to US Government
 contracts under FAR:
  
                    RESTRICTED RIGHTS LEGEND
  
 Use, reproduction and disclosure by the US Government is
 subject to restrictions as set forth in subparagraphs (a)
 and (c) of the Commercial Computer Software - Restricted
 Rights clause in FAR 52.227-19.
  
 Gaussian, Inc.
 340 Quinnipiac St., Bldg. 40, Wallingford CT 06492
  
  
 ---------------------------------------------------------------
 Warning -- This program may not be used in any manner that
 competes with the business of Gaussian, Inc. or will provide
 assistance to any competitor of Gaussian, Inc.  The licensee
 of this program is prohibited from giving any competitor of
 Gaussian, Inc. access to this program.  By using this program,
 the user acknowledges that Gaussian, Inc. is engaged in the
 business of creating and licensing software in the field of
 computational chemistry and represents and warrants to the
 licensee that it is not a competitor of Gaussian, Inc. and that
 it will not use this program in any manner prohibited above.
 ---------------------------------------------------------------
  

 Cite this work as:
 Gaussian 09, Revision E.01,
 M. J. Frisch, G. W. Trucks, H. B. Schlegel, G. E. Scuseria, 
 M. A. Robb, J. R. Cheeseman, G. Scalmani, V. Barone, B. Mennucci, 
 G. A. Petersson, H. Nakatsuji, M. Caricato, X. Li, H. P. Hratchian, 
 A. F. Izmaylov, J. Bloino, G. Zheng, J. L. Sonnenberg, M. Hada, 
 M. Ehara, K. Toyota, R. Fukuda, J. Hasegawa, M. Ishida, T. Nakajima, 
 Y. Honda, O. Kitao, H. Nakai, T. Vreven, J. A. Montgomery, Jr., 
 J. E. Peralta, F. Ogliaro, M. Bearpark, J. J. Heyd, E. Brothers, 
 K. N. Kudin, V. N. Staroverov, T. Keith, R. Kobayashi, J. Normand, 
 K. Raghavachari, A. Rendell, J. C. Burant, S. S. Iyengar, J. Tomasi, 
 M. Cossi, N. Rega, J. M. Millam, M. Klene, J. E. Knox, J. B. Cross, 
 V. Bakken, C. Adamo, J. Jaramillo, R. Gomperts, R. E. Stratmann, 
 O. Yazyev, A. J. Austin, R. Cammi, C. Pomelli, J. W. Ochterski, 
 R. L. Martin, K. Morokuma, V. G. Zakrzewski, G. A. Voth, 
 P. Salvador, J. J. Dannenberg, S. Dapprich, A. D. Daniels, 
 O. Farkas, J. B. Foresman, J. V. Ortiz, J. Cioslowski, 
 and D. J. Fox, Gaussian, Inc., Wallingford CT, 2013.
 
 ******************************************
 Gaussian 09:  ES64L-G09RevE.01 30-Nov-2015
                12-Jul-2018 
 ******************************************
 %chk=aryl_urea_Cl_CF3_a1.M062X.chk
 %mem=196608000
 %nproc=4
 Will use up to    4 processors via shared memory.
 ----------------------------------------------------------------------
 # M062X/Gen 6D SCF=Tight INT(grid=ultrafine) OPT IOP(2/17=4) maxdisk=2
 147483648
 ----------------------------------------------------------------------
 1/14=-1,18=20,19=15,26=4,38=1/1,3;
 2/9=110,12=2,17=4,18=5,40=1/2;
 3/5=7,8=2,11=2,16=1,25=1,30=1,71=1,74=-55,75=-5/1,2,3;
 4//1;
 5/5=2,32=2,38=5/2;
 6/7=2,8=2,9=2,10=2,28=1/1;
 7//1,2,3,16;
 1/14=-1,18=20,19=15,26=4/3(2);
 2/9=110,17=4/2;
 99//99;
 2/9=110,17=4/2;
 3/5=7,6=1,8=2,11=2,16=1,25=1,30=1,71=1,74=-55,75=-5,82=7/1,2,3;
 4/5=5,16=3,69=1/1;
 5/5=2,32=2,38=5/2;
 7//1,2,3,16;
 1/14=-1,18=20,19=15,26=4/3(-5);
 2/9=110,17=4/2;
 6/7=2,8=2,9=2,10=2,19=2,28=1/1;
 99/9=1/99;
 -------------------------
 aryl_urea_Cl_CF3_a1.M062X
 -------------------------
 Symbolic Z-matrix:
 Charge = -1 Multiplicity = 1
 C                    -4.17234   3.02869  -0.85334 
 C                    -3.96756   1.65626  -0.73255 
 C                    -2.80712   1.11522  -0.21013 
 C                    -1.74574   1.945     0.23292 
 C                    -1.9494    3.34137   0.12188 
 C                    -3.13488   3.84331  -0.4075 
 H                    -5.08886   3.43246  -1.26687 
 N                    -0.6582    1.31849   0.79272 
 C                     0.52996   1.94252   0.84939 
 N                     1.46541   1.30103   1.64921 
 O                     0.88067   3.00868   0.26498 
 C                     2.88629   1.55563   1.44888 
 C                     3.72402   0.67469   2.36447 
 C                     5.21652   0.91654   2.1605 
 H                    -2.69494   0.03805  -0.13164 
 H                    -1.18423   4.0277    0.4631 
 H                     1.23028   0.33503   1.85142 
 H                     3.09259   2.60899   1.66352 
 H                     3.17457   1.37771   0.40142 
 H                     3.488    -0.37927   2.16756 
 H                     3.45036   0.87496   3.40763 
 H                     5.51195   0.69717   1.12834 
 H                     5.81405   0.28289   2.823 
 H                     5.47568   1.96061   2.36941 
 Cl                   -5.23931   0.57122  -1.26667 
 C                    -3.27098   5.33495  -0.49533 
 F                    -3.09556   5.93468   0.70216 
 F                    -4.47272   5.73071  -0.95005 
 F                    -2.35006   5.88265  -1.31914 
 

 GradGradGradGradGradGradGradGradGradGradGradGradGradGradGradGradGradGrad
 Berny optimization.
 Initialization pass.
                           ----------------------------
                           !    Initial Parameters    !
                           ! (Angstroms and Degrees)  !
 --------------------------                            --------------------------
 ! Name  Definition              Value          Derivative Info.                !
 --------------------------------------------------------------------------------
 ! R1    R(1,2)                  1.3929         estimate D2E/DX2                !
 ! R2    R(1,6)                  1.3924         estimate D2E/DX2                !
 ! R3    R(1,7)                  1.0835         estimate D2E/DX2                !
 ! R4    R(2,3)                  1.3829         estimate D2E/DX2                !
 ! R5    R(2,25)                 1.755          estimate D2E/DX2                !
 ! R6    R(3,4)                  1.4182         estimate D2E/DX2                !
 ! R7    R(3,15)                 1.0858         estimate D2E/DX2                !
 ! R8    R(4,5)                  1.4155         estimate D2E/DX2                !
 ! R9    R(4,8)                  1.3743         estimate D2E/DX2                !
 ! R10   R(5,6)                  1.392          estimate D2E/DX2                !
 ! R11   R(5,16)                 1.083          estimate D2E/DX2                !
 ! R12   R(6,26)                 1.5004         estimate D2E/DX2                !
 ! R13   R(8,9)                  1.3433         estimate D2E/DX2                !
 ! R14   R(9,10)                 1.3879         estimate D2E/DX2                !
 ! R15   R(9,11)                 1.2654         estimate D2E/DX2                !
 ! R16   R(10,12)                1.4573         estimate D2E/DX2                !
 ! R17   R(10,17)                1.0146         estimate D2E/DX2                !
 ! R18   R(12,13)                1.5219         estimate D2E/DX2                !
 ! R19   R(12,18)                1.0946         estimate D2E/DX2                !
 ! R20   R(12,19)                1.1009         estimate D2E/DX2                !
 ! R21   R(13,14)                1.5257         estimate D2E/DX2                !
 ! R22   R(13,20)                1.0979         estimate D2E/DX2                !
 ! R23   R(13,21)                1.0969         estimate D2E/DX2                !
 ! R24   R(14,22)                1.0958         estimate D2E/DX2                !
 ! R25   R(14,23)                1.0943         estimate D2E/DX2                !
 ! R26   R(14,24)                1.0959         estimate D2E/DX2                !
 ! R27   R(26,27)                1.3507         estimate D2E/DX2                !
 ! R28   R(26,28)                1.3445         estimate D2E/DX2                !
 ! R29   R(26,29)                1.3516         estimate D2E/DX2                !
 ! A1    A(2,1,6)              116.0506         estimate D2E/DX2                !
 ! A2    A(2,1,7)              121.6431         estimate D2E/DX2                !
 ! A3    A(6,1,7)              122.3058         estimate D2E/DX2                !
 ! A4    A(1,2,3)              122.7957         estimate D2E/DX2                !
 ! A5    A(1,2,25)             118.4415         estimate D2E/DX2                !
 ! A6    A(3,2,25)             118.7628         estimate D2E/DX2                !
 ! A7    A(2,3,4)              121.1391         estimate D2E/DX2                !
 ! A8    A(2,3,15)             120.1412         estimate D2E/DX2                !
 ! A9    A(4,3,15)             118.7197         estimate D2E/DX2                !
 ! A10   A(3,4,5)              116.4231         estimate D2E/DX2                !
 ! A11   A(3,4,8)              116.9204         estimate D2E/DX2                !
 ! A12   A(5,4,8)              126.551          estimate D2E/DX2                !
 ! A13   A(4,5,6)              120.5374         estimate D2E/DX2                !
 ! A14   A(4,5,16)             119.9188         estimate D2E/DX2                !
 ! A15   A(6,5,16)             119.5385         estimate D2E/DX2                !
 ! A16   A(1,6,5)              123.0503         estimate D2E/DX2                !
 ! A17   A(1,6,26)             119.6903         estimate D2E/DX2                !
 ! A18   A(5,6,26)             117.2588         estimate D2E/DX2                !
 ! A19   A(4,8,9)              120.3559         estimate D2E/DX2                !
 ! A20   A(8,9,10)             113.9392         estimate D2E/DX2                !
 ! A21   A(8,9,11)             128.1038         estimate D2E/DX2                !
 ! A22   A(10,9,11)            117.9544         estimate D2E/DX2                !
 ! A23   A(9,10,12)            119.8138         estimate D2E/DX2                !
 ! A24   A(9,10,17)            113.4985         estimate D2E/DX2                !
 ! A25   A(12,10,17)           114.815          estimate D2E/DX2                !
 ! A26   A(10,12,13)           110.6626         estimate D2E/DX2                !
 ! A27   A(10,12,18)           108.9598         estimate D2E/DX2                !
 ! A28   A(10,12,19)           110.9689         estimate D2E/DX2                !
 ! A29   A(13,12,18)           109.5921         estimate D2E/DX2                !
 ! A30   A(13,12,19)           109.5563         estimate D2E/DX2                !
 ! A31   A(18,12,19)           107.0219         estimate D2E/DX2                !
 ! A32   A(12,13,14)           111.4876         estimate D2E/DX2                !
 ! A33   A(12,13,20)           109.2356         estimate D2E/DX2                !
 ! A34   A(12,13,21)           109.2157         estimate D2E/DX2                !
 ! A35   A(14,13,20)           109.786          estimate D2E/DX2                !
 ! A36   A(14,13,21)           110.0154         estimate D2E/DX2                !
 ! A37   A(20,13,21)           106.9901         estimate D2E/DX2                !
 ! A38   A(13,14,22)           110.9738         estimate D2E/DX2                !
 ! A39   A(13,14,23)           111.1886         estimate D2E/DX2                !
 ! A40   A(13,14,24)           110.9092         estimate D2E/DX2                !
 ! A41   A(22,14,23)           107.8863         estimate D2E/DX2                !
 ! A42   A(22,14,24)           107.8515         estimate D2E/DX2                !
 ! A43   A(23,14,24)           107.8868         estimate D2E/DX2                !
 ! A44   A(6,26,27)            112.1937         estimate D2E/DX2                !
 ! A45   A(6,26,28)            113.1736         estimate D2E/DX2                !
 ! A46   A(6,26,29)            112.1318         estimate D2E/DX2                !
 ! A47   A(27,26,28)           106.5726         estimate D2E/DX2                !
 ! A48   A(27,26,29)           105.7812         estimate D2E/DX2                !
 ! A49   A(28,26,29)           106.4755         estimate D2E/DX2                !
 ! D1    D(6,1,2,3)             -0.3297         estimate D2E/DX2                !
 ! D2    D(6,1,2,25)           179.6423         estimate D2E/DX2                !
 ! D3    D(7,1,2,3)            179.9176         estimate D2E/DX2                !
 ! D4    D(7,1,2,25)            -0.1104         estimate D2E/DX2                !
 ! D5    D(2,1,6,5)              0.4805         estimate D2E/DX2                !
 ! D6    D(2,1,6,26)          -179.8057         estimate D2E/DX2                !
 ! D7    D(7,1,6,5)           -179.7687         estimate D2E/DX2                !
 ! D8    D(7,1,6,26)            -0.0548         estimate D2E/DX2                !
 ! D9    D(1,2,3,4)             -0.2208         estimate D2E/DX2                !
 ! D10   D(1,2,3,15)           179.7193         estimate D2E/DX2                !
 ! D11   D(25,2,3,4)           179.8073         estimate D2E/DX2                !
 ! D12   D(25,2,3,15)           -0.2526         estimate D2E/DX2                !
 ! D13   D(2,3,4,5)              0.6134         estimate D2E/DX2                !
 ! D14   D(2,3,4,8)            177.127          estimate D2E/DX2                !
 ! D15   D(15,3,4,5)          -179.3276         estimate D2E/DX2                !
 ! D16   D(15,3,4,8)            -2.814          estimate D2E/DX2                !
 ! D17   D(3,4,5,6)             -0.4664         estimate D2E/DX2                !
 ! D18   D(3,4,5,16)           178.6939         estimate D2E/DX2                !
 ! D19   D(8,4,5,6)           -176.5962         estimate D2E/DX2                !
 ! D20   D(8,4,5,16)             2.5641         estimate D2E/DX2                !
 ! D21   D(3,4,8,9)            158.9718         estimate D2E/DX2                !
 ! D22   D(5,4,8,9)            -24.9153         estimate D2E/DX2                !
 ! D23   D(4,5,6,1)             -0.0806         estimate D2E/DX2                !
 ! D24   D(4,5,6,26)          -179.801          estimate D2E/DX2                !
 ! D25   D(16,5,6,1)          -179.2442         estimate D2E/DX2                !
 ! D26   D(16,5,6,26)            1.0354         estimate D2E/DX2                !
 ! D27   D(1,6,26,27)          124.3038         estimate D2E/DX2                !
 ! D28   D(1,6,26,28)            3.6586         estimate D2E/DX2                !
 ! D29   D(1,6,26,29)         -116.814          estimate D2E/DX2                !
 ! D30   D(5,6,26,27)          -55.966          estimate D2E/DX2                !
 ! D31   D(5,6,26,28)         -176.6112         estimate D2E/DX2                !
 ! D32   D(5,6,26,29)           62.9162         estimate D2E/DX2                !
 ! D33   D(4,8,9,10)           168.8417         estimate D2E/DX2                !
 ! D34   D(4,8,9,11)           -11.7573         estimate D2E/DX2                !
 ! D35   D(8,9,10,12)          158.1461         estimate D2E/DX2                !
 ! D36   D(8,9,10,17)           17.1965         estimate D2E/DX2                !
 ! D37   D(11,9,10,12)         -21.3203         estimate D2E/DX2                !
 ! D38   D(11,9,10,17)        -162.2699         estimate D2E/DX2                !
 ! D39   D(9,10,12,13)        -175.949          estimate D2E/DX2                !
 ! D40   D(9,10,12,18)          63.4877         estimate D2E/DX2                !
 ! D41   D(9,10,12,19)         -54.1024         estimate D2E/DX2                !
 ! D42   D(17,10,12,13)        -35.4825         estimate D2E/DX2                !
 ! D43   D(17,10,12,18)       -156.0459         estimate D2E/DX2                !
 ! D44   D(17,10,12,19)         86.364          estimate D2E/DX2                !
 ! D45   D(10,12,13,14)        179.453          estimate D2E/DX2                !
 ! D46   D(10,12,13,20)         57.9418         estimate D2E/DX2                !
 ! D47   D(10,12,13,21)        -58.761          estimate D2E/DX2                !
 ! D48   D(18,12,13,14)        -60.361          estimate D2E/DX2                !
 ! D49   D(18,12,13,20)        178.1278         estimate D2E/DX2                !
 ! D50   D(18,12,13,21)         61.425          estimate D2E/DX2                !
 ! D51   D(19,12,13,14)         56.7801         estimate D2E/DX2                !
 ! D52   D(19,12,13,20)        -64.731          estimate D2E/DX2                !
 ! D53   D(19,12,13,21)        178.5662         estimate D2E/DX2                !
 ! D54   D(12,13,14,22)        -60.0696         estimate D2E/DX2                !
 ! D55   D(12,13,14,23)        179.8397         estimate D2E/DX2                !
 ! D56   D(12,13,14,24)         59.7916         estimate D2E/DX2                !
 ! D57   D(20,13,14,22)         61.1215         estimate D2E/DX2                !
 ! D58   D(20,13,14,23)        -58.9692         estimate D2E/DX2                !
 ! D59   D(20,13,14,24)       -179.0174         estimate D2E/DX2                !
 ! D60   D(21,13,14,22)        178.6085         estimate D2E/DX2                !
 ! D61   D(21,13,14,23)         58.5177         estimate D2E/DX2                !
 ! D62   D(21,13,14,24)        -61.5304         estimate D2E/DX2                !
 --------------------------------------------------------------------------------
 Trust Radius=3.00D-01 FncErr=1.00D-07 GrdErr=1.00D-06
 Number of steps in this run=    150 maximum allowed number of steps=    174.
 GradGradGradGradGradGradGradGradGradGradGradGradGradGradGradGradGradGrad

                          Input orientation:                          
 ---------------------------------------------------------------------
 Center     Atomic      Atomic             Coordinates (Angstroms)
 Number     Number       Type             X           Y           Z
 ---------------------------------------------------------------------
      1          6           0       -4.172337    3.028693   -0.853340
      2          6           0       -3.967562    1.656263   -0.732551
      3          6           0       -2.807117    1.115215   -0.210127
      4          6           0       -1.745742    1.945003    0.232915
      5          6           0       -1.949404    3.341367    0.121876
      6          6           0       -3.134881    3.843313   -0.407500
      7          1           0       -5.088856    3.432464   -1.266872
      8          7           0       -0.658204    1.318485    0.792722
      9          6           0        0.529955    1.942524    0.849393
     10          7           0        1.465414    1.301034    1.649210
     11          8           0        0.880666    3.008679    0.264976
     12          6           0        2.886294    1.555626    1.448884
     13          6           0        3.724025    0.674694    2.364472
     14          6           0        5.216522    0.916537    2.160496
     15          1           0       -2.694938    0.038048   -0.131644
     16          1           0       -1.184225    4.027701    0.463102
     17          1           0        1.230283    0.335033    1.851416
     18          1           0        3.092588    2.608994    1.663515
     19          1           0        3.174568    1.377706    0.401416
     20          1           0        3.488002   -0.379274    2.167565
     21          1           0        3.450359    0.874963    3.407635
     22          1           0        5.511947    0.697167    1.128340
     23          1           0        5.814047    0.282886    2.823001
     24          1           0        5.475682    1.960608    2.369415
     25         17           0       -5.239310    0.571225   -1.266675
     26          6           0       -3.270978    5.334946   -0.495328
     27          9           0       -3.095563    5.934680    0.702164
     28          9           0       -4.472722    5.730705   -0.950045
     29          9           0       -2.350061    5.882645   -1.319141
 ---------------------------------------------------------------------
                    Distance matrix (angstroms):
                    1          2          3          4          5
     1  C    0.000000
     2  C    1.392870   0.000000
     3  C    2.436995   1.382856   0.000000
     4  C    2.871010   2.439668   1.418221   0.000000
     5  C    2.447497   2.764522   2.408661   1.415501   0.000000
     6  C    1.392370   2.362669   2.754796   2.437913   1.391957
     7  H    1.083534   2.167415   3.419456   3.954531   3.434104
     8  N    4.240691   3.659563   2.380095   1.374280   2.491843
     9  C    5.117677   4.776207   3.597649   2.357721   2.938242
    10  N    6.405607   5.942743   4.663280   3.568208   4.261067
    11  O    5.175314   5.131218   4.172609   2.833805   2.853149
    12  C    7.569309   7.193339   5.946529   4.804784   5.322950
    13  C    8.845799   8.349583   7.034091   6.006294   6.657941
    14  C   10.084398   9.657345   8.368877   7.297015   7.834939
    15  H    3.412845   2.144593   1.085833   2.161100   3.395881
    16  H    3.414653   3.847112   3.401410   2.169313   1.083046
    17  H    6.615120   5.953161   4.599918   3.750769   4.705291
    18  H    7.699991   7.516286   6.367765   5.088904   5.323036
    19  H    7.633950   7.236953   6.018591   4.955771   5.494470
    20  H    8.911840   8.254666   6.893144   6.044601   6.898797
    21  H    8.994441   8.530951   7.232008   6.182499   6.785043
    22  H   10.156202   9.707929   8.436415   7.418418   7.979758
    23  H   10.990124  10.497999   9.176988   8.162205   8.770494
    24  H   10.227963   9.944328   8.716277   7.530858   7.879710
    25  Cl   2.710798   1.754976   2.706988   4.042407   4.519430
    26  C    2.501885   3.751562   4.254719   3.787929   2.470194
    27  F    3.467535   4.596046   4.913524   4.237893   2.894078
    28  F    2.720377   4.111395   4.962304   4.813249   3.636631
    29  F    3.417997   4.563190   4.916015   4.275408   2.948754
                    6          7          8          9         10
     6  C    0.000000
     7  H    2.173783   0.000000
     8  N    3.734865   5.323674   0.000000
     9  C    4.315530   6.186238   1.343264   0.000000
    10  N    5.644107   7.483647   2.289897   1.387912   0.000000
    11  O    4.156135   6.177486   2.345931   1.265396   2.274661
    12  C    6.703299   8.631388   3.612513   2.461993   1.457343
    13  C    8.047892   9.922641   4.699872   3.755654   2.450556
    14  C    9.214475  11.147984   6.045227   4.973484   3.805267
    15  H    3.840532   4.306001   2.577258   3.871615   4.698415
    16  H    2.144063   4.311990   2.779424   2.726829   3.982731
    17  H    6.038658   7.697357   2.377897   2.019539   1.014560
    18  H    6.677875   8.729335   4.061051   2.770210   2.087740
    19  H    6.822222   8.676946   3.853151   2.741109   2.117563
    20  H    8.265820   9.994358   4.686534   3.984766   2.680110
    21  H    8.168950  10.065288   4.890273   4.026543   2.685815
    22  H    9.328702  11.206958   6.210430   5.142856   4.124366
    23  H   10.158548  12.063175   6.861817   5.879724   4.617902
    24  H    9.241083  11.269356   6.365755   5.174070   4.127467
    25  Cl   3.984139   2.865192   5.077996   6.296239   7.347675
    26  C    1.500402   2.742152   4.961615   5.269146   6.580646
    27  F    2.367850   3.756515   5.220936   5.394754   6.570394
    28  F    2.376221   2.400398   6.087320   6.528022   7.851087
    29  F    2.367680   3.675202   5.306025   5.340561   6.660339
                   11         12         13         14         15
    11  O    0.000000
    12  C    2.745095   0.000000
    13  C    4.235570   1.521885   0.000000
    14  C    5.173944   2.518886   1.525661   0.000000
    15  H    4.665501   5.995937   6.916574   8.283528   0.000000
    16  H    2.311155   4.863337   6.240896   7.316423   4.307355
    17  H    3.128483   2.096247   2.568530   4.040269   4.407730
    18  H    2.647312   1.094627   2.152108   2.760886   6.582387
    19  H    2.817920   1.100884   2.156320   2.734340   6.044000
    20  H    4.679345   2.149975   1.097875   2.160315   6.609785
    21  H    4.586107   2.148995   1.096900   2.162502   7.140840
    22  H    5.247595   2.780963   2.173751   1.095786   8.329164
    23  H    6.189644   3.475601   2.175306   1.094287   9.010699
    24  H    5.161519   2.777826   2.172994   1.095854   8.758456
    25  Cl   6.763227   8.623732   9.671469  11.008595   2.836618
    26  C    4.819309   7.481659   8.878428   9.930428   5.340526
    27  F    4.956109   7.450927   8.771402   9.818312   5.968752
    28  F    6.127354   8.794388  10.185084  11.257581   6.019687
    29  F    4.605074   7.335153   8.808307   9.696560   5.973977
                   16         17         18         19         20
    16  H    0.000000
    17  H    4.625264   0.000000
    18  H    4.663138   2.945231   0.000000
    19  H    5.101505   2.640059   1.765130   0.000000
    20  H    6.645023   2.389033   3.056168   2.510877   0.000000
    21  H    6.331619   2.764431   2.485320   3.060419   1.764172
    22  H    7.508244   4.357365   3.129664   2.540648   2.516957
    23  H    8.280615   4.685893   3.763180   3.745605   2.505702
    24  H    7.229195   4.575394   2.568624   3.083491   3.076795
    25  Cl   5.602059   7.185674   9.064163   8.615468   9.426740
    26  C    2.642351   7.125146   7.251648   7.616362   9.242680
    27  F    2.710522   7.168666   7.090670   7.756997   9.238871
    28  F    3.963764   8.335810   8.591257   8.902589  10.508305
    29  F    2.824249   7.324432   7.016799   7.333234   9.244011
                   21         22         23         24         25
    21  H    0.000000
    22  H    3.078464   0.000000
    23  H    2.505868   1.770528   0.000000
    24  H    2.521598   1.771403   1.770589   0.000000
    25  Cl   9.871767  11.015512  11.789203  11.400113   0.000000
    26  C    8.961080  10.064049  10.912026   9.802906   5.211751
    27  F    8.704563  10.084761  10.762057   9.593707   6.102346
    28  F   10.263666  11.373206  12.236512  11.144648   5.225720
    29  F    9.003564   9.730906  10.731603   9.498951   6.046627
                   26         27         28         29
    26  C    0.000000
    27  F    1.350718   0.000000
    28  F    1.344463   2.160548   0.000000
    29  F    1.351566   2.155030   2.159863   0.000000
 Stoichiometry    C11H11ClF3N2O(1-)
 Framework group  C1[X(C11H11ClF3N2O)]
 Deg. of freedom    81
 Full point group                 C1      NOp   1
 Largest Abelian subgroup         C1      NOp   1
 Largest concise Abelian subgroup C1      NOp   1
                         Standard orientation:                         
 ---------------------------------------------------------------------
 Center     Atomic      Atomic             Coordinates (Angstroms)
 Number     Number       Type             X           Y           Z
 ---------------------------------------------------------------------
      1          6           0        2.977300    0.463149   -0.056292
      2          6           0        2.368517    1.715843   -0.041173
      3          6           0        0.999736    1.882207    0.063957
      4          6           0        0.130392    0.765700    0.158839
      5          6           0        0.741785   -0.510940    0.153152
      6          6           0        2.124480   -0.632473    0.048625
      7          1           0        4.052050    0.354413   -0.140757
      8          7           0       -1.208187    1.031380    0.320909
      9          6           0       -2.127432    0.104471    0.004388
     10          7           0       -3.408642    0.409388    0.442368
     11          8           0       -1.960559   -0.973780   -0.636514
     12          6           0       -4.560736   -0.208709   -0.201435
     13          6           0       -5.857330    0.344613    0.371986
     14          6           0       -7.076715   -0.280538   -0.298780
     15          1           0        0.571077    2.879773    0.076119
     16          1           0        0.132834   -1.401928    0.244298
     17          1           0       -3.530787    1.386475    0.686736
     18          1           0       -4.520289   -1.290633   -0.040152
     19          1           0       -4.539251   -0.044084   -1.289729
     20          1           0       -5.876642    1.433997    0.237085
     21          1           0       -5.884413    0.154856    1.452009
     22          1           0       -7.078196   -0.079151   -1.375900
     23          1           0       -8.006022    0.118571    0.119030
     24          1           0       -7.084951   -1.367570   -0.160253
     25         17           0        3.385746    3.140987   -0.160118
     26          6           0        2.694023   -2.020571    0.045270
     27          9           0        2.323194   -2.726858    1.135263
     28          9           0        4.037970   -2.040944    0.014087
     29          9           0        2.274955   -2.740326   -1.019186
 ---------------------------------------------------------------------
 Rotational constants (GHZ):      0.5200232      0.1594947      0.1260845
 General basis read from cards:  (6D, 7F)
 There are   368 symmetry adapted cartesian basis functions of A   symmetry.
 There are   368 symmetry adapted basis functions of A   symmetry.
   368 basis functions,   644 primitive gaussians,   368 cartesian basis functions
    72 alpha electrons       72 beta electrons
       nuclear repulsion energy      1398.1933237122 Hartrees.
 NAtoms=   29 NActive=   29 NUniq=   29 SFac= 1.00D+00 NAtFMM=   60 NAOKFM=F Big=F
 Integral buffers will be    131072 words long.
 Raffenetti 2 integral format.
 Two-electron integral symmetry is turned on.
 One-electron integrals computed using PRISM.
 NBasis=   368 RedAO= T EigKep=  1.59D-06  NBF=   368
 NBsUse=   367 1.00D-06 EigRej=  9.29D-07 NBFU=   367
 ExpMin= 4.38D-02 ExpMax= 2.52D+04 ExpMxC= 3.78D+03 IAcc=3 IRadAn=         5 AccDes= 0.00D+00
 Harris functional with IExCor= 1009 and IRadAn=       5 diagonalized for initial guess.
 HarFok:  IExCor= 1009 AccDes= 0.00D+00 IRadAn=         5 IDoV= 1 UseB2=F ITyADJ=14
 ICtDFT=  3500011 ScaDFX=  1.000000  1.000000  1.000000  1.000000
 FoFCou: FMM=F IPFlag=           0 FMFlag=      100000 FMFlg1=           0
         NFxFlg=           0 DoJE=T BraDBF=F KetDBF=T FulRan=T
         wScrn=  0.000000 ICntrl=     500 IOpCl=  0 I1Cent=   200000004 NGrid=           0
         NMat0=    1 NMatS0=      1 NMatT0=    0 NMatD0=    1 NMtDS0=    0 NMtDT0=    0
 Petite list used in FoFCou.
 Requested convergence on RMS density matrix=1.00D-08 within 128 cycles.
 Requested convergence on MAX density matrix=1.00D-06.
 Requested convergence on             energy=1.00D-06.
 No special actions if energy rises.
 SCF Done:  E(RM062X) =  -1369.99652931     A.U. after   16 cycles
            NFock= 16  Conv=0.82D-08     -V/T= 2.0063

 **********************************************************************

            Population analysis using the SCF density.

 **********************************************************************

 Orbital symmetries:
       Occupied  (A) (A) (A) (A) (A) (A) (A) (A) (A) (A) (A) (A)
                 (A) (A) (A) (A) (A) (A) (A) (A) (A) (A) (A) (A)
                 (A) (A) (A) (A) (A) (A) (A) (A) (A) (A) (A) (A)
                 (A) (A) (A) (A) (A) (A) (A) (A) (A) (A) (A) (A)
                 (A) (A) (A) (A) (A) (A) (A) (A) (A) (A) (A) (A)
                 (A) (A) (A) (A) (A) (A) (A) (A) (A) (A) (A) (A)
       Virtual   (A) (A) (A) (A) (A) (A) (A) (A) (A) (A) (A) (A)
                 (A) (A) (A) (A) (A) (A) (A) (A) (A) (A) (A) (A)
                 (A) (A) (A) (A) (A) (A) (A) (A) (A) (A) (A) (A)
                 (A) (A) (A) (A) (A) (A) (A) (A) (A) (A) (A) (A)
                 (A) (A) (A) (A) (A) (A) (A) (A) (A) (A) (A) (A)
                 (A) (A) (A) (A) (A) (A) (A) (A) (A) (A) (A) (A)
                 (A) (A) (A) (A) (A) (A) (A) (A) (A) (A) (A) (A)
                 (A) (A) (A) (A) (A) (A) (A) (A) (A) (A) (A) (A)
                 (A) (A) (A) (A) (A) (A) (A) (A) (A) (A) (A) (A)
                 (A) (A) (A) (A) (A) (A) (A) (A) (A) (A) (A) (A)
                 (A) (A) (A) (A) (A) (A) (A) (A) (A) (A) (A) (A)
                 (A) (A) (A) (A) (A) (A) (A) (A) (A) (A) (A) (A)
                 (A) (A) (A) (A) (A) (A) (A) (A) (A) (A) (A) (A)
                 (A) (A) (A) (A) (A) (A) (A) (A) (A) (A) (A) (A)
                 (A) (A) (A) (A) (A) (A) (A) (A) (A) (A) (A) (A)
                 (A) (A) (A) (A) (A) (A) (A) (A) (A) (A) (A) (A)
                 (A) (A) (A) (A) (A) (A) (A) (A) (A) (A) (A) (A)
                 (A) (A) (A) (A) (A) (A) (A) (A) (A) (A) (A) (A)
                 (A) (A) (A) (A) (A) (A) (A) (A) (A) (A) (A) (A)
                 (A) (A) (A) (A) (A) (A) (A) (A) (A) (A) (A) (A)
                 (A) (A) (A) (A) (A) (A) (A) (A) (A) (A) (A) (A)
                 (A) (A) (A) (A) (A) (A) (A) (A) (A) (A) (A) (A)
                 (A) (A) (A) (A) (A) (A) (A) (A) (A) (A) (A) (A)
                 (A) (A) (A) (A) (A) (A) (A) (A) (A) (A) (A) (A)
                 (A) (A) (A) (A) (A) (A) (A)
 The electronic state is 1-A.
 Alpha  occ. eigenvalues -- -102.56171 -25.19537 -25.18651 -25.18404 -19.44166
 Alpha  occ. eigenvalues --  -14.63334 -14.57133 -10.69567 -10.50547 -10.49696
 Alpha  occ. eigenvalues --  -10.46226 -10.46132 -10.45938 -10.45696 -10.45598
 Alpha  occ. eigenvalues --  -10.44200 -10.42942 -10.42305  -9.70855  -7.43235
 Alpha  occ. eigenvalues --   -7.42613  -7.42607  -1.35440  -1.26465  -1.25604
 Alpha  occ. eigenvalues --   -0.99010  -0.88361  -0.88021  -0.84766  -0.81672
 Alpha  occ. eigenvalues --   -0.78497  -0.74544  -0.70327  -0.68521  -0.66486
 Alpha  occ. eigenvalues --   -0.60367  -0.59223  -0.58067  -0.57602  -0.55883
 Alpha  occ. eigenvalues --   -0.52163  -0.49445  -0.46574  -0.46079  -0.45841
 Alpha  occ. eigenvalues --   -0.45153  -0.44269  -0.43055  -0.41673  -0.41256
 Alpha  occ. eigenvalues --   -0.40190  -0.39838  -0.38733  -0.38202  -0.37303
 Alpha  occ. eigenvalues --   -0.35915  -0.35194  -0.34395  -0.33536  -0.32622
 Alpha  occ. eigenvalues --   -0.32019  -0.30426  -0.30087  -0.29101  -0.28328
 Alpha  occ. eigenvalues --   -0.26929  -0.22951  -0.19760  -0.18059  -0.17303
 Alpha  occ. eigenvalues --   -0.15242  -0.10436
 Alpha virt. eigenvalues --    0.09707   0.10895   0.11313   0.12490   0.12734
 Alpha virt. eigenvalues --    0.13101   0.13627   0.14034   0.14357   0.14779
 Alpha virt. eigenvalues --    0.15274   0.15885   0.15930   0.16238   0.16727
 Alpha virt. eigenvalues --    0.17037   0.17778   0.18115   0.18208   0.19146
 Alpha virt. eigenvalues --    0.19940   0.20074   0.20903   0.22171   0.22668
 Alpha virt. eigenvalues --    0.23095   0.23187   0.23382   0.24003   0.24787
 Alpha virt. eigenvalues --    0.25600   0.26023   0.26455   0.26589   0.27482
 Alpha virt. eigenvalues --    0.28482   0.28563   0.29214   0.29981   0.30434
 Alpha virt. eigenvalues --    0.30738   0.31238   0.31889   0.32086   0.32328
 Alpha virt. eigenvalues --    0.32755   0.33191   0.33580   0.33829   0.34510
 Alpha virt. eigenvalues --    0.34785   0.35368   0.35977   0.36536   0.36713
 Alpha virt. eigenvalues --    0.37916   0.38370   0.38701   0.39349   0.39919
 Alpha virt. eigenvalues --    0.40020   0.40450   0.40681   0.41315   0.41526
 Alpha virt. eigenvalues --    0.41998   0.42449   0.42725   0.42873   0.43735
 Alpha virt. eigenvalues --    0.44273   0.44563   0.45288   0.45466   0.46372
 Alpha virt. eigenvalues --    0.46769   0.47397   0.48017   0.48414   0.48662
 Alpha virt. eigenvalues --    0.49451   0.49876   0.50154   0.50650   0.51445
 Alpha virt. eigenvalues --    0.51857   0.52711   0.53010   0.53547   0.54869
 Alpha virt. eigenvalues --    0.55581   0.56890   0.57024   0.58168   0.58853
 Alpha virt. eigenvalues --    0.59553   0.60771   0.62944   0.64379   0.65760
 Alpha virt. eigenvalues --    0.65953   0.70666   0.71604   0.74815   0.75914
 Alpha virt. eigenvalues --    0.77594   0.78677   0.79178   0.80928   0.82435
 Alpha virt. eigenvalues --    0.83403   0.84355   0.85595   0.86009   0.87641
 Alpha virt. eigenvalues --    0.88599   0.89005   0.90695   0.90914   0.92016
 Alpha virt. eigenvalues --    0.92334   0.95784   0.96376   0.96670   0.97609
 Alpha virt. eigenvalues --    0.98393   0.98764   1.00602   1.01388   1.02478
 Alpha virt. eigenvalues --    1.03286   1.03932   1.05552   1.06978   1.07280
 Alpha virt. eigenvalues --    1.09451   1.10565   1.11172   1.11717   1.12585
 Alpha virt. eigenvalues --    1.12866   1.13711   1.16418   1.17194   1.18094
 Alpha virt. eigenvalues --    1.18898   1.20012   1.20905   1.21767   1.24530
 Alpha virt. eigenvalues --    1.25353   1.25952   1.27244   1.27797   1.28225
 Alpha virt. eigenvalues --    1.28930   1.31000   1.33797   1.34667   1.35329
 Alpha virt. eigenvalues --    1.37057   1.38134   1.38569   1.41592   1.42732
 Alpha virt. eigenvalues --    1.44646   1.46271   1.47695   1.49990   1.52763
 Alpha virt. eigenvalues --    1.54658   1.55211   1.56847   1.57772   1.59903
 Alpha virt. eigenvalues --    1.60785   1.61313   1.64057   1.64351   1.65114
 Alpha virt. eigenvalues --    1.68188   1.68631   1.69592   1.71026   1.72724
 Alpha virt. eigenvalues --    1.76148   1.77330   1.80302   1.80580   1.80633
 Alpha virt. eigenvalues --    1.82076   1.84421   1.85230   1.86051   1.86947
 Alpha virt. eigenvalues --    1.88167   1.88429   1.89304   1.92776   1.95386
 Alpha virt. eigenvalues --    1.96155   1.97050   1.99106   1.99848   2.00878
 Alpha virt. eigenvalues --    2.01662   2.02918   2.03616   2.04556   2.05536
 Alpha virt. eigenvalues --    2.05699   2.08087   2.08610   2.12382   2.12669
 Alpha virt. eigenvalues --    2.13255   2.14303   2.14520   2.16182   2.17106
 Alpha virt. eigenvalues --    2.18682   2.19777   2.20492   2.21476   2.21974
 Alpha virt. eigenvalues --    2.23953   2.25224   2.25514   2.26534   2.27626
 Alpha virt. eigenvalues --    2.27831   2.31680   2.33879   2.34939   2.36662
 Alpha virt. eigenvalues --    2.37804   2.40833   2.42301   2.43328   2.44096
 Alpha virt. eigenvalues --    2.44293   2.45141   2.48322   2.49764   2.52304
 Alpha virt. eigenvalues --    2.55037   2.58867   2.61992   2.63001   2.64233
 Alpha virt. eigenvalues --    2.70833   2.73593   2.74669   2.75900   2.78468
 Alpha virt. eigenvalues --    2.78995   2.82803   2.85482   2.88029   2.89339
 Alpha virt. eigenvalues --    2.90466   2.91346   2.93126   2.95082   2.99103
 Alpha virt. eigenvalues --    3.05998   3.08988   3.11422   3.13940   3.22895
 Alpha virt. eigenvalues --    3.26302   3.30875   3.37275   3.39810   3.42449
 Alpha virt. eigenvalues --    3.51184   3.55137   4.30311   4.36838   4.41081
 Alpha virt. eigenvalues --    4.46132   4.50334   4.51203   4.52172   4.54179
 Alpha virt. eigenvalues --    4.58603   4.60903   4.64349   4.68442   4.72880
 Alpha virt. eigenvalues --    4.79347   4.94675   5.65399   6.14728   6.96749
          Condensed to atoms (all electrons):
               1          2          3          4          5          6
     1  C   18.271565  -3.161534  -2.553729  -0.348293   0.751574  -7.270539
     2  C   -3.161534  10.987661  -5.361178   3.274954  -0.071851   1.055610
     3  C   -2.553729  -5.361178  31.540343  -9.108086  -7.943060   0.225022
     4  C   -0.348293   3.274954  -9.108086  19.695216  -0.374602  -3.552337
     5  C    0.751574  -0.071851  -7.943060  -0.374602  12.437739   1.684002
     6  C   -7.270539   1.055610   0.225022  -3.552337   1.684002  15.177714
     7  H    0.215498   0.028958   0.047790   0.002597  -0.001337   0.014354
     8  N    0.024119   0.093588  -0.119218   0.617058  -0.294842  -0.033611
     9  C    0.666233  -0.030976  -1.798200  -0.472519   0.321649  -0.529230
    10  N   -0.045792  -0.008338  -0.227679  -0.221439   0.304552   0.132173
    11  O   -0.016391   0.052111  -0.150007  -0.104624   0.189682   0.019014
    12  C    0.031000  -0.000286  -0.182569  -0.465453   0.062232  -0.020431
    13  C   -0.002051  -0.001258   0.001564   0.035749   0.007244   0.006216
    14  C    0.000344   0.000172  -0.009121  -0.015141   0.007159   0.000072
    15  H    0.052781  -0.106595   0.301030   0.013326   0.043448   0.013457
    16  H    0.066342  -0.028589   0.011880  -0.228781   0.404165  -0.026894
    17  H    0.000627   0.000586  -0.019264   0.006045   0.010821   0.000093
    18  H   -0.000092  -0.000109  -0.000834  -0.010427   0.008118   0.001252
    19  H    0.000158   0.000230  -0.000438   0.007513  -0.006445  -0.001284
    20  H    0.000001   0.000008   0.000375  -0.002570  -0.000474  -0.000004
    21  H    0.000003   0.000004  -0.000317  -0.000028   0.000526   0.000004
    22  H    0.000000   0.000000  -0.000014   0.000020   0.000033   0.000001
    23  H    0.000000  -0.000000   0.000001  -0.000040  -0.000005  -0.000000
    24  H    0.000000  -0.000000   0.000014  -0.000042  -0.000068  -0.000001
    25  Cl  -0.145634  -0.287098   0.255410  -0.149598  -0.037222   0.099073
    26  C    0.553058  -1.146243   1.692213  -2.758935  -1.135542  -0.623546
    27  F   -0.101316   0.035235  -0.004731   0.061551  -0.013730   0.007445
    28  F   -0.108038   0.116379   0.027563   0.022048   0.043151  -0.095712
    29  F   -0.079237   0.022741  -0.005262   0.025400  -0.028645   0.006681
               7          8          9         10         11         12
     1  C    0.215498   0.024119   0.666233  -0.045792  -0.016391   0.031000
     2  C    0.028958   0.093588  -0.030976  -0.008338   0.052111  -0.000286
     3  C    0.047790  -0.119218  -1.798200  -0.227679  -0.150007  -0.182569
     4  C    0.002597   0.617058  -0.472519  -0.221439  -0.104624  -0.465453
     5  C   -0.001337  -0.294842   0.321649   0.304552   0.189682   0.062232
     6  C    0.014354  -0.033611  -0.529230   0.132173   0.019014  -0.020431
     7  H    0.483726   0.000139   0.001350   0.000000   0.000007   0.000006
     8  N    0.000139   7.620941   0.214397  -0.524117  -0.123352   0.032738
     9  C    0.001350   0.214397   7.144129   0.069077   0.522517  -0.398471
    10  N    0.000000  -0.524117   0.069077   7.990908  -0.239409   0.201782
    11  O    0.000007  -0.123352   0.522517  -0.239409   8.579345  -0.059716
    12  C    0.000006   0.032738  -0.398471   0.201782  -0.059716   7.115430
    13  C    0.000000  -0.035607   0.100687  -0.038037   0.016604  -0.648403
    14  C    0.000000   0.007382  -0.035875   0.003234   0.003061  -0.018972
    15  H   -0.000126  -0.009171  -0.014403  -0.000264   0.000050  -0.000476
    16  H   -0.000110  -0.000618   0.045188   0.000719  -0.010969   0.003716
    17  H   -0.000000   0.012707   0.048019   0.257834   0.010563  -0.106137
    18  H    0.000000  -0.012013  -0.021896  -0.013645  -0.005797   0.380183
    19  H   -0.000000   0.018358   0.022575  -0.128460   0.008822   0.495345
    20  H    0.000000  -0.002621  -0.012356   0.005226  -0.000446  -0.088061
    21  H   -0.000000   0.001318  -0.000549   0.001216   0.000051  -0.059512
    22  H   -0.000000   0.000056  -0.000682  -0.000109  -0.000017  -0.010232
    23  H    0.000000   0.000011  -0.001371   0.000686   0.000005   0.033936
    24  H    0.000000  -0.000037  -0.002339   0.000208  -0.000091  -0.015570
    25  Cl  -0.000562  -0.001541  -0.020102  -0.000190  -0.000495  -0.000533
    26  C   -0.018566   0.015322  -0.292983   0.017865  -0.023783  -0.014791
    27  F   -0.000136  -0.000149  -0.003108  -0.000005   0.000059  -0.000191
    28  F    0.007755   0.000232   0.002031  -0.000005  -0.000065   0.000021
    29  F   -0.000258  -0.000115   0.006855   0.000063  -0.000425   0.000151
              13         14         15         16         17         18
     1  C   -0.002051   0.000344   0.052781   0.066342   0.000627  -0.000092
     2  C   -0.001258   0.000172  -0.106595  -0.028589   0.000586  -0.000109
     3  C    0.001564  -0.009121   0.301030   0.011880  -0.019264  -0.000834
     4  C    0.035749  -0.015141   0.013326  -0.228781   0.006045  -0.010427
     5  C    0.007244   0.007159   0.043448   0.404165   0.010821   0.008118
     6  C    0.006216   0.000072   0.013457  -0.026894   0.000093   0.001252
     7  H    0.000000   0.000000  -0.000126  -0.000110  -0.000000   0.000000
     8  N   -0.035607   0.007382  -0.009171  -0.000618   0.012707  -0.012013
     9  C    0.100687  -0.035875  -0.014403   0.045188   0.048019  -0.021896
    10  N   -0.038037   0.003234  -0.000264   0.000719   0.257834  -0.013645
    11  O    0.016604   0.003061   0.000050  -0.010969   0.010563  -0.005797
    12  C   -0.648403  -0.018972  -0.000476   0.003716  -0.106137   0.380183
    13  C    6.461527  -0.098905   0.000025  -0.000258   0.018960   0.006832
    14  C   -0.098905   5.691276   0.000001   0.000021   0.004445  -0.013210
    15  H    0.000025   0.000001   0.489407  -0.000100   0.000008  -0.000000
    16  H   -0.000258   0.000021  -0.000100   0.449396   0.000000   0.000001
    17  H    0.018960   0.004445   0.000008   0.000000   0.369446   0.003153
    18  H    0.006832  -0.013210  -0.000000   0.000001   0.003153   0.504489
    19  H   -0.139544   0.012476   0.000000  -0.000001   0.001212  -0.043775
    20  H    0.451662  -0.040865  -0.000000  -0.000000   0.002303   0.004452
    21  H    0.411921  -0.036946   0.000000  -0.000000  -0.000203  -0.006192
    22  H   -0.062621   0.421471   0.000000   0.000000   0.000003  -0.000226
    23  H   -0.097832   0.415887  -0.000000  -0.000000  -0.000002  -0.000085
    24  H   -0.054013   0.419920  -0.000000   0.000000  -0.000000   0.002766
    25  Cl   0.000009  -0.000005   0.000561   0.000329  -0.000015  -0.000000
    26  C    0.001819  -0.000204   0.006107   0.056118   0.000025   0.000241
    27  F    0.000004  -0.000000   0.000001   0.002270   0.000000   0.000000
    28  F    0.000000   0.000000  -0.000002   0.000514   0.000000   0.000000
    29  F    0.000003  -0.000000   0.000002   0.000353   0.000000   0.000000
              19         20         21         22         23         24
     1  C    0.000158   0.000001   0.000003   0.000000   0.000000   0.000000
     2  C    0.000230   0.000008   0.000004   0.000000  -0.000000  -0.000000
     3  C   -0.000438   0.000375  -0.000317  -0.000014   0.000001   0.000014
     4  C    0.007513  -0.002570  -0.000028   0.000020  -0.000040  -0.000042
     5  C   -0.006445  -0.000474   0.000526   0.000033  -0.000005  -0.000068
     6  C   -0.001284  -0.000004   0.000004   0.000001  -0.000000  -0.000001
     7  H   -0.000000   0.000000  -0.000000  -0.000000   0.000000   0.000000
     8  N    0.018358  -0.002621   0.001318   0.000056   0.000011  -0.000037
     9  C    0.022575  -0.012356  -0.000549  -0.000682  -0.001371  -0.002339
    10  N   -0.128460   0.005226   0.001216  -0.000109   0.000686   0.000208
    11  O    0.008822  -0.000446   0.000051  -0.000017   0.000005  -0.000091
    12  C    0.495345  -0.088061  -0.059512  -0.010232   0.033936  -0.015570
    13  C   -0.139544   0.451662   0.411921  -0.062621  -0.097832  -0.054013
    14  C    0.012476  -0.040865  -0.036946   0.421471   0.415887   0.419920
    15  H    0.000000  -0.000000   0.000000   0.000000  -0.000000  -0.000000
    16  H   -0.000001  -0.000000  -0.000000   0.000000  -0.000000   0.000000
    17  H    0.001212   0.002303  -0.000203   0.000003  -0.000002  -0.000000
    18  H   -0.043775   0.004452  -0.006192  -0.000226  -0.000085   0.002766
    19  H    0.562229  -0.006868   0.004656   0.002632  -0.000061  -0.000520
    20  H   -0.006868   0.537863  -0.037465  -0.004762  -0.003029   0.004257
    21  H    0.004656  -0.037465   0.509813   0.003999  -0.002865  -0.004806
    22  H    0.002632  -0.004762   0.003999   0.504590  -0.028118  -0.030940
    23  H   -0.000061  -0.003029  -0.002865  -0.028118   0.519734  -0.027811
    24  H   -0.000520   0.004257  -0.004806  -0.030940  -0.027811   0.503619
    25  Cl   0.000000  -0.000000  -0.000000   0.000000   0.000000  -0.000000
    26  C   -0.000180   0.000000  -0.000001   0.000000  -0.000000  -0.000000
    27  F   -0.000000  -0.000000  -0.000000   0.000000  -0.000000  -0.000000
    28  F   -0.000000   0.000000  -0.000000   0.000000   0.000000   0.000000
    29  F   -0.000000  -0.000000  -0.000000   0.000000  -0.000000  -0.000000
              25         26         27         28         29
     1  C   -0.145634   0.553058  -0.101316  -0.108038  -0.079237
     2  C   -0.287098  -1.146243   0.035235   0.116379   0.022741
     3  C    0.255410   1.692213  -0.004731   0.027563  -0.005262
     4  C   -0.149598  -2.758935   0.061551   0.022048   0.025400
     5  C   -0.037222  -1.135542  -0.013730   0.043151  -0.028645
     6  C    0.099073  -0.623546   0.007445  -0.095712   0.006681
     7  H   -0.000562  -0.018566  -0.000136   0.007755  -0.000258
     8  N   -0.001541   0.015322  -0.000149   0.000232  -0.000115
     9  C   -0.020102  -0.292983  -0.003108   0.002031   0.006855
    10  N   -0.000190   0.017865  -0.000005  -0.000005   0.000063
    11  O   -0.000495  -0.023783   0.000059  -0.000065  -0.000425
    12  C   -0.000533  -0.014791  -0.000191   0.000021   0.000151
    13  C    0.000009   0.001819   0.000004   0.000000   0.000003
    14  C   -0.000005  -0.000204  -0.000000   0.000000  -0.000000
    15  H    0.000561   0.006107   0.000001  -0.000002   0.000002
    16  H    0.000329   0.056118   0.002270   0.000514   0.000353
    17  H   -0.000015   0.000025   0.000000   0.000000   0.000000
    18  H   -0.000000   0.000241   0.000000   0.000000   0.000000
    19  H    0.000000  -0.000180  -0.000000  -0.000000  -0.000000
    20  H   -0.000000   0.000000  -0.000000   0.000000  -0.000000
    21  H   -0.000000  -0.000001  -0.000000  -0.000000  -0.000000
    22  H    0.000000   0.000000   0.000000   0.000000   0.000000
    23  H    0.000000  -0.000000  -0.000000   0.000000  -0.000000
    24  H   -0.000000  -0.000000  -0.000000   0.000000  -0.000000
    25  Cl  17.190935   0.003596  -0.000234  -0.000669  -0.000190
    26  C    0.003596   7.872044   0.133336   0.081223   0.173415
    27  F   -0.000234   0.133336   9.280425  -0.041645  -0.062096
    28  F   -0.000669   0.081223  -0.041645   9.347825  -0.044327
    29  F   -0.000190   0.173415  -0.062096  -0.044327   9.266532
 Mulliken charges:
               1
     1  C   -0.800656
     2  C    0.535815
     3  C   -0.619499
     4  C    0.051438
     5  C   -0.368271
     6  C   -0.288594
     7  H    0.218914
     8  N   -0.501358
     9  C    0.470353
    10  N   -0.538055
    11  O   -0.666305
    12  C   -0.266736
    13  C   -0.342298
    14  C   -0.717677
    15  H    0.210935
    16  H    0.255308
    17  H    0.378771
    18  H    0.216814
    19  H    0.191369
    20  H    0.193373
    21  H    0.215371
    22  H    0.204915
    23  H    0.190959
    24  H    0.205453
    25  Cl   0.094173
    26  C    1.408391
    27  F   -0.292986
    28  F   -0.358280
    29  F   -0.281639
 Sum of Mulliken charges =  -1.00000
 Mulliken charges with hydrogens summed into heavy atoms:
               1
     1  C   -0.581743
     2  C    0.535815
     3  C   -0.408564
     4  C    0.051438
     5  C   -0.112963
     6  C   -0.288594
     8  N   -0.501358
     9  C    0.470353
    10  N   -0.159284
    11  O   -0.666305
    12  C    0.141447
    13  C    0.066446
    14  C   -0.116350
    25  Cl   0.094173
    26  C    1.408391
    27  F   -0.292986
    28  F   -0.358280
    29  F   -0.281639
 Electronic spatial extent (au):  <R**2>=           8047.0308
 Charge=             -1.0000 electrons
 Dipole moment (field-independent basis, Debye):
    X=             -1.0896    Y=              0.6886    Z=              0.5500  Tot=              1.4014
 Quadrupole moment (field-independent basis, Debye-Ang):
   XX=           -142.7347   YY=           -133.5822   ZZ=           -121.1810
   XY=             -5.1913   XZ=             -1.1225   YZ=             -2.6501
 Traceless Quadrupole moment (field-independent basis, Debye-Ang):
   XX=            -10.2354   YY=             -1.0829   ZZ=             11.3183
   XY=             -5.1913   XZ=             -1.1225   YZ=             -2.6501
 Octapole moment (field-independent basis, Debye-Ang**2):
  XXX=             38.2494  YYY=            -47.2944  ZZZ=             -2.9452  XYY=            -25.1865
  XXY=             -7.8027  XXZ=              2.5953  XZZ=             18.8291  YZZ=            -13.3653
  YYZ=              2.7479  XYZ=              7.0218
 Hexadecapole moment (field-independent basis, Debye-Ang**3):
 XXXX=          -8823.4275 YYYY=          -2163.7491 ZZZZ=           -272.0952 XXXY=           -180.0948
 XXXZ=            -32.8734 YYYX=           -133.9844 YYYZ=             -2.9721 ZZZX=              6.1922
 ZZZY=             -6.1052 XXYY=          -1864.1604 XXZZ=          -1460.9874 YYZZ=           -408.9363
 XXYZ=             -9.6421 YYXZ=             -7.2393 ZZXY=            -38.6989
 N-N= 1.398193323712D+03 E-N=-6.040505204806D+03  KE= 1.361449142404D+03
 Calling FoFJK, ICntrl=      2127 FMM=F ISym2X=0 I1Cent= 0 IOpClX= 0 NMat=1 NMatS=1 NMatT=0.
 ***** Axes restored to original set *****
 -------------------------------------------------------------------
 Center     Atomic                   Forces (Hartrees/Bohr)
 Number     Number              X              Y              Z
 -------------------------------------------------------------------
      1        6          -0.003084660   -0.001173988   -0.001527058
      2        6           0.004299830    0.001957538    0.001921211
      3        6          -0.004614513   -0.001134641   -0.001521150
      4        6           0.015034703   -0.007678203    0.007637165
      5        6          -0.003468699    0.005508590   -0.001450123
      6        6           0.003597838    0.000363942    0.001966410
      7        1           0.000293355   -0.000281283    0.000129671
      8        7          -0.010716498   -0.002585465   -0.002810073
      9        6          -0.002117112    0.031811282   -0.018988378
     10        7           0.012610095   -0.008591501    0.007701625
     11        8          -0.002498084   -0.017128657    0.011629564
     12        6          -0.008126454   -0.000268847   -0.000036278
     13        6          -0.000364628    0.001234312   -0.000092299
     14        6           0.000772845   -0.001355493    0.000736252
     15        1           0.001183480    0.000722799    0.000456019
     16        1           0.002304612   -0.001482291   -0.001084035
     17        1          -0.002300492    0.001509614   -0.001009421
     18        1          -0.001349737    0.000755547   -0.001326985
     19        1           0.000884245    0.000947268   -0.001261721
     20        1           0.000484594   -0.001101951    0.000369840
     21        1          -0.000606176   -0.000260879    0.000132315
     22        1           0.000067841    0.000389363   -0.000086596
     23        1           0.001096139   -0.000203863    0.000279170
     24        1          -0.000146614    0.000027816   -0.000344486
     25       17          -0.003193718   -0.002314281   -0.001336918
     26        6           0.006205368   -0.004924113    0.000880085
     27        9          -0.000790196    0.001697902    0.000505272
     28        9          -0.004163512    0.002238296   -0.001410135
     29        9          -0.001293852    0.001321183   -0.000058941
 -------------------------------------------------------------------
 Cartesian Forces:  Max     0.031811282 RMS     0.005789550

 GradGradGradGradGradGradGradGradGradGradGradGradGradGradGradGradGradGrad
 Berny optimization.
 FormGI is forming the generalized inverse of G from B-inverse, IUseBI=4.
 Internal  Forces:  Max     0.020494952 RMS     0.002808341
 Search for a local minimum.
 Step number   1 out of a maximum of  150
 All quantities printed in internal units (Hartrees-Bohrs-Radians)
 Mixed Optimization -- RFO/linear search
 Second derivative matrix not updated -- first step.
 ITU=  0
     Eigenvalues ---    0.00427   0.00476   0.00761   0.00933   0.01640
     Eigenvalues ---    0.01852   0.01888   0.01962   0.02032   0.02033
     Eigenvalues ---    0.02080   0.02084   0.02134   0.02169   0.02186
     Eigenvalues ---    0.02216   0.02256   0.02442   0.03719   0.04430
     Eigenvalues ---    0.04929   0.05544   0.05575   0.05588   0.08179
     Eigenvalues ---    0.09171   0.10446   0.10720   0.12076   0.12684
     Eigenvalues ---    0.13988   0.15998   0.16000   0.16000   0.16000
     Eigenvalues ---    0.16000   0.16000   0.21896   0.21913   0.22606
     Eigenvalues ---    0.23450   0.23506   0.23514   0.24938   0.24999
     Eigenvalues ---    0.25000   0.25000   0.25000   0.25000   0.25000
     Eigenvalues ---    0.25000   0.25000   0.29828   0.30011   0.30186
     Eigenvalues ---    0.32335   0.33585   0.33918   0.34027   0.34145
     Eigenvalues ---    0.34152   0.34283   0.34322   0.35299   0.35571
     Eigenvalues ---    0.35629   0.37299   0.40567   0.41369   0.44703
     Eigenvalues ---    0.45217   0.45653   0.46908   0.47684   0.48089
     Eigenvalues ---    0.50163   0.54690   0.54869   0.56216   0.56480
     Eigenvalues ---    0.77798
 RFO step:  Lambda=-4.17202966D-03 EMin= 4.26505192D-03
 Linear search not attempted -- first point.
 Iteration  1 RMS(Cart)=  0.11030742 RMS(Int)=  0.00610004
 Iteration  2 RMS(Cart)=  0.01219742 RMS(Int)=  0.00006624
 Iteration  3 RMS(Cart)=  0.00010920 RMS(Int)=  0.00005013
 Iteration  4 RMS(Cart)=  0.00000001 RMS(Int)=  0.00005013
 Variable       Old X    -DE/DX   Delta X   Delta X   Delta X     New X
                                 (Linear)    (Quad)   (Total)
    R1        2.63214   0.00016   0.00000   0.00019   0.00018   2.63232
    R2        2.63120   0.00340   0.00000   0.00719   0.00719   2.63839
    R3        2.04758  -0.00040   0.00000  -0.00112  -0.00112   2.04646
    R4        2.61322  -0.00115   0.00000  -0.00250  -0.00251   2.61071
    R5        3.31642   0.00415   0.00000   0.01365   0.01365   3.33007
    R6        2.68005   0.00233   0.00000   0.00539   0.00538   2.68543
    R7        2.05193  -0.00056   0.00000  -0.00157  -0.00157   2.05036
    R8        2.67491   0.00327   0.00000   0.00768   0.00768   2.68259
    R9        2.59701  -0.01418   0.00000  -0.02804  -0.02804   2.56897
   R10        2.63042  -0.00124   0.00000  -0.00247  -0.00246   2.62796
   R11        2.04666   0.00035   0.00000   0.00096   0.00096   2.04762
   R12        2.83535   0.00034   0.00000   0.00103   0.00103   2.83637
   R13        2.53840   0.00211   0.00000   0.00371   0.00371   2.54211
   R14        2.62277   0.00815   0.00000   0.01695   0.01695   2.63972
   R15        2.39125  -0.02049   0.00000  -0.02620  -0.02620   2.36505
   R16        2.75398  -0.00685   0.00000  -0.01816  -0.01816   2.73581
   R17        1.91724  -0.00111   0.00000  -0.00242  -0.00242   1.91482
   R18        2.87595   0.00205   0.00000   0.00670   0.00670   2.88265
   R19        2.06855   0.00021   0.00000   0.00062   0.00062   2.06916
   R20        2.08037   0.00128   0.00000   0.00376   0.00376   2.08413
   R21        2.88308   0.00149   0.00000   0.00494   0.00494   2.88802
   R22        2.07468   0.00089   0.00000   0.00258   0.00258   2.07726
   R23        2.07284   0.00023   0.00000   0.00067   0.00067   2.07351
   R24        2.07073   0.00002   0.00000   0.00006   0.00006   2.07079
   R25        2.06790   0.00089   0.00000   0.00255   0.00255   2.07045
   R26        2.07086  -0.00007   0.00000  -0.00021  -0.00021   2.07066
   R27        2.55249   0.00110   0.00000   0.00199   0.00199   2.55447
   R28        2.54067   0.00486   0.00000   0.00858   0.00858   2.54924
   R29        2.55409  -0.00031   0.00000  -0.00057  -0.00057   2.55352
    A1        2.02546   0.00030   0.00000   0.00099   0.00098   2.02645
    A2        2.12307  -0.00029   0.00000  -0.00138  -0.00138   2.12169
    A3        2.13464  -0.00000   0.00000   0.00041   0.00041   2.13504
    A4        2.14319   0.00015   0.00000   0.00001  -0.00001   2.14318
    A5        2.06719  -0.00060   0.00000  -0.00209  -0.00208   2.06511
    A6        2.07280   0.00046   0.00000   0.00208   0.00209   2.07489
    A7        2.11428   0.00027   0.00000   0.00087   0.00084   2.11511
    A8        2.09686   0.00125   0.00000   0.00798   0.00798   2.10484
    A9        2.07205  -0.00152   0.00000  -0.00886  -0.00885   2.06319
   A10        2.03197  -0.00020   0.00000  -0.00042  -0.00043   2.03154
   A11        2.04065   0.00017   0.00000   0.00062   0.00061   2.04126
   A12        2.20873   0.00005   0.00000   0.00016   0.00016   2.20890
   A13        2.10377  -0.00048   0.00000  -0.00143  -0.00151   2.10226
   A14        2.09298  -0.00199   0.00000  -0.01274  -0.01284   2.08014
   A15        2.08634   0.00248   0.00000   0.01450   0.01440   2.10074
   A16        2.14763  -0.00003   0.00000   0.00016   0.00017   2.14780
   A17        2.08899  -0.00156   0.00000  -0.00629  -0.00630   2.08269
   A18        2.04655   0.00159   0.00000   0.00613   0.00613   2.05268
   A19        2.10061  -0.00453   0.00000  -0.01782  -0.01782   2.08278
   A20        1.98861  -0.00752   0.00000  -0.02963  -0.02968   1.95893
   A21        2.23583   0.00827   0.00000   0.03250   0.03245   2.26828
   A22        2.05869  -0.00076   0.00000  -0.00303  -0.00308   2.05561
   A23        2.09114  -0.00436   0.00000  -0.01934  -0.01932   2.07182
   A24        1.98092  -0.00031   0.00000  -0.00780  -0.00774   1.97319
   A25        2.00390   0.00406   0.00000   0.02294   0.02289   2.02679
   A26        1.93143  -0.00054   0.00000  -0.00060  -0.00063   1.93080
   A27        1.90171  -0.00127   0.00000  -0.01545  -0.01543   1.88627
   A28        1.93677   0.00085   0.00000   0.00960   0.00956   1.94633
   A29        1.91274   0.00145   0.00000   0.00862   0.00860   1.92134
   A30        1.91212   0.00033   0.00000   0.00741   0.00736   1.91948
   A31        1.86788  -0.00081   0.00000  -0.00991  -0.00992   1.85797
   A32        1.94583   0.00152   0.00000   0.00829   0.00829   1.95411
   A33        1.90652   0.00025   0.00000   0.00496   0.00497   1.91149
   A34        1.90617  -0.00084   0.00000  -0.00433  -0.00433   1.90184
   A35        1.91613  -0.00102   0.00000  -0.00613  -0.00616   1.90997
   A36        1.92013  -0.00001   0.00000   0.00140   0.00140   1.92153
   A37        1.86733   0.00004   0.00000  -0.00470  -0.00470   1.86263
   A38        1.93686  -0.00001   0.00000  -0.00071  -0.00073   1.93613
   A39        1.94061   0.00119   0.00000   0.00907   0.00906   1.94967
   A40        1.93573  -0.00040   0.00000  -0.00358  -0.00358   1.93215
   A41        1.88297  -0.00036   0.00000  -0.00002  -0.00003   1.88294
   A42        1.88236  -0.00021   0.00000  -0.00478  -0.00479   1.87757
   A43        1.88298  -0.00026   0.00000  -0.00028  -0.00028   1.88270
   A44        1.95815   0.00188   0.00000   0.00813   0.00808   1.96623
   A45        1.97525   0.00011   0.00000  -0.00180  -0.00179   1.97346
   A46        1.95707   0.00253   0.00000   0.01147   0.01142   1.96849
   A47        1.86004  -0.00182   0.00000  -0.00984  -0.00983   1.85021
   A48        1.84623  -0.00132   0.00000  -0.00103  -0.00113   1.84510
   A49        1.85835  -0.00183   0.00000  -0.00853  -0.00853   1.84982
    D1       -0.00575   0.00016   0.00000   0.00648   0.00650   0.00075
    D2        3.13535   0.00011   0.00000   0.00486   0.00487   3.14022
    D3        3.14016   0.00002   0.00000   0.00048   0.00047   3.14062
    D4       -0.00193  -0.00003   0.00000  -0.00115  -0.00116  -0.00309
    D5        0.00839  -0.00012   0.00000  -0.00554  -0.00558   0.00281
    D6       -3.13820  -0.00014   0.00000  -0.00675  -0.00681   3.13818
    D7       -3.13756   0.00001   0.00000   0.00050   0.00050  -3.13705
    D8       -0.00096  -0.00000   0.00000  -0.00071  -0.00073  -0.00169
    D9       -0.00385   0.00010   0.00000   0.00487   0.00490   0.00104
   D10        3.13669  -0.00009   0.00000  -0.00369  -0.00374   3.13295
   D11        3.13823   0.00015   0.00000   0.00650   0.00654  -3.13842
   D12       -0.00441  -0.00005   0.00000  -0.00206  -0.00210  -0.00651
   D13        0.01071  -0.00038   0.00000  -0.01666  -0.01670  -0.00599
   D14        3.09145  -0.00022   0.00000  -0.01059  -0.01065   3.08080
   D15       -3.12986  -0.00019   0.00000  -0.00823  -0.00827  -3.13812
   D16       -0.04911  -0.00003   0.00000  -0.00216  -0.00222  -0.05133
   D17       -0.00814   0.00041   0.00000   0.01748   0.01748   0.00933
   D18        3.11880   0.00106   0.00000   0.04295   0.04276  -3.12163
   D19       -3.08219   0.00023   0.00000   0.01072   0.01075  -3.07143
   D20        0.04475   0.00088   0.00000   0.03619   0.03603   0.08079
   D21        2.77458   0.00365   0.00000   0.14907   0.14909   2.92367
   D22       -0.43485   0.00382   0.00000   0.15582   0.15581  -0.27905
   D23       -0.00141  -0.00016   0.00000  -0.00673  -0.00671  -0.00811
   D24       -3.13812  -0.00014   0.00000  -0.00551  -0.00546   3.13960
   D25       -3.12840  -0.00077   0.00000  -0.03188  -0.03206   3.12273
   D26        0.01807  -0.00075   0.00000  -0.03066  -0.03082  -0.01274
   D27        2.16951  -0.00068   0.00000  -0.00081  -0.00084   2.16867
   D28        0.06385   0.00022   0.00000   0.00737   0.00739   0.07124
   D29       -2.03879   0.00068   0.00000   0.01139   0.01144  -2.02735
   D30       -0.97679  -0.00070   0.00000  -0.00196  -0.00201  -0.97881
   D31       -3.08245   0.00021   0.00000   0.00622   0.00621  -3.07624
   D32        1.09809   0.00066   0.00000   0.01023   0.01026   1.10836
   D33        2.94684   0.00227   0.00000   0.07991   0.08007   3.02692
   D34       -0.20520   0.00175   0.00000   0.06072   0.06056  -0.14465
   D35        2.76017   0.00018   0.00000  -0.00778  -0.00761   2.75256
   D36        0.30014  -0.00062   0.00000  -0.01103  -0.01101   0.28912
   D37       -0.37211   0.00058   0.00000   0.00906   0.00904  -0.36307
   D38       -2.83214  -0.00022   0.00000   0.00581   0.00564  -2.82651
   D39       -3.07089   0.00013   0.00000  -0.02312  -0.02307  -3.09396
   D40        1.10807  -0.00051   0.00000  -0.02350  -0.02347   1.08460
   D41       -0.94426   0.00076   0.00000  -0.00758  -0.00751  -0.95177
   D42       -0.61929  -0.00072   0.00000  -0.03137  -0.03142  -0.65071
   D43       -2.72351  -0.00136   0.00000  -0.03175  -0.03182  -2.75533
   D44        1.50734  -0.00009   0.00000  -0.01582  -0.01586   1.49148
   D45        3.13204   0.00054   0.00000   0.01753   0.01756  -3.13358
   D46        1.01128   0.00066   0.00000   0.01648   0.01649   1.02776
   D47       -1.02557   0.00095   0.00000   0.02178   0.02179  -1.00378
   D48       -1.05350  -0.00045   0.00000   0.00352   0.00352  -1.04998
   D49        3.10892  -0.00033   0.00000   0.00247   0.00244   3.11136
   D50        1.07207  -0.00003   0.00000   0.00776   0.00775   1.07982
   D51        0.99100  -0.00040   0.00000   0.00085   0.00086   0.99186
   D52       -1.12977  -0.00028   0.00000  -0.00020  -0.00021  -1.12998
   D53        3.11657   0.00002   0.00000   0.00509   0.00509   3.12166
   D54       -1.04841   0.00006   0.00000   0.00237   0.00239  -1.04603
   D55        3.13879  -0.00027   0.00000  -0.00318  -0.00317   3.13562
   D56        1.04356  -0.00047   0.00000  -0.00647  -0.00646   1.03710
   D57        1.06677   0.00068   0.00000   0.00993   0.00992   1.07669
   D58       -1.02921   0.00035   0.00000   0.00438   0.00436  -1.02484
   D59       -3.12444   0.00015   0.00000   0.00109   0.00108  -3.12336
   D60        3.11731   0.00011   0.00000   0.00137   0.00137   3.11867
   D61        1.02133  -0.00022   0.00000  -0.00419  -0.00419   1.01713
   D62       -1.07391  -0.00042   0.00000  -0.00748  -0.00748  -1.08138
         Item               Value     Threshold  Converged?
 Maximum Force            0.020495     0.000450     NO 
 RMS     Force            0.002808     0.000300     NO 
 Maximum Displacement     0.501107     0.001800     NO 
 RMS     Displacement     0.119088     0.001200     NO 
 Predicted change in Energy=-2.245088D-03
 GradGradGradGradGradGradGradGradGradGradGradGradGradGradGradGradGradGrad

                          Input orientation:                          
 ---------------------------------------------------------------------
 Center     Atomic      Atomic             Coordinates (Angstroms)
 Number     Number       Type             X           Y           Z
 ---------------------------------------------------------------------
      1          6           0       -4.165868    3.026826   -0.819399
      2          6           0       -3.987784    1.653907   -0.665349
      3          6           0       -2.825556    1.101903   -0.162219
      4          6           0       -1.732880    1.920355    0.232283
      5          6           0       -1.903301    3.320603    0.072820
      6          6           0       -3.092640    3.832591   -0.434387
      7          1           0       -5.085434    3.438087   -1.216924
      8          7           0       -0.660187    1.292692    0.783142
      9          6           0        0.490929    1.970762    0.940591
     10          7           0        1.444419    1.236276    1.649574
     11          8           0        0.817039    3.107211    0.530150
     12          6           0        2.842472    1.578625    1.494117
     13          6           0        3.721975    0.622475    2.293611
     14          6           0        5.205680    0.963611    2.159957
     15          1           0       -2.728150    0.027136   -0.049895
     16          1           0       -1.091312    3.985706    0.341898
     17          1           0        1.229689    0.247073    1.695409
     18          1           0        2.982554    2.604711    1.849712
     19          1           0        3.145178    1.571475    0.433623
     20          1           0        3.551194   -0.407704    1.950253
     21          1           0        3.420499    0.657860    3.348042
     22          1           0        5.527104    0.909595    1.113734
     23          1           0        5.833000    0.278144    2.740493
     24          1           0        5.402597    1.981545    2.514485
     25         17           0       -5.306795    0.582280   -1.131362
     26          6           0       -3.205041    5.322817   -0.573769
     27          9           0       -2.982560    5.972937    0.590330
     28          9           0       -4.421413    5.723890   -0.997311
     29          9           0       -2.316959    5.834541   -1.454319
 ---------------------------------------------------------------------
                    Distance matrix (angstroms):
                    1          2          3          4          5
     1  C    0.000000
     2  C    1.392966   0.000000
     3  C    2.435909   1.381529   0.000000
     4  C    2.872237   2.441583   1.421068   0.000000
     5  C    2.449810   2.769086   2.414214   1.419566   0.000000
     6  C    1.396176   2.366704   2.757185   2.439271   1.390654
     7  H    1.082942   2.166187   3.417193   3.955165   3.435581
     8  N    4.226720   3.647123   2.370429   1.359440   2.482400
     9  C    5.089066   4.768470   3.601413   2.334431   2.882261
    10  N    6.385704   5.919638   4.640403   3.545689   4.247093
    11  O    5.163052   5.160197   4.215345   2.828328   2.766755
    12  C    7.521069   7.163893   5.924294   4.758451   5.251374
    13  C    8.814182   8.322240   7.009359   5.974028   6.622351
    14  C   10.047852   9.642543   8.361362   7.264634   7.774906
    15  H    3.414281   2.147521   1.085002   2.157421   3.397405
    16  H    3.423588   3.852451   3.402654   2.165479   1.083555
    17  H    6.569880   5.896981   4.541644   3.703705   4.679210
    18  H    7.642138   7.470955   6.327752   5.031873   5.247992
    19  H    7.559068   7.217595   6.018737   4.894661   5.355069
    20  H    8.889320   8.241832   6.885084   6.024343   6.868517
    21  H    8.973992   8.484225   7.178601   6.152980   6.794124
    22  H   10.108085   9.708359   8.451743   7.382815   7.880823
    23  H   10.963824  10.485241   9.169237   8.138213   8.730600
    24  H   10.186408   9.919574   8.697184   7.491810   7.818628
    25  Cl   2.715666   1.762198   2.714000   4.052510   4.531252
    26  C    2.501018   3.752595   4.257875   3.793906   2.474160
    27  F    3.473776   4.608820   4.931324   4.255974   2.909895
    28  F    2.714978   4.106457   4.960535   4.817363   3.641683
    29  F    3.421235   4.570758   4.932146   4.301933   2.970379
                    6          7          8          9         10
     6  C    0.000000
     7  H    2.176976   0.000000
     8  N    3.721598   5.309029   0.000000
     9  C    4.266021   6.156601   1.345227   0.000000
    10  N    5.627491   7.463495   2.276676   1.396879   0.000000
    11  O    4.091711   6.164489   2.353440   1.251530   2.268725
    12  C    6.635137   8.582484   3.585508   2.447431   1.447730
    13  C    8.011604   9.890499   4.683380   3.753425   2.445157
    14  C    9.155533  11.110058   6.034261   4.972935   3.805512
    15  H    3.842158   4.307358   2.563602   3.888600   4.664821
    16  H    2.152064   4.322363   2.762768   2.630953   3.962235
    17  H    6.006205   7.651473   2.344607   2.021539   1.013278
    18  H    6.605512   8.671286   4.016034   2.727011   2.068460
    19  H    6.691522   8.599507   3.831538   2.731572   2.117422
    20  H    8.234509   9.970579   4.689266   4.005214   2.689159
    21  H    8.173535  10.045868   4.861453   4.012719   2.669129
    22  H    9.232582  11.155770   6.207948   5.149671   4.130637
    23  H   10.118350  12.035721   6.857259   5.885773   4.622527
    24  H    9.181027  11.226919   6.342666   5.157688   4.119547
    25  Cl   3.994092   2.865651   5.075528   6.311455   7.330772
    26  C    1.500945   2.738929   4.955743   5.214379   6.577275
    27  F    2.375551   3.756822   5.228315   5.310857   6.569330
    28  F    2.378977   2.390407   6.078844   6.478621   7.845551
    29  F    2.376920   3.669305   5.327243   5.343091   6.702698
                   11         12         13         14         15
    11  O    0.000000
    12  C    2.714441   0.000000
    13  C    4.209793   1.525431   0.000000
    14  C    5.148928   2.531074   1.528273   0.000000
    15  H    4.731985   5.985226   6.888437   8.288914   0.000000
    16  H    2.109264   4.753557   6.187748   7.217375   4.301513
    17  H    3.115846   2.101100   2.590417   4.066661   4.331161
    18  H    2.585190   1.094953   2.161723   2.780602   6.547102
    19  H    2.790705   1.102873   2.166299   2.755975   6.092188
    20  H    4.674069   2.157742   1.099241   2.159122   6.604531
    21  H    4.551686   2.149177   1.097254   2.166080   7.053345
    22  H    5.230182   2.792765   2.175555   1.095816   8.383435
    23  H    6.168395   3.491126   2.185107   1.095635   9.007916
    24  H    5.121723   2.785270   2.172636   1.095744   8.746702
    25  Cl   6.829146   8.619536   9.656643  11.022265   2.850819
    26  C    4.722782   7.407263   8.848651   9.859826   5.342856
    27  F    4.759512   7.352401   8.745249   9.726476   5.985580
    28  F    6.051572   8.726652  10.157232  11.194173   6.018118
    29  F    4.604171   7.309297   8.813702   9.663284   5.988944
                   16         17         18         19         20
    16  H    0.000000
    17  H    4.603956   0.000000
    18  H    4.558183   2.941904   0.000000
    19  H    4.876963   2.648630   1.760492   0.000000
    20  H    6.591032   2.425502   3.067263   2.526294   0.000000
    21  H    6.361438   2.774813   2.495399   3.066649   1.762476
    22  H    7.339047   4.386918   3.144808   2.564022   2.517789
    23  H    8.212512   4.720554   3.785689   3.770774   2.510280
    24  H    7.134959   4.592650   2.585897   3.097432   3.074827
    25  Cl   5.614633   7.129420   9.038271   8.652371   9.430821
    26  C    2.663487   7.111904   7.179673   7.443970   9.211746
    27  F    2.754564   7.193730   6.965168   7.546296   9.233195
    28  F    3.988024   8.317525   8.523705   8.748910  10.480793
    29  F    2.854260   7.329346   7.030880   7.181434   9.219108
                   21         22         23         24         25
    21  H    0.000000
    22  H    3.081118   0.000000
    23  H    2.516637   1.771622   0.000000
    24  H    2.525009   1.768243   1.771412   0.000000
    25  Cl   9.810017  11.068919  11.797406  11.399176   0.000000
    26  C    9.002233   9.928472  10.868267   9.736161   5.215454
    27  F    8.766651   9.915934  10.712980   9.483903   6.117636
    28  F   10.297686  11.251975  12.197553  11.083728   5.219006
    29  F    9.098304   9.611416  10.718760   9.496764   6.052244
                   26         27         28         29
    26  C    0.000000
    27  F    1.351770   0.000000
    28  F    1.349002   2.157064   0.000000
    29  F    1.351266   2.154709   2.156346   0.000000
 Stoichiometry    C11H11ClF3N2O(1-)
 Framework group  C1[X(C11H11ClF3N2O)]
 Deg. of freedom    81
 Full point group                 C1      NOp   1
 Largest Abelian subgroup         C1      NOp   1
 Largest concise Abelian subgroup C1      NOp   1
                         Standard orientation:                         
 ---------------------------------------------------------------------
 Center     Atomic      Atomic             Coordinates (Angstroms)
 Number     Number       Type             X           Y           Z
 ---------------------------------------------------------------------
      1          6           0        2.966582    0.451412   -0.048045
      2          6           0        2.374924    1.712476   -0.044311
      3          6           0        1.007881    1.897428    0.030572
      4          6           0        0.118959    0.791582    0.110305
      5          6           0        0.712995   -0.497681    0.100737
      6          6           0        2.094795   -0.636477    0.028050
      7          1           0        4.040947    0.329496   -0.108361
      8          7           0       -1.203277    1.072909    0.253912
      9          6           0       -2.108143    0.092455    0.081974
     10          7           0       -3.402717    0.505007    0.406242
     11          8           0       -1.956635   -1.076555   -0.338486
     12          6           0       -4.524166   -0.213745   -0.160919
     13          6           0       -5.842239    0.429435    0.258535
     14          6           0       -7.048587   -0.313051   -0.315101
     15          1           0        0.585405    2.896765    0.038925
     16          1           0        0.075925   -1.373256    0.140746
     17          1           0       -3.497435    1.512643    0.455545
     18          1           0       -4.480207   -1.248054    0.195723
     19          1           0       -4.460572   -0.259668   -1.260999
     20          1           0       -5.863449    1.475972   -0.077084
     21          1           0       -5.897169    0.448130    1.354254
     22          1           0       -7.019525   -0.319780   -1.410511
[...]
 04,0.00054109,0.00043311,-0.00033330,0.00067979,0.00003653,0.00011804,
 -0.00563336,0.00371144,-0.00679333,-0.06837704,0.11160358,-0.00007154,
 0.00001059,-0.00002588,0.00007927,0.00000996,0.00002718,-0.00010932,-0
 .00001936,-0.00003451,0.00028021,-0.00016062,0.00007973,-0.00006504,0.
 00010806,-0.00002065,0.00005423,-0.00000308,0.00002409,-0.00000233,-0.
 00000048,-0.00000073,-0.00051196,0.00004256,-0.00016516,0.00056192,-0.
 00029948,0.00030250,-0.00027660,0.00058993,-0.00000117,-0.00016254,0.0
 0009489,-0.00003402,0.00002079,-0.00041660,0.00050716,0.00249312,-0.00
 166224,0.00149391,-0.09883938,0.09028207,-0.19030701,0.00000565,-0.000
 00027,0.00000029,0.00001670,-0.00001186,0.00000256,0.00001743,0.000023
 91,-0.00000351,0.00005865,0.00009726,-0.00005490,0.00008661,-0.0001184
 2,0.00064715,-0.00040677,-0.00033497,-0.00015663,-0.00035407,-0.000224
 91,0.00048235,-0.01510085,0.01435149,-0.02047002,0.10868499,-0.0999904
 8,0.20405810,0.00001210,0.00000422,0.00000513,-0.00001099,-0.00000838,
 -0.00000236,0.00001233,-0.00000020,0.00000367,-0.00003453,0.00002410,-
 0.00001463,0.00000566,-0.00001821,0.00000467,-0.00001031,0.00000460,-0
 .00000634,0.00000050,0.00000029,0.00000026,0.00010848,0.00004929,0.000
 02906,0.00002193,-0.00024619,-0.00003754,-0.00003905,0.00060500,0.0000
 3616,0.00011400,0.00025554,0.00005695,0.00140787,-0.00159288,0.0005540
 5,-0.00324459,-0.03414942,-0.00515498,-0.04954183,-0.02410033,-0.00322
 569,0.00000089,0.00000106,0.00000103,-0.00000483,0.00000193,-0.0000035
 0,0.00028505,0.00003674,0.00025783,-0.00031873,0.00089794,-0.00022889,
 0.00001181,0.00016038,-0.00007974,-0.00674478,-0.00162196,-0.00010724,
 0.00137856,0.00043795,0.00039735,0.00047111,0.01365114,0.00058136,0.00
 106512,0.01668231,0.00358260,0.05504516,-0.00003878,0.00002113,-0.0000
 1379,0.00004661,-0.00001366,0.00001511,-0.00007284,-0.00001533,-0.0000
 2502,0.00017016,-0.00009720,0.00006237,-0.00003828,0.00006381,-0.00001
 452,0.00002234,0.00000652,0.00001134,-0.00000133,-0.00000066,-0.000000
 27,-0.00029420,0.00008882,-0.00009413,0.00039739,-0.00047893,0.0001195
 9,-0.00038073,0.00081761,-0.00015682,-0.00005932,0.00031295,-0.0000142
 4,0.00093332,0.00056756,0.00039635,-0.00121543,-0.00866717,-0.00106956
 ,-0.02440242,-0.30849081,-0.03340397,0.00000514,0.00000155,0.00000172,
 0.00000311,-0.00000934,0.00000091,0.00021898,-0.00009216,0.00015582,-0
 .00046321,0.00023461,-0.00055609,-0.00016302,-0.00005708,-0.00001068,-
 0.00191525,0.00115964,0.00053107,-0.00019682,0.00040237,0.00035736,-0.
 00030786,-0.00703994,-0.00057709,-0.00115148,-0.01397013,-0.00233826,0
 .02891857,0.33526672,0.00001882,-0.00000044,0.00000591,-0.00001878,-0.
 00000548,-0.00000668,0.00002618,0.00000468,0.00000564,-0.00006968,0.00
 003939,-0.00001221,0.00001499,-0.00002844,0.00000153,-0.00001331,0.000
 00292,-0.00001003,0.00000036,0.00000021,0.00000121,0.00012697,0.000023
 72,0.00004262,-0.00013770,-0.00012471,-0.00004016,-0.00005774,0.000132
 87,-0.00014513,0.00013642,0.00008086,-0.00002545,-0.00003464,-0.000837
 26,0.00013321,0.00023709,0.00158618,-0.00025916,-0.00340650,-0.0332532
 3,-0.05403841,-0.00000117,0.00000065,0.00000068,-0.00000875,0.00000333
 ,0.00000389,0.00005318,0.00002888,-0.00003307,-0.00029925,0.00008595,0
 .00019480,0.00006312,-0.00008468,-0.00008591,0.00027636,0.00021159,0.0
 0090864,-0.00018784,0.00054553,0.00002199,-0.00330593,-0.03002101,-0.0
 0303260,0.00322717,0.02497041,0.00366416,0.00334823,0.03662985,0.05270
 096,-0.01018698,-0.00818706,-0.00423158,-0.10320096,-0.05100184,-0.025
 25290,-0.03428308,-0.03023786,-0.01180637,0.00413095,0.00736426,-0.000
 90786,-0.00030496,-0.00160720,0.00024073,0.00191688,-0.00236114,-0.000
 81445,0.00110514,0.00058550,0.00122577,-0.00454449,-0.00096461,-0.0014
 2953,0.00237525,0.00081004,0.00092365,-0.00139586,0.00033855,-0.000757
 90,-0.00105699,-0.00070965,-0.00031642,0.00049781,0.00024451,0.0000060
 2,-0.00008365,-0.00007242,0.00007750,-0.00001453,0.00004796,-0.0000589
 6,0.00055060,-0.00000654,0.00127987,0.00018974,-0.00025219,0.00028453,
 0.00006538,-0.00010046,0.00012708,0.00005885,-0.00005423,0.00002165,-0
 .00018661,0.00000786,0.00008838,-0.00000324,0.00003652,-0.00000499,0.0
 0001743,-0.00001162,-0.00000172,-0.00000417,-0.00000551,0.00002388,-0.
 00006785,0.00001527,-0.00003957,0.00000845,-0.00001533,0.00001107,0.14
 517449,-0.03621301,-0.02273313,-0.01142515,-0.05018088,-0.08042626,-0.
 01469320,-0.00326427,0.00020252,-0.00099842,0.00282330,0.00028926,0.00
 106611,-0.00126017,0.00036976,-0.00047007,0.00475224,-0.00483365,0.002
 09618,-0.00028762,0.00114732,-0.00021381,-0.00219417,0.00039055,-0.000
 69875,0.00164651,-0.00001428,0.00058588,-0.00085701,0.00038338,-0.0005
 3060,-0.00070217,-0.00006624,-0.00020914,0.00031899,0.00013866,0.00002
 768,-0.00004185,-0.00005112,0.00004583,-0.00000918,0.00002840,-0.00003
 491,0.00083765,0.00146773,0.00017330,0.00013318,0.00010789,0.00002454,
 0.00000529,-0.00006351,0.00008034,0.00004624,-0.00003092,0.00001607,-0
 .00012303,0.00000165,0.00005988,-0.00000470,0.00003243,-0.00000361,0.0
 0001053,-0.00000822,-0.00000018,-0.00000299,-0.00000447,0.00001585,-0.
 00004203,0.00000984,-0.00002577,0.00000743,-0.00000548,0.00000787,0.08
 623958,0.10433796,-0.00350575,-0.00213774,0.00203465,-0.02524791,-0.01
 488320,-0.02991245,-0.01256084,-0.00995955,-0.00031709,-0.00082876,0.0
 0263106,0.00597852,0.00024470,-0.00056091,-0.00094009,-0.00096275,-0.0
 0069319,0.00419206,0.00123077,0.00011339,-0.00225097,-0.00142691,-0.00
 033690,-0.00046311,0.00088131,0.00024702,-0.00016931,-0.00044353,0.000
 09150,-0.00020238,-0.00036489,-0.00023107,0.00001937,0.00015634,0.0000
 7876,0.00001082,-0.00002192,-0.00001925,0.00002302,-0.00000222,0.00001
 281,-0.00001679,0.00124884,-0.00013018,-0.00283690,0.00028340,-0.00009
 094,-0.00057846,0.00002203,-0.00002890,0.00002325,0.00001897,-0.000017
 51,0.00000673,-0.00006508,0.00000207,0.00003271,-0.00000061,0.00001173
 ,-0.00000248,0.00000466,-0.00000202,0.00000166,-0.00000255,-0.00000120
 ,0.00000888,-0.00001982,0.00000438,-0.00001209,0.00000178,-0.00000485,
 0.00000294,0.04172549,0.02581646,0.02500374,0.00796558,-0.02192977,0.0
 0652218,-0.00228778,-0.00497040,-0.00225522,-0.00381396,-0.00016004,-0
 .00097656,-0.00343890,0.00354945,-0.00376850,0.00314891,0.02753062,-0.
 00229885,-0.08857533,0.01152697,-0.00816421,-0.00304042,-0.00207962,-0
 .00072005,-0.00230121,0.00054229,-0.00030339,0.00173977,0.00407155,0.0
 0022528,0.00008212,-0.00077284,0.00020377,0.00005045,-0.00334775,0.000
 28131,-0.00011862,0.00003943,-0.00005142,-0.00003103,0.00001457,-0.000
 01801,0.00000456,0.00001543,0.00001670,-0.00037143,-0.00010648,-0.0000
 4341,-0.00297591,0.00119483,0.00012783,0.00012249,-0.00006251,-0.00004
 934,-0.00009139,0.00001886,-0.00004454,0.00000999,0.00000822,-0.000000
 48,0.00001458,-0.00005737,0.00000627,-0.00000129,0.00001713,0.00000936
 ,-0.00000300,0.00000793,-0.00001494,0.00003429,-0.00002423,0.00003472,
 -0.00001854,-0.00001342,-0.00001887,-0.00150327,-0.00189083,-0.0006925
 2,0.53578274,-0.00735772,-0.02242558,-0.00153543,-0.00647612,0.0009093
 8,-0.00251589,0.00059644,0.00309828,0.00026362,0.00688138,-0.00381208,
 0.00195266,0.01377742,-0.01019927,0.00452491,0.00613757,-0.22002069,0.
 01612151,0.00202346,0.00089819,0.00071237,-0.01009694,0.00152296,-0.00
 299206,0.00946450,0.00419139,0.00309758,-0.00363697,0.00092309,-0.0022
 3667,-0.00355815,-0.00394955,-0.00099370,0.00144237,0.00067176,0.00019
 164,-0.00020295,-0.00011975,0.00020456,-0.00002838,0.00016530,-0.00012
 802,0.00005368,0.00009626,0.00006386,-0.00124949,0.00092188,-0.0002746
 6,0.00021373,-0.00025269,0.00032215,0.00009426,-0.00013100,0.00002181,
 -0.00055566,0.00002307,0.00025974,0.,0.00000766,-0.00002165,0.00005321
 ,-0.00000612,-0.00000507,-0.00001239,-0.00000848,0.00005108,-0.0001651
 6,0.00003001,-0.00008548,-0.00000060,-0.00009174,0.00001435,0.00253883
 ,0.00211351,0.00085291,-0.00414306,0.63102353,0.00240449,-0.00736005,0
 .00135243,-0.00138900,-0.00261420,0.00503547,-0.00142569,-0.00056217,-
 0.00117564,-0.00408793,0.00102004,0.00564168,0.00205970,0.00883966,-0.
 00183707,-0.00749157,0.01220746,-0.07211783,-0.00010166,-0.00029052,-0
 .00208974,-0.00009625,-0.00009082,-0.00074555,0.00002696,0.00158718,0.
 00016699,0.00039396,-0.00040702,0.00009181,0.00064903,-0.00131979,-0.0
 0056558,-0.00030852,-0.00001255,0.00013754,0.00001384,0.00001889,0.000
 00625,-0.00000585,0.00000407,0.00002102,-0.00003723,-0.00012519,-0.000
 31536,-0.00068752,0.00057630,-0.00266250,0.00002147,-0.00001223,0.0000
 4714,-0.00006651,0.00001856,0.00002960,0.00012775,-0.00004884,-0.00011
 405,0.00000519,-0.00002434,-0.00000059,-0.00000254,0.00001555,-0.00005
 497,0.00002266,-0.00001661,-0.00003682,0.00001941,-0.00000155,0.000011
 69,-0.00001321,-0.00000127,0.00001111,-0.00090874,-0.00096042,-0.00003
 255,0.01979599,0.00034632,0.50906791,0.00194047,-0.00017237,-0.0002062
 4,0.00045778,-0.00027151,0.00064845,-0.00010940,0.00004427,-0.00019254
 ,-0.00005242,0.00078156,0.00075007,-0.00250661,0.00095425,0.00045421,0
 .00074268,-0.00777046,-0.00984714,0.00046296,0.00057307,0.00005252,0.0
 0160484,0.00002626,0.00040447,-0.00134488,-0.00183092,-0.00034877,0.00
 024290,0.00018230,0.00013468,0.00019793,0.00149584,0.00011613,-0.00005
 751,-0.00007661,-0.00003033,0.00002294,0.00000475,-0.00001242,0.000001
 82,-0.00002153,0.00000180,0.00013518,0.00005556,0.00002415,0.00170704,
 0.00064448,0.00002472,-0.00004714,0.00004050,-0.00002604,0.00002868,0.
 00000351,0.00000820,0.00003043,0.00000467,-0.00000641,-0.00000490,0.00
 002028,0.00000022,-0.00000426,-0.00000750,0.00000559,-0.00000107,0.000
 00095,0.00000505,0.00000197,0.00000483,-0.00000397,0.00000781,0.000013
 23,0.00000303,-0.00008273,-0.00023472,0.00005575,-0.12172932,-0.060664
 39,-0.06766291,0.17028052,0.00627282,-0.00569882,0.00035205,-0.0007499
 4,-0.00032074,0.00109067,-0.00007073,-0.00061736,-0.00017358,-0.003143
 97,0.00262034,-0.00061406,-0.00108268,-0.00203924,-0.00019438,-0.02814
 410,-0.02438473,-0.03311008,-0.00004806,0.00035937,-0.00054791,0.00385
 533,-0.00042116,0.00114044,-0.00341191,-0.00195531,-0.00114588,0.00119
 063,-0.00023052,0.00075988,0.00120222,0.00176839,0.00046290,-0.0004456
 7,-0.00024107,-0.00008795,0.00006972,0.00003713,-0.00007095,0.00000998
 ,-0.00006048,0.00003908,0.00001149,-0.00008755,-0.00000190,0.00017403,
 -0.00210505,-0.00076804,-0.00007243,0.00008820,-0.00011518,-0.00001872
 ,0.00004056,-0.00000793,0.00017395,-0.00000114,-0.00007352,-0.00000144
 ,0.00000684,0.00000750,-0.00001825,-0.00000247,0.00000940,0.00000126,0
 .00000491,-0.00001033,0.00005081,-0.00000765,0.00002424,0.00000426,0.0
 0003403,-0.00000479,-0.00111444,-0.00145852,-0.00011972,-0.05315775,-0
 .15596102,-0.07615324,0.08253770,0.15639275,0.00215016,-0.00257461,0.0
 0110879,-0.00054533,0.00061714,-0.00023940,0.00055672,-0.00001232,0.00
 013914,-0.00071092,0.00029360,0.00015213,-0.00208954,0.00108694,0.0009
 8464,-0.01063926,-0.00778266,-0.00240716,0.00028382,0.00030732,-0.0000
 7706,0.00165528,0.00000479,0.00054282,-0.00135361,-0.00149814,-0.00043
 835,0.00030309,0.00008174,0.00023428,0.00024380,0.00127798,0.00040137,
 -0.00005533,-0.00008747,-0.00007059,0.00002429,0.00000298,-0.00002839,
 0.00000504,-0.00002428,0.00000704,0.00010042,0.00001789,-0.00001308,0.
 00107751,-0.00020283,-0.00060408,-0.00003308,0.00003945,-0.00005768,0.
 00002135,0.00000790,-0.00001091,0.00002251,0.00001587,0.00001013,-0.00
 000393,0.00001551,0.00000292,-0.00000521,-0.00000726,0.00002083,-0.000
 00668,0.00000643,0.00000951,0.00000938,-0.00000022,0.00000195,0.000007
 74,0.00001387,-0.00000399,-0.00021643,-0.00050235,-0.00002239,-0.06403
 721,-0.08386855,-0.16006151,0.12267389,0.11283744,0.24432406,-0.001933
 18,-0.00322063,-0.00208823,-0.00005522,0.00071157,-0.00071233,0.000901
 75,0.00031021,0.00040592,-0.00099793,-0.00099270,-0.00095354,0.0030503
 5,0.00480468,0.00145818,-0.02471586,0.01009468,0.00039823,0.00196565,0
 .00033409,0.00145026,0.00004865,0.00103719,0.00001253,0.00064497,-0.00
 125376,0.00033749,-0.00058041,0.00041351,-0.00037588,-0.00052404,0.000
 85796,-0.00024322,0.00025635,0.00007031,0.00001858,-0.00002145,-0.0000
 2665,0.00004003,-0.00000714,0.00001653,-0.00002903,0.00018590,0.000061
 92,0.00013565,0.00081710,-0.00062388,0.00049256,0.00000749,-0.00003530
 ,0.00007661,0.00005035,-0.00003095,0.00002399,-0.00007686,0.00000209,0
 .00003723,-0.00000609,0.00002909,-0.00000530,0.00000779,-0.00000967,-0
 .00000639,0.00000014,-0.00000517,0.00001453,-0.00004156,0.00001622,-0.
 00002961,0.00000895,-0.00000615,0.00001149,0.00082984,0.00053415,0.000
 23877,-0.22939183,0.07974630,0.00798055,-0.06665428,-0.00738139,-0.032
 14775,0.36566165,0.00067083,-0.00218129,-0.00021756,0.00147272,0.00142
 802,0.00050911,0.00059551,-0.00072318,0.00010482,-0.00005634,0.0010237
 3,0.00109029,-0.00339894,-0.00757343,-0.00206387,0.04421316,-0.0117652
 1,-0.00038209,0.00084679,-0.00285009,-0.00020593,0.00260028,-0.0011957
 9,0.00082563,-0.00267738,-0.00079285,-0.00092326,0.00110901,-0.0003409
 2,0.00066840,0.00100120,0.00081177,0.00030638,-0.00043883,-0.00018552,
 -0.00004575,0.00005871,0.00003893,-0.00006405,0.00000955,-0.00004554,0
 .00004177,0.00000338,-0.00008917,0.00002758,-0.00007510,0.00027537,-0.
 00040793,-0.00006500,0.00008364,-0.00010316,-0.00003769,0.00004383,-0.
 00001326,0.00016360,-0.00000735,-0.00007748,0.00000193,-0.00001251,0.0
 0000678,-0.00001542,0.00000500,0.00000330,0.00000308,0.00000371,-0.000
 01754,0.00005451,-0.00001284,0.00003089,-0.00000313,0.00002390,-0.0000
 0747,-0.00073879,-0.00057959,-0.00023950,0.06833129,-0.11746404,-0.003
 81849,-0.01941910,0.01696017,-0.00148576,-0.08645900,0.10879667,-0.000
 49228,0.00000879,0.00011397,0.00009162,0.00005391,0.00013700,-0.000101
 79,0.00008504,0.00000264,0.00053613,0.00039273,-0.00040803,-0.00006292
 ,-0.00053285,0.00130236,-0.00287458,0.00229868,0.00917487,0.00064039,-
 0.00042338,-0.00024440,0.00005327,-0.00004708,0.00000888,-0.00000698,-
 0.00014414,0.00000088,-0.00004259,0.00002928,0.00000905,-0.00008280,0.
 00010349,0.00008873,0.00003840,0.00000240,-0.00002082,-0.00000135,-0.0
 0000248,-0.00000287,0.00000120,-0.00000051,-0.00000264,0.00005128,-0.0
 0000461,-0.00004162,0.00012999,-0.00015986,0.00004884,0.00000352,0.000
 00322,-0.00001352,0.00000733,-0.00000195,-0.00000544,-0.00001698,0.000
 00717,0.00001606,-0.00000052,0.00000200,-0.00000008,0.00000005,-0.0000
 0146,0.00000863,-0.00000359,0.00000271,0.00000536,-0.00000174,-0.00000
 033,-0.00000092,0.00000159,-0.00000013,-0.00000214,0.00005257,0.000040
 82,0.00003441,0.00727860,-0.00450747,-0.07189260,-0.04143586,0.0023786
 0,0.00037815,-0.02012865,0.00697369,0.08002937,0.00012612,0.00033162,-
 0.00089626,0.00033135,0.00080870,-0.00005334,0.00070801,-0.00015340,0.
 00025832,-0.00011519,-0.00086369,-0.00059173,-0.00096756,-0.00078712,-
 0.00010303,0.00848558,-0.00307884,0.00652172,0.00015835,0.00040850,0.0
 0028259,0.00089464,-0.00001394,0.00022972,-0.00074578,-0.00084057,-0.0
 0017147,0.00019452,0.00007324,0.00005572,0.00031191,0.00071630,-0.0001
 4900,-0.00007884,-0.00004154,0.00002419,0.00001793,0.00000376,-0.00000
 347,-0.00000040,-0.00000984,0.00000468,0.00002733,0.00000977,0.0000615
 2,-0.00000905,-0.00023339,0.00078957,-0.00003706,0.00001874,0.00001100
 ,0.00000571,0.00000358,0.00001496,0.00004049,-0.00001180,-0.00002748,-
 0.00000215,0.00001027,-0.00000035,-0.00000217,-0.00000131,-0.00001001,
 0.00000464,-0.00000425,-0.00000354,0.00000158,0.00000429,-0.00000337,0
 .00000241,0.00000702,0.00000570,-0.00000144,-0.00004646,0.00003325,-0.
 08926227,-0.02487517,0.05076415,0.01472857,0.00330731,-0.01729071,-0.0
 4943110,-0.00775081,0.05636671,0.11461387,0.00292608,0.00039440,0.0020
 2180,0.00239742,-0.00089069,-0.00088122,-0.00078140,-0.00091193,-0.000
 01550,-0.00137362,0.00180989,-0.00244666,-0.00305128,-0.00162456,-0.00
 042480,-0.01328048,-0.01826173,0.03842139,-0.00070372,-0.00001749,0.00
 071637,0.00286942,-0.00052888,0.00104080,-0.00287818,-0.00113308,-0.00
 093644,0.00115385,-0.00029650,0.00066024,0.00111663,0.00110581,0.00017
 567,-0.00047758,-0.00020610,-0.00004084,0.00006242,0.00003946,-0.00005
 934,0.00000716,-0.00005053,0.00004084,-0.00005216,-0.00004453,0.000074
 33,-0.00020746,-0.00005014,0.00101401,-0.00007671,0.00007341,-0.000075
 71,-0.00003459,0.00004267,0.00000027,0.00018731,-0.00001495,-0.0000947
 5,0.00000075,-0.00000378,0.00000669,-0.00001601,0.00000315,-0.00000706
 ,0.00000756,-0.00000049,-0.00002069,0.00005169,-0.00000859,0.00002643,
 -0.00000145,0.00002841,-0.00000174,-0.00078798,-0.00074546,-0.00040544
 ,-0.02415252,-0.11215425,0.06918527,0.00308110,0.01728014,-0.01858040,
 0.00100474,0.01632458,-0.00655630,0.03300901,0.09984175,-0.00229164,0.
 00060813,-0.00107488,-0.00151682,0.00127200,0.00056936,0.00084858,0.00
 050996,0.00011491,0.00072361,-0.00115489,0.00119197,0.00120211,0.00109
 399,0.00166187,0.00977644,0.01557758,-0.01480466,0.00056579,-0.0001345
 5,-0.00100202,-0.00169319,0.00051346,-0.00051617,0.00170536,0.00035837
 ,0.00049231,-0.00078140,0.00025355,-0.00038473,-0.00082439,-0.00036145
 ,0.00019065,0.00036202,0.00011730,-0.00003227,-0.00004364,-0.00002805,
 0.00002991,-0.00000167,0.00002539,-0.00003036,0.00005105,0.00006906,-0
 .00008607,0.00052382,-0.00029452,-0.00101543,0.00004881,-0.00003848,0.
 00001122,0.00003655,-0.00002876,-0.00001260,-0.00015151,0.00002710,0.0
 0009626,-0.00000028,0.00000809,-0.00000295,0.00000947,-0.00000686,0.00
 002573,-0.00001295,0.00000730,0.00002418,-0.00003242,0.00000333,-0.000
 01563,0.00000464,-0.00001464,-0.00000436,0.00065924,0.00070956,0.00038
 431,0.04895551,0.07016355,-0.20791830,-0.00559029,-0.00590275,-0.08428
 318,0.04358731,-0.00051556,-0.01872413,-0.09612006,-0.08283722,0.32511
 504\\-0.00000447,-0.00000562,0.00000164,-0.00000669,0.00000050,-0.0000
 0363,0.00000758,-0.00000124,0.00000003,-0.00000615,-0.00000866,-0.0000
 0208,-0.00000121,0.00000163,-0.00000093,0.00001688,0.00000334,0.000005
 75,-0.00000085,-0.00000172,-0.00000294,-0.00000397,-0.00000097,-0.0000
 0087,0.00000966,0.00001084,-0.00000398,0.00000240,0.00000813,0.0000042
 8,-0.00000640,-0.00000631,0.00000288,0.00000131,-0.00000120,0.00000206
 ,-0.00000398,0.00000049,-0.00000112,0.00000200,0.00000142,0.00000023,0
 .00000051,-0.00000126,-0.00000090,-0.00000245,-0.00000101,0.00000231,0
 .00000404,0.00000091,-0.00000087,-0.00000784,-0.00000099,-0.00000198,0
 .00000544,0.00000298,-0.00000235,0.00000258,0.00000065,0.00000066,0.00
 000074,0.00000034,-0.00000098,0.00000066,0.00000374,0.00000029,0.00000
 159,0.00000214,0.00000016,-0.00000031,0.00000274,0.00000093,0.00000299
 ,-0.00000166,-0.00000105,-0.00000129,0.00000564,-0.00000720,-0.0000000
 7,-0.00000370,0.00000771,-0.00000541,-0.00000836,-0.00000139,-0.000007
 28,-0.00000280,0.00000334\\\@


 A politician is a person who can make waves and then
 make you think he's the only one who can save the ship.
 -- Ivern Ball
 Job cpu time:       0 days  2 hours 52 minutes 24.2 seconds.
 File lengths (MBytes):  RWF=    437 Int=      0 D2E=      0 Chk=     11 Scr=      1
 Normal termination of Gaussian 09 at Thu Jul 12 17:55:26 2018.
WARNING: pbs_rusage is deprecated and values produced may not be accurate


=============================================================================
                                     Resource usage:
                                       CPU time:              13:26:36
   JobId:    8352689.r-man2            Elapsed time:          03:22:44
   Project:             q95            Requested time:        36:00:00
   Service Units:     13.52 
                                       Max physical memory:      652MB
                                       Max virtual memory:      1323MB
                                       Requested memory:           0MB

                                       Number of cpus:               4

                                       Max jobfs disk use:       0.4GB
                                       Requested jobfs:         16.0GB
=============================================================================

