 Entering Gaussian System, Link 0=/apps/gaussian/g09e01/g09/g09
 AtFile(1): /home/507/hio507/Basis/6-31pGd.gbs
 Initial command:
 /apps/gaussian/g09e01/g09/l1.exe "/jobfs/local/9354144.r-man2/Gau-5158.inp" -scrdir="/jobfs/local/9354144.r-man2/"
 Entering Link 1 = /apps/gaussian/g09e01/g09/l1.exe PID=      5162.
  
 Copyright (c) 1988,1990,1992,1993,1995,1998,2003,2009,2015,
            Gaussian, Inc.  All Rights Reserved.
  
 This is part of the Gaussian(R) 09 program.  It is based on
 the Gaussian(R) 03 system (copyright 2003, Gaussian, Inc.),
 the Gaussian(R) 98 system (copyright 1998, Gaussian, Inc.),
 the Gaussian(R) 94 system (copyright 1995, Gaussian, Inc.),
 the Gaussian 92(TM) system (copyright 1992, Gaussian, Inc.),
 the Gaussian 90(TM) system (copyright 1990, Gaussian, Inc.),
 the Gaussian 88(TM) system (copyright 1988, Gaussian, Inc.),
 the Gaussian 86(TM) system (copyright 1986, Carnegie Mellon
 University), and the Gaussian 82(TM) system (copyright 1983,
 Carnegie Mellon University). Gaussian is a federally registered
 trademark of Gaussian, Inc.
  
 This software contains proprietary and confidential information,
 including trade secrets, belonging to Gaussian, Inc.
  
 This software is provided under written license and may be
 used, copied, transmitted, or stored only in accord with that
 written license.
  
 The following legend is applicable only to US Government
 contracts under FAR:
  
                    RESTRICTED RIGHTS LEGEND
  
 Use, reproduction and disclosure by the US Government is
 subject to restrictions as set forth in subparagraphs (a)
 and (c) of the Commercial Computer Software - Restricted
 Rights clause in FAR 52.227-19.
  
 Gaussian, Inc.
 340 Quinnipiac St., Bldg. 40, Wallingford CT 06492
  
  
 ---------------------------------------------------------------
 Warning -- This program may not be used in any manner that
 competes with the business of Gaussian, Inc. or will provide
 assistance to any competitor of Gaussian, Inc.  The licensee
 of this program is prohibited from giving any competitor of
 Gaussian, Inc. access to this program.  By using this program,
 the user acknowledges that Gaussian, Inc. is engaged in the
 business of creating and licensing software in the field of
 computational chemistry and represents and warrants to the
 licensee that it is not a competitor of Gaussian, Inc. and that
 it will not use this program in any manner prohibited above.
 ---------------------------------------------------------------
  

 Cite this work as:
 Gaussian 09, Revision E.01,
 M. J. Frisch, G. W. Trucks, H. B. Schlegel, G. E. Scuseria, 
 M. A. Robb, J. R. Cheeseman, G. Scalmani, V. Barone, B. Mennucci, 
 G. A. Petersson, H. Nakatsuji, M. Caricato, X. Li, H. P. Hratchian, 
 A. F. Izmaylov, J. Bloino, G. Zheng, J. L. Sonnenberg, M. Hada, 
 M. Ehara, K. Toyota, R. Fukuda, J. Hasegawa, M. Ishida, T. Nakajima, 
 Y. Honda, O. Kitao, H. Nakai, T. Vreven, J. A. Montgomery, Jr., 
 J. E. Peralta, F. Ogliaro, M. Bearpark, J. J. Heyd, E. Brothers, 
 K. N. Kudin, V. N. Staroverov, T. Keith, R. Kobayashi, J. Normand, 
 K. Raghavachari, A. Rendell, J. C. Burant, S. S. Iyengar, J. Tomasi, 
 M. Cossi, N. Rega, J. M. Millam, M. Klene, J. E. Knox, J. B. Cross, 
 V. Bakken, C. Adamo, J. Jaramillo, R. Gomperts, R. E. Stratmann, 
 O. Yazyev, A. J. Austin, R. Cammi, C. Pomelli, J. W. Ochterski, 
 R. L. Martin, K. Morokuma, V. G. Zakrzewski, G. A. Voth, 
 P. Salvador, J. J. Dannenberg, S. Dapprich, A. D. Daniels, 
 O. Farkas, J. B. Foresman, J. V. Ortiz, J. Cioslowski, 
 and D. J. Fox, Gaussian, Inc., Wallingford CT, 2013.
 
 ******************************************
 Gaussian 09:  ES64L-G09RevE.01 30-Nov-2015
                21-Aug-2018 
 ******************************************
 %chk=diph_a1.M062X.opt.chk
 %mem=196608000
 %nproc=4
 Will use up to    4 processors via shared memory.
 ----------------------------------------------------------------------
 # M062X/Gen 6D SCF=Tight INT(grid=ultrafine) OPT IOP(2/17=4) Freq=Nora
 man maxdisk=2147483648
 ----------------------------------------------------------------------
 1/14=-1,18=20,19=15,26=4,38=1/1,3;
 2/9=110,12=2,17=4,18=5,40=1/2;
 3/5=7,8=2,11=2,16=1,25=1,30=1,71=1,74=-55,75=-5/1,2,3;
 4//1;
 5/5=2,32=2,38=5/2;
 6/7=2,8=2,9=2,10=2,28=1/1;
 7//1,2,3,16;
 1/14=-1,18=20,19=15,26=4/3(2);
 2/9=110,17=4/2;
 99//99;
 2/9=110,17=4/2;
 3/5=7,6=1,8=2,11=2,16=1,25=1,30=1,71=1,74=-55,75=-5,82=7/1,2,3;
 4/5=5,16=3,69=1/1;
 5/5=2,32=2,38=5/2;
 7//1,2,3,16;
 1/14=-1,18=20,19=15,26=4/3(-5);
 2/9=110,17=4/2;
 6/7=2,8=2,9=2,10=2,19=2,28=1/1;
 99/9=1/99;
 -----------------
 diph_a1.M062X.opt
 -----------------
 Symbolic Z-matrix:
 Charge = -1 Multiplicity = 1
 C                    -4.17356   2.20316   0.0001 
 C                    -4.08048   0.8091    0.00009 
 C                    -3.01225   2.97971   0.0001 
 C                    -1.7588    2.36108   0.00009 
 C                    -1.65513   0.95936   0.00008 
 C                    -2.82589   0.19196   0.00008 
 N                    -0.402     0.28258   0.00006 
 C                     0.83342   0.84971   0.00005 
 O                     0.96445   2.06547   0.00004 
 N                     1.91963   0.03237   0.00004 
 C                     3.28819   0.4266    0.00002 
 C                     3.68815   1.77403   0. 
 C                     5.04463   2.11138  -0.00003 
 C                     6.0138    1.10522  -0.00002 
 C                     5.62583  -0.237     0. 
 C                     4.26854  -0.57265   0.00002 
 H                    -5.09949   2.65887   0.00011 
 H                    -4.93793   0.23481   0.0001 
 H                    -3.07976   4.0095    0.00011 
 H                    -0.90304   2.93788   0.00008 
 H                    -2.76242  -0.83809   0.00007 
 H                     1.74114  -0.93581   0.00005 
 H                     2.97494   2.51993  -0.00001 
 H                     5.33001   3.10314  -0.00004 
 H                     7.01557   1.35317  -0.00004 
 H                     6.34121  -0.9808    0. 
 H                     3.98706  -1.56552   0.00004 
 

 GradGradGradGradGradGradGradGradGradGradGradGradGradGradGradGradGradGrad
 Berny optimization.
 Initialization pass.
                           ----------------------------
                           !    Initial Parameters    !
                           ! (Angstroms and Degrees)  !
 --------------------------                            --------------------------
 ! Name  Definition              Value          Derivative Info.                !
 --------------------------------------------------------------------------------
 ! R1    R(1,2)                  1.3972         estimate D2E/DX2                !
 ! R2    R(1,3)                  1.397          estimate D2E/DX2                !
 ! R3    R(1,17)                 1.032          estimate D2E/DX2                !
 ! R4    R(2,6)                  1.3982         estimate D2E/DX2                !
 ! R5    R(2,18)                 1.032          estimate D2E/DX2                !
 ! R6    R(3,4)                  1.3978         estimate D2E/DX2                !
 ! R7    R(3,19)                 1.032          estimate D2E/DX2                !
 ! R8    R(4,5)                  1.4055         estimate D2E/DX2                !
 ! R9    R(4,20)                 1.032          estimate D2E/DX2                !
 ! R10   R(5,6)                  1.3999         estimate D2E/DX2                !
 ! R11   R(5,7)                  1.4242         estimate D2E/DX2                !
 ! R12   R(6,21)                 1.032          estimate D2E/DX2                !
 ! R13   R(7,8)                  1.3594         estimate D2E/DX2                !
 ! R14   R(8,9)                  1.2228         estimate D2E/DX2                !
 ! R15   R(8,10)                 1.3594         estimate D2E/DX2                !
 ! R16   R(10,11)                1.4242         estimate D2E/DX2                !
 ! R17   R(10,22)                0.9845         estimate D2E/DX2                !
 ! R18   R(11,12)                1.4055         estimate D2E/DX2                !
 ! R19   R(11,16)                1.3999         estimate D2E/DX2                !
 ! R20   R(12,13)                1.3978         estimate D2E/DX2                !
 ! R21   R(12,23)                1.032          estimate D2E/DX2                !
 ! R22   R(13,14)                1.397          estimate D2E/DX2                !
 ! R23   R(13,24)                1.032          estimate D2E/DX2                !
 ! R24   R(14,15)                1.3972         estimate D2E/DX2                !
 ! R25   R(14,25)                1.032          estimate D2E/DX2                !
 ! R26   R(15,16)                1.3982         estimate D2E/DX2                !
 ! R27   R(15,26)                1.032          estimate D2E/DX2                !
 ! R28   R(16,27)                1.032          estimate D2E/DX2                !
 ! A1    A(2,1,3)              119.9501         estimate D2E/DX2                !
 ! A2    A(2,1,17)             120.0247         estimate D2E/DX2                !
 ! A3    A(3,1,17)             120.0252         estimate D2E/DX2                !
 ! A4    A(1,2,6)              120.0127         estimate D2E/DX2                !
 ! A5    A(1,2,18)             119.9929         estimate D2E/DX2                !
 ! A6    A(6,2,18)             119.9944         estimate D2E/DX2                !
 ! A7    A(1,3,4)              119.9617         estimate D2E/DX2                !
 ! A8    A(1,3,19)             120.0193         estimate D2E/DX2                !
 ! A9    A(4,3,19)             120.019          estimate D2E/DX2                !
 ! A10   A(3,4,5)              120.4981         estimate D2E/DX2                !
 ! A11   A(3,4,20)             119.7509         estimate D2E/DX2                !
 ! A12   A(5,4,20)             119.7509         estimate D2E/DX2                !
 ! A13   A(4,5,6)              119.0139         estimate D2E/DX2                !
 ! A14   A(4,5,7)              122.6021         estimate D2E/DX2                !
 ! A15   A(6,5,7)              118.3841         estimate D2E/DX2                !
 ! A16   A(2,6,5)              120.5635         estimate D2E/DX2                !
 ! A17   A(2,6,21)             119.7189         estimate D2E/DX2                !
 ! A18   A(5,6,21)             119.7177         estimate D2E/DX2                !
 ! A19   A(5,7,8)              126.9699         estimate D2E/DX2                !
 ! A20   A(7,8,9)              120.8093         estimate D2E/DX2                !
 ! A21   A(7,8,10)             118.3818         estimate D2E/DX2                !
 ! A22   A(9,8,10)             120.809          estimate D2E/DX2                !
 ! A23   A(8,10,11)            126.97           estimate D2E/DX2                !
 ! A24   A(8,10,22)            116.5148         estimate D2E/DX2                !
 ! A25   A(11,10,22)           116.5152         estimate D2E/DX2                !
 ! A26   A(10,11,12)           122.6022         estimate D2E/DX2                !
 ! A27   A(10,11,16)           118.3833         estimate D2E/DX2                !
 ! A28   A(12,11,16)           119.0144         estimate D2E/DX2                !
 ! A29   A(11,12,13)           120.4984         estimate D2E/DX2                !
 ! A30   A(11,12,23)           119.7509         estimate D2E/DX2                !
 ! A31   A(13,12,23)           119.7507         estimate D2E/DX2                !
 ! A32   A(12,13,14)           119.9613         estimate D2E/DX2                !
 ! A33   A(12,13,24)           120.0191         estimate D2E/DX2                !
 ! A34   A(14,13,24)           120.0196         estimate D2E/DX2                !
 ! A35   A(13,14,15)           119.9508         estimate D2E/DX2                !
 ! A36   A(13,14,25)           120.0252         estimate D2E/DX2                !
 ! A37   A(15,14,25)           120.024          estimate D2E/DX2                !
 ! A38   A(14,15,16)           120.0122         estimate D2E/DX2                !
 ! A39   A(14,15,26)           119.9938         estimate D2E/DX2                !
 ! A40   A(16,15,26)           119.994          estimate D2E/DX2                !
 ! A41   A(11,16,15)           120.5628         estimate D2E/DX2                !
 ! A42   A(11,16,27)           119.7189         estimate D2E/DX2                !
 ! A43   A(15,16,27)           119.7183         estimate D2E/DX2                !
 ! D1    D(3,1,2,6)              0.0            estimate D2E/DX2                !
 ! D2    D(3,1,2,18)           179.9994         estimate D2E/DX2                !
 ! D3    D(17,1,2,6)          -179.9998         estimate D2E/DX2                !
 ! D4    D(17,1,2,18)           -0.0005         estimate D2E/DX2                !
 ! D5    D(2,1,3,4)              0.0            estimate D2E/DX2                !
 ! D6    D(2,1,3,19)          -179.9998         estimate D2E/DX2                !
 ! D7    D(17,1,3,4)           179.9998         estimate D2E/DX2                !
 ! D8    D(17,1,3,19)            0.0            estimate D2E/DX2                !
 ! D9    D(1,2,6,5)              0.0            estimate D2E/DX2                !
 ! D10   D(1,2,6,21)          -179.9998         estimate D2E/DX2                !
 ! D11   D(18,2,6,5)          -179.9994         estimate D2E/DX2                !
 ! D12   D(18,2,6,21)            0.0008         estimate D2E/DX2                !
 ! D13   D(1,3,4,5)              0.0            estimate D2E/DX2                !
 ! D14   D(1,3,4,20)           179.9994         estimate D2E/DX2                !
 ! D15   D(19,3,4,5)           179.9998         estimate D2E/DX2                !
 ! D16   D(19,3,4,20)           -0.0008         estimate D2E/DX2                !
 ! D17   D(3,4,5,6)              0.0            estimate D2E/DX2                !
 ! D18   D(3,4,5,7)            179.9995         estimate D2E/DX2                !
 ! D19   D(20,4,5,6)          -179.9994         estimate D2E/DX2                !
 ! D20   D(20,4,5,7)             0.0002         estimate D2E/DX2                !
 ! D21   D(4,5,6,2)              0.0            estimate D2E/DX2                !
 ! D22   D(4,5,6,21)           179.9998         estimate D2E/DX2                !
 ! D23   D(7,5,6,2)           -179.9996         estimate D2E/DX2                !
 ! D24   D(7,5,6,21)             0.0003         estimate D2E/DX2                !
 ! D25   D(4,5,7,8)              0.0001         estimate D2E/DX2                !
 ! D26   D(6,5,7,8)            179.9996         estimate D2E/DX2                !
 ! D27   D(5,7,8,9)             -0.001          estimate D2E/DX2                !
 ! D28   D(5,7,8,10)           179.9996         estimate D2E/DX2                !
 ! D29   D(7,8,10,11)          179.9996         estimate D2E/DX2                !
 ! D30   D(7,8,10,22)           -0.0006         estimate D2E/DX2                !
 ! D31   D(9,8,10,11)            0.0001         estimate D2E/DX2                !
 ! D32   D(9,8,10,22)          179.9999         estimate D2E/DX2                !
 ! D33   D(8,10,11,12)          -0.0004         estimate D2E/DX2                !
 ! D34   D(8,10,11,16)         179.9996         estimate D2E/DX2                !
 ! D35   D(22,10,11,12)        179.9998         estimate D2E/DX2                !
 ! D36   D(22,10,11,16)         -0.0002         estimate D2E/DX2                !
 ! D37   D(10,11,12,13)       -179.9995         estimate D2E/DX2                !
 ! D38   D(10,11,12,23)         -0.0006         estimate D2E/DX2                !
 ! D39   D(16,11,12,13)          0.0005         estimate D2E/DX2                !
 ! D40   D(16,11,12,23)        179.9994         estimate D2E/DX2                !
 ! D41   D(10,11,16,15)        180.0            estimate D2E/DX2                !
 ! D42   D(10,11,16,27)         -0.0004         estimate D2E/DX2                !
 ! D43   D(12,11,16,15)          0.0            estimate D2E/DX2                !
 ! D44   D(12,11,16,27)        179.9997         estimate D2E/DX2                !
 ! D45   D(11,12,13,14)         -0.001          estimate D2E/DX2                !
 ! D46   D(11,12,13,24)       -179.9997         estimate D2E/DX2                !
 ! D47   D(23,12,13,14)       -179.9998         estimate D2E/DX2                !
 ! D48   D(23,12,13,24)          0.0014         estimate D2E/DX2                !
 ! D49   D(12,13,14,15)          0.0009         estimate D2E/DX2                !
 ! D50   D(12,13,14,25)       -179.9999         estimate D2E/DX2                !
 ! D51   D(24,13,14,15)        179.9997         estimate D2E/DX2                !
 ! D52   D(24,13,14,25)         -0.0011         estimate D2E/DX2                !
 ! D53   D(13,14,15,16)         -0.0005         estimate D2E/DX2                !
 ! D54   D(13,14,15,26)        179.9995         estimate D2E/DX2                !
 ! D55   D(25,14,15,16)       -179.9997         estimate D2E/DX2                !
 ! D56   D(25,14,15,26)          0.0003         estimate D2E/DX2                !
 ! D57   D(14,15,16,11)          0.0            estimate D2E/DX2                !
 ! D58   D(14,15,16,27)       -179.9997         estimate D2E/DX2                !
 ! D59   D(26,15,16,11)       -180.0            estimate D2E/DX2                !
 ! D60   D(26,15,16,27)          0.0003         estimate D2E/DX2                !
 --------------------------------------------------------------------------------
 Trust Radius=3.00D-01 FncErr=1.00D-07 GrdErr=1.00D-06
 Number of steps in this run=    141 maximum allowed number of steps=    162.
 GradGradGradGradGradGradGradGradGradGradGradGradGradGradGradGradGradGrad

                          Input orientation:                          
 ---------------------------------------------------------------------
 Center     Atomic      Atomic             Coordinates (Angstroms)
 Number     Number       Type             X           Y           Z
 ---------------------------------------------------------------------
      1          6           0       -4.173560    2.203160    0.000100
      2          6           0       -4.080480    0.809100    0.000090
      3          6           0       -3.012250    2.979710    0.000100
      4          6           0       -1.758800    2.361080    0.000090
      5          6           0       -1.655130    0.959360    0.000080
      6          6           0       -2.825890    0.191960    0.000080
      7          7           0       -0.402000    0.282580    0.000060
      8          6           0        0.833420    0.849710    0.000050
      9          8           0        0.964450    2.065470    0.000040
     10          7           0        1.919630    0.032370    0.000040
     11          6           0        3.288190    0.426600    0.000020
     12          6           0        3.688150    1.774030    0.000000
     13          6           0        5.044630    2.111380   -0.000030
     14          6           0        6.013800    1.105220   -0.000020
     15          6           0        5.625830   -0.237000    0.000000
     16          6           0        4.268540   -0.572650    0.000020
     17          1           0       -5.099490    2.658870    0.000110
     18          1           0       -4.937930    0.234810    0.000100
     19          1           0       -3.079760    4.009500    0.000110
     20          1           0       -0.903040    2.937880    0.000080
     21          1           0       -2.762420   -0.838090    0.000070
     22          1           0        1.741140   -0.935810    0.000050
     23          1           0        2.974940    2.519930   -0.000010
     24          1           0        5.330010    3.103140   -0.000040
     25          1           0        7.015570    1.353170   -0.000040
     26          1           0        6.341210   -0.980800    0.000000
     27          1           0        3.987060   -1.565520    0.000040
 ---------------------------------------------------------------------
                    Distance matrix (angstroms):
                    1          2          3          4          5
     1  C    0.000000
     2  C    1.397164   0.000000
     3  C    1.397022   2.419228   0.000000
     4  C    2.419918   2.792640   1.397798   0.000000
     5  C    2.808830   2.430000   2.433842   1.405548   0.000000
     6  C    2.420979   1.398162   2.793972   2.417388   1.399851
     7  N    4.232410   3.715971   3.753387   2.482150   1.424207
     8  C    5.186683   4.914068   4.396144   3.000641   2.490965
     9  O    5.139855   5.199018   4.080438   2.739247   2.843533
    10  N    6.468330   6.050176   5.745455   4.353589   3.692996
    11  C    7.670325   7.378591   6.798082   5.405027   4.971946
    12  C    7.873413   7.828327   6.808012   5.478494   5.405028
    13  C    9.218647   9.217568   8.103537   6.808011   6.798083
    14  C   10.246354  10.098622   9.218638   7.873404   7.670317
    15  C   10.098635   9.762519   9.217573   7.828332   7.378594
    16  C    8.886741   8.462586   8.101183   6.703402   6.118572
    17  H    1.031997   2.111878   2.111755   3.353936   3.840827
    18  H    2.111555   1.032003   3.353016   3.824643   3.361807
    19  H    2.111697   3.353208   1.032001   2.112398   3.366441
    20  H    3.352031   3.824635   2.109625   1.032000   2.116644
    21  H    3.352688   2.109625   3.825965   3.352901   2.111141
    22  H    6.696029   6.077497   6.158410   4.808229   3.889257
    23  H    7.155515   7.259882   6.004818   4.736405   4.885993
    24  H    9.546089   9.686069   8.343173   7.127544   7.306707
    25  H   11.221369  11.109381  10.158878   8.832069   8.679639
    26  H   10.986264  10.574278  10.157404   8.762324   8.228346
    27  H    8.988808   8.409758   8.345625   6.959389   6.181369
                    6          7          8          9         10
     6  C    0.000000
     7  N    2.425583   0.000000
     8  C    3.717954   1.359374   0.000000
     9  O    4.228087   2.246304   1.222801   0.000000
    10  N    4.748203   2.335074   1.359374   2.246300   0.000000
    11  C    6.118581   3.692999   2.490967   2.843530   1.424210
    12  C    6.703407   4.353590   3.000642   2.739248   2.482145
    13  C    8.101189   5.745458   4.396146   4.080438   3.753386
    14  C    8.886741   6.468325   5.186677   5.139846   4.232403
    15  C    8.462599   6.050182   4.914075   5.199022   3.715976
    16  C    7.135514   4.748196   3.717951   4.228083   2.425578
    17  H    3.354833   5.264330   6.202619   6.092905   7.494434
    18  H    2.112475   4.536182   5.804014   6.179758   6.860547
    19  H    3.825972   4.589154   5.029637   4.487191   6.388385
    20  H    3.352227   2.702158   2.715833   2.061218   4.050858
    21  H    1.032004   2.612945   3.972245   4.724428   4.762278
    22  H    4.704214   2.465263   2.003007   3.100150   0.984495
    23  H    6.250526   4.050859   2.715832   2.061214   2.702154
    24  H    8.659889   6.388388   5.029639   4.487190   4.589152
    25  H    9.909730   7.494432   6.202616   6.092900   5.264325
    26  H    9.241812   6.860540   5.804009   6.179750   4.536175
    27  H    7.035981   4.762281   3.972251   4.724432   2.612952
                   11         12         13         14         15
    11  C    0.000000
    12  C    1.405537   0.000000
    13  C    2.433838   1.397799   0.000000
    14  C    2.808821   2.419908   1.397014   0.000000
    15  C    2.430005   2.792641   2.419232   1.397167   0.000000
    16  C    1.399852   2.417387   2.793982   2.420987   1.398176
    17  H    8.679643   8.832076  10.158884  11.221365  11.109390
    18  H    8.228355   8.762332  10.157412  10.986264  10.574291
    19  H    7.306706   7.127547   8.343175   9.546082   9.686076
    20  H    4.885994   4.736409   6.004821   7.155510   7.259890
    21  H    6.181369   6.959384   8.345622   8.988798   8.409759
    22  H    2.061438   3.336777   4.494264   4.735127   3.947043
    23  H    2.116638   1.032005   2.109628   3.352025   3.824641
    24  H    3.366437   2.112401   1.032003   2.111694   3.353214
    25  H    3.840819   3.353930   2.111750   1.031999   2.111875
    26  H    3.361801   3.824633   3.353013   2.111558   1.031992
    27  H    2.111152   3.352900   3.825970   3.352690   2.109629
                   16         17         18         19         20
    16  C    0.000000
    17  H    9.909728   0.000000
    18  H    9.241812   2.429438   0.000000
    19  H    8.659885   2.429714   4.207265   0.000000
    20  H    6.250525   4.205715   4.856637   2.426207   0.000000
    21  H    7.035969   4.206023   2.425687   4.857966   4.208948
    22  H    2.553358   7.727609   6.780880   6.906314   4.690113
    23  H    3.352231   8.075625   8.236218   6.235239   3.900437
    24  H    3.825984  10.438958  10.661046   8.458470   6.235240
    25  H    3.354841  12.185218  12.005702  10.438955   8.075623
    26  H    2.112474  12.005699  11.344457  10.661040   8.236213
    27  H    1.031999  10.020522   9.104759   9.001155   6.647833
                   21         22         23         24         25
    21  H    0.000000
    22  H    4.504620   0.000000
    23  H    6.647827   3.669387   0.000000
    24  H    9.001151   5.403064   2.426209   0.000000
    25  H   10.020514   5.749699   4.205713   2.429713   0.000000
    26  H    9.104749   4.600290   4.856633   4.207266   2.429440
    27  H    6.788566   2.332529   4.208953   4.857973   4.206022
                   26         27
    26  H    0.000000
    27  H    2.425679   0.000000
 Stoichiometry    C13H11N2O(1-)
 Framework group  C1[X(C13H11N2O)]
 Deg. of freedom    75
 Full point group                 C1      NOp   1
 Largest Abelian subgroup         C1      NOp   1
 Largest concise Abelian subgroup C1      NOp   1
                         Standard orientation:                         
 ---------------------------------------------------------------------
 Center     Atomic      Atomic             Coordinates (Angstroms)
 Number     Number       Type             X           Y           Z
 ---------------------------------------------------------------------
      1          6           0        5.134010   -0.557436    0.000055
      2          6           0        4.889698    0.818201    0.000045
      3          6           0        4.064154   -1.455813    0.000055
      4          6           0        2.750800   -0.977335    0.000045
      5          6           0        2.495127    0.404764    0.000035
      6          6           0        3.575373    1.295073    0.000035
      7          7           0        1.175760    0.941080    0.000015
      8          6           0        0.009433    0.242810    0.000005
      9          8           0        0.011554   -0.979989   -0.000005
     10          7           0       -1.159311    0.937025   -0.000005
     11          6           0       -2.476811    0.396130   -0.000025
     12          6           0       -2.727686   -0.986837   -0.000045
     13          6           0       -4.039371   -1.469874   -0.000075
     14          6           0       -5.112329   -0.575219   -0.000065
     15          6           0       -4.872806    0.801264   -0.000045
     16          6           0       -3.560131    1.282699   -0.000025
     17          1           0        6.104052   -0.909622    0.000065
     18          1           0        5.679522    1.482436    0.000055
     19          1           0        4.243386   -2.472130    0.000065
     20          1           0        1.962929   -1.643881    0.000035
     21          1           0        3.400129    2.312089    0.000025
     22          1           0       -1.087297    1.918883    0.000005
     23          1           0       -1.937502   -1.650648   -0.000055
     24          1           0       -4.215072   -2.486810   -0.000085
     25          1           0       -6.081147   -0.930767   -0.000085
     26          1           0       -5.664918    1.462752   -0.000045
     27          1           0       -3.388427    2.300314   -0.000005
 ---------------------------------------------------------------------
 Rotational constants (GHZ):      2.2888891      0.2041389      0.1874232
 General basis read from cards:  (6D, 7F)
 There are   326 symmetry adapted cartesian basis functions of A   symmetry.
 There are   326 symmetry adapted basis functions of A   symmetry.
   326 basis functions,   556 primitive gaussians,   326 cartesian basis functions
    56 alpha electrons       56 beta electrons
       nuclear repulsion energy       949.4476351854 Hartrees.
 NAtoms=   27 NActive=   27 NUniq=   27 SFac= 1.00D+00 NAtFMM=   60 NAOKFM=F Big=F
 Integral buffers will be    131072 words long.
 Raffenetti 2 integral format.
 Two-electron integral symmetry is turned on.
 One-electron integrals computed using PRISM.
 NBasis=   326 RedAO= T EigKep=  1.36D-06  NBF=   326
 NBsUse=   326 1.00D-06 EigRej= -1.00D+00 NBFU=   326
 ExpMin= 4.38D-02 ExpMax= 5.48D+03 ExpMxC= 8.25D+02 IAcc=3 IRadAn=         5 AccDes= 0.00D+00
 Harris functional with IExCor= 1009 and IRadAn=       5 diagonalized for initial guess.
 HarFok:  IExCor= 1009 AccDes= 0.00D+00 IRadAn=         5 IDoV= 1 UseB2=F ITyADJ=14
 ICtDFT=  3500011 ScaDFX=  1.000000  1.000000  1.000000  1.000000
 FoFCou: FMM=F IPFlag=           0 FMFlag=      100000 FMFlg1=           0
         NFxFlg=           0 DoJE=T BraDBF=F KetDBF=T FulRan=T
         wScrn=  0.000000 ICntrl=     500 IOpCl=  0 I1Cent=   200000004 NGrid=           0
         NMat0=    1 NMatS0=      1 NMatT0=    0 NMatD0=    1 NMtDS0=    0 NMtDT0=    0
 Petite list used in FoFCou.
 Requested convergence on RMS density matrix=1.00D-08 within 128 cycles.
 Requested convergence on MAX density matrix=1.00D-06.
 Requested convergence on             energy=1.00D-06.
 No special actions if energy rises.
 SCF Done:  E(RM062X) =  -686.504665495     A.U. after   16 cycles
            NFock= 16  Conv=0.37D-08     -V/T= 2.0074

 **********************************************************************

            Population analysis using the SCF density.

 **********************************************************************

 Orbital symmetries:
       Occupied  (A) (A) (A) (A) (A) (A) (A) (A) (A) (A) (A) (A)
                 (A) (A) (A) (A) (A) (A) (A) (A) (A) (A) (A) (A)
                 (A) (A) (A) (A) (A) (A) (A) (A) (A) (A) (A) (A)
                 (A) (A) (A) (A) (A) (A) (A) (A) (A) (A) (A) (A)
                 (A) (A) (A) (A) (A) (A) (A) (A)
       Virtual   (A) (A) (A) (A) (A) (A) (A) (A) (A) (A) (A) (A)
                 (A) (A) (A) (A) (A) (A) (A) (A) (A) (A) (A) (A)
                 (A) (A) (A) (A) (A) (A) (A) (A) (A) (A) (A) (A)
                 (A) (A) (A) (A) (A) (A) (A) (A) (A) (A) (A) (A)
                 (A) (A) (A) (A) (A) (A) (A) (A) (A) (A) (A) (A)
                 (A) (A) (A) (A) (A) (A) (A) (A) (A) (A) (A) (A)
                 (A) (A) (A) (A) (A) (A) (A) (A) (A) (A) (A) (A)
                 (A) (A) (A) (A) (A) (A) (A) (A) (A) (A) (A) (A)
                 (A) (A) (A) (A) (A) (A) (A) (A) (A) (A) (A) (A)
                 (A) (A) (A) (A) (A) (A) (A) (A) (A) (A) (A) (A)
                 (A) (A) (A) (A) (A) (A) (A) (A) (A) (A) (A) (A)
                 (A) (A) (A) (A) (A) (A) (A) (A) (A) (A) (A) (A)
                 (A) (A) (A) (A) (A) (A) (A) (A) (A) (A) (A) (A)
                 (A) (A) (A) (A) (A) (A) (A) (A) (A) (A) (A) (A)
                 (A) (A) (A) (A) (A) (A) (A) (A) (A) (A) (A) (A)
                 (A) (A) (A) (A) (A) (A) (A) (A) (A) (A) (A) (A)
                 (A) (A) (A) (A) (A) (A) (A) (A) (A) (A) (A) (A)
                 (A) (A) (A) (A) (A) (A) (A) (A) (A) (A) (A) (A)
                 (A) (A) (A) (A) (A) (A) (A) (A) (A) (A) (A) (A)
                 (A) (A) (A) (A) (A) (A) (A) (A) (A) (A) (A) (A)
                 (A) (A) (A) (A) (A) (A) (A) (A) (A) (A) (A) (A)
                 (A) (A) (A) (A) (A) (A) (A) (A) (A) (A) (A) (A)
                 (A) (A) (A) (A) (A) (A)
 The electronic state is 1-A.
 Alpha  occ. eigenvalues --  -19.42824 -14.65422 -14.54735 -10.49739 -10.48928
 Alpha  occ. eigenvalues --  -10.45053 -10.44360 -10.44332 -10.43955 -10.43180
 Alpha  occ. eigenvalues --  -10.42517 -10.41019 -10.40554 -10.40109 -10.39425
 Alpha  occ. eigenvalues --  -10.38162  -1.00734  -0.90754  -0.84271  -0.82599
 Alpha  occ. eigenvalues --   -0.77787  -0.74196  -0.72885  -0.69981  -0.67273
 Alpha  occ. eigenvalues --   -0.60205  -0.59197  -0.55192  -0.54645  -0.51751
 Alpha  occ. eigenvalues --   -0.50046  -0.46832  -0.45358  -0.42285  -0.40091
 Alpha  occ. eigenvalues --   -0.39862  -0.39067  -0.37529  -0.37103  -0.35404
 Alpha  occ. eigenvalues --   -0.35204  -0.34049  -0.32426  -0.31422  -0.30321
 Alpha  occ. eigenvalues --   -0.29266  -0.28359  -0.26344  -0.24286  -0.20087
 Alpha  occ. eigenvalues --   -0.19011  -0.18864  -0.16094  -0.15075  -0.11785
 Alpha  occ. eigenvalues --   -0.07871
 Alpha virt. eigenvalues --    0.09889   0.11325   0.12051   0.12215   0.12298
 Alpha virt. eigenvalues --    0.13210   0.13508   0.13700   0.14425   0.15661
 Alpha virt. eigenvalues --    0.16076   0.16226   0.16309   0.17130   0.17180
 Alpha virt. eigenvalues --    0.18242   0.18392   0.18566   0.19380   0.19920
 Alpha virt. eigenvalues --    0.20255   0.21971   0.21993   0.22437   0.22740
 Alpha virt. eigenvalues --    0.23183   0.23806   0.24315   0.24878   0.25108
 Alpha virt. eigenvalues --    0.25487   0.25915   0.26140   0.27043   0.27594
 Alpha virt. eigenvalues --    0.27757   0.29073   0.29296   0.29609   0.29757
 Alpha virt. eigenvalues --    0.30015   0.30027   0.31151   0.32034   0.32108
 Alpha virt. eigenvalues --    0.32523   0.32888   0.33124   0.33552   0.34066
 Alpha virt. eigenvalues --    0.34376   0.34667   0.35760   0.36157   0.37161
 Alpha virt. eigenvalues --    0.37205   0.37934   0.38434   0.38834   0.39283
 Alpha virt. eigenvalues --    0.39857   0.39931   0.40141   0.41174   0.41994
 Alpha virt. eigenvalues --    0.42588   0.43201   0.43469   0.44202   0.44551
 Alpha virt. eigenvalues --    0.45346   0.46279   0.46578   0.46816   0.47275
 Alpha virt. eigenvalues --    0.47802   0.49126   0.49726   0.50516   0.50973
 Alpha virt. eigenvalues --    0.51458   0.52632   0.53229   0.53587   0.55730
 Alpha virt. eigenvalues --    0.56779   0.56925   0.58229   0.60455   0.60628
 Alpha virt. eigenvalues --    0.63227   0.66685   0.70996   0.73014   0.75346
 Alpha virt. eigenvalues --    0.77175   0.78271   0.79677   0.81955   0.82220
 Alpha virt. eigenvalues --    0.83396   0.85647   0.85694   0.86535   0.87055
 Alpha virt. eigenvalues --    0.88957   0.89183   0.89552   0.90374   0.91052
 Alpha virt. eigenvalues --    0.92101   0.92558   0.93488   0.93946   0.94542
 Alpha virt. eigenvalues --    0.95338   0.95571   0.96310   0.97637   0.99055
 Alpha virt. eigenvalues --    0.99592   1.00708   1.02477   1.03180   1.07910
 Alpha virt. eigenvalues --    1.11145   1.11625   1.13232   1.13390   1.14308
 Alpha virt. eigenvalues --    1.14771   1.15759   1.16673   1.17809   1.18306
 Alpha virt. eigenvalues --    1.19859   1.21359   1.23037   1.23831   1.24791
 Alpha virt. eigenvalues --    1.25463   1.25885   1.27116   1.27328   1.28901
 Alpha virt. eigenvalues --    1.29864   1.30493   1.31610   1.33646   1.35300
 Alpha virt. eigenvalues --    1.36045   1.36797   1.38400   1.40938   1.41733
 Alpha virt. eigenvalues --    1.43489   1.45313   1.45867   1.46998   1.47998
 Alpha virt. eigenvalues --    1.50919   1.51176   1.52847   1.52920   1.57083
 Alpha virt. eigenvalues --    1.58621   1.59988   1.61133   1.61204   1.61767
 Alpha virt. eigenvalues --    1.63391   1.64433   1.64908   1.65782   1.65893
 Alpha virt. eigenvalues --    1.66980   1.68451   1.69021   1.70430   1.70772
 Alpha virt. eigenvalues --    1.74529   1.78341   1.79522   1.82724   1.92653
 Alpha virt. eigenvalues --    1.95939   1.99415   2.02550   2.02971   2.04216
 Alpha virt. eigenvalues --    2.06217   2.08064   2.09081   2.10110   2.12827
 Alpha virt. eigenvalues --    2.14549   2.15708   2.18915   2.19605   2.20630
 Alpha virt. eigenvalues --    2.22917   2.23005   2.23821   2.24312   2.27079
 Alpha virt. eigenvalues --    2.27755   2.29428   2.29792   2.31178   2.31610
 Alpha virt. eigenvalues --    2.33569   2.34175   2.35621   2.37574   2.37822
 Alpha virt. eigenvalues --    2.41816   2.43686   2.44349   2.45791   2.47839
 Alpha virt. eigenvalues --    2.48067   2.48622   2.55484   2.55515   2.59872
 Alpha virt. eigenvalues --    2.62345   2.72503   2.72626   2.74515   2.78871
 Alpha virt. eigenvalues --    2.78940   2.79197   2.82757   2.84014   2.86532
 Alpha virt. eigenvalues --    2.89705   2.91116   2.91527   2.93826   2.94088
 Alpha virt. eigenvalues --    2.95289   2.95589   2.97683   3.01120   3.03945
 Alpha virt. eigenvalues --    3.11565   3.16193   3.18379   3.27647   3.34278
 Alpha virt. eigenvalues --    3.47793   3.54290   3.58808   3.64304   4.37176
 Alpha virt. eigenvalues --    4.40711   4.41969   4.44468   4.45782   4.49470
 Alpha virt. eigenvalues --    4.53517   4.54444   4.58364   4.61679   4.67231
 Alpha virt. eigenvalues --    4.70978   4.73698   4.83285   4.89600   4.95184
          Condensed to atoms (all electrons):
               1          2          3          4          5          6
     1  C    5.496837   0.207899   0.238628  -0.084984  -0.500200   0.462054
     2  C    0.207899   6.469278   1.016475  -0.764860   0.129269  -0.792302
     3  C    0.238628   1.016475  12.534985  -4.141768  -0.620756  -1.958019
     4  C   -0.084984  -0.764860  -4.141768  12.691564  -1.359174  -2.651302
     5  C   -0.500200   0.129269  -0.620756  -1.359174  10.683978  -0.268933
     6  C    0.462054  -0.792302  -1.958019  -2.651302  -0.268933  12.616656
     7  N    0.012021   0.061263  -0.130072  -0.467031   0.554808   0.145264
     8  C    0.049942  -0.188615  -0.691151   1.068576  -1.246410  -0.588506
     9  O   -0.016915   0.035988   0.245489   0.219884  -0.308769  -0.187097
    10  N    0.005142  -0.010496  -0.044945   0.181308  -0.408370  -0.127843
    11  C    0.001406  -0.001052   0.054574   0.578463  -1.107369  -0.369107
    12  C   -0.000039   0.004379  -0.114627  -0.351171   0.418708   0.205590
    13  C   -0.000743   0.000649  -0.042015  -0.148648   0.089543   0.044574
    14  C   -0.000035   0.000031   0.000042   0.001481   0.001296  -0.001626
    15  C    0.000025  -0.000380  -0.000839  -0.002390  -0.007684   0.000135
    16  C   -0.000464  -0.005015   0.031184   0.158699  -0.184322  -0.088084
    17  H    0.306454  -0.046727  -0.037066   0.065029  -0.005604   0.010637
    18  H   -0.022989   0.313479   0.004128  -0.015183   0.013382  -0.002810
    19  H   -0.056280   0.019114   0.321634  -0.006767   0.044995  -0.021885
    20  H    0.029591  -0.018245  -0.036470   0.437106  -0.184858  -0.005767
    21  H    0.014035  -0.091232  -0.017687   0.061942   0.108233   0.255895
    22  H   -0.000093  -0.000172   0.000256  -0.002959   0.003124   0.004425
    23  H   -0.000030   0.000001  -0.000435  -0.003984   0.012477   0.000620
    24  H    0.000000  -0.000000   0.000009   0.000134  -0.000215   0.000001
    25  H    0.000000   0.000000   0.000000   0.000006  -0.000007  -0.000000
    26  H   -0.000000  -0.000000   0.000000   0.000006   0.000004  -0.000002
    27  H    0.000001   0.000000  -0.000010  -0.000035  -0.000086   0.000156
               7          8          9         10         11         12
     1  C    0.012021   0.049942  -0.016915   0.005142   0.001406  -0.000039
     2  C    0.061263  -0.188615   0.035988  -0.010496  -0.001052   0.004379
     3  C   -0.130072  -0.691151   0.245489  -0.044945   0.054574  -0.114627
     4  C   -0.467031   1.068576   0.219884   0.181308   0.578463  -0.351171
     5  C    0.554808  -1.246410  -0.308769  -0.408370  -1.107369   0.418708
     6  C    0.145264  -0.588506  -0.187097  -0.127843  -0.369107   0.205590
     7  N    7.480921   0.603322  -0.140664  -0.318794  -0.277793   0.067616
     8  C    0.603322   7.315912   0.424883   0.116763  -1.542486   0.992395
     9  O   -0.140664   0.424883   8.648537  -0.187991  -0.326124   0.207809
    10  N   -0.318794   0.116763  -0.187991   8.028020   0.113540  -0.517232
    11  C   -0.277793  -1.542486  -0.326124   0.113540  12.885007  -2.069285
    12  C    0.067616   0.992395   0.207809  -0.517232  -2.069285  13.758002
    13  C   -0.050930  -0.519921   0.229696  -0.074347  -1.738149  -3.196175
    14  C   -0.000371   0.001520  -0.015149   0.028309  -0.549889  -0.125366
    15  C   -0.009951  -0.163095   0.016723   0.032506  -0.226147  -0.666794
    16  C   -0.054034  -0.497705  -0.134163   0.630289   0.400641  -3.918754
    17  H    0.000204   0.000735   0.000022   0.000003  -0.000009   0.000009
    18  H    0.001120   0.003135   0.000001   0.000027   0.000016   0.000003
    19  H   -0.001749  -0.006286   0.000875   0.000002  -0.000340   0.000219
    20  H   -0.009921   0.073119  -0.014577   0.002563   0.018205  -0.004353
    21  H   -0.013762  -0.022112   0.000095  -0.001082  -0.001030  -0.000085
    22  H    0.023598   0.050524   0.015096   0.221084  -0.084126  -0.021330
    23  H    0.002404   0.050243  -0.010070  -0.018314  -0.073525   0.340912
    24  H    0.000022  -0.002984   0.000713  -0.000908   0.032138   0.028263
    25  H    0.000000   0.000268   0.000020   0.000076  -0.001791   0.045998
    26  H    0.000019   0.001958   0.000001   0.000609  -0.003440  -0.014522
    27  H    0.000799   0.011547  -0.000075  -0.018059   0.137768   0.103642
              13         14         15         16         17         18
     1  C   -0.000743  -0.000035   0.000025  -0.000464   0.306454  -0.022989
     2  C    0.000649   0.000031  -0.000380  -0.005015  -0.046727   0.313479
     3  C   -0.042015   0.000042  -0.000839   0.031184  -0.037066   0.004128
     4  C   -0.148648   0.001481  -0.002390   0.158699   0.065029  -0.015183
     5  C    0.089543   0.001296  -0.007684  -0.184322  -0.005604   0.013382
     6  C    0.044574  -0.001626   0.000135  -0.088084   0.010637  -0.002810
     7  N   -0.050930  -0.000371  -0.009951  -0.054034   0.000204   0.001120
     8  C   -0.519921   0.001520  -0.163095  -0.497705   0.000735   0.003135
     9  O    0.229696  -0.015149   0.016723  -0.134163   0.000022   0.000001
    10  N   -0.074347   0.028309   0.032506   0.630289   0.000003   0.000027
    11  C   -1.738149  -0.549889  -0.226147   0.400641  -0.000009   0.000016
    12  C   -3.196175  -0.125366  -0.666794  -3.918754   0.000009   0.000003
    13  C   13.239929   0.325564   0.886356  -2.691543   0.000000   0.000000
    14  C    0.325564   5.424139   0.394556   0.346925   0.000000  -0.000000
    15  C    0.886356   0.394556   5.827172   0.002802   0.000000  -0.000000
    16  C   -2.691543   0.346925   0.002802  12.919010  -0.000000  -0.000001
    17  H    0.000000   0.000000   0.000000  -0.000000   0.567023  -0.005372
    18  H    0.000000  -0.000000  -0.000000  -0.000001  -0.005372   0.557945
    19  H    0.000020   0.000000  -0.000000  -0.000008  -0.005152  -0.000209
    20  H    0.000200  -0.000033  -0.000009   0.000742  -0.000180   0.000018
    21  H   -0.000012   0.000001   0.000005   0.000128  -0.000189  -0.005376
    22  H    0.017467  -0.005051   0.029623  -0.013308  -0.000000  -0.000000
    23  H   -0.043891   0.027600  -0.021282   0.032621   0.000000  -0.000000
    24  H    0.299547  -0.049978   0.010376  -0.016667  -0.000000  -0.000000
    25  H   -0.023923   0.308394  -0.045665   0.015115  -0.000000   0.000000
    26  H   -0.002857  -0.006469   0.298440   0.025604   0.000000  -0.000000
    27  H   -0.024466   0.003893  -0.015016   0.081975  -0.000000   0.000000
              19         20         21         22         23         24
     1  C   -0.056280   0.029591   0.014035  -0.000093  -0.000030   0.000000
     2  C    0.019114  -0.018245  -0.091232  -0.000172   0.000001  -0.000000
     3  C    0.321634  -0.036470  -0.017687   0.000256  -0.000435   0.000009
     4  C   -0.006767   0.437106   0.061942  -0.002959  -0.003984   0.000134
     5  C    0.044995  -0.184858   0.108233   0.003124   0.012477  -0.000215
     6  C   -0.021885  -0.005767   0.255895   0.004425   0.000620   0.000001
     7  N   -0.001749  -0.009921  -0.013762   0.023598   0.002404   0.000022
     8  C   -0.006286   0.073119  -0.022112   0.050524   0.050243  -0.002984
     9  O    0.000875  -0.014577   0.000095   0.015096  -0.010070   0.000713
    10  N    0.000002   0.002563  -0.001082   0.221084  -0.018314  -0.000908
    11  C   -0.000340   0.018205  -0.001030  -0.084126  -0.073525   0.032138
    12  C    0.000219  -0.004353  -0.000085  -0.021330   0.340912   0.028263
    13  C    0.000020   0.000200  -0.000012   0.017467  -0.043891   0.299547
    14  C    0.000000  -0.000033   0.000001  -0.005051   0.027600  -0.049978
    15  C   -0.000000  -0.000009   0.000005   0.029623  -0.021282   0.010376
    16  C   -0.000008   0.000742   0.000128  -0.013308   0.032621  -0.016667
    17  H   -0.005152  -0.000180  -0.000189  -0.000000   0.000000  -0.000000
    18  H   -0.000209   0.000018  -0.005376  -0.000000  -0.000000  -0.000000
    19  H    0.555609  -0.005591   0.000021   0.000000   0.000000  -0.000000
    20  H   -0.005591   0.468180  -0.000147   0.000001  -0.000036   0.000000
    21  H    0.000021  -0.000147   0.537721   0.000005   0.000000  -0.000000
    22  H    0.000000   0.000001   0.000005   0.330485  -0.000208   0.000003
    23  H    0.000000  -0.000036   0.000000  -0.000208   0.431759  -0.005252
    24  H   -0.000000   0.000000  -0.000000   0.000003  -0.005252   0.528290
    25  H    0.000000   0.000000  -0.000000  -0.000000  -0.000161  -0.004802
    26  H   -0.000000  -0.000000   0.000000  -0.000013   0.000017  -0.000195
    27  H    0.000000  -0.000000  -0.000000   0.005827  -0.000142   0.000021
              25         26         27
     1  C    0.000000  -0.000000   0.000001
     2  C    0.000000  -0.000000   0.000000
     3  C    0.000000   0.000000  -0.000010
     4  C    0.000006   0.000006  -0.000035
     5  C   -0.000007   0.000004  -0.000086
     6  C   -0.000000  -0.000002   0.000156
     7  N    0.000000   0.000019   0.000799
     8  C    0.000268   0.001958   0.011547
     9  O    0.000020   0.000001  -0.000075
    10  N    0.000076   0.000609  -0.018059
    11  C   -0.001791  -0.003440   0.137768
    12  C    0.045998  -0.014522   0.103642
    13  C   -0.023923  -0.002857  -0.024466
    14  C    0.308394  -0.006469   0.003893
    15  C   -0.045665   0.298440  -0.015016
    16  C    0.015115   0.025604   0.081975
    17  H   -0.000000   0.000000  -0.000000
    18  H    0.000000  -0.000000   0.000000
    19  H    0.000000  -0.000000   0.000000
    20  H    0.000000  -0.000000  -0.000000
    21  H   -0.000000   0.000000  -0.000000
    22  H   -0.000000  -0.000013   0.005827
    23  H   -0.000161   0.000017  -0.000142
    24  H   -0.004802  -0.000195   0.000021
    25  H    0.544881  -0.005051  -0.000187
    26  H   -0.005051   0.536220  -0.005346
    27  H   -0.000187  -0.005346   0.545288
 Mulliken charges:
               1
     1  C   -0.141263
     2  C   -0.338729
     3  C   -0.611545
     4  C    0.536058
     5  C    0.142939
     6  C   -0.682722
     7  N   -0.478310
     8  C    0.704428
     9  O   -0.704239
    10  N   -0.631860
    11  C    0.149907
    12  C    0.826186
    13  C   -0.575925
    14  C   -0.109784
    15  C   -0.339465
    16  C   -1.041669
    17  H    0.150182
    18  H    0.158685
    19  H    0.161778
    20  H    0.250461
    21  H    0.174634
    22  H    0.425743
    23  H    0.278678
    24  H    0.181484
    25  H    0.166829
    26  H    0.175015
    27  H    0.172503
 Sum of Mulliken charges =  -1.00000
 Mulliken charges with hydrogens summed into heavy atoms:
               1
     1  C    0.008918
     2  C   -0.180045
     3  C   -0.449767
     4  C    0.786519
     5  C    0.142939
     6  C   -0.508088
     7  N   -0.478310
     8  C    0.704428
     9  O   -0.704239
    10  N   -0.206116
    11  C    0.149907
    12  C    1.104865
    13  C   -0.394441
    14  C    0.057045
    15  C   -0.164450
    16  C   -0.869165
 Electronic spatial extent (au):  <R**2>=           5498.2584
 Charge=             -1.0000 electrons
 Dipole moment (field-independent basis, Debye):
    X=             -5.0246    Y=              0.6683    Z=             -0.0000  Tot=              5.0689
 Quadrupole moment (field-independent basis, Debye-Ang):
   XX=           -135.6606   YY=            -96.5723   ZZ=           -105.2592
   XY=             -3.2201   XZ=             -0.0004   YZ=              0.0001
 Traceless Quadrupole moment (field-independent basis, Debye-Ang):
   XX=            -23.1632   YY=             15.9251   ZZ=              7.2382
   XY=             -3.2201   XZ=             -0.0004   YZ=              0.0001
 Octapole moment (field-independent basis, Debye-Ang**2):
  XXX=            -73.6676  YYY=             -2.0567  ZZZ=             -0.0002  XYY=            -18.6254
  XXY=              7.2406  XXZ=             -0.0007  XZZ=             -4.6661  YZZ=             -0.6405
  YYZ=             -0.0002  XYZ=             -0.0005
 Hexadecapole moment (field-independent basis, Debye-Ang**3):
 XXXX=          -7792.0794 YYYY=           -718.3321 ZZZZ=           -133.1086 XXXY=             17.6456
 XXXZ=             -0.0424 YYYX=            -15.5914 YYYZ=             -0.0010 ZZZX=             -0.0468
 ZZZY=             -0.0016 XXYY=          -1266.8471 XXZZ=          -1379.3250 YYZZ=           -165.1603
 XXYZ=              0.0011 YYXZ=             -0.0129 ZZXY=             -0.6511
 N-N= 9.494476351854D+02 E-N=-3.510279089517D+03  KE= 6.814921692450D+02
 Calling FoFJK, ICntrl=      2127 FMM=F ISym2X=0 I1Cent= 0 IOpClX= 0 NMat=1 NMatS=1 NMatT=0.
 ***** Axes restored to original set *****
 -------------------------------------------------------------------
 Center     Atomic                   Forces (Hartrees/Bohr)
 Number     Number              X              Y              Z
 -------------------------------------------------------------------
      1        6           0.031634623   -0.014762686   -0.000000110
      2        6           0.046472816    0.024732766    0.000000328
      3        6           0.005766967   -0.054492792   -0.000000213
      4        6          -0.046376139   -0.003707357    0.000000098
      5        6           0.067455242   -0.008181277   -0.000001838
      6        6          -0.018323521    0.040623688    0.000000497
      7        7          -0.007274216   -0.037319230    0.000001265
      8        6          -0.094655584    0.018185029   -0.000000295
      9        8           0.032087569    0.049340525   -0.000000083
     10        7           0.055328039    0.001885899   -0.000000488
     11        6          -0.029866554   -0.002178640    0.000000558
     12        6           0.034684853   -0.018145127   -0.000001828
     13        6          -0.016777262   -0.055590042    0.000003055
     14        6          -0.036474689   -0.009964216   -0.000000650
     15        6          -0.037291852    0.035864734    0.000000176
     16        6           0.020051708    0.039653703   -0.000000482
     17        1          -0.041217789    0.019848001    0.000000407
     18        1          -0.037506253   -0.025764032   -0.000000131
     19        1          -0.002557649    0.045544482    0.000000204
     20        1           0.033552622    0.020025854    0.000000095
     21        1           0.006335808   -0.044021016   -0.000000299
     22        1          -0.007317093   -0.025009676    0.000000283
     23        1          -0.029792231    0.026570398    0.000000317
     24        1           0.010800716    0.042989616   -0.000001040
     25        1           0.043843126    0.010175104   -0.000000585
     26        1           0.030240387   -0.032849772    0.000000144
     27        1          -0.012823642   -0.043453937    0.000000616
 -------------------------------------------------------------------
 Cartesian Forces:  Max     0.094655584 RMS     0.028320403

 GradGradGradGradGradGradGradGradGradGradGradGradGradGradGradGradGradGrad
 Berny optimization.
 FormGI is forming the generalized inverse of G from B-inverse, IUseBI=4.
 Internal  Forces:  Max     0.057751505 RMS     0.016474378
 Search for a local minimum.
 Step number   1 out of a maximum of  141
 All quantities printed in internal units (Hartrees-Bohrs-Radians)
 Mixed Optimization -- RFO/linear search
 Second derivative matrix not updated -- first step.
 ITU=  0
     Eigenvalues ---    0.01372   0.01372   0.01800   0.01842   0.01930
     Eigenvalues ---    0.02052   0.02052   0.02072   0.02072   0.02101
     Eigenvalues ---    0.02102   0.02110   0.02110   0.02119   0.02119
     Eigenvalues ---    0.02123   0.02123   0.02124   0.02124   0.02127
     Eigenvalues ---    0.02127   0.02229   0.02229   0.02229   0.16000
     Eigenvalues ---    0.16000   0.16000   0.16000   0.16000   0.16000
     Eigenvalues ---    0.16000   0.16000   0.16000   0.16000   0.16000
     Eigenvalues ---    0.22000   0.22000   0.22000   0.22000   0.22000
     Eigenvalues ---    0.23476   0.23476   0.25000   0.25000   0.25000
     Eigenvalues ---    0.25000   0.25000   0.41448   0.41448   0.41756
     Eigenvalues ---    0.41756   0.41833   0.41833   0.42477   0.42477
     Eigenvalues ---    0.42477   0.42477   0.42477   0.42477   0.42478
     Eigenvalues ---    0.42478   0.42478   0.42479   0.45214   0.45214
     Eigenvalues ---    0.45833   0.45833   0.45955   0.45956   0.46080
     Eigenvalues ---    0.46080   0.50522   0.53074   0.53074   0.94153
 RFO step:  Lambda=-7.66698217D-02 EMin= 1.37153008D-02
 Linear search not attempted -- first point.
 Maximum step size (   0.300) exceeded in Quadratic search.
    -- Step size scaled by   0.711
 Iteration  1 RMS(Cart)=  0.16085162 RMS(Int)=  0.00394022
 Iteration  2 RMS(Cart)=  0.01756125 RMS(Int)=  0.00004144
 Iteration  3 RMS(Cart)=  0.00010144 RMS(Int)=  0.00000518
 Iteration  4 RMS(Cart)=  0.00000000 RMS(Int)=  0.00000518
 Variable       Old X    -DE/DX   Delta X   Delta X   Delta X     New X
                                 (Linear)    (Quad)   (Total)
    R1        2.64026   0.00078   0.00000   0.00054   0.00053   2.64078
    R2        2.63999   0.00129   0.00000   0.00142   0.00141   2.64140
    R3        1.95019   0.04575   0.00000   0.06488   0.06488   2.01508
    R4        2.64214  -0.00387   0.00000  -0.00535  -0.00535   2.63679
    R5        1.95020   0.04550   0.00000   0.06454   0.06454   2.01474
    R6        2.64146  -0.00062   0.00000  -0.00061  -0.00061   2.64084
    R7        1.95020   0.04561   0.00000   0.06470   0.06470   2.01490
    R8        2.65610   0.01302   0.00000   0.01819   0.01820   2.67430
    R9        1.95020   0.03902   0.00000   0.05534   0.05534   2.00553
   R10        2.64533   0.00883   0.00000   0.01207   0.01208   2.65741
   R11        2.69136  -0.03988   0.00000  -0.05730  -0.05730   2.63406
   R12        1.95020   0.04433   0.00000   0.06287   0.06287   2.01308
   R13        2.56885  -0.01886   0.00000  -0.02209  -0.02209   2.54676
   R14        2.31076   0.05249   0.00000   0.03667   0.03667   2.34743
   R15        2.56884   0.03773   0.00000   0.04418   0.04418   2.61302
   R16        2.69137  -0.02441   0.00000  -0.03507  -0.03507   2.65630
   R17        1.86043   0.02592   0.00000   0.03168   0.03168   1.89211
   R18        2.65608   0.00101   0.00000   0.00161   0.00161   2.65769
   R19        2.64534   0.00494   0.00000   0.00676   0.00675   2.65209
   R20        2.64146  -0.00286   0.00000  -0.00372  -0.00372   2.63774
   R21        1.95021   0.03979   0.00000   0.05644   0.05644   2.00665
   R22        2.63997   0.00069   0.00000   0.00075   0.00075   2.64073
   R23        1.95020   0.04430   0.00000   0.06283   0.06283   2.01304
   R24        2.64026  -0.00304   0.00000  -0.00426  -0.00426   2.63600
   R25        1.95020   0.04500   0.00000   0.06383   0.06383   2.01403
   R26        2.64217  -0.00489   0.00000  -0.00656  -0.00657   2.63560
   R27        1.95018   0.04464   0.00000   0.06331   0.06331   2.01349
   R28        1.95020   0.04530   0.00000   0.06426   0.06426   2.01445
    A1        2.09352  -0.00531   0.00000  -0.01449  -0.01451   2.07902
    A2        2.09483   0.00227   0.00000   0.00609   0.00610   2.10093
    A3        2.09483   0.00304   0.00000   0.00840   0.00841   2.10324
    A4        2.09462   0.00391   0.00000   0.00776   0.00775   2.10236
    A5        2.09427  -0.00143   0.00000  -0.00231  -0.00230   2.09197
    A6        2.09430  -0.00247   0.00000  -0.00545  -0.00544   2.08886
    A7        2.09373   0.00604   0.00000   0.01401   0.01400   2.10773
    A8        2.09473  -0.00260   0.00000  -0.00575  -0.00575   2.08898
    A9        2.09473  -0.00343   0.00000  -0.00826  -0.00825   2.08648
   A10        2.10309  -0.00023   0.00000   0.00043   0.00044   2.10353
   A11        2.09005   0.00221   0.00000   0.00608   0.00607   2.09612
   A12        2.09005  -0.00198   0.00000  -0.00651  -0.00651   2.08354
   A13        2.07718  -0.00878   0.00000  -0.01806  -0.01804   2.05914
   A14        2.13981   0.02492   0.00000   0.05372   0.05371   2.19352
   A15        2.06619  -0.01614   0.00000  -0.03566  -0.03567   2.03052
   A16        2.10423   0.00438   0.00000   0.01035   0.01036   2.11459
   A17        2.08949   0.00134   0.00000   0.00542   0.00542   2.09491
   A18        2.08947  -0.00572   0.00000  -0.01577  -0.01578   2.07369
   A19        2.21604  -0.01643   0.00000  -0.03577  -0.03577   2.18028
   A20        2.10852   0.05775   0.00000   0.12574   0.12574   2.23426
   A21        2.06615  -0.05400   0.00000  -0.11757  -0.11757   1.94858
   A22        2.10851  -0.00375   0.00000  -0.00817  -0.00817   2.10035
   A23        2.21604   0.01607   0.00000   0.03852   0.03852   2.25456
   A24        2.03357  -0.01051   0.00000  -0.02670  -0.02670   2.00687
   A25        2.03357  -0.00556   0.00000  -0.01182  -0.01182   2.02175
   A26        2.13981   0.01159   0.00000   0.02492   0.02492   2.16474
   A27        2.06618  -0.00957   0.00000  -0.02114  -0.02113   2.04505
   A28        2.07719  -0.00202   0.00000  -0.00378  -0.00379   2.07340
   A29        2.10309  -0.00413   0.00000  -0.00941  -0.00940   2.09369
   A30        2.09005  -0.00102   0.00000  -0.00459  -0.00459   2.08546
   A31        2.09004   0.00516   0.00000   0.01399   0.01399   2.10403
   A32        2.09372   0.00715   0.00000   0.01690   0.01692   2.11064
   A33        2.09473  -0.00505   0.00000  -0.01287  -0.01288   2.08185
   A34        2.09474  -0.00210   0.00000  -0.00403  -0.00404   2.09070
   A35        2.09354  -0.00485   0.00000  -0.01243  -0.01242   2.08112
   A36        2.09484   0.00306   0.00000   0.00814   0.00813   2.10297
   A37        2.09481   0.00178   0.00000   0.00429   0.00429   2.09910
   A38        2.09461   0.00180   0.00000   0.00369   0.00368   2.09829
   A39        2.09429   0.00005   0.00000   0.00101   0.00102   2.09530
   A40        2.09429  -0.00185   0.00000  -0.00470  -0.00470   2.08959
   A41        2.10422   0.00205   0.00000   0.00502   0.00501   2.10922
   A42        2.08949  -0.00150   0.00000  -0.00393  -0.00393   2.08556
   A43        2.08948  -0.00055   0.00000  -0.00109  -0.00108   2.08840
    D1       -0.00000   0.00000   0.00000  -0.00000  -0.00000  -0.00000
    D2        3.14158   0.00000   0.00000   0.00000   0.00000   3.14158
    D3       -3.14159  -0.00000   0.00000  -0.00000  -0.00000  -3.14159
    D4       -0.00001   0.00000   0.00000   0.00000   0.00000  -0.00001
    D5       -0.00000   0.00000   0.00000   0.00000   0.00000   0.00000
    D6       -3.14159  -0.00000   0.00000  -0.00000  -0.00000  -3.14159
    D7        3.14159   0.00000   0.00000   0.00000   0.00000   3.14159
    D8       -0.00000   0.00000   0.00000   0.00000   0.00000   0.00000
    D9        0.00000  -0.00000   0.00000  -0.00000  -0.00000  -0.00000
   D10       -3.14159  -0.00000   0.00000  -0.00000  -0.00000  -3.14159
   D11       -3.14158  -0.00000   0.00000  -0.00000  -0.00000  -3.14158
   D12        0.00001  -0.00000   0.00000  -0.00000  -0.00000   0.00001
   D13       -0.00000  -0.00000   0.00000   0.00000   0.00000  -0.00000
   D14        3.14158   0.00000   0.00000   0.00000   0.00000   3.14158
   D15        3.14159   0.00000   0.00000   0.00000   0.00000   3.14159
   D16       -0.00001   0.00000   0.00000   0.00000   0.00000  -0.00001
   D17        0.00000  -0.00000   0.00000  -0.00000  -0.00000  -0.00000
   D18        3.14158   0.00000   0.00000   0.00000   0.00000   3.14159
   D19       -3.14158  -0.00000   0.00000  -0.00000  -0.00000  -3.14158
   D20        0.00000  -0.00000   0.00000   0.00000   0.00000   0.00000
   D21       -0.00000   0.00000   0.00000   0.00000   0.00000   0.00000
   D22        3.14159   0.00000   0.00000   0.00000   0.00000   3.14159
   D23       -3.14158  -0.00000   0.00000  -0.00000  -0.00000  -3.14159
   D24        0.00000  -0.00000   0.00000  -0.00000  -0.00000   0.00000
   D25        0.00000  -0.00000   0.00000  -0.00000  -0.00000   0.00000
   D26        3.14159   0.00000   0.00000   0.00000   0.00000   3.14159
   D27       -0.00002   0.00000   0.00000   0.00000   0.00000  -0.00001
   D28        3.14159  -0.00000   0.00000  -0.00000  -0.00000   3.14158
   D29        3.14159   0.00000   0.00000   0.00000   0.00000   3.14159
   D30       -0.00001   0.00000   0.00000   0.00000   0.00000  -0.00001
   D31        0.00000  -0.00000   0.00000  -0.00000  -0.00000  -0.00000
   D32        3.14159  -0.00000   0.00000  -0.00000  -0.00000   3.14159
   D33       -0.00001   0.00000   0.00000   0.00000   0.00000  -0.00001
   D34        3.14159   0.00000   0.00000   0.00000   0.00000   3.14159
   D35        3.14159   0.00000   0.00000   0.00000   0.00000   3.14159
   D36       -0.00000   0.00000   0.00000   0.00000   0.00000  -0.00000
   D37       -3.14158  -0.00000   0.00000  -0.00000  -0.00000  -3.14159
   D38       -0.00001   0.00000   0.00000   0.00000   0.00000  -0.00001
   D39        0.00001  -0.00000   0.00000  -0.00000  -0.00000   0.00001
   D40        3.14158   0.00000   0.00000   0.00000   0.00000   3.14158
   D41        3.14159  -0.00000   0.00000  -0.00000  -0.00000   3.14159
   D42       -0.00001   0.00000   0.00000   0.00000   0.00000  -0.00001
   D43       -0.00000  -0.00000   0.00000  -0.00000  -0.00000  -0.00000
   D44        3.14159   0.00000   0.00000   0.00000   0.00000   3.14159
   D45       -0.00002   0.00000   0.00000   0.00000   0.00000  -0.00001
   D46       -3.14159  -0.00000   0.00000  -0.00000  -0.00000  -3.14159
   D47       -3.14159   0.00000   0.00000   0.00000   0.00000  -3.14159
   D48        0.00002  -0.00000   0.00000  -0.00000  -0.00000   0.00002
   D49        0.00002  -0.00000   0.00000  -0.00000  -0.00000   0.00001
   D50       -3.14159  -0.00000   0.00000  -0.00000  -0.00000  -3.14159
   D51        3.14159   0.00000   0.00000   0.00000   0.00000   3.14159
   D52       -0.00002   0.00000   0.00000   0.00000   0.00000  -0.00002
   D53       -0.00001   0.00000   0.00000   0.00000   0.00000  -0.00001
   D54        3.14158   0.00000   0.00000   0.00000   0.00000   3.14159
   D55       -3.14159  -0.00000   0.00000  -0.00000  -0.00000  -3.14159
   D56        0.00001  -0.00000   0.00000  -0.00000  -0.00000   0.00001
   D57        0.00000   0.00000   0.00000   0.00000   0.00000   0.00000
   D58       -3.14159  -0.00000   0.00000  -0.00000  -0.00000  -3.14159
   D59       -3.14159   0.00000   0.00000   0.00000   0.00000  -3.14159
   D60        0.00001  -0.00000   0.00000  -0.00000  -0.00000   0.00001
         Item               Value     Threshold  Converged?
 Maximum Force            0.057752     0.000450     NO 
 RMS     Force            0.016474     0.000300     NO 
 Maximum Displacement     0.513862     0.001800     NO 
 RMS     Displacement     0.174094     0.001200     NO 
 Predicted change in Energy=-3.858826D-02
 GradGradGradGradGradGradGradGradGradGradGradGradGradGradGradGradGradGrad

                          Input orientation:                          
 ---------------------------------------------------------------------
 Center     Atomic      Atomic             Coordinates (Angstroms)
 Number     Number       Type             X           Y           Z
 ---------------------------------------------------------------------
      1          6           0       -4.250338    2.053370    0.000105
      2          6           0       -4.015419    0.675814    0.000093
      3          6           0       -3.160953    2.929152    0.000103
      4          6           0       -1.851461    2.441129    0.000089
      5          6           0       -1.603679    1.047812    0.000077
      6          6           0       -2.710845    0.180803    0.000079
      7          7           0       -0.346580    0.445630    0.000056
      8          6           0        0.826574    1.108929    0.000044
      9          8           0        1.010821    2.337394    0.000035
     10          7           0        1.903133    0.241161    0.000036
     11          6           0        3.278311    0.532265    0.000018
     12          6           0        3.806931    1.835527   -0.000004
     13          6           0        5.189577    2.026938   -0.000030
     14          6           0        6.065441    0.938072   -0.000019
     15          6           0        5.544067   -0.355741    0.000003
     16          6           0        4.163889   -0.556475    0.000021
     17          1           0       -5.247854    2.430230    0.000118
     18          1           0       -4.837633   -0.002896    0.000103
     19          1           0       -3.329712    3.981949    0.000115
     20          1           0       -1.032098    3.115641    0.000079
     21          1           0       -2.539602   -0.870618    0.000068
     22          1           0        1.662843   -0.730840    0.000047
     23          1           0        3.146856    2.667319   -0.000015
     24          1           0        5.578251    3.018752   -0.000041
     25          1           0        7.119997    1.092317   -0.000037
     26          1           0        6.200047   -1.195366    0.000005
     27          1           0        3.775254   -1.549110    0.000042
 ---------------------------------------------------------------------
                    Distance matrix (angstroms):
                    1          2          3          4          5
     1  C    0.000000
     2  C    1.397443   0.000000
     3  C    1.397768   2.409906   0.000000
     4  C    2.430013   2.792678   1.397474   0.000000
     5  C    2.831245   2.440261   2.442241   1.415178   0.000000
     6  C    2.424158   1.395331   2.784963   2.418184   1.406243
     7  N    4.221866   3.676053   3.753475   2.499337   1.393887
     8  C    5.164010   4.861326   4.383330   2.991092   2.431021
     9  O    5.268820   5.293764   4.213535   2.864161   2.915241
    10  N    6.414772   5.934491   5.733259   4.351648   3.598391
    11  C    7.680775   7.295143   6.870894   5.473420   4.909136
    12  C    8.060213   7.907850   7.053185   5.690708   5.467650
    13  C    9.439952   9.303628   8.399128   7.053211   6.863455
    14  C   10.375894  10.084270   9.438789   8.058320   7.669905
    15  C   10.086336   9.614982   9.304187   7.906726   7.284245
    16  C    8.809682   8.271615   8.111899   6.720868   5.986533
    17  H    1.066332   2.144032   2.145712   3.396411   3.897575
    18  H    2.138491   1.066153   3.377598   3.858819   3.400360
    19  H    2.137047   3.376496   1.066237   2.135263   3.404166
    20  H    3.389024   3.853954   2.137008   1.061283   2.145372
    21  H    3.387671   2.137635   3.850238   3.382485   2.134555
    22  H    6.535864   5.849900   6.055126   4.734102   3.719377
    23  H    7.422628   7.433995   6.313241   5.003433   5.019003
    24  H    9.875886   9.875620   8.739663   7.452132   7.447464
    25  H   11.410878  11.143203  10.443749   9.072285   8.723790
    26  H   10.943712  10.385426  10.229368   8.834641   8.119728
    27  H    8.797044   8.102153   8.256259   6.897966   5.973017
                    6          7          8          9         10
     6  C    0.000000
     7  N    2.379051   0.000000
     8  C    3.657150   1.347685   0.000000
     9  O    4.301358   2.328370   1.242205   0.000000
    10  N    4.614372   2.258985   1.382751   2.278248   0.000000
    11  C    5.999460   3.625926   2.518642   2.898275   1.405652
    12  C    6.724545   4.379893   3.067649   2.840792   2.483234
    13  C    8.113253   5.757566   4.458535   4.190273   3.740283
    14  C    8.808896   6.430902   5.241652   5.244738   4.220248
    15  C    8.272330   5.944906   4.939635   5.272883   3.689538
    16  C    6.914155   4.620448   3.729777   4.279756   2.397340
    17  H    3.390625   5.287828   6.216471   6.259364   7.478545
    18  H    2.134707   4.513395   5.772296   6.299315   6.745182
    19  H    3.851195   4.626513   5.052619   4.641636   6.432430
    20  H    3.381044   2.756608   2.735243   2.186135   4.108310
    21  H    1.065275   2.557705   3.905093   4.785065   4.579732
    22  H    4.467688   2.328489   2.020914   3.136748   1.001262
    23  H    6.363601   4.140048   2.795047   2.161365   2.726369
    24  H    8.761453   6.459457   5.121119   4.617972   4.606681
    25  H    9.873009   7.494530   6.293445   6.234761   5.285843
    26  H    9.016531   6.749163   5.846707   6.277616   4.530682
    27  H    6.712830   4.579138   3.969873   4.769382   2.590349
                   11         12         13         14         15
    11  C    0.000000
    12  C    1.406389   0.000000
    13  C    2.426311   1.395833   0.000000
    14  C    2.816517   2.430287   1.397413   0.000000
    15  C    2.433558   2.796301   2.408904   1.394913   0.000000
    16  C    1.403425   2.418490   2.779579   2.418589   1.394699
    17  H    8.734859   9.074294  10.445220  11.411274  11.145725
    18  H    8.133569   8.837889  10.230600  10.943602  10.387694
    19  H    7.454280   7.452435   8.740730   9.875934   9.877221
    20  H    5.025282   5.005486   6.316211   7.424073   7.436157
    21  H    5.984664   6.899399   8.254456   8.793073   8.100050
    22  H    2.050652   3.344152   4.476962   4.708305   3.899307
    23  H    2.139097   1.061874   2.140747   3.392408   3.858174
    24  H    3.387085   2.130164   1.065253   2.136957   3.374667
    25  H    3.882294   3.395404   2.144769   1.065777   2.140194
    26  H    3.394297   3.861777   3.377023   2.137680   1.065495
    27  H    2.139878   3.384786   3.845572   3.380981   2.133735
                   16         17         18         19         20
    16  C    0.000000
    17  H    9.874275   0.000000
    18  H    9.018527   2.467466   0.000000
    19  H    8.760784   2.467205   4.260613   0.000000
    20  H    6.362602   4.271111   4.920098   2.455508   0.000000
    21  H    6.710848   4.269687   2.456397   4.916470   4.261787
    22  H    2.507116   7.599349   6.541107   6.865565   4.696607
    23  H    3.380415   8.398058   8.419152   6.608645   4.202933
    24  H    3.844824  10.842090  10.845322   8.959886   6.611059
    25  H    3.384833  12.440006  12.007681  10.841881   8.399434
    26  H    2.134039  12.008305  11.101908  10.845317   8.419543
    27  H    1.066002   9.861625   8.750577   9.004063   6.698547
                   21         22         23         24         25
    21  H    0.000000
    22  H    4.204769   0.000000
    23  H    6.697224   3.708069   0.000000
    24  H    9.001486   5.421242   2.456662   0.000000
    25  H    9.857027   5.753645   4.273930   2.467414   0.000000
    26  H    8.745681   4.560922   4.923648   4.259744   2.465725
    27  H    6.351202   2.265358   4.262999   4.910821   4.261977
                   26         27
    26  H    0.000000
    27  H    2.450460   0.000000
 Stoichiometry    C13H11N2O(1-)
 Framework group  C1[X(C13H11N2O)]
 Deg. of freedom    75
 Full point group                 C1      NOp   1
 Largest Abelian subgroup         C1      NOp   1
 Largest concise Abelian subgroup C1      NOp   1
                         Standard orientation:                         
 ---------------------------------------------------------------------
 Center     Atomic      Atomic             Coordinates (Angstroms)
 Number     Number       Type             X           Y           Z
 ---------------------------------------------------------------------
      1          6           0        5.196353   -0.370941    0.000061
      2          6           0        4.813827    0.973128    0.000049
      3          6           0        4.208076   -1.359406    0.000059
      4          6           0        2.853484   -1.015869    0.000045
      5          6           0        2.456466    0.342477    0.000033
      6          6           0        3.463369    1.324143    0.000035
      7          7           0        1.141613    0.805169    0.000012
      8          6           0        0.047077    0.018882    0.000000
      9          8           0       -0.003228   -1.222303   -0.000009
     10          7           0       -1.117017    0.765129   -0.000008
     11          6           0       -2.452646    0.327004   -0.000026
     12          6           0       -2.837215   -1.025785   -0.000048
     13          6           0       -4.191050   -1.365608   -0.000074
     14          6           0       -5.179538   -0.377855   -0.000063
     15          6           0       -4.801151    0.964756   -0.000041
     16          6           0       -3.450778    1.313582   -0.000023
     17          1           0        6.228777   -0.637708    0.000074
     18          1           0        5.557814    1.736781    0.000059
     19          1           0        4.489706   -2.387776    0.000071
     20          1           0        2.111877   -1.775040    0.000035
     21          1           0        3.179418    2.350876    0.000024
     22          1           0       -0.983260    1.757416    0.000003
     23          1           0       -2.091052   -1.781309   -0.000059
     24          1           0       -4.470177   -2.393641   -0.000085
     25          1           0       -6.211227   -0.645248   -0.000081
     26          1           0       -5.544091    1.728510   -0.000039
     27          1           0       -3.171779    2.342426   -0.000002
 ---------------------------------------------------------------------
 Rotational constants (GHZ):      2.2965358      0.2024636      0.1860604
 Basis read from rwf:  (6D, 7F)
 There are   326 symmetry adapted cartesian basis functions of A   symmetry.
 There are   326 symmetry adapted basis functions of A   symmetry.
   326 basis functions,   556 primitive gaussians,   326 cartesian basis functions
    56 alpha electrons       56 beta electrons
       nuclear repulsion energy       945.6598534720 Hartrees.
 NAtoms=   27 NActive=   27 NUniq=   27 SFac= 1.00D+00 NAtFMM=   60 NAOKFM=F Big=F
 Integral buffers will be    131072 words long.
 Raffenetti 2 integral format.
 Two-electron integral symmetry is turned on.
 One-electron integrals computed using PRISM.
 NBasis=   326 RedAO= T EigKep=  1.65D-06  NBF=   326
 NBsUse=   326 1.00D-06 EigRej= -1.00D+00 NBFU=   326
 Initial guess from the checkpoint file:  "diph_a1.M062X.opt.chk"
 B after Tr=     0.000000   -0.000000   -0.000000
         Rot=    1.000000    0.000000    0.000000    0.000318 Ang=   0.04 deg.
 ExpMin= 4.38D-02 ExpMax= 5.48D+03 ExpMxC= 8.25D+02 IAcc=2 IRadAn=         4 AccDes= 0.00D+00
 Harris functional with IExCor= 1009 and IRadAn=       4 diagonalized for initial guess.
 HarFok:  IExCor= 1009 AccDes= 0.00D+00 IRadAn=         4 IDoV= 1 UseB2=F ITyADJ=14
 ICtDFT=  3500011 ScaDFX=  1.000000  1.000000  1.000000  1.000000
 FoFCou: FMM=F IPFlag=           0 FMFlag=      100000 FMFlg1=           0
         NFxFlg=           0 DoJE=T BraDBF=F KetDBF=T FulRan=T
         wScrn=  0.000000 ICntrl=     500 IOpCl=  0 I1Cent=   200000004 NGrid=           0
         NMat0=    1 NMatS0=      1 NMatT0=    0 NMatD0=    1 NMtDS0=    0 NMtDT0=    0
 Petite list used in FoFCou.
 Requested convergence on RMS density matrix=1.00D-08 within 128 cycles.
 Requested convergence on MAX density matrix=1.00D-06.
 Requested convergence on             energy=1.00D-06.
 No special actions if energy rises.
 SCF Done:  E(RM062X) =  -686.541226306     A.U. after   15 cycles
            NFock= 15  Conv=0.98D-08     -V/T= 2.0082
 Calling FoFJK, ICntrl=      2127 FMM=F ISym2X=0 I1Cent= 0 IOpClX= 0 NMat=1 NMatS=1 NMatT=0.
 ***** Axes restored to original set *****
 -------------------------------------------------------------------
 Center     Atomic                   Forces (Hartrees/Bohr)
 Number     Number              X              Y              Z
 -------------------------------------------------------------------
      1        6           0.010583715   -0.002566236    0.000000057
      2        6           0.018509974    0.009391137    0.000000459
      3        6           0.005419619   -0.022388289   -0.000000026
      4        6          -0.020198526   -0.002274503   -0.000000156
      5        6           0.035395596   -0.001236060   -0.000001359
      6        6          -0.016880682    0.015068495    0.000000297
      7        7          -0.002465509   -0.011305753    0.000000865
      8        6          -0.047768891    0.015250357   -0.000000240
      9        8           0.010643185    0.010246929    0.000000122
     10        7           0.041409739   -0.002612643   -0.000000359
     11        6          -0.023066783   -0.002626841    0.000000460
     12        6           0.014070545   -0.005639835   -0.000001516
     13        6          -0.009267755   -0.021881769    0.000002207
     14        6          -0.011485425   -0.000582373   -0.000000908
     15        6          -0.014588709    0.013845684    0.000000120
     16        6           0.014308216    0.012543072   -0.000000051
     17        1          -0.014835904    0.005582255    0.000000174
     18        1          -0.012573281   -0.010764946   -0.000000304
     19        1          -0.002095307    0.016345700   -0.000000019
     20        1           0.013318543    0.008341648    0.000000204
     21        1           0.004974860   -0.015055923   -0.000000059
     22        1          -0.005713405   -0.007497980    0.000000106
     23        1          -0.011332576    0.010191120    0.000000403
     24        1           0.005171854    0.015305199   -0.000000682
     25        1           0.015463669    0.002236357   -0.000000050
     26        1           0.009420827   -0.013089234    0.000000148
     27        1          -0.006417587   -0.014825569    0.000000105
 -------------------------------------------------------------------
 Cartesian Forces:  Max     0.047768891 RMS     0.012532736

 GradGradGradGradGradGradGradGradGradGradGradGradGradGradGradGradGradGrad
 Berny optimization.
 Using GEDIIS/GDIIS optimizer.
 FormGI is forming the generalized inverse of G from B-inverse, IUseBI=4.
 GSVD:  received Info=                   1 from GESDD.
 Internal  Forces:  Max     0.023177523 RMS     0.006347679
 Search for a local minimum.
 Step number   2 out of a maximum of  141
 All quantities printed in internal units (Hartrees-Bohrs-Radians)
 Mixed Optimization -- RFO/linear search
 Update second derivatives using D2CorX and points    1    2
 DE= -3.66D-02 DEPred=-3.86D-02 R= 9.47D-01
 TightC=F SS=  1.41D+00  RLast= 3.00D-01 DXNew= 5.0454D-01 9.0000D-01
 Trust test= 9.47D-01 RLast= 3.00D-01 DXMaxT set to 5.05D-01
 ITU=  1  0
 Use linear search instead of GDIIS.
     Eigenvalues ---    0.01372   0.01372   0.01797   0.01841   0.01925
     Eigenvalues ---    0.02052   0.02052   0.02072   0.02072   0.02101
     Eigenvalues ---    0.02102   0.02110   0.02110   0.02119   0.02119
     Eigenvalues ---    0.02123   0.02123   0.02124   0.02124   0.02127
     Eigenvalues ---    0.02127   0.02229   0.02229   0.02229   0.15871
[...]
 0.00001129,0.,0.00001638,-0.00000065,0.,-0.00006020,0.00003002,0.,0.00
 064430,0.00096964,-0.00000003,0.14847729,0.18510197,0.00000005,0.,0.00
 268196,0.00000333,0.00000272,-0.03570053,0.00000006,0.00000003,0.00646
 864,0.,-0.00000002,-0.00067865,0.00000015,-0.00000002,0.00826589,0.000
 00028,0.00000032,0.00329069,0.00000003,0.00000001,-0.00004226,-0.00000
 002,0.,-0.00036855,0.,0.,0.00008525,0.00000001,0.,-0.00002007,0.,0.,0.
 00001813,0.,0.,0.00000785,0.,0.,-0.00001119,0.,0.,0.00000107,0.,0.,-0.
 00000647,0.,0.,0.00000008,-0.00000007,0.,-0.00369929,-0.00000373,-0.00
 000300,0.02507403,0.00890514,-0.02473236,0.00000002,-0.00362759,-0.003
 03093,0.00000017,-0.06626630,0.04263782,0.00000026,-0.00042109,0.03070
 998,-0.00000007,-0.00544859,0.00070382,0.00000020,-0.00120285,-0.00009
 338,0.,-0.00031983,0.00171071,-0.00000001,0.00084610,0.00045241,-0.000
 00001,-0.00018131,-0.00050265,0.,-0.00038293,-0.00006252,0.,0.00020403
 ,0.00004683,0.,-0.00006448,-0.00003953,0.,0.00002773,-0.00000036,0.,-0
 .00003705,-0.00000475,0.,0.00002521,0.00000880,0.,-0.00006660,0.000025
 47,0.,0.00087135,0.00075102,-0.00000008,0.00022047,-0.00142384,0.,0.06
 572080,0.00702518,-0.01608729,-0.00000003,-0.00476830,-0.00073204,0.00
 000011,0.04233084,-0.32727307,0.00000062,0.00004523,-0.00825991,0.0000
 0005,0.00139765,0.00224606,0.,0.00004688,0.00094549,0.,0.00124512,-0.0
 0081425,-0.00000002,-0.00142125,-0.00066127,0.00000002,0.00040339,0.00
 058826,0.,0.00078264,-0.00006363,0.,-0.00051281,-0.00012863,0.,0.00014
 144,0.00011880,0.,-0.00008300,-0.00001003,0.,0.00009370,-0.00000204,0.
 ,-0.00004888,-0.00001119,0.,0.00014570,-0.00006303,0.,-0.00056077,0.00
 082520,-0.00000001,0.00025249,-0.00113615,0.,-0.04668087,0.34966812,-0
 .00000013,0.00000046,0.00300759,0.00000018,0.00000008,0.00656729,0.000
 00027,0.00000062,-0.03671418,0.00000006,-0.00000041,0.00377467,0.00000
 020,0.00000001,0.00811408,0.,0.,-0.00072233,0.,-0.00000002,-0.00063787
 ,0.,0.,0.00008964,0.,0.,0.00002943,0.,0.,-0.00001327,0.,0.,0.00001577,
 0.,0.,0.00000976,0.,0.,-0.00001193,0.,0.,0.00000033,0.,0.,-0.00000442,
 0.,0.,-0.00000177,-0.00000007,-0.00000003,-0.00388962,0.,0.00000003,0.
 00037932,-0.00000040,-0.00000070,0.02562425,-0.00318021,0.00365847,0.0
 0000015,0.00081798,0.00039465,-0.00000002,-0.01606143,-0.01777249,0.00
 000035,-0.22782924,-0.15242343,0.00000356,0.01323908,0.00422710,-0.000
 00014,-0.00065171,0.00178936,0.00000009,-0.00423759,-0.00225043,0.0000
 0001,0.00270391,0.00831553,-0.00000007,-0.00902433,-0.00322986,0.00000
 011,-0.00003497,-0.00104013,0.00000001,-0.00038457,-0.00006664,0.,0.00
 001133,0.00009517,0.,-0.00003234,-0.00004677,0.,0.00004932,0.00000447,
 0.,-0.00000770,-0.00002018,0.,0.00007510,-0.00001964,0.,-0.00073921,-0
 .00077281,0.00000003,0.00004271,-0.00007532,-0.00000002,0.00098882,0.0
 0018000,-0.00000009,0.24371122,0.00299842,0.00033228,-0.00000001,0.001
 17367,-0.00088383,-0.00000002,0.01121395,0.01172146,-0.00000021,-0.147
 92018,-0.18750669,0.00000292,-0.02730839,-0.01393715,0.00000051,0.0023
 6423,-0.00534256,0.00000001,0.00197189,0.00268416,-0.00000006,0.000202
 70,-0.00593970,0.,-0.00182180,0.00319068,0.00000002,-0.00022072,0.0007
 7413,0.,0.00035968,0.00006015,0.,-0.00010269,-0.00013211,0.,0.00003547
 ,0.00005089,0.,-0.00005692,0.00000208,0.,0.00001074,0.00000841,0.,-0.0
 0007545,0.00001801,0.,0.00071081,0.00043935,0.,-0.00014260,0.00008672,
 0.,-0.00049627,0.00094069,-0.00000002,0.15851892,0.19440871,0.00000015
 ,-0.00000002,0.00762004,-0.00000002,0.,-0.00059309,0.00000021,0.000000
 24,0.00192945,0.00000353,0.00000297,-0.03681755,0.00000002,0.00000001,
 0.00554834,0.00000009,0.00000002,0.00616309,-0.00000002,0.,-0.00393250
 ,-0.00000004,-0.00000009,-0.00057397,0.00000011,0.00000003,-0.00100501
 ,0.,0.00000001,0.00074265,0.,0.,0.00012348,0.,0.,-0.00001553,0.,0.,-0.
 00008611,0.,0.,0.00000815,0.,0.,-0.00003862,0.,0.,-0.00004605,0.000000
 02,0.00000001,0.00072375,-0.00000002,0.,-0.00109917,-0.00000008,-0.000
 00003,-0.00467617,-0.00000396,-0.00000316,0.02637794,-0.00509463,0.000
 64698,0.00000019,-0.00082351,0.02997602,-0.00000009,-0.00103054,-0.000
 38594,0.,-0.00384096,-0.00249029,0.00000015,0.00791938,-0.02387758,0.0
 0000007,-0.06547166,0.05116650,0.00000024,0.00160503,-0.00011578,-0.00
 000008,-0.00064319,-0.00030876,0.,0.00017835,0.00069719,0.,0.00026971,
 0.00006441,0.,-0.00022775,-0.00004293,0.,0.00006177,0.00003784,0.,-0.0
 0002962,0.00000485,0.,0.00003676,0.00000493,0.,-0.00002734,-0.00000758
 ,0.,0.00006634,-0.00003690,0.,-0.00027382,0.00153268,0.,0.00096485,-0.
 00048164,-0.00000008,0.00013554,0.00005698,-0.00000002,0.00042324,-0.0
 0134700,0.,0.06593559,0.00219732,0.00223330,-0.00000001,-0.00086114,-0
 .00610459,0.00000005,-0.00108681,0.00065061,0.00000001,-0.00453099,-0.
 00155530,0.00000010,0.00856428,-0.01844970,-0.00000003,0.04815262,-0.3
 3220351,0.00000054,0.00164732,0.00187543,-0.00000005,0.00001924,0.0002
 2248,0.,0.00006786,0.00062352,0.,-0.00035384,0.00007984,0.,0.00006153,
 0.00005999,0.,-0.00002213,-0.00003245,0.,0.00002641,0.00000326,0.,-0.0
 0001764,0.00001760,0.,-0.00001200,0.00000256,0.,-0.00002563,-0.0000139
 6,0.,-0.00003915,-0.00043131,0.,0.00069005,0.00082997,-0.00000003,0.00
 005967,-0.00011358,0.,0.00064199,-0.00116708,0.,-0.05511354,0.35348932
 ,0.00000018,0.,0.00740391,0.00000004,-0.00000042,0.00195231,0.00000002
 ,0.,-0.00045967,0.00000016,0.00000007,0.00518519,-0.00000008,0.0000004
 6,0.00572047,0.00000027,0.00000051,-0.03503686,-0.00000009,-0.00000002
 ,-0.00351370,0.,0.,-0.00096824,0.,-0.00000001,0.00034537,0.,0.,0.00010
 137,0.,0.,0.00006434,0.,0.,-0.00004512,0.,0.,0.00000152,0.,0.,-0.00000
 543,0.,0.,-0.00001073,0.,0.,-0.00002742,0.00000002,-0.00000002,0.00072
 730,-0.00000009,-0.00000002,-0.00467456,-0.00000002,0.,-0.00093326,-0.
 00000002,0.00000002,-0.00059391,-0.00000039,-0.00000058,0.02465860,0.0
 0001740,-0.00008693,0.,-0.00009585,0.00009523,0.,-0.00001254,-0.000321
 90,0.,0.00064667,-0.00019904,0.,-0.00114975,-0.00117869,0.00000001,0.0
 0020747,0.00015189,0.,-0.00333688,-0.00084853,0.00000003,0.02002174,0.
 02468017,-0.00000036,-0.00641698,0.00649439,0.00000011,-0.09530803,-0.
 09998848,0.00000128,-0.00930915,-0.03348132,0.00000020,-0.00534345,0.0
 0147342,0.00000007,0.00079994,-0.00164324,0.00000001,0.00009887,0.0009
 3311,0.,-0.00073384,0.00001162,0.,0.00137706,-0.00288342,-0.00000003,0
 .00002012,-0.00002886,0.,0.00003944,0.00001017,0.,0.00007615,-0.000063
 69,0.,0.00022359,-0.00011074,0.,-0.00013354,-0.00007636,0.,0.09940118,
 -0.00011023,0.00002535,0.,0.00008895,-0.00007637,0.,0.00019922,0.00014
 819,0.,-0.00039873,0.00008041,0.,0.00072204,0.00059697,-0.00000002,-0.
 00024194,0.00004628,0.,-0.00387547,0.00131823,0.00000003,-0.01085274,-
 0.02092000,0.00000021,0.00474046,-0.00255350,-0.00000002,-0.09816750,-
 0.42624290,0.00000282,-0.00240879,-0.00107213,0.,0.00198470,0.00253216
 ,-0.00000002,-0.00037632,-0.00023071,0.00000002,0.00071877,0.00024321,
 0.,-0.00064112,-0.00036353,0.,0.00365013,0.00202259,-0.00000005,0.0000
 0145,0.00000592,0.,-0.00002960,-0.00000491,0.,-0.00004083,0.00003009,0
 .,-0.00009090,0.00012730,0.,0.00001091,-0.00003555,0.,0.10509672,0.444
 55361,0.,0.,-0.00001375,0.,0.,-0.00002098,0.,0.,0.00012310,0.,0.,0.000
 05815,0.,0.,-0.00122149,0.,0.,-0.00011814,0.00000002,0.,-0.00207290,-0
 .00000021,-0.00000015,-0.00180959,0.00000011,-0.00000007,0.00461170,0.
 00000133,0.00000290,-0.00979675,0.00000003,0.00000029,-0.00451038,0.00
 000008,0.,0.00306539,0.,0.00000002,0.00150013,0.,-0.00000001,0.0001261
 2,0.,0.,-0.00111137,-0.00000004,0.,-0.00181521,0.,0.,0.00002278,0.,0.,
 0.00001552,0.,0.,-0.00002186,0.,0.,0.00006935,0.,0.,0.00006544,-0.0000
 0131,-0.00000295,0.01255255,0.00017223,-0.00009733,0.,-0.00010924,0.00
 008976,0.,-0.00007700,0.00010341,0.,0.00007740,-0.00033136,0.,-0.00120
 500,0.00046195,0.00000002,0.00033300,0.00005526,0.,0.00169606,0.002109
 80,-0.00000003,-0.00043472,-0.01045178,0.00000003,-0.00603640,0.006137
 21,0.00000004,-0.00357975,0.00259170,0.,0.01717154,-0.01146110,-0.0000
 0007,-0.16840022,0.14972131,0.00000072,-0.01282797,0.02203548,0.000000
 07,-0.00406408,-0.00248682,0.00000012,0.00033476,-0.00068690,0.,-0.001
 87453,-0.00247775,0.00000008,0.00004283,-0.00000698,0.,0.00003936,0.00
 002528,0.,0.00001315,-0.00004197,0.,-0.00014150,0.00007952,0.,-0.00001
 424,0.00001577,0.,-0.00006245,0.00033905,0.,0.17785090,0.00006766,-0.0
 0003325,0.,-0.00004147,0.00002411,0.,-0.00002814,0.00005186,0.,0.00008
 775,-0.00014869,0.,-0.00039993,0.00018823,0.,0.00011546,0.00001308,0.,
 0.00045047,0.00045169,0.,-0.00141227,-0.00291947,0.00000002,0.00387682
 ,0.00090027,-0.00000005,0.00034820,0.00157105,-0.00000002,0.01922894,-
 0.01793929,-0.00000011,0.14446300,-0.24845746,-0.00000066,-0.00561301,
 0.01009501,0.00000003,-0.00215227,0.00141880,0.00000004,-0.00155583,-0
 .00048590,0.00000001,-0.00288637,-0.00394100,0.00000006,0.00001314,-0.
 00000132,0.,0.00001051,0.00000559,0.,0.00001092,-0.00001829,0.,-0.0000
 1096,0.00006276,0.,-0.00000243,0.00000182,0.,0.00005637,-0.00006089,0.
 ,-0.15552737,0.25910951,0.,0.,0.00000662,0.,0.,-0.00004489,0.,0.,-0.00
 007695,0.,0.,-0.00002894,0.00000001,0.,0.00004248,0.,0.,-0.00001292,0.
 ,-0.00000002,0.00056840,0.,0.00000011,-0.00029770,0.00000003,-0.000000
 08,-0.00117392,0.,-0.00000004,-0.00335347,-0.00000017,0.00000019,0.005
 70033,0.00000074,-0.00000072,-0.03805821,0.00000016,-0.00000023,0.0023
 0064,0.00000012,0.00000004,0.00770186,0.,0.,-0.00066085,0.00000009,0.0
 0000006,0.00598806,0.,0.,0.00001791,0.,0.,0.00000460,0.,0.,0.00000767,
 0.,0.,0.00012018,0.,0.,0.00001902,0.,0.,-0.00040924,-0.00000090,0.0000
 0070,0.02724586,-0.00003922,0.00002163,0.,0.00003000,-0.00001901,0.,0.
 00002411,-0.00000516,0.,-0.00006619,0.00006410,0.,0.00022985,-0.000074
 13,0.,-0.00007857,-0.00001193,0.,-0.00047268,0.00009949,0.,0.00070988,
 -0.00059259,0.,-0.00005374,0.00039797,0.,-0.00016958,-0.00161419,0.,-0
 .00587815,0.00016454,0.00000013,-0.00709146,-0.03034377,0.00000021,-0.
 09650023,-0.09415211,0.00000086,0.01163149,0.01876533,-0.00000014,-0.0
 0190408,0.00348924,0.00000007,-0.00116677,0.00055073,0.,-0.00000605,0.
 00000224,0.,-0.00000650,-0.00000259,0.,-0.00000876,0.00001292,0.,0.000
 00617,-0.00001182,0.,0.00000656,0.00000243,0.,-0.00039758,-0.00000894,
 0.,0.00109782,0.00040273,-0.00000006,0.09878881,-0.00006632,0.00002726
 ,0.,0.00004168,-0.00002191,0.,0.00004520,-0.00001950,0.,-0.00008128,0.
 00010444,0.,0.00034870,-0.00014161,0.,-0.00011563,-0.00001942,0.,-0.00
 062190,0.00001629,0.,0.00080842,-0.00036809,0.,-0.00022440,0.00016030,
 0.,-0.00078965,-0.00018811,0.,0.00034857,0.00205522,0.00000002,-0.0001
 3804,-0.00089181,0.00000002,-0.09439024,-0.30224900,0.00000175,-0.0125
 0748,-0.01813201,0.00000019,0.00475947,-0.00245110,-0.00000001,0.00041
 418,0.00075873,0.,-0.00001187,0.00000366,0.,-0.00001144,-0.00000686,0.
 ,-0.00000755,0.00001708,0.,0.00001533,-0.00001292,0.,0.00000760,0.0000
 0037,0.,-0.00002354,0.00007354,0.,-0.00011579,0.00073834,-0.00000002,0
 .10259011,0.32098241,0.,0.,0.00000053,0.,0.,-0.00000331,0.,0.,-0.00001
 277,0.,0.,0.00000841,0.,0.,0.00001498,0.,0.,-0.00000126,0.,0.,-0.00006
 712,0.,0.,0.00010790,0.,0.,0.00003531,0.,0.00000002,0.00000256,0.00000
 013,0.00000002,0.00804341,0.00000011,0.00000030,0.00379089,0.00000086,
 0.00000175,-0.03786616,-0.00000004,-0.00000011,0.00336358,0.00000007,0
 .,0.00664614,0.,0.,-0.00066943,0.,0.,0.00000118,0.,0.,0.00000096,0.,0.
 ,0.00000252,0.,0.,0.00000714,0.,0.,0.00000164,0.,0.,-0.00030140,-0.000
 00006,-0.00000002,-0.00474646,-0.00000102,-0.00000193,0.02616523,-0.00
 006475,0.00002179,0.,0.00003633,-0.00002067,0.,0.00004630,-0.00002261,
 0.,-0.00006982,0.00011007,0.,0.00034185,-0.00014383,0.,-0.00010900,-0.
 00001919,0.,-0.00058391,-0.00008957,0.,0.00066464,0.00024248,0.,-0.000
 51324,-0.00015556,0.,-0.00025244,0.00007092,0.,0.00076306,0.00045425,-
 0.00000001,-0.00009959,0.00427300,0.00000004,-0.01513648,-0.00637568,0
 .00000017,-0.33753851,-0.03951424,0.00000302,-0.00819236,0.00142351,0.
 00000008,0.00147018,-0.00258274,0.00000006,-0.00001432,0.00000368,0.,-
 0.00001370,-0.00000870,0.,-0.00000503,0.00001537,0.,0.00002234,-0.0000
 1743,0.,0.00000732,-0.00000202,0.,0.00004677,-0.00000654,0.,-0.0005561
 3,-0.00051358,0.00000001,0.00079555,0.00044295,-0.00000004,0.35882412,
 0.00000169,-0.00000090,0.,0.00000058,0.00000040,0.,0.00000096,0.000006
 19,0.,-0.00000630,-0.00000702,0.,-0.00001190,0.00000495,0.,0.00000044,
 -0.00000223,0.,0.00000662,0.00010168,0.,0.00007742,-0.00047602,0.,0.00
 027643,0.00030179,0.,-0.00023280,0.00051396,0.,0.00024443,-0.00148199,
 0.,0.00232885,-0.00401524,0.00000001,0.02555661,0.00862553,-0.00000027
 ,-0.03934632,-0.06468123,0.00000049,-0.03047373,0.00133457,0.00000029,
 -0.00076792,-0.00521874,0.00000005,0.00000038,0.00000065,0.,0.00000016
 ,0.00000021,0.,-0.00000047,0.00000030,0.,-0.00000326,0.00000357,0.,0.0
 0000121,0.00000174,0.,0.00015345,-0.00002646,0.,0.00094624,0.00043162,
 0.,-0.00072078,0.00085611,0.,0.04286753,0.06294656,0.,0.,-0.00000102,0
 .,0.,-0.00000948,0.,0.,-0.00001597,0.,0.,-0.00000696,0.,0.,0.00001518,
 0.,0.,-0.00000670,0.,0.,0.00008412,-0.00000001,0.,-0.00013521,0.,0.,-0
 .00005892,0.,0.,-0.00086156,-0.00000001,0.,-0.00044037,0.00000005,0.,0
 .00625893,0.00000007,0.00000004,0.00088369,0.00000302,0.00000050,-0.02
 923824,0.00000018,-0.00000001,0.00067497,0.00000005,0.00000006,0.00637
 146,0.,0.,0.00000529,0.,0.,0.00000181,0.,0.,0.00000136,0.,0.,0.0000179
 7,0.,0.,0.00000554,0.,0.,0.00005702,0.,0.,0.00061830,-0.00000004,-0.00
 000002,-0.00384822,-0.00000329,-0.00000055,0.02282362,-0.00006349,0.00
 001777,0.,0.00003034,-0.00002347,0.,0.00004906,-0.00001420,0.,-0.00007
 709,0.00010072,0.,0.00030070,-0.00017017,0.,-0.00011804,-0.00000010,0.
 ,-0.00077403,0.00005288,0.00000001,0.00075177,-0.00078065,0.,-0.000110
 77,0.00020872,0.,-0.00131712,0.00202010,0.,-0.00453050,-0.00269909,0.0
 0000012,-0.00071937,-0.00090521,0.,0.00016073,-0.00272365,0.00000007,0
 .01132947,-0.01002243,-0.00000004,-0.16064806,0.13368006,0.00000074,-0
 .01387560,0.02728199,0.00000007,-0.00001117,0.00000294,0.,-0.00001566,
 -0.00000733,0.,-0.00000524,0.00001254,0.,0.00001584,-0.00001159,0.,0.0
 0000650,-0.00000607,0.,0.00006760,0.00004462,0.,0.00008742,0.00011153,
 -0.00000001,0.00041335,-0.00061073,0.,0.00071452,0.00068066,-0.0000000
 5,0.16742532,0.00005434,-0.00001308,0.,-0.00002770,0.00001175,0.,-0.00
 004158,0.00001605,0.,0.00006005,-0.00008237,0.,-0.00026810,0.00011538,
 0.,0.00008413,0.00001314,0.,0.00047096,0.00002530,0.,-0.00069608,0.000
 14218,0.,0.00018996,-0.00003665,0.,0.00074489,0.00006159,0.,-0.0022100
 6,0.00134008,0.00000004,-0.00077382,0.00024639,0.,-0.00427260,-0.00453
 263,0.00000008,0.02107918,-0.01722741,-0.00000013,0.13426456,-0.238001
 70,-0.00000062,-0.00393162,0.00608837,0.00000003,0.00001019,-0.0000027
 7,0.,0.00001132,0.00000702,0.,0.00000284,-0.00001036,0.,-0.00001302,0.
 00000890,0.,-0.00000530,0.00000320,0.,-0.00001719,-0.00004846,0.,0.000
 04985,0.00004357,0.,0.00109317,-0.00121157,0.,-0.00049653,0.00095983,-
 0.00000001,-0.14578957,0.25119750,0.,0.,0.00000107,0.,0.,-0.00000629,0
 .,0.,-0.00001138,0.,0.,0.00000956,0.,0.,0.00001331,0.,0.,0.00000094,0.
 ,0.,-0.00004457,0.,0.,-0.00019434,0.,0.,0.00005895,0.00000001,-0.00000
 002,0.00013702,0.00000013,0.00000005,0.00774002,0.,0.,-0.00085548,0.00
 000007,0.00000006,0.00681616,-0.00000014,0.00000017,0.00315536,0.00000
 073,-0.00000061,-0.03611209,0.00000017,-0.00000027,0.00308111,0.,0.,0.
 00000180,0.,0.,0.00000085,0.,0.,0.00000093,0.,0.,0.00000398,0.,0.,0.00
 000362,0.,0.,0.00004377,-0.00000001,0.,-0.00103827,0.,0.00000001,0.000
 26889,-0.00000004,-0.00000002,-0.00390506,-0.00000087,0.00000065,0.025
 28513,0.00003015,-0.00001060,0.,-0.00001790,0.00001176,0.,-0.00002314,
 0.00000265,0.,0.00004104,-0.00005025,0.,-0.00016567,0.00006966,0.,0.00
 005913,0.00001117,0.,0.00033991,-0.00007034,0.,-0.00040001,0.00040358,
 0.,-0.00004848,-0.00029767,0.,0.00236465,0.00155318,-0.00000006,0.0088
 6408,0.01728321,-0.00000009,-0.00196931,0.00303318,0.00000006,-0.00100
 642,0.00067369,0.,-0.00553930,0.00084688,0.00000012,-0.00704711,-0.031
 17309,0.00000019,-0.09633219,-0.09514272,0.00000091,0.00000531,-0.0000
 0182,0.,0.00000730,0.00000367,0.,0.00000316,-0.00000652,0.,-0.00000586
 ,0.00000358,0.,-0.00000614,0.00000084,0.,-0.00074395,-0.00034739,0.000
 00002,0.00046676,0.00090011,-0.00000001,0.00010596,-0.00010636,0.,-0.0
 0058368,-0.00158018,0.00000002,0.00091350,0.00042773,-0.00000005,0.100
 68821,0.00001054,0.00001076,0.,0.00001224,-0.00000389,0.,-0.00001145,0
 .00001162,0.,-0.00000797,-0.00000782,0.,0.00001210,0.00003428,0.,0.000
 00242,-0.00002885,0.,0.00024074,0.00018896,0.,0.00036088,-0.00050095,0
 .,0.00020795,0.00088645,0.,-0.00168650,0.00154820,0.,-0.01429481,-0.01
 951913,0.00000022,0.00473466,-0.00261394,0.,0.00128369,0.00025953,-0.0
 0000002,-0.00071288,0.00253305,0.00000002,0.00026595,-0.00089267,0.,-0
 .09419334,-0.29981704,0.00000175,-0.00000059,0.00000225,0.,0.00000356,
 0.00000107,0.,-0.00000399,0.00000467,0.,-0.00000515,0.00000179,0.,0.00
 000754,0.00001203,0.,0.00179539,-0.00016842,-0.00000002,-0.00107647,-0
 .00110175,0.00000001,-0.00009963,-0.00007983,0.,0.00004333,-0.00017982
 ,0.,-0.00045028,0.00088676,-0.00000001,0.10356205,0.31853269,0.,0.,-0.
 00000449,0.,0.,-0.00001320,0.,0.,-0.00001527,0.,0.,-0.00002509,0.,0.,0
 .00012561,0.,0.,-0.00002398,0.,0.,-0.00003484,-0.00000001,0.,-0.000913
 05,0.,0.,0.00014466,-0.00000005,-0.00000004,-0.00331638,0.00000002,-0.
 00000008,0.00472938,0.00000006,0.,0.00527281,0.,0.,-0.00040051,0.00000
 012,0.,0.00702972,0.00000008,0.00000030,0.00188062,0.00000091,0.000001
 77,-0.03299136,0.,0.,0.00000642,0.,0.,0.00000409,0.,0.,0.00000210,0.,0
 .,0.00002218,0.,0.,0.00001324,0.00000001,0.,0.00091202,0.,0.,-0.000440
 12,0.,0.,-0.00094516,0.00000001,0.00000002,0.00070844,-0.00000005,-0.0
 0000002,-0.00445502,-0.00000108,-0.00000194,0.02272716\\-0.00002121,-0
 .00000224,0.,0.00000368,0.00001545,-0.00000001,0.00000155,-0.00003665,
 -0.00000001,-0.00001709,0.00001411,-0.00000002,0.00008196,-0.00001408,
 0.00000013,-0.00002568,0.00001937,-0.00000003,-0.00009151,0.00001741,0
 .00000029,0.00000920,-0.00011709,-0.00000110,0.00002063,0.00003647,0.0
 0000040,0.00007015,0.00008050,0.00000029,-0.00008449,-0.00000392,0.000
 00005,0.00003519,0.00002070,-0.00000002,-0.00000853,-0.00002887,0.0000
 0002,0.00001027,0.00000424,0.,-0.00001687,0.00000561,0.,0.00004458,0.0
 0000229,0.,-0.00000001,0.00000249,0.,-0.00000364,-0.00000978,0.,0.0000
 0028,0.00001205,0.,0.00000917,-0.00000217,0.,0.00001175,-0.00001346,0.
 ,-0.00001713,0.00000605,0.,-0.00001453,-0.00000105,0.,-0.00000074,0.00
 000929,0.,0.00000556,-0.00000261,0.,0.00000560,-0.00000483,0.,-0.00000
 813,-0.00000929,0.\\\@


 IF YOU GET CONFUSED, LOGIC OUT YOUR DILEMMA

           --  PICKER X-RAY CORP.    DIGITAL PRINTER MANUAL CA. 1964
 Job cpu time:       0 days  2 hours  4 minutes  0.2 seconds.
 File lengths (MBytes):  RWF=    303 Int=      0 D2E=      0 Chk=      9 Scr=      1
 Normal termination of Gaussian 09 at Tue Aug 21 17:41:20 2018.
WARNING: pbs_rusage is deprecated and values produced may not be accurate


=============================================================================
                                     Resource usage:
                                       CPU time:              06:23:23
   JobId:    9354144.r-man2            Elapsed time:          02:04:05
   Project:             q95            Requested time:        96:00:00
   Service Units:      8.27 
                                       Max physical memory:      538MB
                                       Max virtual memory:       996MB
                                       Requested memory:           0MB

                                       Number of cpus:               4

                                       Max jobfs disk use:       0.3GB
                                       Requested jobfs:         16.0GB
=============================================================================

