 Entering Gaussian System, Link 0=/apps/gaussian/g09e01/g09/g09
 AtFile(1): /home/507/hio507/Basis/6-31pGd.gbs
 Initial command:
 /apps/gaussian/g09e01/g09/l1.exe "/jobfs/local/6060516.r-man2/Gau-5568.inp" -scrdir="/jobfs/local/6060516.r-man2/"
 Entering Link 1 = /apps/gaussian/g09e01/g09/l1.exe PID=      5569.
  
 Copyright (c) 1988,1990,1992,1993,1995,1998,2003,2009,2015,
            Gaussian, Inc.  All Rights Reserved.
  
 This is part of the Gaussian(R) 09 program.  It is based on
 the Gaussian(R) 03 system (copyright 2003, Gaussian, Inc.),
 the Gaussian(R) 98 system (copyright 1998, Gaussian, Inc.),
 the Gaussian(R) 94 system (copyright 1995, Gaussian, Inc.),
 the Gaussian 92(TM) system (copyright 1992, Gaussian, Inc.),
 the Gaussian 90(TM) system (copyright 1990, Gaussian, Inc.),
 the Gaussian 88(TM) system (copyright 1988, Gaussian, Inc.),
 the Gaussian 86(TM) system (copyright 1986, Carnegie Mellon
 University), and the Gaussian 82(TM) system (copyright 1983,
 Carnegie Mellon University). Gaussian is a federally registered
 trademark of Gaussian, Inc.
  
 This software contains proprietary and confidential information,
 including trade secrets, belonging to Gaussian, Inc.
  
 This software is provided under written license and may be
 used, copied, transmitted, or stored only in accord with that
 written license.
  
 The following legend is applicable only to US Government
 contracts under FAR:
  
                    RESTRICTED RIGHTS LEGEND
  
 Use, reproduction and disclosure by the US Government is
 subject to restrictions as set forth in subparagraphs (a)
 and (c) of the Commercial Computer Software - Restricted
 Rights clause in FAR 52.227-19.
  
 Gaussian, Inc.
 340 Quinnipiac St., Bldg. 40, Wallingford CT 06492
  
  
 ---------------------------------------------------------------
 Warning -- This program may not be used in any manner that
 competes with the business of Gaussian, Inc. or will provide
 assistance to any competitor of Gaussian, Inc.  The licensee
 of this program is prohibited from giving any competitor of
 Gaussian, Inc. access to this program.  By using this program,
 the user acknowledges that Gaussian, Inc. is engaged in the
 business of creating and licensing software in the field of
 computational chemistry and represents and warrants to the
 licensee that it is not a competitor of Gaussian, Inc. and that
 it will not use this program in any manner prohibited above.
 ---------------------------------------------------------------
  

 Cite this work as:
 Gaussian 09, Revision E.01,
 M. J. Frisch, G. W. Trucks, H. B. Schlegel, G. E. Scuseria, 
 M. A. Robb, J. R. Cheeseman, G. Scalmani, V. Barone, B. Mennucci, 
 G. A. Petersson, H. Nakatsuji, M. Caricato, X. Li, H. P. Hratchian, 
 A. F. Izmaylov, J. Bloino, G. Zheng, J. L. Sonnenberg, M. Hada, 
 M. Ehara, K. Toyota, R. Fukuda, J. Hasegawa, M. Ishida, T. Nakajima, 
 Y. Honda, O. Kitao, H. Nakai, T. Vreven, J. A. Montgomery, Jr., 
 J. E. Peralta, F. Ogliaro, M. Bearpark, J. J. Heyd, E. Brothers, 
 K. N. Kudin, V. N. Staroverov, T. Keith, R. Kobayashi, J. Normand, 
 K. Raghavachari, A. Rendell, J. C. Burant, S. S. Iyengar, J. Tomasi, 
 M. Cossi, N. Rega, J. M. Millam, M. Klene, J. E. Knox, J. B. Cross, 
 V. Bakken, C. Adamo, J. Jaramillo, R. Gomperts, R. E. Stratmann, 
 O. Yazyev, A. J. Austin, R. Cammi, C. Pomelli, J. W. Ochterski, 
 R. L. Martin, K. Morokuma, V. G. Zakrzewski, G. A. Voth, 
 P. Salvador, J. J. Dannenberg, S. Dapprich, A. D. Daniels, 
 O. Farkas, J. B. Foresman, J. V. Ortiz, J. Cioslowski, 
 and D. J. Fox, Gaussian, Inc., Wallingford CT, 2013.
 
 ******************************************
 Gaussian 09:  ES64L-G09RevE.01 30-Nov-2015
                24-Feb-2019 
 ******************************************
 %chk=2Nitro4Fluro.M062X_6-31pGd_opt_Pentadecane.chk
 %mem=196608000
 %nproc=4
 Will use up to    4 processors via shared memory.
 ----------------------------------------------------------------------
 # M062X/Gen 6D SCF=Tight INT(grid=ultrafine) OPT IOP(2/17=4) SCRF=(SMD
 ,Solvent=n-Pentadecane) maxdisk=2147483648
 ----------------------------------------------------------------------
 1/14=-1,18=20,19=15,26=4,38=1/1,3;
 2/9=110,12=2,17=4,18=5,40=1/2;
 3/5=7,8=2,11=2,16=1,25=1,30=1,70=32201,71=1,72=151,74=-55,75=-5/1,2,3;
 4//1;
 5/5=2,32=2,38=5,53=151/2;
 6/7=2,8=2,9=2,10=2,28=1/1;
 7//1,2,3,16;
 1/14=-1,18=20,19=15,26=4/3(2);
 2/9=110,17=4/2;
 99//99;
 2/9=110,17=4/2;
 3/5=7,6=1,8=2,11=2,16=1,25=1,30=1,70=32205,71=1,72=151,74=-55,75=-5,82=7/1,2,3;
 4/5=5,16=3,69=1/1;
 5/5=2,32=2,38=5,53=151/2;
 7//1,2,3,16;
 1/14=-1,18=20,19=15,26=4/3(-5);
 2/9=110,17=4/2;
 6/7=2,8=2,9=2,10=2,19=2,28=1/1;
 99/9=1/99;
 ------------------------------------------
 2Nitro4Fluro.M062X_6-31pGd_opt_Pentadecane
 ------------------------------------------
 Symbolic Z-matrix:
 Charge =  0 Multiplicity = 1
 C                    -1.07835   2.67149   1.17132 
 C                     0.10314   2.00791   0.46991 
 C                     1.42099   2.70491   0.82402 
 N                     2.5467    2.07106   0.15724 
 C                     3.81824   2.54183   0.30544 
 O                     4.01629   3.50934   1.02727 
 N                     4.86118   1.91303  -0.32607 
 C                     6.23257   2.36188  -0.30516 
 C                     6.57719   3.75612  -0.35841 
 C                     7.28224   1.42034  -0.15875 
 C                     8.61284   1.82025  -0.06245 
 C                     8.93914   3.16739  -0.099 
 C                     7.93829   4.12233  -0.24208 
 H                    -2.01785   2.14984   0.89182 
 H                    -1.15956   3.73703   0.86758 
 H                    -0.05759   2.05856  -0.62918 
 H                     0.15142   0.94066   0.77722 
 H                     1.57647   2.66103   1.92465 
 H                     1.36157   3.77019   0.50881 
 H                     2.3582    1.16452  -0.51067 
 H                     7.09302   0.36146  -0.07937 
 F                     9.59087   0.89225   0.08452 
 N                     5.61544   4.80191  -0.57544 
 H                     9.97378   3.47622  -0.01977 
 O                     5.94658   5.94632  -0.48868 
 O                     4.53939   4.55852  -1.02737 
 H                    -0.95397   2.61455   2.27371 
 H                     4.60295   0.98482  -0.94249 
 H                     8.23862   5.16164  -0.28157 
 

 GradGradGradGradGradGradGradGradGradGradGradGradGradGradGradGradGradGrad
 Berny optimization.
 Initialization pass.
                           ----------------------------
                           !    Initial Parameters    !
                           ! (Angstroms and Degrees)  !
 --------------------------                            --------------------------
 ! Name  Definition              Value          Derivative Info.                !
 --------------------------------------------------------------------------------
 ! R1    R(1,2)                  1.5259         estimate D2E/DX2                !
 ! R2    R(1,14)                 1.1104         estimate D2E/DX2                !
 ! R3    R(1,15)                 1.111          estimate D2E/DX2                !
 ! R4    R(1,27)                 1.1108         estimate D2E/DX2                !
 ! R5    R(2,3)                  1.5323         estimate D2E/DX2                !
 ! R6    R(2,16)                 1.1119         estimate D2E/DX2                !
 ! R7    R(2,17)                 1.1117         estimate D2E/DX2                !
 ! R8    R(3,4)                  1.4538         estimate D2E/DX2                !
 ! R9    R(3,18)                 1.1124         estimate D2E/DX2                !
 ! R10   R(3,19)                 1.1125         estimate D2E/DX2                !
 ! R11   R(4,5)                  1.364          estimate D2E/DX2                !
 ! R12   R(4,20)                 1.1417         estimate D2E/DX2                !
 ! R13   R(5,6)                  1.2232         estimate D2E/DX2                !
 ! R14   R(5,7)                  1.3718         estimate D2E/DX2                !
 ! R15   R(7,8)                  1.4431         estimate D2E/DX2                !
 ! R16   R(7,28)                 1.1438         estimate D2E/DX2                !
 ! R17   R(8,9)                  1.4372         estimate D2E/DX2                !
 ! R18   R(8,10)                 1.4177         estimate D2E/DX2                !
 ! R19   R(9,13)                 1.4143         estimate D2E/DX2                !
 ! R20   R(9,23)                 1.4373         estimate D2E/DX2                !
 ! R21   R(10,11)                1.3927         estimate D2E/DX2                !
 ! R22   R(10,21)                1.0786         estimate D2E/DX2                !
 ! R23   R(11,12)                1.3866         estimate D2E/DX2                !
 ! R24   R(11,22)                1.3562         estimate D2E/DX2                !
 ! R25   R(12,13)                1.3907         estimate D2E/DX2                !
 ! R26   R(12,24)                1.0827         estimate D2E/DX2                !
 ! R27   R(13,29)                1.0826         estimate D2E/DX2                !
 ! R28   R(23,25)                1.1945         estimate D2E/DX2                !
 ! R29   R(23,26)                1.1922         estimate D2E/DX2                !
 ! A1    A(2,1,14)             109.581          estimate D2E/DX2                !
 ! A2    A(2,1,15)             110.3671         estimate D2E/DX2                !
 ! A3    A(2,1,27)             110.3158         estimate D2E/DX2                !
 ! A4    A(14,1,15)            108.6583         estimate D2E/DX2                !
 ! A5    A(14,1,27)            108.6909         estimate D2E/DX2                !
 ! A6    A(15,1,27)            109.1881         estimate D2E/DX2                !
 ! A7    A(1,2,3)              111.2167         estimate D2E/DX2                !
 ! A8    A(1,2,16)             108.8224         estimate D2E/DX2                !
 ! A9    A(1,2,17)             108.9092         estimate D2E/DX2                !
 ! A10   A(3,2,16)             109.3919         estimate D2E/DX2                !
 ! A11   A(3,2,17)             109.6007         estimate D2E/DX2                !
 ! A12   A(16,2,17)            108.8601         estimate D2E/DX2                !
 ! A13   A(2,3,4)              111.2007         estimate D2E/DX2                !
 ! A14   A(2,3,18)             109.3241         estimate D2E/DX2                !
 ! A15   A(2,3,19)             108.9138         estimate D2E/DX2                !
 ! A16   A(4,3,18)             109.1691         estimate D2E/DX2                !
 ! A17   A(4,3,19)             109.2012         estimate D2E/DX2                !
 ! A18   A(18,3,19)            108.9995         estimate D2E/DX2                !
 ! A19   A(3,4,5)              121.4349         estimate D2E/DX2                !
 ! A20   A(3,4,20)             119.1214         estimate D2E/DX2                !
 ! A21   A(5,4,20)             119.442          estimate D2E/DX2                !
 ! A22   A(4,5,6)              119.2118         estimate D2E/DX2                !
 ! A23   A(4,5,7)              120.0341         estimate D2E/DX2                !
 ! A24   A(6,5,7)              120.7366         estimate D2E/DX2                !
 ! A25   A(5,7,8)              124.9757         estimate D2E/DX2                !
 ! A26   A(5,7,28)             116.6429         estimate D2E/DX2                !
 ! A27   A(8,7,28)             118.3439         estimate D2E/DX2                !
 ! A28   A(7,8,9)              121.9422         estimate D2E/DX2                !
 ! A29   A(7,8,10)             119.9041         estimate D2E/DX2                !
 ! A30   A(9,8,10)             118.0725         estimate D2E/DX2                !
 ! A31   A(8,9,13)             118.6148         estimate D2E/DX2                !
 ! A32   A(8,9,23)             123.4371         estimate D2E/DX2                !
 ! A33   A(13,9,23)            117.9043         estimate D2E/DX2                !
 ! A34   A(8,10,11)            121.5897         estimate D2E/DX2                !
 ! A35   A(8,10,21)            121.9871         estimate D2E/DX2                !
 ! A36   A(11,10,21)           116.386          estimate D2E/DX2                !
 ! A37   A(10,11,12)           120.1312         estimate D2E/DX2                !
 ! A38   A(10,11,22)           119.9993         estimate D2E/DX2                !
 ! A39   A(12,11,22)           119.8642         estimate D2E/DX2                !
 ! A40   A(11,12,13)           120.0317         estimate D2E/DX2                !
 ! A41   A(11,12,24)           120.0068         estimate D2E/DX2                !
 ! A42   A(13,12,24)           119.961          estimate D2E/DX2                !
 ! A43   A(9,13,12)            121.5513         estimate D2E/DX2                !
 ! A44   A(9,13,29)            120.836          estimate D2E/DX2                !
 ! A45   A(12,13,29)           117.6018         estimate D2E/DX2                !
 ! A46   A(9,23,25)            120.0421         estimate D2E/DX2                !
 ! A47   A(9,23,26)            120.8405         estimate D2E/DX2                !
 ! A48   A(25,23,26)           118.2506         estimate D2E/DX2                !
 ! D1    D(14,1,2,3)           179.681          estimate D2E/DX2                !
 ! D2    D(14,1,2,16)           59.109          estimate D2E/DX2                !
 ! D3    D(14,1,2,17)          -59.4308         estimate D2E/DX2                !
 ! D4    D(15,1,2,3)            60.0599         estimate D2E/DX2                !
 ! D5    D(15,1,2,16)          -60.512          estimate D2E/DX2                !
 ! D6    D(15,1,2,17)         -179.0518         estimate D2E/DX2                !
 ! D7    D(27,1,2,3)           -60.6897         estimate D2E/DX2                !
 ! D8    D(27,1,2,16)          178.7384         estimate D2E/DX2                !
 ! D9    D(27,1,2,17)           60.1986         estimate D2E/DX2                !
 ! D10   D(1,2,3,4)            179.9085         estimate D2E/DX2                !
 ! D11   D(1,2,3,18)            59.2952         estimate D2E/DX2                !
 ! D12   D(1,2,3,19)           -59.7069         estimate D2E/DX2                !
 ! D13   D(16,2,3,4)           -59.8558         estimate D2E/DX2                !
 ! D14   D(16,2,3,18)          179.5309         estimate D2E/DX2                !
 ! D15   D(16,2,3,19)           60.5288         estimate D2E/DX2                !
 ! D16   D(17,2,3,4)            59.4272         estimate D2E/DX2                !
 ! D17   D(17,2,3,18)          -61.186          estimate D2E/DX2                !
 ! D18   D(17,2,3,19)          179.8119         estimate D2E/DX2                !
 ! D19   D(2,3,4,5)            178.6791         estimate D2E/DX2                !
 ! D20   D(2,3,4,20)            -0.849          estimate D2E/DX2                !
 ! D21   D(18,3,4,5)           -60.6163         estimate D2E/DX2                !
 ! D22   D(18,3,4,20)          119.8556         estimate D2E/DX2                !
 ! D23   D(19,3,4,5)            58.4644         estimate D2E/DX2                !
 ! D24   D(19,3,4,20)         -121.0637         estimate D2E/DX2                !
 ! D25   D(3,4,5,6)              0.83           estimate D2E/DX2                !
 ! D26   D(3,4,5,7)            179.3217         estimate D2E/DX2                !
 ! D27   D(20,4,5,6)          -179.6434         estimate D2E/DX2                !
 ! D28   D(20,4,5,7)            -1.1517         estimate D2E/DX2                !
 ! D29   D(4,5,7,8)            176.3213         estimate D2E/DX2                !
 ! D30   D(4,5,7,28)            -1.4047         estimate D2E/DX2                !
 ! D31   D(6,5,7,8)             -5.2103         estimate D2E/DX2                !
 ! D32   D(6,5,7,28)           177.0637         estimate D2E/DX2                !
 ! D33   D(5,7,8,9)            -37.911          estimate D2E/DX2                !
 ! D34   D(5,7,8,10)           138.7476         estimate D2E/DX2                !
 ! D35   D(28,7,8,9)           139.7795         estimate D2E/DX2                !
 ! D36   D(28,7,8,10)          -43.5619         estimate D2E/DX2                !
 ! D37   D(7,8,9,13)           175.7588         estimate D2E/DX2                !
 ! D38   D(7,8,9,23)            -6.7051         estimate D2E/DX2                !
 ! D39   D(10,8,9,13)           -0.9586         estimate D2E/DX2                !
 ! D40   D(10,8,9,23)          176.5776         estimate D2E/DX2                !
 ! D41   D(7,8,10,11)         -176.5231         estimate D2E/DX2                !
 ! D42   D(7,8,10,21)            1.1764         estimate D2E/DX2                !
 ! D43   D(9,8,10,11)            0.2635         estimate D2E/DX2                !
 ! D44   D(9,8,10,21)          177.9631         estimate D2E/DX2                !
 ! D45   D(8,9,13,12)            0.9721         estimate D2E/DX2                !
 ! D46   D(8,9,13,29)          179.7398         estimate D2E/DX2                !
 ! D47   D(23,9,13,12)        -176.7014         estimate D2E/DX2                !
 ! D48   D(23,9,13,29)           2.0664         estimate D2E/DX2                !
 ! D49   D(8,9,23,25)          173.2323         estimate D2E/DX2                !
 ! D50   D(8,9,23,26)          -17.6115         estimate D2E/DX2                !
 ! D51   D(13,9,23,25)          -9.2152         estimate D2E/DX2                !
 ! D52   D(13,9,23,26)         159.941          estimate D2E/DX2                !
 ! D53   D(8,10,11,12)           0.4671         estimate D2E/DX2                !
 ! D54   D(8,10,11,22)         179.6259         estimate D2E/DX2                !
 ! D55   D(21,10,11,12)       -177.3549         estimate D2E/DX2                !
 ! D56   D(21,10,11,22)          1.8039         estimate D2E/DX2                !
 ! D57   D(10,11,12,13)         -0.481          estimate D2E/DX2                !
 ! D58   D(10,11,12,24)        179.7417         estimate D2E/DX2                !
 ! D59   D(22,11,12,13)       -179.641          estimate D2E/DX2                !
 ! D60   D(22,11,12,24)          0.5818         estimate D2E/DX2                !
 ! D61   D(11,12,13,9)          -0.249          estimate D2E/DX2                !
 ! D62   D(11,12,13,29)       -179.055          estimate D2E/DX2                !
 ! D63   D(24,12,13,9)         179.5283         estimate D2E/DX2                !
 ! D64   D(24,12,13,29)          0.7223         estimate D2E/DX2                !
 --------------------------------------------------------------------------------
 Trust Radius=3.00D-01 FncErr=1.00D-07 GrdErr=1.00D-06
 Number of steps in this run=    151 maximum allowed number of steps=    174.
 GradGradGradGradGradGradGradGradGradGradGradGradGradGradGradGradGradGrad

                          Input orientation:                          
 ---------------------------------------------------------------------
 Center     Atomic      Atomic             Coordinates (Angstroms)
 Number     Number       Type             X           Y           Z
 ---------------------------------------------------------------------
      1          6           0       -1.078350    2.671490    1.171320
      2          6           0        0.103140    2.007910    0.469910
      3          6           0        1.420990    2.704910    0.824020
      4          7           0        2.546700    2.071060    0.157240
      5          6           0        3.818240    2.541830    0.305440
      6          8           0        4.016290    3.509340    1.027270
      7          7           0        4.861180    1.913030   -0.326070
      8          6           0        6.232570    2.361880   -0.305160
      9          6           0        6.577190    3.756120   -0.358410
     10          6           0        7.282240    1.420340   -0.158750
     11          6           0        8.612840    1.820250   -0.062450
     12          6           0        8.939140    3.167390   -0.099000
     13          6           0        7.938290    4.122330   -0.242080
     14          1           0       -2.017850    2.149840    0.891820
     15          1           0       -1.159560    3.737030    0.867580
     16          1           0       -0.057590    2.058560   -0.629180
     17          1           0        0.151420    0.940660    0.777220
     18          1           0        1.576470    2.661030    1.924650
     19          1           0        1.361570    3.770190    0.508810
     20          1           0        2.358200    1.164520   -0.510670
     21          1           0        7.093020    0.361460   -0.079370
     22          9           0        9.590870    0.892250    0.084520
     23          7           0        5.615440    4.801910   -0.575440
     24          1           0        9.973780    3.476220   -0.019770
     25          8           0        5.946580    5.946320   -0.488680
     26          8           0        4.539390    4.558520   -1.027370
     27          1           0       -0.953970    2.614550    2.273710
     28          1           0        4.602950    0.984820   -0.942490
     29          1           0        8.238620    5.161640   -0.281570
 ---------------------------------------------------------------------
                    Distance matrix (angstroms):
                    1          2          3          4          5
     1  C    0.000000
     2  C    1.525855   0.000000
     3  C    2.523576   1.532296   0.000000
     4  N    3.811806   2.464292   1.453817   0.000000
     5  C    4.974249   3.756872   2.458115   1.363965   0.000000
     6  O    5.165085   4.228201   2.724702   2.232778   1.223249
     7  N    6.172152   4.825094   3.712774   2.369679   1.371830
     8  C    7.464945   6.188371   4.954192   3.726128   2.496839
     9  C    7.881865   6.756898   5.393476   4.398883   3.086584
    10  C    8.557682   7.230486   6.080313   4.790472   3.670492
    11  C    9.806425   8.528401   7.300079   6.075296   4.862531
    12  C   10.109883   8.929891   7.588704   6.490831   5.174796
    13  C    9.241344   8.146611   6.754321   5.782422   4.446636
    14  H    1.110360   2.167199   3.484009   4.623952   5.878558
    15  H    1.110958   2.177707   2.779642   4.125094   5.150048
    16  H    2.158572   1.111935   2.171579   2.720467   4.016108
    17  H    2.159496   1.111662   2.174069   2.720211   4.028882
    18  H    2.759653   2.171068   1.112423   2.100750   2.767956
    19  H    2.756677   2.165823   1.112524   2.101232   2.754170
    20  H    4.112168   2.599642   2.243337   1.141688   2.166734
    21  H    8.583225   7.202147   6.203209   4.862894   3.953008
    22  F   10.871020   9.560870   8.401163   7.142493   6.007760
    23  N    7.238555   6.267746   4.893803   4.172712   3.018914
    24  H   11.145217   9.991259   8.628854   7.560908   6.234542
    25  O    7.926522   7.111664   5.719343   5.195579   4.092800
    26  O    6.320927   5.331770   4.072829   3.400231   2.522594
    27  H    1.110845   2.176968   2.783918   4.126684   5.162690
    28  H    6.292076   4.825959   4.025436   2.572448   2.144150
    29  H    9.752829   8.757669   7.330616   6.491702   5.171822
                    6          7          8          9         10
     6  O    0.000000
     7  N    2.256895   0.000000
     8  C    2.829122   1.443126   0.000000
     9  C    2.922194   2.518475   1.437186   0.000000
    10  C    4.054256   2.476342   1.417653   2.448025   0.000000
    11  C    5.016850   3.762055   2.453152   2.824722   1.392730
    12  C    5.061607   4.272556   2.831408   2.448000   2.408541
    13  C    4.167624   3.789019   2.452069   1.414297   2.781743
    14  H    6.186876   6.990021   8.339494   8.832776   9.387627
    15  H    5.183316   6.403209   7.609858   7.833308   8.813875
    16  H    4.630884   4.930249   6.305799   6.853855   7.382529
    17  H    4.647350   4.934024   6.338123   7.106827   7.207963
    18  H    2.734528   4.051489   5.171152   5.605246   6.199651
    19  H    2.717422   4.048869   5.135419   5.287245   6.404824
    20  H    3.257714   2.619018   4.060375   4.953731   4.943224
    21  H    4.538730   2.729348   2.189300   3.444947   1.078579
    22  F    6.230079   4.855980   3.686440   4.180934   2.380721
    23  N    2.607048   2.996118   2.531333   1.437269   3.793003
    24  H    6.048891   5.355003   3.914058   3.424886   3.389741
    25  O    3.458756   4.179948   3.600511   2.282896   4.730469
    26  O    2.365578   2.755719   2.865951   2.289974   4.257452
    27  H    5.201706   6.408350   7.639422   8.059132   8.670534
    28  H    3.255353   1.143779   2.226689   3.452373   2.825336
    29  H    4.719240   4.686422   3.444336   2.177554   3.863557
                   11         12         13         14         15
    11  C    0.000000
    12  C    1.386576   0.000000
    13  C    2.405589   1.390713   0.000000
    14  H   10.678522  11.048654  10.212794   0.000000
    15  H   10.001940  10.160832   9.173368   1.804556   0.000000
    16  H    8.692199   9.080294   8.266988   2.482819   2.504374
    17  H    8.548354   9.107695   8.473331   2.486158   3.089744
    18  H    7.359754   7.652481   6.877708   3.774545   3.124265
    19  H    7.530572   7.625770   6.628807   3.767321   2.546745
    20  H    6.304871   6.891279   6.321249   4.699750   4.570779
    21  H    2.106705   3.358837   3.858121   9.335388   8.966396
    22  F    1.356218   2.373751   3.642953  11.704514  11.147991
    23  N    4.258857   3.734385   2.443070   8.213005   7.008345
    24  H    2.143879   1.082651   2.147114  12.099152  11.171691
    25  O    4.931031   4.102404   2.711948   8.930352   7.564234
    26  O    5.002218   4.706901   3.515603   7.244476   6.061659
    27  H    9.879899  10.188671   9.363487   1.804831   1.810920
    28  H    4.189467   4.927234   4.632390   6.968282   6.637585
    29  H    3.369413   2.121578   1.082554  10.753742   9.574750
                   16         17         18         19         20
    16  H    0.000000
    17  H    1.808686   0.000000
    18  H    3.091144   2.511381   0.000000
    19  H    2.497742   3.089134   1.811359   0.000000
    20  H    2.578642   2.564888   2.963347   2.970207   0.000000
    21  H    7.369780   7.018193   6.303685   6.694394   4.821768
    22  F    9.744867   9.464956   8.411021   8.728341   7.262224
    23  N    6.301756   6.826013   5.210288   4.509485   4.883074
    24  H   10.149361  10.175609   8.657951   8.633422   7.973832
    25  O    7.154333   7.761637   5.976216   5.172315   5.978509
    26  O    5.247912   5.966551   4.592797   3.616608   4.067408
    27  H    3.088591   2.502654   2.554825   3.132427   4.563533
    28  H    4.792882   4.772365   4.493301   4.513436   2.292959
    29  H    8.864369   9.183709   7.450148   7.060783   7.113986
                   21         22         23         24         25
    21  H    0.000000
    22  F    2.558877   0.000000
    23  N    4.706052   5.614716   0.000000
    24  H    4.243119   2.614268   4.589265   0.000000
    25  O    5.715988   6.257238   1.194510   4.747590   0.000000
    26  O    5.003503   6.339975   1.192209   5.631982   2.048502
    27  H    8.681443  10.906536   7.487279  11.199029   8.145494
    28  H    2.708136   5.093394   3.966111   5.992020   5.160210
    29  H    4.939131   4.493361   2.663989   2.433097   2.431474
                   26         27         28         29
    26  O    0.000000
    27  H    6.697250   0.000000
    28  H    3.575273   6.624147   0.000000
    29  H    3.821554   9.875264   5.576803   0.000000
 Stoichiometry    C10H12FN3O3
 Framework group  C1[X(C10H12FN3O3)]
 Deg. of freedom    81
 Full point group                 C1      NOp   1
 Largest Abelian subgroup         C1      NOp   1
 Largest concise Abelian subgroup C1      NOp   1
                         Standard orientation:                         
 ---------------------------------------------------------------------
 Center     Atomic      Atomic             Coordinates (Angstroms)
 Number     Number       Type             X           Y           Z
 ---------------------------------------------------------------------
      1          6           0       -6.119679   -0.273827    0.398685
      2          6           0       -4.872987   -0.851084   -0.265217
      3          6           0       -3.596892   -0.255156    0.338424
      4          7           0       -2.409245   -0.806976   -0.292902
      5          6           0       -1.158086   -0.400681    0.067549
      6          8           0       -1.033495    0.435308    0.951822
      7          7           0       -0.056613   -0.950784   -0.537482
      8          6           0        1.307930   -0.548847   -0.294412
      9          6           0        1.669941    0.826344   -0.086322
     10          6           0        2.325083   -1.530305   -0.185417
     11          6           0        3.640098   -1.187420    0.119317
     12          6           0        3.981560    0.139153    0.334261
     13          6           0        3.012666    1.131968    0.236044
     14          1           0       -7.026595   -0.718845   -0.062142
     15          1           0       -6.155631    0.828071    0.261729
     16          1           0       -4.907915   -0.623645   -1.353082
     17          1           0       -4.870173   -1.954323   -0.128656
     18          1           0       -3.567289   -0.476009    1.428302
     19          1           0       -3.609900    0.847689    0.192573
     20          1           0       -2.529850   -1.591530   -1.113501
     21          1           0        2.117785   -2.582849   -0.297273
     22          9           0        4.586143   -2.153623    0.223135
     23          7           0        0.749141    1.919402   -0.238291
     24          1           0        5.003569    0.402985    0.575141
     25          8           0        1.079492    3.026308    0.065820
     26          8           0       -0.271233    1.779978   -0.838926
     27          1           0       -6.121301   -0.506991    1.484783
     28          1           0       -0.252530   -1.762909   -1.318699
     29          1           0        3.325655    2.155847    0.396143
 ---------------------------------------------------------------------
 Rotational constants (GHZ):      0.9714742      0.2195207      0.1856962
 General basis read from cards:  (6D, 7F)
 There are   347 symmetry adapted cartesian basis functions of A   symmetry.
 There are   347 symmetry adapted basis functions of A   symmetry.
   347 basis functions,   592 primitive gaussians,   347 cartesian basis functions
    63 alpha electrons       63 beta electrons
       nuclear repulsion energy      1209.6848915425 Hartrees.
 NAtoms=   29 NActive=   29 NUniq=   29 SFac= 1.00D+00 NAtFMM=   60 NAOKFM=F Big=F
 Integral buffers will be    131072 words long.
 Raffenetti 2 integral format.
 Two-electron integral symmetry is turned on.
 ------------------------------------------------------------------------------
 Polarizable Continuum Model (PCM)
 =================================
 Model                : PCM (using non-symmetric T matrix).
 Atomic radii         : SMD-Coulomb.
 Polarization charges : Total charges.
 Charge compensation  : None.
 Solution method      : On-the-fly selection.
 Cavity type          : VdW (van der Waals Surface) (Alpha=1.000).
 Cavity algorithm     : GePol (No added spheres)
                        Default sphere list used, NSphG=   29.
                        Lebedev-Laikov grids with approx.  5.0 points / Ang**2.
                        Smoothing algorithm: York/Karplus (Gamma=1.0000).
                        Polarization charges: spherical gaussians, with
                                              point-specific exponents (IZeta= 3).
                        Self-potential: point-specific (ISelfS= 7).
                        Self-field    : sphere-specific E.n sum rule (ISelfD= 2).
 1st derivatives      : Analytical E(r).r(x)/FMM algorithm (CHGder, D1EAlg=3).
                        Cavity 1st derivative terms included.
 Solvent              : n-Pentadecane, Eps=   2.033300 Eps(inf)=   2.049192
 ------------------------------------------------------------------------------
 ------------------------------------------------------------------------------
 Atomic radii for non-electrostatic terms: SMD-CDS.
 ------------------------------------------------------------------------------
 Nuclear repulsion after PCM non-electrostatic terms =     1209.6778403243 Hartrees.
 One-electron integrals computed using PRISM.
 NBasis=   347 RedAO= T EigKep=  1.50D-06  NBF=   347
 NBsUse=   347 1.00D-06 EigRej= -1.00D+00 NBFU=   347
 ExpMin= 4.38D-02 ExpMax= 7.00D+03 ExpMxC= 1.05D+03 IAcc=3 IRadAn=         5 AccDes= 0.00D+00
 Harris functional with IExCor= 1009 and IRadAn=       5 diagonalized for initial guess.
 HarFok:  IExCor= 1009 AccDes= 0.00D+00 IRadAn=         5 IDoV= 1 UseB2=F ITyADJ=14
 ICtDFT=  3500011 ScaDFX=  1.000000  1.000000  1.000000  1.000000
 FoFCou: FMM=F IPFlag=           0 FMFlag=      100000 FMFlg1=           0
         NFxFlg=           0 DoJE=T BraDBF=F KetDBF=T FulRan=T
         wScrn=  0.000000 ICntrl=     500 IOpCl=  0 I1Cent=   200000004 NGrid=           0
         NMat0=    1 NMatS0=      1 NMatT0=    0 NMatD0=    1 NMtDS0=    0 NMtDT0=    0
 Petite list used in FoFCou.
 Requested convergence on RMS density matrix=1.00D-08 within 128 cycles.
 Requested convergence on MAX density matrix=1.00D-06.
 Requested convergence on             energy=1.00D-06.
 No special actions if energy rises.
 Inv3:  Mode=1 IEnd=    16581603.
 Iteration    1 A*A^-1 deviation from unit magnitude is 4.22D-15 for   2328.
 Iteration    1 A*A^-1 deviation from orthogonality  is 3.14D-15 for   2330   1837.
 Iteration    1 A^-1*A deviation from unit magnitude is 4.33D-15 for   2345.
 Iteration    1 A^-1*A deviation from orthogonality  is 9.08D-15 for    948    909.
 Error on total polarization charges =  0.02067
 SCF Done:  E(RM062X) =  -877.619668525     A.U. after   16 cycles
            NFock= 16  Conv=0.55D-08     -V/T= 2.0088
 SMD-CDS (non-electrostatic) energy       (kcal/mol) =      -4.42
 (included in total energy above)

 **********************************************************************

            Population analysis using the SCF density.

 **********************************************************************

 Orbital symmetries:
       Occupied  (A) (A) (A) (A) (A) (A) (A) (A) (A) (A) (A) (A)
                 (A) (A) (A) (A) (A) (A) (A) (A) (A) (A) (A) (A)
                 (A) (A) (A) (A) (A) (A) (A) (A) (A) (A) (A) (A)
                 (A) (A) (A) (A) (A) (A) (A) (A) (A) (A) (A) (A)
                 (A) (A) (A) (A) (A) (A) (A) (A) (A) (A) (A) (A)
                 (A) (A) (A)
       Virtual   (A) (A) (A) (A) (A) (A) (A) (A) (A) (A) (A) (A)
                 (A) (A) (A) (A) (A) (A) (A) (A) (A) (A) (A) (A)
                 (A) (A) (A) (A) (A) (A) (A) (A) (A) (A) (A) (A)
                 (A) (A) (A) (A) (A) (A) (A) (A) (A) (A) (A) (A)
                 (A) (A) (A) (A) (A) (A) (A) (A) (A) (A) (A) (A)
                 (A) (A) (A) (A) (A) (A) (A) (A) (A) (A) (A) (A)
                 (A) (A) (A) (A) (A) (A) (A) (A) (A) (A) (A) (A)
                 (A) (A) (A) (A) (A) (A) (A) (A) (A) (A) (A) (A)
                 (A) (A) (A) (A) (A) (A) (A) (A) (A) (A) (A) (A)
                 (A) (A) (A) (A) (A) (A) (A) (A) (A) (A) (A) (A)
                 (A) (A) (A) (A) (A) (A) (A) (A) (A) (A) (A) (A)
                 (A) (A) (A) (A) (A) (A) (A) (A) (A) (A) (A) (A)
                 (A) (A) (A) (A) (A) (A) (A) (A) (A) (A) (A) (A)
                 (A) (A) (A) (A) (A) (A) (A) (A) (A) (A) (A) (A)
                 (A) (A) (A) (A) (A) (A) (A) (A) (A) (A) (A) (A)
                 (A) (A) (A) (A) (A) (A) (A) (A) (A) (A) (A) (A)
                 (A) (A) (A) (A) (A) (A) (A) (A) (A) (A) (A) (A)
                 (A) (A) (A) (A) (A) (A) (A) (A) (A) (A) (A) (A)
                 (A) (A) (A) (A) (A) (A) (A) (A) (A) (A) (A) (A)
                 (A) (A) (A) (A) (A) (A) (A) (A) (A) (A) (A) (A)
                 (A) (A) (A) (A) (A) (A) (A) (A) (A) (A) (A) (A)
                 (A) (A) (A) (A) (A) (A) (A) (A) (A) (A) (A) (A)
                 (A) (A) (A) (A) (A) (A) (A) (A) (A) (A) (A) (A)
                 (A) (A) (A) (A) (A) (A) (A) (A)
 The electronic state is 1-A.
 Alpha  occ. eigenvalues --  -25.30345 -19.66667 -19.66499 -19.60048 -15.00890
 Alpha  occ. eigenvalues --  -14.82366 -14.79713 -10.68302 -10.67324 -10.65686
 Alpha  occ. eigenvalues --  -10.63128 -10.59640 -10.59141 -10.58348 -10.58235
 Alpha  occ. eigenvalues --  -10.55463 -10.54253  -1.39255  -1.39101  -1.18678
 Alpha  occ. eigenvalues --   -1.17047  -1.05139  -1.02129  -0.98892  -0.92577
 Alpha  occ. eigenvalues --   -0.88723  -0.86980  -0.81022  -0.77729  -0.73627
 Alpha  occ. eigenvalues --   -0.70750  -0.68231  -0.66937  -0.64732  -0.64212
 Alpha  occ. eigenvalues --   -0.63341  -0.62439  -0.60502  -0.59119  -0.58590
 Alpha  occ. eigenvalues --   -0.57327  -0.55589  -0.54044  -0.52687  -0.52563
 Alpha  occ. eigenvalues --   -0.51260  -0.50382  -0.49290  -0.46862  -0.46130
 Alpha  occ. eigenvalues --   -0.44963  -0.44564  -0.42399  -0.40203  -0.40089
 Alpha  occ. eigenvalues --   -0.39511  -0.38388  -0.36281  -0.35907  -0.34497
 Alpha  occ. eigenvalues --   -0.33018  -0.31273  -0.30064
 Alpha virt. eigenvalues --   -0.04870  -0.01422   0.00305   0.02234   0.02924
 Alpha virt. eigenvalues --    0.03289   0.03635   0.03909   0.03920   0.04736
 Alpha virt. eigenvalues --    0.05405   0.05511   0.06398   0.06871   0.07619
 Alpha virt. eigenvalues --    0.07844   0.08402   0.09021   0.09162   0.09623
 Alpha virt. eigenvalues --    0.10155   0.10815   0.11224   0.11388   0.12436
 Alpha virt. eigenvalues --    0.12648   0.13276   0.13904   0.14390   0.14714
 Alpha virt. eigenvalues --    0.15007   0.15691   0.15938   0.16355   0.16725
 Alpha virt. eigenvalues --    0.17654   0.18160   0.18229   0.19392   0.19837
 Alpha virt. eigenvalues --    0.20156   0.20760   0.21076   0.21438   0.21641
 Alpha virt. eigenvalues --    0.22110   0.22250   0.22714   0.22947   0.23816
 Alpha virt. eigenvalues --    0.24106   0.24359   0.24626   0.25493   0.25847
 Alpha virt. eigenvalues --    0.26463   0.26933   0.27376   0.27893   0.28240
 Alpha virt. eigenvalues --    0.28624   0.29027   0.29683   0.30531   0.30766
 Alpha virt. eigenvalues --    0.31484   0.31658   0.32444   0.32816   0.33051
 Alpha virt. eigenvalues --    0.33507   0.33653   0.34297   0.35424   0.35758
 Alpha virt. eigenvalues --    0.36643   0.36796   0.37115   0.37725   0.38224
 Alpha virt. eigenvalues --    0.38962   0.40059   0.40130   0.40582   0.40926
 Alpha virt. eigenvalues --    0.41849   0.42366   0.42794   0.43480   0.44938
 Alpha virt. eigenvalues --    0.45896   0.46897   0.47478   0.49421   0.50483
 Alpha virt. eigenvalues --    0.51956   0.53718   0.54137   0.57001   0.58798
 Alpha virt. eigenvalues --    0.64859   0.66168   0.68658   0.70106   0.71271
 Alpha virt. eigenvalues --    0.71957   0.72197   0.73549   0.75085   0.76193
 Alpha virt. eigenvalues --    0.78363   0.78460   0.79099   0.79274   0.79797
 Alpha virt. eigenvalues --    0.81284   0.82510   0.83865   0.86877   0.87405
 Alpha virt. eigenvalues --    0.88048   0.88805   0.90109   0.92264   0.92947
 Alpha virt. eigenvalues --    0.94657   0.95921   0.98155   0.98444   1.00290
 Alpha virt. eigenvalues --    1.01001   1.01633   1.02686   1.03092   1.04371
 Alpha virt. eigenvalues --    1.04889   1.06323   1.07221   1.07896   1.10562
 Alpha virt. eigenvalues --    1.11583   1.12175   1.13018   1.13813   1.15324
 Alpha virt. eigenvalues --    1.15899   1.16723   1.17350   1.18249   1.19769
 Alpha virt. eigenvalues --    1.21894   1.22068   1.25829   1.26392   1.27378
 Alpha virt. eigenvalues --    1.28177   1.29666   1.30537   1.32801   1.34410
 Alpha virt. eigenvalues --    1.35381   1.36817   1.38653   1.39323   1.39893
 Alpha virt. eigenvalues --    1.41569   1.42632   1.43049   1.44935   1.45735
 Alpha virt. eigenvalues --    1.46673   1.47953   1.49357   1.50026   1.50543
 Alpha virt. eigenvalues --    1.51493   1.55023   1.57610   1.59170   1.59708
 Alpha virt. eigenvalues --    1.60501   1.64175   1.66708   1.69916   1.70545
 Alpha virt. eigenvalues --    1.72383   1.76245   1.76659   1.79060   1.79285
 Alpha virt. eigenvalues --    1.80031   1.81517   1.83239   1.84541   1.86222
 Alpha virt. eigenvalues --    1.86897   1.88411   1.89074   1.90859   1.91512
 Alpha virt. eigenvalues --    1.93276   1.94096   1.95927   1.97192   1.97562
 Alpha virt. eigenvalues --    1.97835   1.98814   2.01610   2.02650   2.03630
 Alpha virt. eigenvalues --    2.04368   2.04653   2.05542   2.07651   2.07940
 Alpha virt. eigenvalues --    2.09492   2.11733   2.13737   2.15672   2.16497
 Alpha virt. eigenvalues --    2.17718   2.19440   2.20634   2.22812   2.25410
 Alpha virt. eigenvalues --    2.25656   2.28504   2.29341   2.30386   2.32924
 Alpha virt. eigenvalues --    2.34336   2.35038   2.37223   2.37603   2.39500
 Alpha virt. eigenvalues --    2.40348   2.42773   2.50272   2.52750   2.53013
 Alpha virt. eigenvalues --    2.55131   2.58168   2.60898   2.65048   2.65339
 Alpha virt. eigenvalues --    2.67932   2.70722   2.71641   2.73067   2.75155
 Alpha virt. eigenvalues --    2.78264   2.78541   2.79225   2.81686   2.86178
 Alpha virt. eigenvalues --    2.91118   2.96383   3.06843   3.07256   3.09888
 Alpha virt. eigenvalues --    3.15840   3.17415   3.21270   3.25934   3.29491
 Alpha virt. eigenvalues --    3.33842   3.44951   4.10410   4.22934   4.26368
 Alpha virt. eigenvalues --    4.27936   4.30168   4.34549   4.40071   4.41262
 Alpha virt. eigenvalues --    4.45028   4.49754   4.52527   4.56384   4.59200
 Alpha virt. eigenvalues --    4.72420   4.83275   4.89678   6.08160
          Condensed to atoms (all electrons):
               1          2          3          4          5          6
     1  C    5.593717  -0.000340  -0.044350   0.000047  -0.015248  -0.000243
     2  C   -0.000340   6.161623  -0.333159  -0.064123   0.029382   0.012581
     3  C   -0.044350  -0.333159   6.585535   0.400169  -0.654888  -0.016533
     4  N    0.000047  -0.064123   0.400169   7.680019   0.165265  -0.147554
     5  C   -0.015248   0.029382  -0.654888   0.165265   6.018687   0.687074
     6  O   -0.000243   0.012581  -0.016533  -0.147554   0.687074   8.390924
     7  N    0.001948  -0.003870  -0.138410  -0.376942   0.106855  -0.198480
     8  C   -0.001027   0.017116  -0.255465  -0.095942  -0.825170  -0.355777
     9  C   -0.002322  -0.018702  -0.057854  -0.060006  -0.193444   0.274573
    10  C    0.001229   0.006255   0.024320  -0.019875  -0.390913  -0.108333
    11  C    0.000071  -0.000244   0.005713   0.004240   0.075062  -0.014060
    12  C   -0.000015  -0.000118  -0.003402  -0.006650  -0.000225   0.039031
    13  C    0.000080  -0.001938   0.039456   0.032151   0.434477   0.109753
    14  H    0.407447  -0.086590   0.030643   0.000458  -0.001186   0.000009
    15  H    0.415206  -0.057153  -0.014441   0.000717   0.000389  -0.000047
    16  H   -0.035794   0.430663  -0.098466   0.008051   0.008484  -0.000234
    17  H   -0.033422   0.420457  -0.076059   0.008274  -0.006673  -0.000193
    18  H    0.002226  -0.054145   0.390846  -0.060630   0.027524   0.000446
    19  H    0.007671  -0.046641   0.443968  -0.052787  -0.043579   0.001810
    20  H    0.001350  -0.009372  -0.072655   0.218133   0.040475   0.005069
    21  H    0.000001   0.000008  -0.000034   0.000012   0.002576  -0.000163
    22  F    0.000000  -0.000000   0.000050  -0.000001   0.002218   0.000025
    23  N    0.000409   0.000906   0.022435   0.036686  -0.069752  -0.025386
    24  H   -0.000000   0.000000  -0.000005  -0.000001  -0.000533   0.000003
    25  O    0.000005   0.000272  -0.001924  -0.002760   0.007971  -0.005572
    26  O    0.000172   0.002099  -0.037557  -0.030929   0.085324  -0.067109
    27  H    0.409857  -0.060034  -0.010324   0.001159   0.003765  -0.000064
    28  H   -0.000025   0.000681   0.008482   0.032114   0.005138   0.005698
    29  H   -0.000000   0.000002  -0.000033  -0.000016  -0.000386  -0.000026
               7          8          9         10         11         12
     1  C    0.001948  -0.001027  -0.002322   0.001229   0.000071  -0.000015
     2  C   -0.003870   0.017116  -0.018702   0.006255  -0.000244  -0.000118
     3  C   -0.138410  -0.255465  -0.057854   0.024320   0.005713  -0.003402
     4  N   -0.376942  -0.095942  -0.060006  -0.019875   0.004240  -0.006650
     5  C    0.106855  -0.825170  -0.193444  -0.390913   0.075062  -0.000225
     6  O   -0.198480  -0.355777   0.274573  -0.108333  -0.014060   0.039031
     7  N    7.811061   0.038091   0.178284   0.119400   0.010166  -0.016299
     8  C    0.038091  22.123791 -10.697207  -3.587544   0.832820  -1.311588
     9  C    0.178284 -10.697207  21.871773   0.104670  -1.493868   0.363238
    10  C    0.119400  -3.587544   0.104670  13.831487  -0.598369   0.505139
    11  C    0.010166   0.832820  -1.493868  -0.598369   5.941726  -0.184563
    12  C   -0.016299  -1.311588   0.363238   0.505139  -0.184563   8.949419
    13  C   -0.081616  -1.115445  -3.163317  -3.465635   0.887454  -2.516337
    14  H    0.000010  -0.000016   0.000002  -0.000000  -0.000000  -0.000000
    15  H    0.000023   0.000154  -0.000138   0.000022   0.000000   0.000000
    16  H    0.000490   0.000235   0.000076  -0.000163  -0.000000  -0.000002
    17  H   -0.000082  -0.000053  -0.000443   0.000344   0.000005   0.000003
    18  H    0.003043  -0.006203   0.006074  -0.002037   0.000048  -0.000003
    19  H   -0.001873   0.005882  -0.004814   0.000444  -0.000050  -0.000003
    20  H    0.043143   0.014741   0.009078  -0.007096  -0.000261   0.000017
    21  H   -0.002135  -0.035457   0.008311   0.323306   0.005490   0.028550
    22  F   -0.000730  -0.041597  -0.028856  -0.100427   0.296110  -0.128741
    23  N   -0.071116   0.337753  -0.930977   0.311225  -0.014712   0.088719
    24  H    0.000126  -0.022843   0.032908   0.032411  -0.031096   0.322905
    25  O   -0.019257   0.536704  -0.617385  -0.028892   0.014108   0.156764
    26  O    0.024142  -0.263612  -0.047092  -0.103273   0.020892  -0.052569
    27  H    0.000034  -0.000011   0.000033  -0.000018  -0.000000  -0.000000
    28  H    0.210324   0.086682   0.036414  -0.146806  -0.000794  -0.003236
    29  H   -0.001249   0.094649   0.121709  -0.025706  -0.003964  -0.091911
              13         14         15         16         17         18
     1  C    0.000080   0.407447   0.415206  -0.035794  -0.033422   0.002226
     2  C   -0.001938  -0.086590  -0.057153   0.430663   0.420457  -0.054145
     3  C    0.039456   0.030643  -0.014441  -0.098466  -0.076059   0.390846
     4  N    0.032151   0.000458   0.000717   0.008051   0.008274  -0.060630
     5  C    0.434477  -0.001186   0.000389   0.008484  -0.006673   0.027524
     6  O    0.109753   0.000009  -0.000047  -0.000234  -0.000193   0.000446
     7  N   -0.081616   0.000010   0.000023   0.000490  -0.000082   0.003043
     8  C   -1.115445  -0.000016   0.000154   0.000235  -0.000053  -0.006203
     9  C   -3.163317   0.000002  -0.000138   0.000076  -0.000443   0.006074
    10  C   -3.465635  -0.000000   0.000022  -0.000163   0.000344  -0.002037
    11  C    0.887454  -0.000000   0.000000  -0.000000   0.000005   0.000048
    12  C   -2.516337  -0.000000   0.000000  -0.000002   0.000003  -0.000003
    13  C   14.801306   0.000000  -0.000009   0.000030  -0.000032   0.000523
    14  H    0.000000   0.489467  -0.023987  -0.003086  -0.003015  -0.000058
    15  H   -0.000009  -0.023987   0.487168  -0.004757   0.003906  -0.000355
    16  H    0.000030  -0.003086  -0.004757   0.503052  -0.033553   0.003814
    17  H   -0.000032  -0.003015   0.003906  -0.033553   0.509004  -0.005384
    18  H    0.000523  -0.000058  -0.000355   0.003814  -0.005384   0.497473
    19  H   -0.000182  -0.000054   0.002688  -0.005432   0.003834  -0.036017
    20  H    0.000672  -0.000003   0.000000   0.001020   0.000963   0.002488
    21  H   -0.024475  -0.000000  -0.000000  -0.000000   0.000000  -0.000000
    22  F   -0.013716   0.000000   0.000000  -0.000000   0.000000  -0.000000
    23  N   -0.213922  -0.000000   0.000009   0.000067  -0.000004   0.000186
    24  H   -0.019139  -0.000000  -0.000000  -0.000000  -0.000000  -0.000000
    25  O   -0.164020   0.000000  -0.000000  -0.000000   0.000000  -0.000007
    26  O    0.402765   0.000000   0.000004  -0.000039   0.000008  -0.000362
    27  H    0.000004  -0.024251  -0.027625   0.003889  -0.004857   0.002604
    28  H    0.010832  -0.000000   0.000000   0.000001   0.000003   0.000005
    29  H    0.238313  -0.000000   0.000000  -0.000000  -0.000000  -0.000000
              19         20         21         22         23         24
     1  C    0.007671   0.001350   0.000001   0.000000   0.000409  -0.000000
     2  C   -0.046641  -0.009372   0.000008  -0.000000   0.000906   0.000000
     3  C    0.443968  -0.072655  -0.000034   0.000050   0.022435  -0.000005
     4  N   -0.052787   0.218133   0.000012  -0.000001   0.036686  -0.000001
     5  C   -0.043579   0.040475   0.002576   0.002218  -0.069752  -0.000533
     6  O    0.001810   0.005069  -0.000163   0.000025  -0.025386   0.000003
     7  N   -0.001873   0.043143  -0.002135  -0.000730  -0.071116   0.000126
     8  C    0.005882   0.014741  -0.035457  -0.041597   0.337753  -0.022843
     9  C   -0.004814   0.009078   0.008311  -0.028856  -0.930977   0.032908
    10  C    0.000444  -0.007096   0.323306  -0.100427   0.311225   0.032411
    11  C   -0.000050  -0.000261   0.005490   0.296110  -0.014712  -0.031096
    12  C   -0.000003   0.000017   0.028550  -0.128741   0.088719   0.322905
    13  C   -0.000182   0.000672  -0.024475  -0.013716  -0.213922  -0.019139
    14  H   -0.000054  -0.000003  -0.000000   0.000000  -0.000000  -0.000000
    15  H    0.002688   0.000000  -0.000000   0.000000   0.000009  -0.000000
    16  H   -0.005432   0.001020  -0.000000  -0.000000   0.000067  -0.000000
    17  H    0.003834   0.000963   0.000000   0.000000  -0.000004  -0.000000
    18  H   -0.036017   0.002488  -0.000000  -0.000000   0.000186  -0.000000
    19  H    0.485931   0.002201   0.000000   0.000000  -0.000571   0.000000
    20  H    0.002201   0.340908   0.000004   0.000000  -0.001482   0.000000
    21  H    0.000000   0.000004   0.439100  -0.003434   0.000068  -0.000122
    22  F    0.000000   0.000000  -0.003434   9.352144   0.000216  -0.002924
    23  N   -0.000571  -0.001482   0.000068   0.000216   7.357840  -0.000161
    24  H    0.000000   0.000000  -0.000122  -0.002924  -0.000161   0.435204
    25  O    0.000027   0.000008   0.000039  -0.000009   0.341365  -0.000104
    26  O    0.001558   0.000765   0.000033  -0.000009   0.191557   0.000038
    27  H   -0.000313   0.000001   0.000000  -0.000000  -0.000001   0.000000
    28  H    0.000000   0.001795   0.001285   0.000006   0.002587  -0.000000
    29  H   -0.000000  -0.000000   0.000008  -0.000347  -0.036133  -0.003352
              25         26         27         28         29
     1  C    0.000005   0.000172   0.409857  -0.000025  -0.000000
     2  C    0.000272   0.002099  -0.060034   0.000681   0.000002
     3  C   -0.001924  -0.037557  -0.010324   0.008482  -0.000033
     4  N   -0.002760  -0.030929   0.001159   0.032114  -0.000016
     5  C    0.007971   0.085324   0.003765   0.005138  -0.000386
     6  O   -0.005572  -0.067109  -0.000064   0.005698  -0.000026
     7  N   -0.019257   0.024142   0.000034   0.210324  -0.001249
     8  C    0.536704  -0.263612  -0.000011   0.086682   0.094649
     9  C   -0.617385  -0.047092   0.000033   0.036414   0.121709
    10  C   -0.028892  -0.103273  -0.000018  -0.146806  -0.025706
    11  C    0.014108   0.020892  -0.000000  -0.000794  -0.003964
    12  C    0.156764  -0.052569  -0.000000  -0.003236  -0.091911
    13  C   -0.164020   0.402765   0.000004   0.010832   0.238313
    14  H    0.000000   0.000000  -0.024251  -0.000000  -0.000000
    15  H   -0.000000   0.000004  -0.027625   0.000000   0.000000
    16  H   -0.000000  -0.000039   0.003889   0.000001  -0.000000
    17  H    0.000000   0.000008  -0.004857   0.000003  -0.000000
    18  H   -0.000007  -0.000362   0.002604   0.000005  -0.000000
    19  H    0.000027   0.001558  -0.000313   0.000000  -0.000000
    20  H    0.000008   0.000765   0.000001   0.001795  -0.000000
    21  H    0.000039   0.000033   0.000000   0.001285   0.000008
    22  F   -0.000009  -0.000009  -0.000000   0.000006  -0.000347
    23  N    0.341365   0.191557  -0.000001   0.002587  -0.036133
    24  H   -0.000104   0.000038   0.000000  -0.000000  -0.003352
    25  O    7.927794  -0.127204   0.000000   0.000065   0.019149
    26  O   -0.127204   8.005947  -0.000001  -0.000999  -0.002566
    27  H    0.000000  -0.000001   0.490135  -0.000000  -0.000000
    28  H    0.000065  -0.000999  -0.000000   0.315210   0.000001
    29  H    0.019149  -0.002566  -0.000000   0.000001   0.414311
 Mulliken charges:
               1
     1  C   -0.708651
     2  C   -0.345617
     3  C   -0.136060
     4  N   -0.669280
     5  C    0.501331
     6  O   -0.587219
     7  N   -0.635081
     8  C    0.526337
     9  C    0.309281
    10  C   -0.675165
    11  C    0.248077
    12  C   -0.138121
    13  C   -0.178034
    14  H    0.214208
    15  H    0.218224
    16  H    0.221654
    17  H    0.216969
    18  H    0.227902
    19  H    0.236300
    20  H    0.408038
    21  H    0.257029
    22  F   -0.329977
    23  N   -0.327810
    24  H    0.256683
    25  O   -0.037137
    26  O   -0.001985
    27  H    0.216016
    28  H    0.434540
    29  H    0.277548
 Sum of Mulliken charges =  -0.00000
 Mulliken charges with hydrogens summed into heavy atoms:
               1
     1  C   -0.060203
     2  C    0.093006
     3  C    0.328142
     4  N   -0.261242
     5  C    0.501331
     6  O   -0.587219
     7  N   -0.200542
     8  C    0.526337
     9  C    0.309281
    10  C   -0.418136
    11  C    0.248077
    12  C    0.118562
    13  C    0.099514
    22  F   -0.329977
    23  N   -0.327810
    25  O   -0.037137
    26  O   -0.001985
 Electronic spatial extent (au):  <R**2>=           5619.0187
 Charge=             -0.0000 electrons
 Dipole moment (field-independent basis, Debye):
    X=             -0.5267    Y=             -6.0702    Z=             -2.7810  Tot=              6.6977
 Quadrupole moment (field-independent basis, Debye-Ang):
   XX=            -80.8068   YY=           -105.0241   ZZ=           -100.9606
   XY=             10.5041   XZ=              4.1092   YZ=              5.5416
 Traceless Quadrupole moment (field-independent basis, Debye-Ang):
   XX=             14.7904   YY=             -9.4270   ZZ=             -5.3634
   XY=             10.5041   XZ=              4.1092   YZ=              5.5416
 Octapole moment (field-independent basis, Debye-Ang**2):
  XXX=            -16.3752  YYY=            -46.0431  ZZZ=             -6.2217  XYY=             -6.8189
  XXY=             26.1077  XXZ=              1.7594  XZZ=              2.0188  YZZ=             -8.6822
  YYZ=             -9.6237  XYZ=             -0.7553
 Hexadecapole moment (field-independent basis, Debye-Ang**3):
 XXXX=          -5663.0864 YYYY=          -1243.2684 ZZZZ=           -235.4861 XXXY=            185.0996
 XXXZ=             77.0471 YYYX=            -48.1328 YYYZ=             21.9556 ZZZX=             10.1915
 ZZZY=              1.4038 XXYY=          -1207.4901 XXZZ=          -1039.8894 YYZZ=           -221.2540
 XXYZ=             20.6272 YYXZ=              7.3893 ZZXY=             -4.4592
 N-N= 1.209677840324D+03 E-N=-4.468922582474D+03  KE= 8.699283739136D+02
 D1PCM: PCM CHGder 1st derivatives, ID1Alg=3 FixD1E=F DoIter=F DoCFld=F I1PDM=0.
 Calling FoFJK, ICntrl=      2127 FMM=F ISym2X=0 I1Cent= 0 IOpClX= 0 NMat=1 NMatS=1 NMatT=0.
 ***** Axes restored to original set *****
 -------------------------------------------------------------------
 Center     Atomic                   Forces (Hartrees/Bohr)
 Number     Number              X              Y              Z
 -------------------------------------------------------------------
      1        6          -0.004826695    0.001356815    0.001901424
      2        6           0.003364192   -0.004428675   -0.004335197
      3        6          -0.004696594    0.004872803    0.003817429
      4        7          -0.001711467   -0.071675177   -0.056683612
      5        6          -0.013666505    0.016998491    0.024105183
      6        8           0.001700996   -0.003807174    0.017951453
      7        7           0.011885188   -0.070238822   -0.052499099
      8        6          -0.018999254    0.008669849    0.004497833
      9        6           0.025245459   -0.033106788    0.011678065
     10        6          -0.002102420    0.003238476   -0.001435121
     11        6          -0.011244473    0.004853843   -0.002976088
     12        6           0.005044354    0.002928872   -0.000011389
     13        6          -0.010434656   -0.007026505   -0.000450571
     14        1           0.007447220    0.006712865    0.004329307
     15        1          -0.000802102   -0.009507065    0.004599862
     16        1           0.002854819   -0.002991874    0.008632136
     17        1           0.000698235    0.007706955   -0.004951029
     18        1          -0.000603725    0.003171344   -0.010008129
     19        1           0.002582771   -0.009253450    0.005519903
     20        1           0.010494512    0.061342708    0.044817322
     21        1          -0.007383182   -0.004350350   -0.000037047
     22        9          -0.012776693    0.009221523   -0.001709394
     23        7          -0.002791574    0.000015402   -0.027113768
     24        1           0.001689823    0.000152986    0.000113470
     25        8           0.042079944    0.049983887    0.025889337
     26        8          -0.038373936   -0.030617411   -0.027731514
     27        1          -0.003067471    0.002197901   -0.009775272
     28        1           0.023366961    0.061374084    0.041740392
     29        1          -0.004973727    0.002204489    0.000124114
 -------------------------------------------------------------------
 Cartesian Forces:  Max     0.071675177 RMS     0.022055240

 GradGradGradGradGradGradGradGradGradGradGradGradGradGradGradGradGradGrad
 Berny optimization.
 FormGI is forming the generalized inverse of G from B-inverse, IUseBI=4.
 GSVD:  received Info=                   1 from GESDD.
 Internal  Forces:  Max     0.077575793 RMS     0.015989265
 Search for a local minimum.
 Step number   1 out of a maximum of  151
 All quantities printed in internal units (Hartrees-Bohrs-Radians)
 Mixed Optimization -- RFO/linear search
 Second derivative matrix not updated -- first step.
 ITU=  0
     Eigenvalues ---    0.00339   0.00424   0.00980   0.01121   0.01199
     Eigenvalues ---    0.01402   0.01457   0.01550   0.01589   0.01599
     Eigenvalues ---    0.01736   0.02006   0.02028   0.02047   0.02064
     Eigenvalues ---    0.02118   0.02168   0.02208   0.02220   0.02242
     Eigenvalues ---    0.03765   0.04417   0.04940   0.05555   0.05673
     Eigenvalues ---    0.05783   0.08030   0.09201   0.11972   0.12687
     Eigenvalues ---    0.15989   0.15994   0.15997   0.16000   0.16000
     Eigenvalues ---    0.16000   0.16000   0.16000   0.21967   0.22000
     Eigenvalues ---    0.22002   0.22008   0.22358   0.23490   0.24571
     Eigenvalues ---    0.24952   0.24980   0.24995   0.24997   0.25000
     Eigenvalues ---    0.25000   0.25000   0.29212   0.29270   0.29463
     Eigenvalues ---    0.29810   0.32334   0.32345   0.32396   0.32425
     Eigenvalues ---    0.32499   0.32511   0.32562   0.35676   0.35688
     Eigenvalues ---    0.36167   0.37749   0.38604   0.39160   0.39962
     Eigenvalues ---    0.40345   0.42574   0.45731   0.45983   0.47443
     Eigenvalues ---    0.50626   0.52154   0.53719   0.93958   1.07631
     Eigenvalues ---    1.08837
 RFO step:  Lambda=-1.05174249D-01 EMin= 3.38731187D-03
 Linear search not attempted -- first point.
 Maximum step size (   0.300) exceeded in Quadratic search.
    -- Step size scaled by   0.710
 Iteration  1 RMS(Cart)=  0.23378437 RMS(Int)=  0.00986416
 Iteration  2 RMS(Cart)=  0.01912132 RMS(Int)=  0.00028780
 Iteration  3 RMS(Cart)=  0.00010497 RMS(Int)=  0.00027705
 Iteration  4 RMS(Cart)=  0.00000010 RMS(Int)=  0.00027705
 Variable       Old X    -DE/DX   Delta X   Delta X   Delta X     New X
                                 (Linear)    (Quad)   (Total)
    R1        2.88345   0.00180   0.00000   0.00318   0.00318   2.88662
    R2        2.09828  -0.01055   0.00000  -0.01740  -0.01740   2.08088
    R3        2.09941  -0.01031   0.00000  -0.01703  -0.01703   2.08238
    R4        2.09919  -0.01015   0.00000  -0.01676  -0.01676   2.08243
    R5        2.89562  -0.00547   0.00000  -0.00979  -0.00979   2.88583
    R6        2.10125  -0.00908   0.00000  -0.01504  -0.01504   2.08621
    R7        2.10074  -0.00874   0.00000  -0.01447  -0.01447   2.08627
    R8        2.74732  -0.00244   0.00000  -0.00359  -0.00359   2.74373
    R9        2.10218  -0.01011   0.00000  -0.01676  -0.01676   2.08542
   R10        2.10237  -0.01056   0.00000  -0.01751  -0.01751   2.08486
   R11        2.57752  -0.00602   0.00000  -0.00683  -0.00683   2.57069
   R12        2.15748  -0.07666   0.00000  -0.13624  -0.13624   2.02124
   R13        2.31161   0.00786   0.00000   0.00534   0.00534   2.31695
   R14        2.59238   0.01523   0.00000   0.01770   0.01770   2.61009
   R15        2.72711  -0.03166   0.00000  -0.04527  -0.04527   2.68184
   R16        2.16143  -0.07758   0.00000  -0.13853  -0.13853   2.02290
   R17        2.71589  -0.00551   0.00000  -0.00809  -0.00815   2.70774
   R18        2.67898  -0.02203   0.00000  -0.02971  -0.02976   2.64922
   R19        2.67263  -0.01642   0.00000  -0.02162  -0.02161   2.65102
   R20        2.71604   0.01785   0.00000   0.02513   0.02513   2.74117
   R21        2.63188  -0.01199   0.00000  -0.01488  -0.01489   2.61699
   R22        2.03822   0.00557   0.00000   0.00847   0.00847   2.04669
   R23        2.62025  -0.00466   0.00000  -0.00536  -0.00533   2.61492
   R24        2.56288  -0.01571   0.00000  -0.01737  -0.01737   2.54551
   R25        2.62807  -0.00922   0.00000  -0.01102  -0.01097   2.61710
   R26        2.04591   0.00166   0.00000   0.00256   0.00256   2.04847
   R27        2.04573   0.00073   0.00000   0.00112   0.00112   2.04685
   R28        2.25730   0.06143   0.00000   0.03694   0.03694   2.29424
   R29        2.25295   0.05140   0.00000   0.03060   0.03060   2.28354
    A1        1.91255   0.00332   0.00000   0.00922   0.00918   1.92173
    A2        1.92627   0.00214   0.00000   0.00555   0.00553   1.93180
    A3        1.92537   0.00246   0.00000   0.00644   0.00641   1.93179
    A4        1.89645  -0.00255   0.00000  -0.00654  -0.00657   1.88987
    A5        1.89701  -0.00267   0.00000  -0.00681  -0.00685   1.89016
    A6        1.90569  -0.00286   0.00000  -0.00829  -0.00830   1.89739
    A7        1.94110  -0.00084   0.00000  -0.00093  -0.00093   1.94017
    A8        1.89931   0.00153   0.00000   0.00540   0.00540   1.90471
    A9        1.90082   0.00138   0.00000   0.00482   0.00482   1.90565
   A10        1.90925  -0.00030   0.00000  -0.00157  -0.00158   1.90767
   A11        1.91289  -0.00027   0.00000  -0.00159  -0.00159   1.91130
   A12        1.89997  -0.00151   0.00000  -0.00620  -0.00622   1.89374
   A13        1.94082  -0.00423   0.00000  -0.00851  -0.00849   1.93232
   A14        1.90807   0.00212   0.00000   0.00586   0.00585   1.91392
   A15        1.90090   0.00300   0.00000   0.00862   0.00861   1.90952
   A16        1.90536   0.00115   0.00000   0.00201   0.00203   1.90739
   A17        1.90592   0.00043   0.00000  -0.00010  -0.00008   1.90584
   A18        1.90240  -0.00247   0.00000  -0.00796  -0.00798   1.89442
   A19        2.11944  -0.00207   0.00000  -0.00453  -0.00453   2.11491
   A20        2.07906  -0.00127   0.00000  -0.00391  -0.00392   2.07515
   A21        2.08466   0.00334   0.00000   0.00844   0.00844   2.09309
   A22        2.08064   0.01308   0.00000   0.02597   0.02571   2.10635
   A23        2.09499  -0.02979   0.00000  -0.05979  -0.06006   2.03493
   A24        2.10725   0.01653   0.00000   0.03287   0.03260   2.13985
   A25        2.18124   0.01546   0.00000   0.03413   0.03342   2.21466
   A26        2.03580  -0.00066   0.00000   0.00255   0.00183   2.03763
   A27        2.06549  -0.01439   0.00000  -0.03431  -0.03500   2.03049
   A28        2.12829   0.04155   0.00000   0.08360   0.08370   2.21200
   A29        2.09272  -0.03911   0.00000  -0.07802  -0.07787   2.01485
   A30        2.06075  -0.00243   0.00000  -0.00553  -0.00577   2.05498
   A31        2.07022   0.00489   0.00000   0.00935   0.00892   2.07914
   A32        2.15438   0.02606   0.00000   0.05189   0.05155   2.20593
   A33        2.05782  -0.03123   0.00000  -0.06288  -0.06297   1.99485
   A34        2.12214  -0.00279   0.00000  -0.00644  -0.00666   2.11548
   A35        2.12908  -0.00521   0.00000  -0.01467  -0.01466   2.11442
   A36        2.03132   0.00788   0.00000   0.02036   0.02036   2.05168
   A37        2.09668   0.01017   0.00000   0.02116   0.02108   2.11776
   A38        2.09438  -0.00781   0.00000  -0.01607  -0.01605   2.07833
   A39        2.09202  -0.00238   0.00000  -0.00522  -0.00520   2.08682
   A40        2.09495  -0.01129   0.00000  -0.02311  -0.02314   2.07181
   A41        2.09451   0.00529   0.00000   0.01058   0.01054   2.10506
   A42        2.09372   0.00600   0.00000   0.01248   0.01243   2.10615
   A43        2.12147   0.00133   0.00000   0.00389   0.00377   2.12524
   A44        2.10899  -0.00607   0.00000  -0.01654  -0.01664   2.09235
   A45        2.05254   0.00466   0.00000   0.01217   0.01210   2.06464
   A46        2.09513  -0.02998   0.00000  -0.05974  -0.05974   2.03539
   A47        2.10906  -0.01023   0.00000  -0.02023  -0.02023   2.08883
   A48        2.06386   0.03969   0.00000   0.07963   0.07962   2.14349
    D1        3.13602   0.00001   0.00000   0.00012   0.00012   3.13615
    D2        1.03165  -0.00009   0.00000  -0.00086  -0.00086   1.03079
    D3       -1.03726   0.00006   0.00000   0.00073   0.00073  -1.03653
    D4        1.04824  -0.00025   0.00000  -0.00105  -0.00106   1.04719
    D5       -1.05613  -0.00035   0.00000  -0.00203  -0.00204  -1.05817
    D6       -3.12504  -0.00021   0.00000  -0.00044  -0.00045  -3.12549
    D7       -1.05923   0.00033   0.00000   0.00150   0.00151  -1.05773
    D8        3.11957   0.00023   0.00000   0.00052   0.00053   3.12010
    D9        1.05066   0.00037   0.00000   0.00211   0.00211   1.05278
   D10        3.14000   0.00005   0.00000   0.00011   0.00012   3.14011
   D11        1.03490  -0.00008   0.00000  -0.00083  -0.00082   1.03407
   D12       -1.04208  -0.00010   0.00000   0.00028   0.00026  -1.04182
   D13       -1.04468   0.00123   0.00000   0.00521   0.00521  -1.03947
   D14        3.13341   0.00110   0.00000   0.00427   0.00428   3.13768
   D15        1.05643   0.00108   0.00000   0.00538   0.00536   1.06179
   D16        1.03720  -0.00096   0.00000  -0.00427  -0.00427   1.03294
   D17       -1.06790  -0.00109   0.00000  -0.00522  -0.00520  -1.07310
   D18        3.13831  -0.00111   0.00000  -0.00411  -0.00412   3.13419
   D19        3.11854   0.00010   0.00000  -0.00002  -0.00001   3.11853
   D20       -0.01482   0.00033   0.00000   0.00138   0.00138  -0.01344
   D21       -1.05795   0.00081   0.00000   0.00321   0.00321  -1.05475
   D22        2.09187   0.00104   0.00000   0.00460   0.00460   2.09648
   D23        1.02040  -0.00126   0.00000  -0.00532  -0.00532   1.01508
   D24       -2.11296  -0.00102   0.00000  -0.00392  -0.00392  -2.11688
   D25        0.01449   0.00349   0.00000   0.01972   0.01966   0.03414
   D26        3.12975  -0.00376   0.00000  -0.02118  -0.02111   3.10864
   D27       -3.13537   0.00324   0.00000   0.01826   0.01819  -3.11718
   D28       -0.02010  -0.00401   0.00000  -0.02264  -0.02258  -0.04268
   D29        3.07739   0.00010   0.00000   0.00190   0.00230   3.07969
   D30       -0.02452  -0.01192   0.00000  -0.06895  -0.06924  -0.09376
   D31       -0.09094  -0.00733   0.00000  -0.03976  -0.03947  -0.13040
   D32        3.09034  -0.01935   0.00000  -0.11061  -0.11101   2.97934
   D33       -0.66167  -0.02616   0.00000  -0.15770  -0.15739  -0.81906
   D34        2.42160  -0.02598   0.00000  -0.15700  -0.15661   2.26500
   D35        2.43961  -0.01366   0.00000  -0.08494  -0.08534   2.35427
   D36       -0.76030  -0.01348   0.00000  -0.08425  -0.08456  -0.84486
   D37        3.06757  -0.00991   0.00000  -0.05352  -0.05316   3.01441
   D38       -0.11703  -0.01835   0.00000  -0.10113  -0.10218  -0.21921
   D39       -0.01673  -0.00887   0.00000  -0.05180  -0.05175  -0.06848
   D40        3.08186  -0.01731   0.00000  -0.09941  -0.10077   2.98109
   D41       -3.08091   0.00486   0.00000   0.03429   0.03370  -3.04721
   D42        0.02053   0.00126   0.00000   0.01165   0.01156   0.03209
   D43        0.00460   0.00656   0.00000   0.03805   0.03769   0.04229
   D44        3.10604   0.00296   0.00000   0.01541   0.01555   3.12159
   D45        0.01697   0.00542   0.00000   0.03195   0.03200   0.04896
   D46        3.13705   0.00101   0.00000   0.00506   0.00560  -3.14053
   D47       -3.08402   0.01202   0.00000   0.07416   0.07264  -3.01138
   D48        0.03606   0.00761   0.00000   0.04727   0.04625   0.08231
   D49        3.02347  -0.00793   0.00000  -0.04816  -0.04825   2.97522
   D50       -0.30738  -0.00685   0.00000  -0.04169  -0.04178  -0.34916
   D51       -0.16084  -0.01550   0.00000  -0.09382  -0.09372  -0.25456
   D52        2.79150  -0.01441   0.00000  -0.08734  -0.08725   2.70425
   D53        0.00815  -0.00044   0.00000  -0.00217  -0.00212   0.00604
   D54        3.13506  -0.00211   0.00000  -0.01241  -0.01232   3.12275
   D55       -3.09543   0.00324   0.00000   0.01999   0.02000  -3.07543
   D56        0.03148   0.00157   0.00000   0.00975   0.00980   0.04128
   D57       -0.00840  -0.00334   0.00000  -0.01964  -0.01945  -0.02784
   D58        3.13708  -0.00059   0.00000  -0.00355  -0.00364   3.13345
   D59       -3.13533  -0.00163   0.00000  -0.00932  -0.00911   3.13875
   D60        0.01015   0.00112   0.00000   0.00677   0.00670   0.01685
   D61       -0.00435   0.00076   0.00000   0.00428   0.00396  -0.00038
   D62       -3.12510   0.00516   0.00000   0.03067   0.03029  -3.09481
   D63        3.13336  -0.00198   0.00000  -0.01181  -0.01186   3.12150
   D64        0.01261   0.00242   0.00000   0.01458   0.01447   0.02708
         Item               Value     Threshold  Converged?
 Maximum Force            0.077576     0.000450     NO 
 RMS     Force            0.015989     0.000300     NO 
 Maximum Displacement     0.931276     0.001800     NO 
 RMS     Displacement     0.231244     0.001200     NO 
 Predicted change in Energy=-6.044777D-02
 GradGradGradGradGradGradGradGradGradGradGradGradGradGradGradGradGradGrad

                          Input orientation:                          
 ---------------------------------------------------------------------
 Center     Atomic      Atomic             Coordinates (Angstroms)
 Number     Number       Type             X           Y           Z
 ---------------------------------------------------------------------
      1          6           0       -1.114519    2.450318    1.220579
      2          6           0        0.106238    1.934386    0.461020
      3          6           0        1.377065    2.655571    0.904839
      4          7           0        2.531011    2.156544    0.178585
      5          6           0        3.772297    2.671803    0.388997
      6          8           0        3.951834    3.549241    1.226334
      7          7           0        4.808137    2.099673   -0.323330
      8          6           0        6.167406    2.507618   -0.326242
      9          6           0        6.660349    3.845778   -0.465753
     10          6           0        7.102858    1.487472   -0.103585
     11          6           0        8.452581    1.767874    0.028467
     12          6           0        8.928949    3.064853   -0.047057
     13          6           0        8.030888    4.090098   -0.292686
     14          1           0       -2.020675    1.923232    0.883536
     15          1           0       -1.255911    3.528727    1.043583
     16          1           0       -0.045911    2.095372   -0.620505
     17          1           0        0.214899    0.850761    0.642080
     18          1           0        1.532725    2.501790    1.986485
     19          1           0        1.269643    3.737252    0.716137
     20          1           0        2.392003    1.375749   -0.539095
     21          1           0        6.789574    0.459121    0.028225
     22          9           0        9.311333    0.757011    0.263367
     23          7           0        5.895136    5.005825   -0.881546
     24          1           0        9.987072    3.271682    0.065484
     25          8           0        6.439390    6.085245   -0.769373
     26          8           0        4.859039    4.854411   -1.484708
     27          1           0       -0.998931    2.281957    2.303464
     28          1           0        4.568733    1.240909   -0.915885
     29          1           0        8.416587    5.097124   -0.394367
 ---------------------------------------------------------------------
                    Distance matrix (angstroms):
                    1          2          3          4          5
     1  C    0.000000
     2  C    1.527535   0.000000
     3  C    2.519883   1.527117   0.000000
     4  N    3.802887   2.451255   1.451918   0.000000
     5  C    4.962012   3.740182   2.450203   1.360351   0.000000
     6  O    5.184168   4.240527   2.744346   2.248581   1.226077
     7  N    6.130617   4.769736   3.686418   2.332479   1.381198
     8  C    7.444620   6.138903   4.948213   3.688017   2.505008
     9  C    8.077103   6.889753   5.586430   4.507784   3.232593
    10  C    8.378888   7.033577   5.930099   4.629153   3.569021
    11  C    9.665210   8.359203   7.184634   5.936210   4.780390
    12  C   10.141785   8.909339   7.622635   6.466030   5.189960
    13  C    9.413677   8.247135   6.911244   5.848878   4.540027
    14  H    1.101152   2.168502   3.475832   4.611858   5.862035
    15  H    1.101946   2.176408   2.777447   4.119695   5.142536
    16  H    2.158124   1.103976   2.159944   2.698669   3.991250
    17  H    2.158842   1.104008   2.162640   2.698939   4.004413
    18  H    2.756296   2.164222   1.103556   2.093865   2.756185
    19  H    2.755883   2.160769   1.103259   2.092522   2.739613
    20  H    4.067782   2.556762   2.180136   1.069593   2.108631
    21  H    8.237795   6.857893   5.906615   4.586852   3.758999
    22  F   10.605751   9.282191   8.183437   6.923774   5.862008
    23  N    7.751440   6.689363   5.397021   4.534272   3.401233
    24  H   11.191703   9.978763   8.672735   7.539839   6.252036
    25  O    8.615924   7.671526   6.339778   5.622165   4.484060
    26  O    6.984385   5.907751   4.761194   3.932523   3.074989
    27  H    1.101973   2.176420   2.782282   4.122054   5.155752
    28  H    6.190841   4.721297   3.937392   2.487683   2.093916
    29  H   10.022755   8.932889   7.563332   6.604187   5.297666
                    6          7          8          9         10
     6  O    0.000000
     7  N    2.288222   0.000000
     8  C    2.899004   1.419168   0.000000
     9  C    3.207358   2.549482   1.432874   0.000000
    10  C    3.993561   2.385125   1.401907   2.426641   0.000000
    11  C    4.986470   3.676387   2.427976   2.788196   1.384852
    12  C    5.160216   4.241343   2.831003   2.435508   2.413697
    13  C    4.386186   3.787988   2.444981   1.402862   2.769596
    14  H    6.199377   6.936882   8.297574   8.993161   9.187118
    15  H    5.210990   6.378348   7.617395   8.065097   8.680537
    16  H    4.637511   4.863138   6.233927   6.932661   7.193166
    17  H    4.646270   4.856916   6.254211   7.193139   6.957398
    18  H    2.743550   4.028060   5.179672   5.840573   6.035198
    19  H    2.736749   4.035232   5.156222   5.519814   6.305541
    20  H    3.205289   2.531467   3.947163   4.932058   4.732262
    21  H    4.363149   2.596361   2.170041   3.424932   1.083064
    22  F    6.119484   4.735581   3.646443   4.135193   2.354908
    23  N    3.215777   3.152602   2.573622   1.450566   3.800345
    24  H    6.152131   5.324111   3.914984   3.417439   3.395686
    25  O    4.074568   4.329518   3.615211   2.270731   4.692864
    26  O    3.142648   2.989979   2.925971   2.302244   4.275336
    27  H    5.222671   6.376152   7.636927   8.293291   8.489056
    28  H    3.209059   1.070472   2.123201   3.370878   2.672529
    29  H    4.995662   4.691553   3.430597   2.157622   3.852275
                   11         12         13         14         15
    11  C    0.000000
    12  C    1.383758   0.000000
    13  C    2.381951   1.384910   0.000000
    14  H   10.509252  11.048238  10.349527   0.000000
    15  H    9.918966  10.253587   9.399222   1.785524   0.000000
    16  H    8.529525   9.045267   8.325928   2.488265   2.507548
    17  H    8.311259   9.017304   8.512154   2.491242   3.081557
    18  H    7.228892   7.691323   7.067068   3.765352   3.117716
    19  H    7.479702   7.726549   6.845192   3.760968   2.555215
    20  H    6.099713   6.769552   6.263021   4.668548   4.521887
    21  H    2.116229   3.372304   3.850693   8.971937   8.670828
    22  F    1.347025   2.359813   3.613614  11.408729  10.952525
    23  N    4.225279   3.696994   2.397237   8.676287   7.551518
    24  H    2.148831   1.084006   2.150523  12.110884  11.288376
    25  O    4.830029   3.980253   2.596287   9.572208   8.309046
    26  O    4.972923   4.672636   3.473574   7.844160   6.748504
    27  H    9.735039  10.232335   9.568019   1.785732   1.791026
    28  H    4.031596   4.805530   4.526894   6.864676   6.557447
    29  H    3.356187   2.124444   1.083145  10.983763   9.903776
                   16         17         18         19         20
    16  H    0.000000
    17  H    1.791982   0.000000
    18  H    3.074681   2.503994   0.000000
    19  H    2.492601   3.074053   1.791469   0.000000
    20  H    2.543209   2.531910   2.895666   2.900344   0.000000
    21  H    7.058471   6.614873   5.970070   6.456702   4.527768
    22  F    9.493707   9.104797   8.155987   8.588109   6.993133
    23  N    6.620795   7.200770   5.790201   5.055399   5.056350
    24  H   10.124971  10.084081   8.703962   8.754067   7.851443
    25  O    7.615798   8.254472   6.671676   5.869080   6.213994
    26  O    5.693652   6.490029   5.352416   4.356090   4.368242
    27  H    3.081015   2.506373   2.560876   3.127926   4.516613
    28  H    4.702372   4.640619   4.385307   4.447384   2.213212
    29  H    8.981955   9.293734   7.732513   7.359434   7.082739
                   21         22         23         24         25
    21  H    0.000000
    22  F    2.550157   0.000000
    23  N    4.722311   5.570786   0.000000
    24  H    4.258625   2.611389   4.544014   0.000000
    25  O    5.693159   6.140414   1.214060   4.604256   0.000000
    26  O    5.033339   6.298205   1.208399   5.586131   2.127009
    27  H    8.316264  10.620217   8.067956  11.255238   8.901458
    28  H    2.536664   4.910911   3.991882   5.869031   5.195038
    29  H    4.933237   4.479930   2.569706   2.451556   2.241945
                   26         27         28         29
    26  O    0.000000
    27  H    7.435292   0.000000
    28  H    3.669501   6.515127   0.000000
[...]
 2705,0.00008486,0.00000478,-0.00009967,0.00028101,-0.00021844,0.000064
 68,-0.00032123,-0.00046027,-0.00014357,0.00093556,-0.00014240,-0.00010
 380,-0.00444619,0.00502994,-0.00058690,0.04538895,0.81493924,-0.000004
 77,0.00002976,0.00002388,-0.00002612,0.00000954,0.00000814,-0.00002077
 ,-0.00033946,0.00037647,-0.00178838,-0.00112591,-0.00124637,0.00158533
 ,0.00040659,0.00499243,0.00055516,0.00198575,-0.00682106,-0.00573552,0
 .00086330,-0.00640134,0.00918792,0.00375635,-0.00147948,-0.01028431,0.
 01522102,-0.08059126,-0.00013770,-0.00077469,0.00696229,-0.00007324,0.
 00090510,-0.00046080,-0.00112437,-0.00155260,0.00752288,-0.00183316,0.
 00159135,-0.00363506,0.00003371,0.00000016,-0.00000717,-0.00002437,0.0
 0001658,0.00002510,-0.00004638,-0.00005737,-0.00007567,0.00003751,0.00
 006641,-0.00001942,0.00000819,0.00011340,-0.00011882,-0.00022181,0.000
 18562,0.00015050,-0.00029089,-0.00038886,0.00027017,-0.00003539,-0.000
 34825,0.00075141,0.00094511,-0.00131940,-0.00099031,0.31450803,0.19838
 079,0.54036956,-0.00000029,-0.00000079,-0.00000087,0.00000028,0.000000
 67,0.00000057,0.00000251,-0.00000061,-0.00000629,-0.00000695,-0.000010
 01,0.00000322,-0.00003959,0.00015439,-0.00001705,-0.00002229,-0.000079
 45,0.00001545,0.00022576,-0.00004206,0.00006331,0.00019360,0.00010693,
 0.00008316,0.00026504,0.00310005,-0.00057731,0.00095401,-0.00110204,-0
 .00039711,-0.00504909,0.00095711,-0.00076808,-0.34051339,-0.06702735,-
 0.02481909,-0.01385401,-0.00561348,-0.00127589,-0.00000075,-0.00000008
 ,0.00000014,0.00000031,-0.00000007,0.00000003,-0.00000006,0.00000023,0
 .00000048,-0.00000046,-0.00000108,0.00000006,0.00000107,0.00000025,0.0
 0000089,0.00000277,-0.00000040,0.00000023,-0.00000176,0.00000263,-0.00
 000273,-0.00011664,0.00007644,-0.00005613,0.00082519,-0.00008768,0.000
 44242,-0.00037888,-0.00089559,0.00001736,0.35702293,0.00000004,-0.0000
 0042,0.00000008,-0.00000184,0.00000059,0.00000191,-0.00000067,-0.00000
 732,-0.00000028,-0.00000935,0.00003017,0.00001834,0.00001535,-0.000159
 02,-0.00013267,0.00005189,0.00010614,0.00003739,-0.00013229,0.00031814
 ,0.00002142,0.00068487,-0.00142237,0.00011438,0.00257083,-0.00289915,0
 .00043005,-0.00051091,-0.00548392,0.00018223,-0.03033597,-0.00144836,-
 0.00252649,-0.06600870,-0.07384366,-0.00508610,0.02333967,0.01008355,0
 .00166821,-0.00000013,0.00000004,-0.00000001,-0.00000062,0.00000044,0.
 00000015,0.00000018,-0.00000039,-0.00000027,0.00000098,0.00000110,-0.0
 0000066,-0.00000017,0.00000080,0.00000042,-0.00000312,0.00000188,0.000
 00019,0.00000516,-0.00000611,0.00000511,-0.00142741,-0.00012707,-0.000
 08376,0.00081877,0.00299149,-0.00004053,0.00106783,0.00112917,-0.00006
 059,0.07015216,0.07052096,0.00000036,0.00000097,0.00000095,0.00000243,
 -0.00000283,0.00000062,-0.00000309,0.00000166,0.00001612,0.00003481,-0
 .00002507,-0.00001261,-0.00002936,0.00018201,0.00012681,-0.00011596,-0
 .00011198,-0.00004800,0.00037452,0.00021717,-0.00039205,-0.00038204,-0
 .00015068,-0.00107498,-0.00112753,0.00098167,0.00656946,0.00052036,-0.
 00013180,0.00490544,-0.00071139,0.00003848,0.00413281,-0.02487663,-0.0
 0493401,-0.03489559,-0.00191602,-0.00082792,0.00219427,-0.00000003,-0.
 00000079,-0.00000002,0.00000028,0.00000076,0.00000043,-0.00000167,-0.0
 0000058,-0.00000296,0.00000003,0.00000099,0.00000053,0.00000044,-0.000
 00070,-0.00000486,0.00000496,-0.00000026,-0.00000150,-0.00000261,-0.00
 000641,0.00000187,-0.00009873,0.00011233,0.00031744,0.00057232,-0.0002
 0984,-0.00414371,0.00012585,-0.00019967,0.00103969,0.02700237,0.005208
 83,0.02616251,-0.00000430,-0.00000514,-0.00001166,0.00004871,-0.000016
 54,0.00000228,0.00004901,0.00018496,-0.00013425,0.00028137,-0.00048318
 ,0.00007532,-0.00097478,0.00242584,-0.00027715,0.00034801,-0.00118393,
 -0.00001715,0.00257093,-0.00102309,0.00038131,-0.00693752,-0.00002039,
 -0.00047029,0.01843123,0.02293898,0.00317822,0.00040154,0.00170586,0.0
 0006037,0.00070381,0.00034463,-0.00033118,0.00198467,0.00074899,0.0002
 2993,-0.00669322,0.00208702,0.00069408,-0.00002125,-0.00001002,0.00000
 032,0.00002013,-0.00000845,0.00000218,0.00000430,0.00001615,0.00001374
 ,-0.00002005,-0.00003894,0.00001072,0.00000453,-0.00001130,0.00002916,
 0.00010420,-0.00005531,-0.00001553,-0.00000253,0.00026142,-0.00011405,
 -0.00025633,0.00027699,-0.00002972,-0.00060767,0.00086342,-0.00002323,
 -0.12786902,-0.05644087,-0.05109759,-0.00002176,-0.00011243,0.00014997
 ,0.12840296,-0.00002339,-0.00010111,-0.00004689,-0.00003979,0.00016200
 ,0.00007465,0.00060808,-0.00030695,-0.00052800,-0.00120673,-0.00006773
 ,0.00130319,0.00404370,-0.00252396,-0.00586411,0.00047299,0.00277489,0
 .00291624,-0.00433779,-0.00001929,0.00177685,0.01031893,0.00347680,-0.
 00025246,0.00817374,-0.06184949,-0.01938005,0.00009970,-0.00164878,0.0
 0163145,-0.00206950,0.00248753,-0.00034194,0.00147328,-0.00209113,0.00
 099597,-0.00740650,-0.00351976,-0.00307090,-0.00006691,0.00001311,0.00
 002140,-0.00000705,0.00002382,-0.00002691,0.00002724,0.00000725,0.0000
 3964,0.00000845,-0.00000214,-0.00000914,-0.00006902,-0.00002959,0.0000
 9176,-0.00008532,0.00007289,-0.00008944,0.00027973,0.00044395,0.000009
 88,0.00053410,-0.00055366,0.00014596,0.00260557,-0.00235384,0.00019027
 ,-0.05453909,-0.51795417,-0.17488121,0.00024642,-0.00027053,0.00011519
 ,0.09445940,0.59866840,0.00000274,-0.00001966,-0.00001112,-0.00001063,
 0.00002074,0.00000040,0.00009923,0.00004608,-0.00019736,0.00064647,0.0
 0034571,0.00085585,0.00036533,-0.00012208,-0.00310191,0.00045545,0.001
 37335,0.00202519,0.00145214,-0.00027762,0.00157316,-0.00171267,0.00021
 018,0.00206173,0.00036167,-0.01089137,0.01736200,0.00004754,-0.0002404
 4,-0.00097801,-0.00020266,0.00023229,-0.00008133,0.00053469,-0.0004003
 0,-0.00041732,-0.00366024,0.00113364,-0.00005444,-0.00001630,0.0000047
 9,0.00000544,0.00000373,-0.00000433,-0.00001515,0.00002414,0.00002463,
 0.00003819,-0.00000859,-0.00001802,0.00000601,-0.00002614,-0.00005024,
 0.00005384,0.00005059,-0.00004965,-0.00008538,0.00019377,0.00019047,-0
 .00008870,0.00008536,-0.00003360,-0.00025489,0.00008613,0.00006951,0.0
 0015501,-0.05058050,-0.18230265,-0.17350209,-0.00000992,0.00001902,-0.
 00006379,0.09876600,0.25663819,0.18675630,-0.00001354,-0.00004400,-0.0
 0004934,0.00010134,0.00000546,0.00001186,0.00028970,0.00031254,-0.0004
 4300,0.00087004,-0.00067273,-0.00023670,-0.00166223,0.00884945,0.00278
 268,-0.00065655,-0.00729357,0.00307266,0.00888474,-0.00226612,0.000891
 93,-0.01175909,-0.00611996,-0.00331668,-0.03821514,0.01486881,-0.03828
 726,0.00118042,-0.00028242,0.00054823,-0.00062839,-0.00430616,-0.00006
 877,-0.00155236,0.00476594,0.00167903,0.00521668,0.00346028,0.00008863
 ,-0.00006516,-0.00001456,0.00000899,0.00004289,-0.00001142,-0.00000563
 ,0.00000773,0.00003634,0.00003771,-0.00005232,-0.00009498,0.00002472,0
 .00003850,-0.00005327,0.00006634,0.00033693,-0.00009609,-0.00009208,0.
 00000447,0.00059254,-0.00034410,-0.00008958,0.00031738,0.00001985,-0.0
 0201142,0.00273708,-0.00038025,-0.39220496,-0.03189812,-0.25231184,-0.
 00032924,0.00038199,0.00002602,-0.00994839,-0.05580717,-0.04767211,0.4
 4053952,-0.00002273,-0.00007079,-0.00003117,-0.00003957,0.00012328,0.0
 0006705,0.00035008,-0.00033452,-0.00028783,-0.00127056,0.00029728,-0.0
 0012985,0.00387320,-0.00243012,-0.00085691,-0.00149529,-0.00042690,0.0
 0227894,-0.00025819,-0.00739048,0.00481795,-0.00228914,-0.00062838,0.0
 0021348,0.02552222,0.01617979,0.01481174,-0.00072148,0.00082632,0.0000
 3019,0.00031405,0.00199709,-0.00006608,0.00228801,-0.00057727,-0.00025
 255,-0.00119697,-0.00479600,0.00114283,-0.00004070,0.00000881,0.000013
 98,-0.00000839,0.00002138,-0.00000970,0.,-0.00001539,0.00000081,0.0000
 1115,0.00000901,-0.00001197,0.00000249,0.00001553,0.00002606,-0.000085
 00,0.00008690,0.00000844,0.00011838,0.00007467,0.00004305,-0.00000440,
 0.00002625,0.00006379,0.00096359,-0.00108691,0.00009911,-0.02963854,-0
 .13390720,-0.04226656,0.00029942,-0.00043418,-0.00009487,-0.07041397,-
 0.01514230,-0.06652350,0.07296169,0.14736666,0.00001349,0.00000533,-0.
 00000506,0.00001059,-0.00002986,-0.00004814,-0.00000394,0.00015153,-0.
 00006391,0.00115748,0.00025140,0.00070561,-0.00104357,0.00189197,-0.00
 353430,0.00087917,0.00214960,-0.00050742,0.00352698,0.00146720,0.00111
 898,-0.00288210,-0.00395697,-0.00045473,-0.03166774,0.00225890,-0.0015
 0250,-0.00085581,0.00052330,-0.00035190,0.00072719,-0.00094381,0.00008
 930,-0.00092685,0.00016003,0.00000877,-0.00018310,0.00460935,0.0018042
 8,-0.00000581,0.00000013,-0.00000131,0.00001086,-0.00001412,-0.0000170
 4,0.00003167,0.00004008,0.00005554,-0.00001655,-0.00003069,0.00001524,
 -0.00003421,-0.00006170,0.00005705,0.00013730,-0.00010584,-0.00011704,
 0.00015772,0.00016686,-0.00022332,0.00002547,0.00012982,-0.00010674,-0
 .00078352,0.00113766,-0.00008172,-0.25239811,-0.03464162,-0.28246046,-
 0.00022102,0.00036707,-0.00030981,-0.05141443,-0.06124767,-0.03250127,
 0.33453951,0.08564709,0.31923379,-0.05318240,-0.00433477,-0.03539572,0
 .00309214,0.00250362,0.02865678,0.00138770,0.00039002,0.00149869,0.000
 08043,0.00007016,-0.00022468,-0.00004279,0.00003805,-0.00004562,0.0000
 2337,-0.00007189,-0.00007761,0.00009914,-0.00001388,-0.00004071,-0.000
 02830,-0.00002051,-0.00000165,0.00000196,0.00000378,0.00000341,0.00001
 538,0.00000163,-0.00000431,-0.00001240,0.00000601,-0.00000050,0.000003
 39,-0.00000075,-0.00000012,-0.00000377,-0.00000027,-0.00000221,-0.0027
 8110,-0.00134169,-0.02664760,-0.00175901,-0.00123154,-0.00477424,-0.00
 457693,0.00240048,0.00259627,0.00118025,-0.00044779,-0.00073764,-0.000
 36262,-0.00007207,-0.00051137,-0.00002499,-0.00013259,-0.00009484,0.00
 020189,-0.00006206,-0.00015345,-0.00000060,0.00000103,0.00000298,0.000
 00995,-0.00000887,0.00000063,-0.00000787,0.00000100,0.00000659,-0.0000
 0003,0.,0.00000059,0.00000330,-0.00000217,-0.00000494,0.00000417,0.000
 00277,-0.00000725,0.05666916,-0.00430364,-0.05298006,-0.02905150,-0.00
 201092,-0.00227616,-0.01510015,-0.00062879,0.00016744,0.00037174,-0.00
 002772,-0.00008919,0.00018189,-0.00014312,0.00004803,0.00006308,0.0000
 9639,-0.00000612,-0.00000130,0.00008633,-0.00001627,-0.00002630,-0.000
 04638,-0.00001136,-0.00001197,0.00000421,0.00000469,0.00000589,0.00001
 905,-0.00000208,0.00000108,-0.00001753,0.00001154,-0.00000222,0.000005
 58,-0.00000214,0.00000081,-0.00000562,-0.00000071,-0.00000206,-0.00151
 807,-0.00231751,-0.01943968,0.00399801,0.00504104,0.03006230,0.0028845
 8,-0.00047091,-0.00132708,-0.00076395,0.00012125,-0.00005685,0.0000845
 5,0.00037066,0.00021230,0.00009625,-0.00002360,0.00011044,-0.00013977,
 -0.00002167,0.00002540,-0.00000061,0.00000044,-0.00000237,0.00001414,-
 0.00001442,0.00000249,-0.00002249,0.00000536,-0.00000188,0.00000024,0.
 00000006,-0.00000020,0.00000819,-0.00000193,-0.00000214,0.00001516,0.0
 0000017,-0.00000079,0.00232076,0.05245519,-0.03446549,-0.02950981,-0.3
 1125058,-0.00147496,-0.00138172,-0.01284185,-0.00079177,-0.00008456,0.
 00014613,0.00030582,0.00027424,0.00057820,-0.00024122,-0.00014204,-0.0
 0016128,0.00011267,0.00012969,0.00014932,0.00010309,0.00001658,0.00002
 110,-0.00006107,-0.00001881,-0.00001834,0.00000644,0.00000949,0.000006
 56,0.00002440,-0.00000358,0.00000593,-0.00002018,0.00000261,-0.0000057
 1,0.00000735,0.00000357,0.00000405,-0.00000245,-0.00000007,-0.00000090
 ,-0.00069548,-0.00008531,-0.00335515,-0.00179752,-0.00180547,-0.011880
 86,0.00253906,-0.00142064,0.00044836,0.00002904,-0.00016800,0.00069902
 ,0.00071263,0.00029123,0.00014318,0.00008280,-0.00005469,-0.00006706,-
 0.00031757,-0.00004648,0.00005391,-0.00000181,0.00000015,-0.00000517,0
 .00001224,-0.00000885,0.00000349,-0.00004862,-0.00006050,-0.00005950,0
 .00000072,-0.00000013,-0.00000204,0.00001231,0.00004847,0.00003047,0.0
 0004305,0.00001513,0.00003644,0.03594092,0.03399314,0.33733557,-0.0000
 2127,-0.00000306,-0.00001138,0.00004773,0.00003554,0.00004151,-0.00003
 203,0.00008965,-0.00039598,-0.00301373,-0.00254953,0.00094541,0.016738
 65,0.02362403,-0.00101262,-0.00376101,0.00277891,0.00560300,-0.0771731
 2,-0.05175326,0.00203727,-0.00466112,-0.03619378,-0.00792538,-0.005298
 64,0.00040866,-0.00084905,0.00094281,-0.00183239,0.00068488,-0.0004019
 0,-0.00013912,0.00011188,-0.00006435,0.00028161,-0.00012353,0.00039969
 ,-0.00129513,0.00055383,-0.00000414,0.00000090,0.00000217,0.00000880,-
 0.00000930,0.00000345,-0.00004110,0.00000336,-0.00004453,-0.00000823,-
 0.00001983,0.00003876,0.00014771,-0.00010412,-0.00015023,0.00000346,-0
 .00001775,0.00000528,-0.00215621,0.00130494,-0.00049811,-0.00035164,0.
 00153662,-0.00059405,0.00022682,0.00001133,0.00001385,-0.00112322,0.00
 059744,-0.00055072,0.00001789,0.00011424,-0.00000654,0.00015969,-0.000
 23362,0.00011434,0.00070707,0.00030423,0.00006601,0.00001091,-0.000004
 16,-0.00001477,0.07908031,-0.00004592,-0.00007358,-0.00001895,-0.00002
 584,0.00016272,0.00005742,0.00062285,0.00008488,-0.00061924,-0.0016724
 8,0.00126855,0.00105222,-0.00561769,-0.00969467,0.00067875,0.00121141,
 0.00121261,-0.00110259,-0.05864778,-0.42180240,-0.10581909,-0.00370687
 ,-0.00557345,0.00155480,-0.00000100,0.00214695,-0.00058552,0.00369374,
 0.00191904,-0.00004385,-0.00098679,-0.00045102,0.00023223,0.00041513,0
 .00082995,0.00003246,0.00054391,-0.00067981,-0.00011474,-0.00003869,0.
 00000671,0.00001054,0.00001354,-0.00000738,-0.00000028,0.00002038,0.00
 001232,-0.00000365,-0.00000259,-0.00003733,0.00002543,-0.00004384,0.00
 005266,0.00014307,-0.00021496,0.00009343,0.00009080,0.00114874,0.00016
 138,0.00019567,-0.00026904,-0.00040312,0.00000797,0.00025271,-0.000212
 47,0.00001985,0.00058372,-0.00069351,0.00009460,-0.00002109,-0.0000263
 9,-0.00006134,0.00001948,0.00037254,-0.00001330,-0.00028452,-0.0001438
 0,0.00021265,0.00000153,0.00000798,0.00000640,0.06310722,0.43143896,-0
 .00004532,-0.00003963,-0.00005428,0.00005690,0.00008273,0.00017008,0.0
 0043005,0.00056564,-0.00120478,-0.00356451,0.00025916,0.00029229,0.001
 35178,-0.02114912,-0.01208427,0.00423701,-0.00209188,0.00048237,-0.006
 73850,-0.08422880,-0.02356952,0.00262082,0.00112189,-0.00184945,0.0015
 3549,-0.00071982,0.00145641,0.00009043,0.00035359,-0.00087772,0.000725
 17,0.00020893,-0.00046031,-0.00027852,-0.00062270,0.00002384,-0.000598
 55,0.00102676,0.00069327,-0.00004475,-0.00000546,0.00001888,-0.0000025
 2,0.00001723,0.00000687,-0.00002637,0.00000340,-0.00006611,0.00003485,
 0.00002035,-0.00000750,0.00004851,-0.00010843,-0.00005181,-0.00046596,
 0.00020674,0.00017301,-0.00069517,-0.00025346,0.00097913,-0.00054326,0
 .00032378,0.00042100,0.00035114,-0.00016301,0.00004570,-0.00146647,0.0
 0004482,-0.00080041,0.00004578,0.00002702,0.00001579,0.00003898,-0.000
 11784,0.00017322,0.00081621,0.00123218,-0.00030498,0.00001663,-0.00000
 488,-0.00001119,0.00190422,0.10397809,0.03640551,-0.00000202,-0.000005
 05,-0.00000168,-0.00000790,0.00001164,0.00000721,0.00002040,-0.0000323
 4,-0.00002430,-0.00016066,0.00010584,0.00008187,0.00036030,-0.00059205
 ,-0.00048734,-0.00000151,0.00039210,0.00016983,-0.00029287,-0.00148668
 ,0.00009580,-0.00485832,0.00043866,-0.00134038,-0.00322003,-0.02873512
 ,0.00051930,-0.00091974,0.00048956,-0.00000560,-0.00263912,0.00236637,
 -0.00099172,0.01045741,0.02233542,-0.00022899,-0.07760667,-0.07468386,
 -0.00199535,-0.00000087,0.00000182,0.00000116,-0.00000227,0.00000178,-
 0.00000082,0.00000081,-0.00000199,-0.00000077,0.00000272,0.00000367,-0
 .00000199,-0.00000326,0.00000207,0.00000276,-0.00002344,0.00001259,0.0
 0000432,0.00002577,-0.00002157,0.00002032,0.00009710,-0.00003053,0.000
 01414,-0.00007080,0.00196190,0.00000485,-0.00078016,-0.00379205,-0.001
 27757,0.00082381,-0.00066032,0.00045627,-0.00016157,0.00254273,0.00061
 537,0.00096417,0.00047366,0.00116058,-0.00000034,-0.00000070,0.0000003
 6,-0.00037984,-0.00005527,0.00016591,0.07837890,-0.00000041,-0.0000000
 3,-0.00000046,0.,0.00000048,0.00000184,-0.00000411,0.00000443,-0.00000
 400,0.00000203,0.00001119,0.00001764,0.00002861,-0.00005193,-0.0000531
 8,0.00002057,0.00002418,0.00001488,0.00011811,-0.00012863,-0.00002989,
 -0.00065776,0.00112170,-0.00001575,-0.00178918,-0.00312694,-0.00020604
 ,0.00054947,0.00045937,0.00002504,0.00264684,-0.00025658,0.00041017,-0
 .00601283,-0.01366202,-0.00012090,-0.07717558,-0.33658680,0.00413863,-
 0.00000029,-0.00000016,0.00000003,0.00000033,-0.00000049,0.00000047,0.
 ,0.00000024,-0.00000040,-0.00000023,-0.00000123,0.00000029,-0.00000092
 ,0.00000028,0.00000004,0.00000010,-0.00000116,0.00000122,0.00000398,0.
 00000242,0.00000295,-0.00004959,-0.00005070,-0.00001600,-0.00006938,-0
 .00111401,0.00000598,0.00026866,-0.00204817,-0.00050957,-0.00021517,0.
 00094436,-0.00010109,0.00348225,-0.00006683,0.00064031,-0.00005958,0.0
 0035110,-0.00013687,0.00000001,0.00000028,-0.00000003,-0.00004366,0.00
 002824,0.00003273,0.07895771,0.35414742,-0.00000174,-0.00000217,-0.000
 00069,0.00000263,0.00000374,0.00000393,0.00001590,-0.00000760,-0.00000
 757,-0.00009526,-0.00004786,-0.00002881,0.00003007,0.00017871,0.000101
 44,-0.00014213,-0.00010698,-0.00002371,-0.00007195,0.00002078,0.000320
 10,-0.00088549,-0.00045048,0.00475100,-0.00094636,-0.00075440,0.005224
 77,-0.00056460,0.00022569,-0.00131825,-0.00038393,0.00120873,0.0075721
 6,0.00148437,0.00159073,0.00521879,-0.00270592,0.00402221,-0.03972721,
 -0.00000272,-0.00000095,0.00000035,0.00000109,0.00000114,0.00000103,-0
 .00000206,-0.00000162,-0.00000391,-0.00000034,-0.00000056,0.00000073,0
 .00000302,0.00000370,-0.00000208,-0.00000183,0.00000382,0.00000339,-0.
 00000910,0.00000920,-0.00000352,0.00002386,0.00000266,-0.00004216,0.00
 001081,0.00019453,-0.00040260,0.00183630,-0.00169163,-0.00382332,0.000
 47527,-0.00017030,-0.00453284,0.00029133,-0.00014256,0.00025592,-0.001
 44967,0.00001917,-0.00053335,0.00000096,0.00000080,-0.00000210,0.00005
 101,-0.00001042,-0.00001501,0.00303648,-0.00409806,0.02701353\\0.00000
 009,0.00000718,-0.00000396,0.00000064,-0.00000145,-0.00000195,-0.00000
 047,0.00000934,0.00000061,0.00000201,-0.00001194,0.00000676,0.00000111
 ,0.00000717,0.00000446,-0.00000391,0.00000331,-0.00000188,-0.00000490,
 0.00000920,-0.00000474,0.00000901,-0.00000880,0.00000705,-0.00000117,0
 .00000105,0.00000028,-0.00000246,0.00000166,0.00000260,0.00000393,-0.0
 0000071,0.00000542,-0.00000053,-0.00000494,0.00000235,-0.00000036,0.00
 000111,0.00000199,-0.00000061,0.00000088,-0.00000239,0.00000015,0.0000
 0059,-0.00000441,-0.00000159,0.00000222,-0.00000209,-0.00000033,0.0000
 0281,-0.00000218,-0.00000117,0.00000084,0.00000040,0.00000047,-0.00000
 090,-0.00000229,-0.00000163,-0.00000260,-0.00000682,-0.00000020,-0.000
 00056,0.00000352,-0.00000079,-0.00000152,0.00000397,-0.00000689,-0.000
 00429,-0.00000956,0.00000038,-0.00000166,0.00000301,0.00000190,0.00000
 284,0.00000143,0.00000767,0.00000011,0.00000505,-0.00000144,0.00000130
 ,-0.00000283,-0.00000135,-0.00000888,-0.00000469,0.00000243,-0.0000033
 5,0.00000089\\\@


 A leading authority is anyone who has guessed right more than once.
 -- Frank A. Clark
 Job cpu time:       0 days  2 hours 54 minutes 41.9 seconds.
 File lengths (MBytes):  RWF=    474 Int=      0 D2E=      0 Chk=     18 Scr=      1
 Normal termination of Gaussian 09 at Sun Feb 24 12:29:01 2019.
WARNING: pbs_rusage is deprecated and values produced may not be accurate


=============================================================================
                                     Resource usage:
                                       CPU time:              10:43:57
   JobId:    6060516.r-man2            Elapsed time:          02:42:04
   Project:             q95            Requested time:        34:00:00
   Service Units:     10.80 
                                       Max physical memory:      601MB
                                       Max virtual memory:      1364MB
                                       Requested memory:           0MB

                                       Number of cpus:               4

                                       Max jobfs disk use:       0.5GB
                                       Requested jobfs:         16.0GB
=============================================================================

