 Entering Gaussian System, Link 0=/apps/gaussian/g09e01/g09/g09
 AtFile(1): /home/507/hio507/Basis/6-31pGd.gbs
 Initial command:
 /apps/gaussian/g09e01/g09/l1.exe "/jobfs/local/5365539.r-man2/Gau-50990.inp" -scrdir="/jobfs/local/5365539.r-man2/"
 Entering Link 1 = /apps/gaussian/g09e01/g09/l1.exe PID=     50995.
  
 Copyright (c) 1988,1990,1992,1993,1995,1998,2003,2009,2015,
            Gaussian, Inc.  All Rights Reserved.
  
 This is part of the Gaussian(R) 09 program.  It is based on
 the Gaussian(R) 03 system (copyright 2003, Gaussian, Inc.),
 the Gaussian(R) 98 system (copyright 1998, Gaussian, Inc.),
 the Gaussian(R) 94 system (copyright 1995, Gaussian, Inc.),
 the Gaussian 92(TM) system (copyright 1992, Gaussian, Inc.),
 the Gaussian 90(TM) system (copyright 1990, Gaussian, Inc.),
 the Gaussian 88(TM) system (copyright 1988, Gaussian, Inc.),
 the Gaussian 86(TM) system (copyright 1986, Carnegie Mellon
 University), and the Gaussian 82(TM) system (copyright 1983,
 Carnegie Mellon University). Gaussian is a federally registered
 trademark of Gaussian, Inc.
  
 This software contains proprietary and confidential information,
 including trade secrets, belonging to Gaussian, Inc.
  
 This software is provided under written license and may be
 used, copied, transmitted, or stored only in accord with that
 written license.
  
 The following legend is applicable only to US Government
 contracts under FAR:
  
                    RESTRICTED RIGHTS LEGEND
  
 Use, reproduction and disclosure by the US Government is
 subject to restrictions as set forth in subparagraphs (a)
 and (c) of the Commercial Computer Software - Restricted
 Rights clause in FAR 52.227-19.
  
 Gaussian, Inc.
 340 Quinnipiac St., Bldg. 40, Wallingford CT 06492
  
  
 ---------------------------------------------------------------
 Warning -- This program may not be used in any manner that
 competes with the business of Gaussian, Inc. or will provide
 assistance to any competitor of Gaussian, Inc.  The licensee
 of this program is prohibited from giving any competitor of
 Gaussian, Inc. access to this program.  By using this program,
 the user acknowledges that Gaussian, Inc. is engaged in the
 business of creating and licensing software in the field of
 computational chemistry and represents and warrants to the
 licensee that it is not a competitor of Gaussian, Inc. and that
 it will not use this program in any manner prohibited above.
 ---------------------------------------------------------------
  

 Cite this work as:
 Gaussian 09, Revision E.01,
 M. J. Frisch, G. W. Trucks, H. B. Schlegel, G. E. Scuseria, 
 M. A. Robb, J. R. Cheeseman, G. Scalmani, V. Barone, B. Mennucci, 
 G. A. Petersson, H. Nakatsuji, M. Caricato, X. Li, H. P. Hratchian, 
 A. F. Izmaylov, J. Bloino, G. Zheng, J. L. Sonnenberg, M. Hada, 
 M. Ehara, K. Toyota, R. Fukuda, J. Hasegawa, M. Ishida, T. Nakajima, 
 Y. Honda, O. Kitao, H. Nakai, T. Vreven, J. A. Montgomery, Jr., 
 J. E. Peralta, F. Ogliaro, M. Bearpark, J. J. Heyd, E. Brothers, 
 K. N. Kudin, V. N. Staroverov, T. Keith, R. Kobayashi, J. Normand, 
 K. Raghavachari, A. Rendell, J. C. Burant, S. S. Iyengar, J. Tomasi, 
 M. Cossi, N. Rega, J. M. Millam, M. Klene, J. E. Knox, J. B. Cross, 
 V. Bakken, C. Adamo, J. Jaramillo, R. Gomperts, R. E. Stratmann, 
 O. Yazyev, A. J. Austin, R. Cammi, C. Pomelli, J. W. Ochterski, 
 R. L. Martin, K. Morokuma, V. G. Zakrzewski, G. A. Voth, 
 P. Salvador, J. J. Dannenberg, S. Dapprich, A. D. Daniels, 
 O. Farkas, J. B. Foresman, J. V. Ortiz, J. Cioslowski, 
 and D. J. Fox, Gaussian, Inc., Wallingford CT, 2013.
 
 ******************************************
 Gaussian 09:  ES64L-G09RevE.01 30-Nov-2015
                 4-Feb-2019 
 ******************************************
 %chk=2Nitro4FluroNside.M062X_6-31pGd_opt.chk
 %mem=196608000
 %nproc=4
 Will use up to    4 processors via shared memory.
 ----------------------------------------------------------------------
 # M062X/Gen 6D SCF=Tight INT(grid=ultrafine) OPT IOP(2/17=4) maxdisk=2
 147483648
 ----------------------------------------------------------------------
 1/14=-1,18=20,19=15,26=4,38=1/1,3;
 2/9=110,12=2,17=4,18=5,40=1/2;
 3/5=7,8=2,11=2,16=1,25=1,30=1,71=1,74=-55,75=-5/1,2,3;
 4//1;
 5/5=2,32=2,38=5/2;
 6/7=2,8=2,9=2,10=2,28=1/1;
 7//1,2,3,16;
 1/14=-1,18=20,19=15,26=4/3(2);
 2/9=110,17=4/2;
 99//99;
 2/9=110,17=4/2;
 3/5=7,6=1,8=2,11=2,16=1,25=1,30=1,71=1,74=-55,75=-5,82=7/1,2,3;
 4/5=5,16=3,69=1/1;
 5/5=2,32=2,38=5/2;
 7//1,2,3,16;
 1/14=-1,18=20,19=15,26=4/3(-5);
 2/9=110,17=4/2;
 6/7=2,8=2,9=2,10=2,19=2,28=1/1;
 99/9=1/99;
 -----------------------------------
 2Nitro4FluroNside.M062X_6-31pGd_opt
 -----------------------------------
 Symbolic Z-matrix:
 Charge =  0 Multiplicity = 1
 C                    -1.20579   2.21756   0.60384 
 C                     0.0204    1.62495  -0.08445 
 C                     1.29726   2.37231   0.31662 
 N                     2.46053   1.80816  -0.34534 
 C                     3.71205   2.30831  -0.14741 
 O                     3.87559   3.24228   0.62729 
 N                     4.77983   1.73242  -0.77698 
 C                     6.56503   2.25829  -0.57152 
 C                     7.70487   1.48261  -0.97763 
 C                     6.77676   3.51945   0.01561 
 C                     8.05748   4.04759   0.15891 
 C                     9.16001   3.32277  -0.27591 
 C                     8.98905   2.05675  -0.83185 
 H                    -2.11323   1.65702   0.29514 
 H                    -1.33169   3.28347   0.31721 
 H                    -0.11763   1.69112  -1.18568 
 H                     0.11259   0.5543    0.20096 
 H                     1.43189   2.30142   1.41863 
 H                     1.19879   3.44331   0.03196 
 H                     2.33637   1.00872  -0.98644 
 H                     5.93118   4.11361   0.34078 
 F                     8.22781   5.27394   0.71177 
 N                     7.61745   0.12864  -1.44989 
 H                     10.15536   3.73416  -0.1661 
 O                     8.58851  -0.41807  -1.88058 
 O                     6.65333  -0.53372  -1.21417 
 H                    -1.10166   2.14614   1.70751 
 H                     4.60404   0.85421  -1.28989 
 H                     9.87708   1.51065  -1.12363 
 
 Add virtual bond connecting atoms C8         and N7         Dist= 3.54D+00.

 GradGradGradGradGradGradGradGradGradGradGradGradGradGradGradGradGradGrad
 Berny optimization.
 Initialization pass.
                           ----------------------------
                           !    Initial Parameters    !
                           ! (Angstroms and Degrees)  !
 --------------------------                            --------------------------
 ! Name  Definition              Value          Derivative Info.                !
 --------------------------------------------------------------------------------
 ! R1    R(1,2)                  1.5259         estimate D2E/DX2                !
 ! R2    R(1,14)                 1.1104         estimate D2E/DX2                !
 ! R3    R(1,15)                 1.1109         estimate D2E/DX2                !
 ! R4    R(1,27)                 1.1109         estimate D2E/DX2                !
 ! R5    R(2,3)                  1.5329         estimate D2E/DX2                !
 ! R6    R(2,16)                 1.1118         estimate D2E/DX2                !
 ! R7    R(2,17)                 1.1119         estimate D2E/DX2                !
 ! R8    R(3,4)                  1.4525         estimate D2E/DX2                !
 ! R9    R(3,18)                 1.1125         estimate D2E/DX2                !
 ! R10   R(3,19)                 1.1126         estimate D2E/DX2                !
 ! R11   R(4,5)                  1.3622         estimate D2E/DX2                !
 ! R12   R(4,20)                 1.0322         estimate D2E/DX2                !
 ! R13   R(5,6)                  1.2244         estimate D2E/DX2                !
 ! R14   R(5,7)                  1.3668         estimate D2E/DX2                !
 ! R15   R(7,8)                  1.8723         estimate D2E/DX2                !
 ! R16   R(7,28)                 1.0321         estimate D2E/DX2                !
 ! R17   R(8,9)                  1.4373         estimate D2E/DX2                !
 ! R18   R(8,10)                 1.4072         estimate D2E/DX2                !
 ! R19   R(9,13)                 1.4142         estimate D2E/DX2                !
 ! R20   R(9,23)                 1.4366         estimate D2E/DX2                !
 ! R21   R(10,11)                1.3927         estimate D2E/DX2                !
 ! R22   R(10,21)                1.0834         estimate D2E/DX2                !
 ! R23   R(11,12)                1.3892         estimate D2E/DX2                !
 ! R24   R(11,22)                1.356          estimate D2E/DX2                !
 ! R25   R(12,13)                1.3932         estimate D2E/DX2                !
 ! R26   R(12,24)                1.0826         estimate D2E/DX2                !
 ! R27   R(13,29)                1.0826         estimate D2E/DX2                !
 ! R28   R(23,25)                1.1947         estimate D2E/DX2                !
 ! R29   R(23,26)                1.1932         estimate D2E/DX2                !
 ! A1    A(2,1,14)             109.5877         estimate D2E/DX2                !
 ! A2    A(2,1,15)             110.3228         estimate D2E/DX2                !
 ! A3    A(2,1,27)             110.3556         estimate D2E/DX2                !
 ! A4    A(14,1,15)            108.6637         estimate D2E/DX2                !
 ! A5    A(14,1,27)            108.6847         estimate D2E/DX2                !
 ! A6    A(15,1,27)            109.1866         estimate D2E/DX2                !
 ! A7    A(1,2,3)              111.2224         estimate D2E/DX2                !
 ! A8    A(1,2,16)             108.8984         estimate D2E/DX2                !
 ! A9    A(1,2,17)             108.9538         estimate D2E/DX2                !
 ! A10   A(3,2,16)             109.4841         estimate D2E/DX2                !
 ! A11   A(3,2,17)             109.4659         estimate D2E/DX2                !
 ! A12   A(16,2,17)            108.775          estimate D2E/DX2                !
 ! A13   A(2,3,4)              111.0088         estimate D2E/DX2                !
 ! A14   A(2,3,18)             109.2033         estimate D2E/DX2                !
 ! A15   A(2,3,19)             109.188          estimate D2E/DX2                !
 ! A16   A(4,3,18)             109.2562         estimate D2E/DX2                !
 ! A17   A(4,3,19)             109.1583         estimate D2E/DX2                !
 ! A18   A(18,3,19)            108.9966         estimate D2E/DX2                !
 ! A19   A(3,4,5)              121.8019         estimate D2E/DX2                !
 ! A20   A(3,4,20)             119.1784         estimate D2E/DX2                !
 ! A21   A(5,4,20)             119.0192         estimate D2E/DX2                !
 ! A22   A(4,5,6)              119.6505         estimate D2E/DX2                !
 ! A23   A(4,5,7)              119.7432         estimate D2E/DX2                !
 ! A24   A(6,5,7)              120.5627         estimate D2E/DX2                !
 ! A25   A(5,7,8)              125.1681         estimate D2E/DX2                !
 ! A26   A(5,7,28)             117.0239         estimate D2E/DX2                !
 ! A27   A(8,7,28)             117.1236         estimate D2E/DX2                !
 ! A28   A(7,8,9)              124.9981         estimate D2E/DX2                !
 ! A29   A(7,8,10)             116.1659         estimate D2E/DX2                !
 ! A30   A(9,8,10)             118.8326         estimate D2E/DX2                !
 ! A31   A(8,9,13)             118.1576         estimate D2E/DX2                !
 ! A32   A(8,9,23)             123.5903         estimate D2E/DX2                !
 ! A33   A(13,9,23)            118.1486         estimate D2E/DX2                !
 ! A34   A(8,10,11)            121.4104         estimate D2E/DX2                !
 ! A35   A(8,10,21)            119.9547         estimate D2E/DX2                !
 ! A36   A(11,10,21)           118.6112         estimate D2E/DX2                !
 ! A37   A(10,11,12)           119.9826         estimate D2E/DX2                !
 ! A38   A(10,11,22)           120.0286         estimate D2E/DX2                !
 ! A39   A(12,11,22)           119.9863         estimate D2E/DX2                !
 ! A40   A(11,12,13)           120.1063         estimate D2E/DX2                !
 ! A41   A(11,12,24)           119.9768         estimate D2E/DX2                !
 ! A42   A(13,12,24)           119.9072         estimate D2E/DX2                !
 ! A43   A(9,13,12)            121.4306         estimate D2E/DX2                !
 ! A44   A(9,13,29)            120.8168         estimate D2E/DX2                !
 ! A45   A(12,13,29)           117.7283         estimate D2E/DX2                !
 ! A46   A(9,23,25)            120.0214         estimate D2E/DX2                !
 ! A47   A(9,23,26)            120.4898         estimate D2E/DX2                !
 ! A48   A(25,23,26)           118.2896         estimate D2E/DX2                !
 ! D1    D(14,1,2,3)          -179.9822         estimate D2E/DX2                !
 ! D2    D(14,1,2,16)           59.278          estimate D2E/DX2                !
 ! D3    D(14,1,2,17)          -59.2288         estimate D2E/DX2                !
 ! D4    D(15,1,2,3)            60.4133         estimate D2E/DX2                !
 ! D5    D(15,1,2,16)          -60.3265         estimate D2E/DX2                !
 ! D6    D(15,1,2,17)         -178.8333         estimate D2E/DX2                !
 ! D7    D(27,1,2,3)           -60.3316         estimate D2E/DX2                !
 ! D8    D(27,1,2,16)          178.9287         estimate D2E/DX2                !
 ! D9    D(27,1,2,17)           60.4219         estimate D2E/DX2                !
 ! D10   D(1,2,3,4)           -179.7603         estimate D2E/DX2                !
 ! D11   D(1,2,3,18)            59.7188         estimate D2E/DX2                !
 ! D12   D(1,2,3,19)           -59.3709         estimate D2E/DX2                !
 ! D13   D(16,2,3,4)           -59.3657         estimate D2E/DX2                !
 ! D14   D(16,2,3,18)         -179.8866         estimate D2E/DX2                !
 ! D15   D(16,2,3,19)           61.0237         estimate D2E/DX2                !
 ! D16   D(17,2,3,4)            59.788          estimate D2E/DX2                !
 ! D17   D(17,2,3,18)          -60.7329         estimate D2E/DX2                !
 ! D18   D(17,2,3,19)         -179.8226         estimate D2E/DX2                !
 ! D19   D(2,3,4,5)            179.8702         estimate D2E/DX2                !
 ! D20   D(2,3,4,20)             0.1166         estimate D2E/DX2                !
 ! D21   D(18,3,4,5)           -59.6402         estimate D2E/DX2                !
 ! D22   D(18,3,4,20)          120.6062         estimate D2E/DX2                !
 ! D23   D(19,3,4,5)            59.4631         estimate D2E/DX2                !
 ! D24   D(19,3,4,20)         -120.2905         estimate D2E/DX2                !
 ! D25   D(3,4,5,6)              1.4343         estimate D2E/DX2                !
 ! D26   D(3,4,5,7)            179.047          estimate D2E/DX2                !
 ! D27   D(20,4,5,6)          -178.8117         estimate D2E/DX2                !
 ! D28   D(20,4,5,7)            -1.199          estimate D2E/DX2                !
 ! D29   D(4,5,7,8)           -177.8932         estimate D2E/DX2                !
 ! D30   D(4,5,7,28)            -7.6809         estimate D2E/DX2                !
 ! D31   D(6,5,7,8)             -0.3027         estimate D2E/DX2                !
 ! D32   D(6,5,7,28)           169.9096         estimate D2E/DX2                !
 ! D33   D(5,7,8,9)            164.966          estimate D2E/DX2                !
 ! D34   D(5,7,8,10)           -15.7183         estimate D2E/DX2                !
 ! D35   D(28,7,8,9)            -5.2375         estimate D2E/DX2                !
 ! D36   D(28,7,8,10)          174.0782         estimate D2E/DX2                !
 ! D37   D(7,8,9,13)           175.9974         estimate D2E/DX2                !
 ! D38   D(7,8,9,23)            -7.7755         estimate D2E/DX2                !
 ! D39   D(10,8,9,13)           -3.3016         estimate D2E/DX2                !
 ! D40   D(10,8,9,23)          172.9256         estimate D2E/DX2                !
 ! D41   D(7,8,10,11)         -176.7296         estimate D2E/DX2                !
 ! D42   D(7,8,10,21)            1.4715         estimate D2E/DX2                !
 ! D43   D(9,8,10,11)            2.6305         estimate D2E/DX2                !
 ! D44   D(9,8,10,21)         -179.1684         estimate D2E/DX2                !
 ! D45   D(8,9,13,12)            1.8159         estimate D2E/DX2                !
 ! D46   D(8,9,13,29)          179.9797         estimate D2E/DX2                !
 ! D47   D(23,9,13,12)        -174.62           estimate D2E/DX2                !
 ! D48   D(23,9,13,29)           3.5439         estimate D2E/DX2                !
 ! D49   D(8,9,23,25)          173.4825         estimate D2E/DX2                !
 ! D50   D(8,9,23,26)          -19.2425         estimate D2E/DX2                !
 ! D51   D(13,9,23,25)         -10.2901         estimate D2E/DX2                !
 ! D52   D(13,9,23,26)         156.985          estimate D2E/DX2                !
 ! D53   D(8,10,11,12)          -0.3407         estimate D2E/DX2                !
 ! D54   D(8,10,11,22)         179.0733         estimate D2E/DX2                !
 ! D55   D(21,10,11,12)       -178.5653         estimate D2E/DX2                !
 ! D56   D(21,10,11,22)          0.8487         estimate D2E/DX2                !
 ! D57   D(10,11,12,13)         -1.2411         estimate D2E/DX2                !
 ! D58   D(10,11,12,24)        179.8899         estimate D2E/DX2                !
 ! D59   D(22,11,12,13)        179.3447         estimate D2E/DX2                !
 ! D60   D(22,11,12,24)          0.4756         estimate D2E/DX2                !
 ! D61   D(11,12,13,9)           0.4655         estimate D2E/DX2                !
 ! D62   D(11,12,13,29)       -177.7531         estimate D2E/DX2                !
 ! D63   D(24,12,13,9)         179.3353         estimate D2E/DX2                !
 ! D64   D(24,12,13,29)          1.1168         estimate D2E/DX2                !
 --------------------------------------------------------------------------------
 Trust Radius=3.00D-01 FncErr=1.00D-07 GrdErr=1.00D-06
 Number of steps in this run=    151 maximum allowed number of steps=    174.
 GradGradGradGradGradGradGradGradGradGradGradGradGradGradGradGradGradGrad

                          Input orientation:                          
 ---------------------------------------------------------------------
 Center     Atomic      Atomic             Coordinates (Angstroms)
 Number     Number       Type             X           Y           Z
 ---------------------------------------------------------------------
      1          6           0       -1.205790    2.217560    0.603840
      2          6           0        0.020400    1.624950   -0.084450
      3          6           0        1.297260    2.372310    0.316620
      4          7           0        2.460530    1.808160   -0.345340
      5          6           0        3.712050    2.308310   -0.147410
      6          8           0        3.875590    3.242280    0.627290
      7          7           0        4.779830    1.732420   -0.776980
      8          6           0        6.565030    2.258290   -0.571520
      9          6           0        7.704870    1.482610   -0.977630
     10          6           0        6.776760    3.519450    0.015610
     11          6           0        8.057480    4.047590    0.158910
     12          6           0        9.160010    3.322770   -0.275910
     13          6           0        8.989050    2.056750   -0.831850
     14          1           0       -2.113230    1.657020    0.295140
     15          1           0       -1.331690    3.283470    0.317210
     16          1           0       -0.117630    1.691120   -1.185680
     17          1           0        0.112590    0.554300    0.200960
     18          1           0        1.431890    2.301420    1.418630
     19          1           0        1.198790    3.443310    0.031960
     20          1           0        2.336370    1.008720   -0.986440
     21          1           0        5.931180    4.113610    0.340780
     22          9           0        8.227810    5.273940    0.711770
     23          7           0        7.617450    0.128640   -1.449890
     24          1           0       10.155360    3.734160   -0.166100
     25          8           0        8.588510   -0.418070   -1.880580
     26          8           0        6.653330   -0.533720   -1.214170
     27          1           0       -1.101660    2.146140    1.707510
     28          1           0        4.604040    0.854210   -1.289890
     29          1           0        9.877080    1.510650   -1.123630
 ---------------------------------------------------------------------
                    Distance matrix (angstroms):
                    1          2          3          4          5
     1  C    0.000000
     2  C    1.525933   0.000000
     3  C    2.524223   1.532898   0.000000
     4  N    3.809259   2.460866   1.452465   0.000000
     5  C    4.975717   3.754893   2.459803   1.362215   0.000000
     6  O    5.183727   4.240851   2.738823   2.237209   1.224420
     7  N    6.161954   4.810751   3.705903   2.360339   1.366807
     8  C    7.859311   6.593219   5.343332   4.135299   2.884764
     9  C    9.079706   7.737513   6.597281   5.292341   4.160968
    10  C    8.109380   7.017659   5.606376   4.657106   3.299376
    11  C    9.452785   8.397801   6.966492   6.049394   4.690596
    12  C   10.461609   9.297942   7.942122   6.868908   5.543096
    13  C   10.296690   9.010091   7.783456   6.551341   5.327145
    14  H    1.110382   2.167370   3.484759   4.620859   5.878258
    15  H    1.110933   2.177192   2.782371   4.122674   5.158112
    16  H    2.159540   1.111818   2.173209   2.714181   4.015642
    17  H    2.160294   1.111867   2.173012   2.717247   4.019207
    18  H    2.761932   2.170061   1.112464   2.100713   2.766163
    19  H    2.758897   2.169928   1.112551   2.099538   2.763490
    20  H    4.066593   2.560672   2.153391   1.032245   2.070121
    21  H    7.389218   6.427408   4.950346   4.222709   2.902064
    22  F    9.916951   9.017243   7.523837   6.811067   5.470397
    23  N    9.296825   7.862477   6.935374   5.534857   4.658279
    24  H   11.487759  10.352432   8.975165   7.934230   6.599215
    25  O   10.442567   8.989579   8.110255   6.698149   5.849520
    26  O    8.522938   7.066250   6.282978   4.880455   4.226847
    27  H    1.110870   2.177562   2.782183   4.125242   5.161282
    28  H    6.260915   4.801758   3.977474   2.529196   2.053123
    29  H   11.238945   9.911968   8.742430   7.463207   6.292604
                    6          7          8          9         10
     6  O    0.000000
     7  N    2.251511   0.000000
     8  C    3.104588   1.872349   0.000000
     9  C    4.509500   2.942537   1.437303   0.000000
    10  C    2.977879   2.794531   1.407152   2.448802   0.000000
    11  C    4.284403   4.120545   2.441829   2.827575   1.392735
    12  C    5.361655   4.686818   2.820359   2.448680   2.409055
    13  C    5.448123   4.222053   2.446275   1.414216   2.784225
    14  H    6.203978   6.976346   8.742129   9.901790   9.087283
    15  H    5.216667   6.399507   8.012429   9.304790   8.117488
    16  H    4.651748   4.914657   6.734747   7.828044   7.233153
    17  H    4.644046   4.911971   6.718206   7.739092   7.296412
    18  H    2.735527   4.043905   5.505605   6.764820   5.658595
    19  H    2.749562   4.050355   5.528561   6.869694   5.578514
    20  H    3.156282   2.556973   4.428899   5.389382   5.198551
    21  H    2.250945   2.871421   2.162468   3.436036   1.083405
    22  F    4.803811   5.162103   3.675026   4.183506   2.380844
    23  N    5.292537   3.328214   2.532692   1.436630   3.788409
    24  H    6.348773   5.768575   3.902951   3.425341   3.390289
    25  O    6.472958   4.510940   3.601529   2.282263   4.730966
    26  O    5.036367   2.972630   2.866377   2.286323   4.237426
    27  H    5.209742   6.398107   7.999043   9.230667   8.174228
    28  H    3.147872   1.032101   2.516541   3.179236   3.678117
    29  H    6.487075   5.113835   3.439981   2.177292   3.865893
                   11         12         13         14         15
    11  C    0.000000
    12  C    1.389246   0.000000
    13  C    2.410990   1.393235   0.000000
    14  H   10.448767  11.409941  11.166491   0.000000
    15  H    9.421542  10.508525  10.456713   1.804614   0.000000
    16  H    8.613553   9.463856   9.120883   2.485238   2.503637
    17  H    8.679062   9.473523   9.061766   2.485787   3.089956
    18  H    6.966667   7.977372   7.888928   3.774302   3.132878
    19  H    6.886429   7.968082   7.959703   3.772211   2.551518
    20  H    6.578576   7.240286   6.736499   4.675648   4.508731
    21  H    2.135085   3.380988   3.867338   8.411269   7.310196
    22  F    1.355950   2.377304   3.648638  10.963248   9.772497
    23  N    4.259112   3.736333   2.445581  10.003360   9.652083
    24  H    2.145919   1.082599   2.148769  12.451729  11.506043
    25  O    4.937978   4.110409   2.717536  11.116069  10.813975
    26  O    4.984515   4.694283   3.508887   9.161328   8.982016
    27  H    9.481747  10.517618  10.405708   1.804800   1.810902
    28  H    4.921681   5.280038   4.569925   6.948276   6.611881
    29  H    3.375191   2.125229   1.082570  12.074844  11.439206
                   16         17         18         19         20
    16  H    0.000000
    17  H    1.807797   0.000000
    18  H    3.091263   2.505135   0.000000
    19  H    2.507146   3.091079   1.811381   0.000000
    20  H    2.554894   2.561565   2.876373   2.873753   0.000000
    21  H    6.692282   6.822333   4.968843   4.789592   4.931989
    22  F    9.278108   9.401740   7.451178   7.295236   7.468941
    23  N    7.895734   7.696065   7.156153   7.374423   5.373931
    24  H   10.523682  10.540563   8.981261   8.963480   8.320913
    25  O    8.984901   8.781773   8.336523   8.554299   6.474911
    26  O    7.127175   6.779945   6.498699   6.864518   4.589894
    27  H    3.089645   2.505604   2.554690   3.127649   4.513440
    28  H    4.796399   4.741909   4.415092   4.477327   2.293095
    29  H    9.996532   9.900223   8.854922   8.965672   7.558642
                   21         22         23         24         25
    21  H    0.000000
    22  F    2.599713   0.000000
    23  N    4.682947   5.614216   0.000000
    24  H    4.271371   2.618593   4.592263   0.000000
    25  O    5.703680   6.264931   1.194715   4.757675   0.000000
    26  O    4.953488   6.318002   1.193236   5.619383   2.049975
    27  H    7.429652   9.890078   9.490119  11.521837  10.646547
    28  H    3.878669   6.055771   3.103658   6.354067   4.224170
    29  H    4.948740   4.500126   2.668768   2.436863   2.439948
                   26         27         28         29
    26  O    0.000000
    27  H    8.709635   0.000000
    28  H    2.476221   6.573317   0.000000
    29  H    3.818404  11.355700   5.316343   0.000000
 Stoichiometry    C10H12FN3O3
 Framework group  C1[X(C10H12FN3O3)]
 Deg. of freedom    81
 Full point group                 C1      NOp   1
 Largest Abelian subgroup         C1      NOp   1
 Largest concise Abelian subgroup C1      NOp   1
                         Standard orientation:                         
 ---------------------------------------------------------------------
 Center     Atomic      Atomic             Coordinates (Angstroms)
 Number     Number       Type             X           Y           Z
 ---------------------------------------------------------------------
      1          6           0       -6.573825    0.230520    0.127599
      2          6           0       -5.285645   -0.543973   -0.135508
      3          6           0       -4.052674    0.342567    0.073310
      4          7           0       -2.829615   -0.397506   -0.183733
      5          6           0       -1.602107    0.181213   -0.065673
      6          8           0       -1.514899    1.349251    0.291099
      7          7           0       -0.477693   -0.560080   -0.298782
      8          6           0        1.279583    0.062854   -0.126657
      9          6           0        2.448227   -0.771907   -0.069334
     10          6           0        1.439576    1.459513   -0.064831
     11          6           0        2.702539    2.043462   -0.004530
     12          6           0        3.837930    1.242936    0.002541
     13          6           0        3.714906   -0.144593   -0.024520
     14          1           0       -7.447784   -0.435848   -0.030823
     15          1           0       -6.654057    1.093400   -0.567507
     16          1           0       -5.298969   -0.920249   -1.181633
     17          1           0       -5.238830   -1.412802    0.556730
     18          1           0       -4.042872    0.714699    1.121641
     19          1           0       -4.105809    1.211804   -0.619056
     20          1           0       -2.890997   -1.388131   -0.467323
     21          1           0        0.570183    2.105372   -0.092917
     22          9           0        2.824803    3.393302    0.035281
     23          7           0        2.397805   -2.204640    0.023613
     24          1           0        4.819665    1.697012    0.047615
     25          8           0        3.404244   -2.844194   -0.049838
     26          8           0        1.405473   -2.752624    0.396176
     27          1           0       -6.594521    0.601810    1.174378
     28          1           0       -0.605650   -1.574453   -0.439870
     29          1           0        4.623328   -0.731767    0.019670
 ---------------------------------------------------------------------
 Rotational constants (GHZ):      0.7100697      0.2002350      0.1573586
 General basis read from cards:  (6D, 7F)
 There are   347 symmetry adapted cartesian basis functions of A   symmetry.
 There are   347 symmetry adapted basis functions of A   symmetry.
   347 basis functions,   592 primitive gaussians,   347 cartesian basis functions
    63 alpha electrons       63 beta electrons
       nuclear repulsion energy      1149.2346918037 Hartrees.
 NAtoms=   29 NActive=   29 NUniq=   29 SFac= 1.00D+00 NAtFMM=   60 NAOKFM=F Big=F
 Integral buffers will be    131072 words long.
 Raffenetti 2 integral format.
 Two-electron integral symmetry is turned on.
 One-electron integrals computed using PRISM.
 NBasis=   347 RedAO= T EigKep=  1.38D-06  NBF=   347
 NBsUse=   347 1.00D-06 EigRej= -1.00D+00 NBFU=   347
 ExpMin= 4.38D-02 ExpMax= 7.00D+03 ExpMxC= 1.05D+03 IAcc=3 IRadAn=         5 AccDes= 0.00D+00
 Harris functional with IExCor= 1009 and IRadAn=       5 diagonalized for initial guess.
 HarFok:  IExCor= 1009 AccDes= 0.00D+00 IRadAn=         5 IDoV= 1 UseB2=F ITyADJ=14
 ICtDFT=  3500011 ScaDFX=  1.000000  1.000000  1.000000  1.000000
 FoFCou: FMM=F IPFlag=           0 FMFlag=      100000 FMFlg1=           0
         NFxFlg=           0 DoJE=T BraDBF=F KetDBF=T FulRan=T
         wScrn=  0.000000 ICntrl=     500 IOpCl=  0 I1Cent=   200000004 NGrid=           0
         NMat0=    1 NMatS0=      1 NMatT0=    0 NMatD0=    1 NMtDS0=    0 NMtDT0=    0
 Petite list used in FoFCou.
 Requested convergence on RMS density matrix=1.00D-08 within 128 cycles.
 Requested convergence on MAX density matrix=1.00D-06.
 Requested convergence on             energy=1.00D-06.
 No special actions if energy rises.
 SCF Done:  E(RM062X) =  -877.557236723     A.U. after   17 cycles
            NFock= 17  Conv=0.62D-08     -V/T= 2.0090

 **********************************************************************

            Population analysis using the SCF density.

 **********************************************************************

 Orbital symmetries:
       Occupied  (A) (A) (A) (A) (A) (A) (A) (A) (A) (A) (A) (A)
                 (A) (A) (A) (A) (A) (A) (A) (A) (A) (A) (A) (A)
                 (A) (A) (A) (A) (A) (A) (A) (A) (A) (A) (A) (A)
                 (A) (A) (A) (A) (A) (A) (A) (A) (A) (A) (A) (A)
                 (A) (A) (A) (A) (A) (A) (A) (A) (A) (A) (A) (A)
                 (A) (A) (A)
       Virtual   (A) (A) (A) (A) (A) (A) (A) (A) (A) (A) (A) (A)
                 (A) (A) (A) (A) (A) (A) (A) (A) (A) (A) (A) (A)
                 (A) (A) (A) (A) (A) (A) (A) (A) (A) (A) (A) (A)
                 (A) (A) (A) (A) (A) (A) (A) (A) (A) (A) (A) (A)
                 (A) (A) (A) (A) (A) (A) (A) (A) (A) (A) (A) (A)
                 (A) (A) (A) (A) (A) (A) (A) (A) (A) (A) (A) (A)
                 (A) (A) (A) (A) (A) (A) (A) (A) (A) (A) (A) (A)
                 (A) (A) (A) (A) (A) (A) (A) (A) (A) (A) (A) (A)
                 (A) (A) (A) (A) (A) (A) (A) (A) (A) (A) (A) (A)
                 (A) (A) (A) (A) (A) (A) (A) (A) (A) (A) (A) (A)
                 (A) (A) (A) (A) (A) (A) (A) (A) (A) (A) (A) (A)
                 (A) (A) (A) (A) (A) (A) (A) (A) (A) (A) (A) (A)
                 (A) (A) (A) (A) (A) (A) (A) (A) (A) (A) (A) (A)
                 (A) (A) (A) (A) (A) (A) (A) (A) (A) (A) (A) (A)
                 (A) (A) (A) (A) (A) (A) (A) (A) (A) (A) (A) (A)
                 (A) (A) (A) (A) (A) (A) (A) (A) (A) (A) (A) (A)
                 (A) (A) (A) (A) (A) (A) (A) (A) (A) (A) (A) (A)
                 (A) (A) (A) (A) (A) (A) (A) (A) (A) (A) (A) (A)
                 (A) (A) (A) (A) (A) (A) (A) (A) (A) (A) (A) (A)
                 (A) (A) (A) (A) (A) (A) (A) (A) (A) (A) (A) (A)
                 (A) (A) (A) (A) (A) (A) (A) (A) (A) (A) (A) (A)
                 (A) (A) (A) (A) (A) (A) (A) (A) (A) (A) (A) (A)
                 (A) (A) (A) (A) (A) (A) (A) (A) (A) (A) (A) (A)
                 (A) (A) (A) (A) (A) (A) (A) (A)
 The electronic state is 1-A.
 Alpha  occ. eigenvalues --  -25.31198 -19.69353 -19.69222 -19.59776 -15.03651
 Alpha  occ. eigenvalues --  -14.81800 -14.79286 -10.69382 -10.68961 -10.68196
 Alpha  occ. eigenvalues --  -10.66058 -10.62002 -10.60411 -10.60280 -10.59104
 Alpha  occ. eigenvalues --  -10.56406 -10.55258  -1.41704  -1.40065  -1.20635
 Alpha  occ. eigenvalues --   -1.17040  -1.03690  -1.02964  -0.98714  -0.94649
 Alpha  occ. eigenvalues --   -0.89718  -0.88584  -0.82634  -0.78098  -0.74823
 Alpha  occ. eigenvalues --   -0.71404  -0.69013  -0.67801  -0.66531  -0.66021
 Alpha  occ. eigenvalues --   -0.65212  -0.63407  -0.62642  -0.59794  -0.59411
 Alpha  occ. eigenvalues --   -0.56791  -0.56378  -0.55153  -0.53337  -0.52150
 Alpha  occ. eigenvalues --   -0.51626  -0.50664  -0.49620  -0.48053  -0.47169
 Alpha  occ. eigenvalues --   -0.46150  -0.45005  -0.43074  -0.41989  -0.40934
 Alpha  occ. eigenvalues --   -0.40920  -0.39467  -0.38805  -0.36806  -0.35155
 Alpha  occ. eigenvalues --   -0.33763  -0.32463  -0.31390
 Alpha virt. eigenvalues --   -0.07313  -0.02587  -0.02344   0.00702   0.01375
 Alpha virt. eigenvalues --    0.02092   0.02702   0.02999   0.03292   0.04048
 Alpha virt. eigenvalues --    0.04445   0.05059   0.05680   0.06210   0.06801
 Alpha virt. eigenvalues --    0.07208   0.07271   0.07803   0.08602   0.09137
 Alpha virt. eigenvalues --    0.09325   0.09676   0.10168   0.10610   0.11051
 Alpha virt. eigenvalues --    0.12339   0.12522   0.13141   0.13191   0.13851
 Alpha virt. eigenvalues --    0.14663   0.14756   0.15367   0.15906   0.16226
 Alpha virt. eigenvalues --    0.17027   0.17298   0.18632   0.18893   0.19125
 Alpha virt. eigenvalues --    0.19285   0.19500   0.20112   0.20560   0.20991
 Alpha virt. eigenvalues --    0.21430   0.21791   0.22241   0.22501   0.22902
 Alpha virt. eigenvalues --    0.23174   0.23560   0.24334   0.24647   0.24995
 Alpha virt. eigenvalues --    0.25421   0.25578   0.26130   0.26817   0.27738
 Alpha virt. eigenvalues --    0.28332   0.28803   0.29183   0.29367   0.29545
 Alpha virt. eigenvalues --    0.29847   0.30243   0.31180   0.31345   0.31650
 Alpha virt. eigenvalues --    0.31911   0.32682   0.33075   0.33772   0.34246
 Alpha virt. eigenvalues --    0.34977   0.35042   0.35886   0.36706   0.36776
 Alpha virt. eigenvalues --    0.37207   0.38068   0.38854   0.39349   0.39782
 Alpha virt. eigenvalues --    0.40177   0.41541   0.42513   0.43618   0.44513
 Alpha virt. eigenvalues --    0.46039   0.46851   0.47474   0.47996   0.49558
 Alpha virt. eigenvalues --    0.50762   0.52250   0.53986   0.54877   0.57217
 Alpha virt. eigenvalues --    0.62802   0.64125   0.66284   0.67774   0.68451
 Alpha virt. eigenvalues --    0.68696   0.70826   0.73202   0.73749   0.73904
 Alpha virt. eigenvalues --    0.74880   0.75760   0.77199   0.77392   0.78313
 Alpha virt. eigenvalues --    0.79736   0.80835   0.82606   0.83122   0.85050
 Alpha virt. eigenvalues --    0.86332   0.86484   0.88703   0.89283   0.91619
 Alpha virt. eigenvalues --    0.92926   0.94955   0.96485   0.97229   0.99226
 Alpha virt. eigenvalues --    1.00033   1.01002   1.03214   1.04056   1.04365
 Alpha virt. eigenvalues --    1.05740   1.06106   1.08957   1.09425   1.10099
 Alpha virt. eigenvalues --    1.10147   1.10586   1.11756   1.12403   1.13568
 Alpha virt. eigenvalues --    1.14764   1.15358   1.16318   1.16646   1.20034
 Alpha virt. eigenvalues --    1.21074   1.21745   1.22454   1.23505   1.25350
 Alpha virt. eigenvalues --    1.26880   1.27830   1.29254   1.30692   1.31253
 Alpha virt. eigenvalues --    1.33868   1.35332   1.36194   1.36975   1.37587
 Alpha virt. eigenvalues --    1.38168   1.39222   1.40884   1.41906   1.42800
 Alpha virt. eigenvalues --    1.44333   1.44996   1.46046   1.46164   1.47278
 Alpha virt. eigenvalues --    1.48055   1.49381   1.50574   1.54769   1.56050
 Alpha virt. eigenvalues --    1.56869   1.59225   1.60609   1.61631   1.68173
 Alpha virt. eigenvalues --    1.69352   1.71423   1.72324   1.76114   1.77211
 Alpha virt. eigenvalues --    1.77973   1.79441   1.79902   1.82049   1.83785
 Alpha virt. eigenvalues --    1.85499   1.85694   1.87241   1.87542   1.87766
 Alpha virt. eigenvalues --    1.89634   1.90552   1.91981   1.93783   1.94836
 Alpha virt. eigenvalues --    1.96342   1.97098   1.98982   1.99696   2.00851
 Alpha virt. eigenvalues --    2.01527   2.02375   2.03441   2.03880   2.04230
 Alpha virt. eigenvalues --    2.07670   2.09146   2.11901   2.12900   2.13131
 Alpha virt. eigenvalues --    2.15563   2.18495   2.19615   2.20083   2.20425
 Alpha virt. eigenvalues --    2.23835   2.25304   2.26691   2.27826   2.28261
 Alpha virt. eigenvalues --    2.29514   2.32099   2.34592   2.35354   2.38349
 Alpha virt. eigenvalues --    2.38743   2.40808   2.44469   2.47501   2.52230
 Alpha virt. eigenvalues --    2.53243   2.56793   2.58171   2.60959   2.63818
 Alpha virt. eigenvalues --    2.64720   2.65748   2.68641   2.71008   2.71831
 Alpha virt. eigenvalues --    2.73492   2.74524   2.75969   2.77744   2.81078
 Alpha virt. eigenvalues --    2.85316   2.90712   3.01138   3.03591   3.05727
 Alpha virt. eigenvalues --    3.11366   3.14330   3.21202   3.22773   3.24491
 Alpha virt. eigenvalues --    3.27086   3.41135   4.08118   4.18799   4.23845
 Alpha virt. eigenvalues --    4.26609   4.28036   4.29106   4.30101   4.37591
 Alpha virt. eigenvalues --    4.40191   4.45675   4.48535   4.51446   4.57251
 Alpha virt. eigenvalues --    4.66029   4.73179   4.76011   6.06424
          Condensed to atoms (all electrons):
               1          2          3          4          5          6
     1  C    5.564548   0.014583  -0.027047  -0.000695  -0.038617  -0.001258
     2  C    0.014583   6.129333  -0.386630  -0.089992   0.124520   0.025255
     3  C   -0.027047  -0.386630   6.623115   0.366494  -0.633067  -0.067177
     4  N   -0.000695  -0.089992   0.366494   7.686313   0.275553  -0.195236
     5  C   -0.038617   0.124520  -0.633067   0.275553   5.599103   0.583339
     6  O   -0.001258   0.025255  -0.067177  -0.195236   0.583339   8.383330
     7  N   -0.000554   0.010984  -0.108221  -0.386155   0.177339  -0.104217
     8  C   -0.000831   0.000443  -0.124386  -0.112053   0.100078  -0.215996
     9  C   -0.002969   0.013862  -0.204471  -0.035994  -1.217417  -0.230080
    10  C    0.000795  -0.009698   0.058042  -0.027234   0.148784   0.235965
    11  C   -0.000250  -0.000663   0.011407   0.018618   0.003964   0.200225
    12  C    0.000015  -0.000167  -0.001293  -0.002945  -0.037555  -0.006824
    13  C   -0.000075   0.000927   0.008751   0.011342   0.206252   0.004805
    14  H    0.409293  -0.087109   0.029715   0.000492  -0.001306   0.000008
    15  H    0.414910  -0.063611  -0.008153   0.000429   0.000964  -0.000053
    16  H   -0.035788   0.420339  -0.085723   0.007190   0.005276  -0.000187
    17  H   -0.030611   0.409962  -0.072116   0.006401  -0.001684  -0.000266
    18  H    0.001277  -0.047336   0.396352  -0.058179   0.012034   0.001073
    19  H    0.004804  -0.058019   0.437193  -0.059211  -0.015142   0.000859
    20  H   -0.001732   0.000858  -0.083533   0.230816   0.044641   0.008997
    21  H    0.000010  -0.000155   0.004312   0.001948   0.030112  -0.001753
    22  F    0.000000   0.000002   0.000128   0.000027   0.002081   0.000004
    23  N    0.000111  -0.000620   0.006536   0.002522  -0.030066   0.004824
    24  H    0.000000  -0.000000   0.000004   0.000001   0.000573   0.000006
    25  O    0.000002  -0.000016   0.000657   0.000069   0.015556   0.000032
    26  O   -0.000022   0.000311  -0.001346  -0.006144   0.026853  -0.001924
    27  H    0.413606  -0.062669  -0.008907   0.000767   0.001922  -0.000061
    28  H   -0.000022   0.000121   0.012667   0.030121   0.007778   0.007738
    29  H    0.000000  -0.000000   0.000006  -0.000002   0.000911  -0.000003
               7          8          9         10         11         12
     1  C   -0.000554  -0.000831  -0.002969   0.000795  -0.000250   0.000015
     2  C    0.010984   0.000443   0.013862  -0.009698  -0.000663  -0.000167
     3  C   -0.108221  -0.124386  -0.204471   0.058042   0.011407  -0.001293
     4  N   -0.386155  -0.112053  -0.035994  -0.027234   0.018618  -0.002945
     5  C    0.177339   0.100078  -1.217417   0.148784   0.003964  -0.037555
     6  O   -0.104217  -0.215996  -0.230080   0.235965   0.200225  -0.006824
     7  N    7.527913  -0.279112   0.624372  -0.228068  -0.071850   0.017458
     8  C   -0.279112  31.451361 -16.923977  -0.983280  -1.499760  -2.982525
     9  C    0.624372 -16.923977  37.479028  -5.540732  -3.233362   0.530301
    10  C   -0.228068  -0.983280  -5.540732  18.730224  -1.566626   0.354381
    11  C   -0.071850  -1.499760  -3.233362  -1.566626  10.681456  -0.239981
    12  C    0.017458  -2.982525   0.530301   0.354381  -0.239981   9.182775
    13  C    0.191446  -4.000714  -2.545634  -5.248026   1.423598  -1.061836
    14  H    0.000012  -0.000011  -0.000001   0.000003   0.000000  -0.000000
    15  H    0.000031   0.000003  -0.000003  -0.000010  -0.000001   0.000000
    16  H    0.000316  -0.000160   0.000034   0.000124   0.000011   0.000000
    17  H   -0.000068   0.000312  -0.000019  -0.000245  -0.000019   0.000001
    18  H    0.002317   0.002180  -0.000561   0.000149   0.000078  -0.000026
    19  H   -0.001294  -0.003792  -0.000064   0.002137   0.000470   0.000018
    20  H    0.032320   0.015092  -0.005372   0.003109   0.000176  -0.000075
    21  H   -0.004606  -0.029581  -0.017325   0.283580   0.024427   0.006256
    22  F   -0.000070   0.003525  -0.038099  -0.148424   0.309406  -0.153111
    23  N   -0.082145   0.512448  -0.945616   0.367817  -0.023508   0.079385
    24  H    0.000122   0.006770  -0.008162   0.047309  -0.026857   0.291318
    25  O   -0.011290   0.614491  -0.658990   0.010961  -0.018871   0.141108
    26  O    0.030057  -0.590044   0.092132  -0.138244   0.031135  -0.005452
    27  H    0.000014   0.000040   0.000005  -0.000028  -0.000001   0.000000
    28  H    0.238810  -0.034730  -0.041808  -0.005935   0.019077  -0.003655
    29  H   -0.000299   0.105803   0.072198  -0.003765  -0.020123  -0.078288
              13         14         15         16         17         18
     1  C   -0.000075   0.409293   0.414910  -0.035788  -0.030611   0.001277
     2  C    0.000927  -0.087109  -0.063611   0.420339   0.409962  -0.047336
     3  C    0.008751   0.029715  -0.008153  -0.085723  -0.072116   0.396352
     4  N    0.011342   0.000492   0.000429   0.007190   0.006401  -0.058179
     5  C    0.206252  -0.001306   0.000964   0.005276  -0.001684   0.012034
     6  O    0.004805   0.000008  -0.000053  -0.000187  -0.000266   0.001073
     7  N    0.191446   0.000012   0.000031   0.000316  -0.000068   0.002317
     8  C   -4.000714  -0.000011   0.000003  -0.000160   0.000312   0.002180
     9  C   -2.545634  -0.000001  -0.000003   0.000034  -0.000019  -0.000561
    10  C   -5.248026   0.000003  -0.000010   0.000124  -0.000245   0.000149
    11  C    1.423598   0.000000  -0.000001   0.000011  -0.000019   0.000078
    12  C   -1.061836  -0.000000   0.000000   0.000000   0.000001  -0.000026
    13  C   16.201587   0.000000  -0.000000  -0.000000  -0.000001  -0.000013
    14  H    0.000000   0.492055  -0.024281  -0.003079  -0.003053  -0.000064
    15  H   -0.000000  -0.024281   0.494641  -0.004857   0.003960  -0.000322
    16  H   -0.000000  -0.003079  -0.004857   0.511782  -0.033702   0.003906
    17  H   -0.000001  -0.003053   0.003960  -0.033702   0.510510  -0.005461
    18  H   -0.000013  -0.000064  -0.000322   0.003906  -0.005461   0.495957
    19  H    0.000027  -0.000057   0.002746  -0.005471   0.003971  -0.035882
    20  H   -0.000035  -0.000003   0.000001   0.001032   0.000829   0.002784
    21  H    0.007717  -0.000000   0.000000  -0.000000   0.000000  -0.000001
    22  F    0.018809   0.000000  -0.000000   0.000000  -0.000000   0.000000
    23  N   -0.408959   0.000000   0.000000  -0.000001   0.000002   0.000001
    24  H    0.002789   0.000000   0.000000   0.000000   0.000000   0.000000
    25  O   -0.184929   0.000000   0.000000  -0.000000   0.000000  -0.000000
    26  O    0.536401  -0.000000   0.000000  -0.000000  -0.000000   0.000002
    27  H   -0.000000  -0.024152  -0.028000   0.003965  -0.004850   0.002714
    28  H    0.018630  -0.000000   0.000000   0.000002   0.000002   0.000002
    29  H    0.254950  -0.000000   0.000000  -0.000000  -0.000000  -0.000000
              19         20         21         22         23         24
     1  C    0.004804  -0.001732   0.000010   0.000000   0.000111   0.000000
     2  C   -0.058019   0.000858  -0.000155   0.000002  -0.000620  -0.000000
     3  C    0.437193  -0.083533   0.004312   0.000128   0.006536   0.000004
     4  N   -0.059211   0.230816   0.001948   0.000027   0.002522   0.000001
     5  C   -0.015142   0.044641   0.030112   0.002081  -0.030066   0.000573
     6  O    0.000859   0.008997  -0.001753   0.000004   0.004824   0.000006
     7  N   -0.001294   0.032320  -0.004606  -0.000070  -0.082145   0.000122
     8  C   -0.003792   0.015092  -0.029581   0.003525   0.512448   0.006770
     9  C   -0.000064  -0.005372  -0.017325  -0.038099  -0.945616  -0.008162
    10  C    0.002137   0.003109   0.283580  -0.148424   0.367817   0.047309
    11  C    0.000470   0.000176   0.024427   0.309406  -0.023508  -0.026857
    12  C    0.000018  -0.000075   0.006256  -0.153111   0.079385   0.291318
    13  C    0.000027  -0.000035   0.007717   0.018809  -0.408959   0.002789
    14  H   -0.000057  -0.000003  -0.000000   0.000000   0.000000   0.000000
    15  H    0.002746   0.000001   0.000000  -0.000000   0.000000   0.000000
    16  H   -0.005471   0.001032  -0.000000   0.000000  -0.000001   0.000000
    17  H    0.003971   0.000829   0.000000  -0.000000   0.000002   0.000000
    18  H   -0.035882   0.002784  -0.000001   0.000000   0.000001   0.000000
    19  H    0.500189   0.002702   0.000001   0.000000   0.000000  -0.000000
    20  H    0.002702   0.342096  -0.000002   0.000000   0.000232  -0.000000
    21  H    0.000001  -0.000002   0.380002  -0.003609  -0.000655  -0.000095
    22  F    0.000000   0.000000  -0.003609   9.322279   0.000315  -0.002729
    23  N    0.000000   0.000232  -0.000655   0.000315   7.440795  -0.000325
    24  H   -0.000000  -0.000000  -0.000095  -0.002729  -0.000325   0.446514
    25  O    0.000000  -0.000000   0.000031  -0.000029   0.303139   0.000009
    26  O   -0.000001  -0.000079   0.000077   0.000025   0.187360   0.000028
    27  H   -0.000345   0.000001  -0.000000  -0.000000  -0.000000  -0.000000
    28  H    0.000006   0.002161   0.000045   0.000003  -0.000441  -0.000000
    29  H   -0.000000  -0.000000   0.000005  -0.000318  -0.032484  -0.003479
              25         26         27         28         29
     1  C    0.000002  -0.000022   0.413606  -0.000022   0.000000
     2  C   -0.000016   0.000311  -0.062669   0.000121  -0.000000
     3  C    0.000657  -0.001346  -0.008907   0.012667   0.000006
     4  N    0.000069  -0.006144   0.000767   0.030121  -0.000002
     5  C    0.015556   0.026853   0.001922   0.007778   0.000911
     6  O    0.000032  -0.001924  -0.000061   0.007738  -0.000003
     7  N   -0.011290   0.030057   0.000014   0.238810  -0.000299
     8  C    0.614491  -0.590044   0.000040  -0.034730   0.105803
     9  C   -0.658990   0.092132   0.000005  -0.041808   0.072198
    10  C    0.010961  -0.138244  -0.000028  -0.005935  -0.003765
    11  C   -0.018871   0.031135  -0.000001   0.019077  -0.020123
    12  C    0.141108  -0.005452   0.000000  -0.003655  -0.078288
    13  C   -0.184929   0.536401  -0.000000   0.018630   0.254950
    14  H    0.000000  -0.000000  -0.024152  -0.000000  -0.000000
    15  H    0.000000   0.000000  -0.028000   0.000000   0.000000
    16  H   -0.000000  -0.000000   0.003965   0.000002  -0.000000
    17  H    0.000000  -0.000000  -0.004850   0.000002  -0.000000
    18  H   -0.000000   0.000002   0.002714   0.000002  -0.000000
    19  H    0.000000  -0.000001  -0.000345   0.000006  -0.000000
    20  H   -0.000000  -0.000079   0.000001   0.002161  -0.000000
    21  H    0.000031   0.000077  -0.000000   0.000045   0.000005
    22  F   -0.000029   0.000025  -0.000000   0.000003  -0.000318
    23  N    0.303139   0.187360  -0.000000  -0.000441  -0.032484
    24  H    0.000009   0.000028  -0.000000  -0.000000  -0.003479
    25  O    7.918594  -0.149370  -0.000000   0.000221   0.015556
    26  O   -0.149370   8.019095  -0.000000   0.004442  -0.001778
    27  H   -0.000000  -0.000000   0.493474  -0.000000   0.000000
    28  H    0.000221   0.004442  -0.000000   0.321349   0.000000
    29  H    0.015556  -0.001778   0.000000   0.000000   0.417748
 Mulliken charges:
               1
     1  C   -0.683483
     2  C   -0.344815
     3  C   -0.143310
     4  N   -0.665265
     5  C    0.607219
     6  O   -0.631426
     7  N   -0.575561
     8  C    0.968404
     9  C   -1.161278
    10  C   -0.343066
    11  C   -0.022175
    12  C   -0.029286
    13  C    0.562192
    14  H    0.211536
    15  H    0.211605
    16  H    0.214990
    17  H    0.216144
    18  H    0.227020
    19  H    0.224155
    20  H    0.402986
    21  H    0.319257
    22  F   -0.310217
    23  N   -0.380668
    24  H    0.246205
    25  O    0.003068
    26  O   -0.033512
    27  H    0.212503
    28  H    0.423416
    29  H    0.273360
 Sum of Mulliken charges =  -0.00000
 Mulliken charges with hydrogens summed into heavy atoms:
               1
     1  C   -0.047838
     2  C    0.086319
     3  C    0.307865
     4  N   -0.262278
     5  C    0.607219
     6  O   -0.631426
     7  N   -0.152145
     8  C    0.968404
     9  C   -1.161278
    10  C   -0.023810
    11  C   -0.022175
    12  C    0.216919
    13  C    0.835552
    22  F   -0.310217
    23  N   -0.380668
    25  O    0.003068
    26  O   -0.033512
 Electronic spatial extent (au):  <R**2>=           6497.0771
 Charge=              0.0000 electrons
 Dipole moment (field-independent basis, Debye):
    X=             -0.5839    Y=             -0.2631    Z=             -1.3190  Tot=              1.4663
 Quadrupole moment (field-independent basis, Debye-Ang):
   XX=            -76.3642   YY=           -114.7414   ZZ=           -101.2277
   XY=             14.9135   XZ=              1.8932   YZ=              1.3594
 Traceless Quadrupole moment (field-independent basis, Debye-Ang):
   XX=             21.0803   YY=            -17.2970   ZZ=             -3.7833
   XY=             14.9135   XZ=              1.8932   YZ=              1.3594
 Octapole moment (field-independent basis, Debye-Ang**2):
  XXX=             10.7546  YYY=             19.5590  ZZZ=              4.3757  XYY=            -34.5690
  XXY=             18.6359  XXZ=              1.1136  XZZ=              3.2628  YZZ=             -1.0235
  YYZ=             -8.8150  XYZ=              0.6752
 Hexadecapole moment (field-independent basis, Debye-Ang**3):
 XXXX=          -6180.2322 YYYY=          -1770.3838 ZZZZ=           -142.8736 XXXY=            194.3969
 XXXZ=             32.6306 YYYX=            100.1499 YYYZ=             12.0732 ZZZX=              0.4019
 ZZZY=             -0.7503 XXYY=          -1508.4841 XXZZ=          -1168.9415 YYZZ=           -279.3522
 XXYZ=             -3.7893 YYXZ=              7.2847 ZZXY=             -4.6942
 N-N= 1.149234691804D+03 E-N=-4.346777053509D+03  KE= 8.697078547910D+02
 Calling FoFJK, ICntrl=      2127 FMM=F ISym2X=0 I1Cent= 0 IOpClX= 0 NMat=1 NMatS=1 NMatT=0.
 ***** Axes restored to original set *****
 -------------------------------------------------------------------
 Center     Atomic                   Forces (Hartrees/Bohr)
 Number     Number              X              Y              Z
 -------------------------------------------------------------------
      1        6          -0.005801573    0.001146601    0.001891342
      2        6           0.004456240   -0.004366845   -0.004320788
      3        6          -0.004283630    0.005793199    0.005119218
      4        7           0.003348984   -0.029153547   -0.026581575
      5        6           0.013966204    0.020809552    0.027281165
      6        8          -0.000968065    0.014396896    0.005710649
      7        7           0.080000934   -0.006010982   -0.018043108
      8        6          -0.058523080   -0.019063104   -0.001001927
      9        6          -0.017846302    0.037222675    0.008630432
     10        6          -0.018249097   -0.003472948   -0.005332148
     11        6           0.000837716   -0.006195058   -0.004052012
     12        6           0.003296432    0.000863908    0.001087864
     13        6          -0.013501662    0.002706409    0.002220726
     14        1           0.007254930    0.007187194    0.004716527
     15        1          -0.000391135   -0.009744499    0.004520352
     16        1           0.002501870   -0.003072792    0.008503687
     17        1           0.000227726    0.008031412   -0.004957522
     18        1          -0.000162403    0.003983451   -0.010212888
     19        1           0.002215806   -0.009045170    0.005785901
     20        1          -0.001412686    0.013723170    0.011071040
     21        1          -0.004059572   -0.002755124    0.000475754
     22        9          -0.004481162   -0.019430725   -0.008270239
     23        7           0.011238470   -0.016037457    0.019569418
     24        1           0.001293448    0.000769928    0.000236984
     25        8           0.056209468    0.006056434   -0.029060295
     26        8          -0.069875354   -0.002137923    0.010361975
     27        1          -0.002817344    0.002219175   -0.010121882
     28        1           0.018726061    0.010926152    0.007362492
     29        1          -0.003201224   -0.005349982   -0.002591142
 -------------------------------------------------------------------
 Cartesian Forces:  Max     0.080000934 RMS     0.018027181

 GradGradGradGradGradGradGradGradGradGradGradGradGradGradGradGradGradGrad
 Berny optimization.
 FormGI is forming the generalized inverse of G from B-inverse, IUseBI=4.
 GSVD:  received Info=                   1 from GESDD.
 Internal  Forces:  Max     0.119797916 RMS     0.015656556
 Search for a local minimum.
 Step number   1 out of a maximum of  151
 All quantities printed in internal units (Hartrees-Bohrs-Radians)
 Mixed Optimization -- RFO/linear search
 Second derivative matrix not updated -- first step.
 ITU=  0
     Eigenvalues ---    0.00230   0.00331   0.00423   0.00998   0.01207
     Eigenvalues ---    0.01234   0.01308   0.01474   0.01489   0.01601
     Eigenvalues ---    0.01764   0.02030   0.02057   0.02086   0.02131
     Eigenvalues ---    0.02166   0.02188   0.02192   0.02199   0.02212
     Eigenvalues ---    0.03757   0.04437   0.04934   0.05553   0.05673
     Eigenvalues ---    0.05782   0.08032   0.09182   0.11745   0.11974
     Eigenvalues ---    0.12669   0.15886   0.15992   0.15993   0.15997
     Eigenvalues ---    0.16000   0.16000   0.16000   0.16000   0.21963
     Eigenvalues ---    0.22000   0.22003   0.22037   0.22357   0.23483
     Eigenvalues ---    0.24563   0.24943   0.24987   0.24998   0.24999
     Eigenvalues ---    0.25000   0.25000   0.25000   0.29157   0.29802
     Eigenvalues ---    0.32331   0.32341   0.32403   0.32408   0.32501
     Eigenvalues ---    0.32508   0.32560   0.35586   0.35682   0.35686
     Eigenvalues ---    0.37924   0.38594   0.40051   0.40849   0.42441
     Eigenvalues ---    0.42462   0.43258   0.45716   0.45847   0.47082
     Eigenvalues ---    0.51595   0.52502   0.53775   0.93451   1.07524
     Eigenvalues ---    1.08297
 RFO step:  Lambda=-1.08242507D-01 EMin= 2.30000000D-03
 Linear search not attempted -- first point.
 Maximum step size (   0.300) exceeded in Quadratic search.
    -- Step size scaled by   0.491
 Iteration  1 RMS(Cart)=  0.07882126 RMS(Int)=  0.00521819
 Iteration  2 RMS(Cart)=  0.01347037 RMS(Int)=  0.00018839
 Iteration  3 RMS(Cart)=  0.00000319 RMS(Int)=  0.00018838
 Iteration  4 RMS(Cart)=  0.00000000 RMS(Int)=  0.00018838
 Variable       Old X    -DE/DX   Delta X   Delta X   Delta X     New X
                                 (Linear)    (Quad)   (Total)
    R1        2.88360   0.00217   0.00000   0.00263   0.00263   2.88622
    R2        2.09832  -0.01087   0.00000  -0.01231  -0.01231   2.08601
    R3        2.09936  -0.01047   0.00000  -0.01188  -0.01188   2.08748
    R4        2.09924  -0.01046   0.00000  -0.01187  -0.01187   2.08737
    R5        2.89676  -0.00526   0.00000  -0.00646  -0.00646   2.89029
    R6        2.10103  -0.00892   0.00000  -0.01013  -0.01013   2.09090
    R7        2.10113  -0.00899   0.00000  -0.01021  -0.01021   2.09091
    R8        2.74476  -0.00132   0.00000  -0.00133  -0.00133   2.74343
    R9        2.10225  -0.01039   0.00000  -0.01183  -0.01183   2.09042
   R10        2.10242  -0.01038   0.00000  -0.01182  -0.01182   2.09059
   R11        2.57421   0.00229   0.00000   0.00178   0.00178   2.57599
   R12        1.95066  -0.01733   0.00000  -0.01599  -0.01599   1.93467
   R13        2.31382   0.01447   0.00000   0.00682   0.00682   2.32064
   R14        2.58289   0.00353   0.00000   0.00278   0.00278   2.58567
   R15        3.53823  -0.11980   0.00000  -0.26083  -0.26083   3.27740
   R16        1.95039  -0.01615   0.00000  -0.01489  -0.01489   1.93550
   R17        2.71611  -0.04092   0.00000  -0.04075  -0.04070   2.67541
   R18        2.65913  -0.03034   0.00000  -0.02752  -0.02748   2.63165
   R19        2.67248  -0.01986   0.00000  -0.01849  -0.01849   2.65400
   R20        2.71484   0.01128   0.00000   0.01089   0.01089   2.72573
   R21        2.63189  -0.00591   0.00000  -0.00457  -0.00457   2.62731
   R22        2.04734   0.00180   0.00000   0.00191   0.00191   2.04925
   R23        2.62529  -0.00074   0.00000   0.00038   0.00034   2.62563
   R24        2.56237  -0.02151   0.00000  -0.01636  -0.01636   2.54601
   R25        2.63283  -0.00654   0.00000  -0.00503  -0.00507   2.62776
   R26        2.04582   0.00151   0.00000   0.00159   0.00159   2.04741
   R27        2.04576   0.00077   0.00000   0.00081   0.00081   2.04657
   R28        2.25768   0.05339   0.00000   0.02217   0.02217   2.27985
   R29        2.25489   0.05969   0.00000   0.02462   0.02462   2.27951
    A1        1.91267   0.00345   0.00000   0.00657   0.00656   1.91922
    A2        1.92550   0.00218   0.00000   0.00388   0.00387   1.92937
    A3        1.92607   0.00216   0.00000   0.00383   0.00382   1.92988
    A4        1.89654  -0.00257   0.00000  -0.00445  -0.00447   1.89207
    A5        1.89691  -0.00259   0.00000  -0.00451  -0.00452   1.89238
    A6        1.90567  -0.00280   0.00000  -0.00561  -0.00562   1.90005
    A7        1.94120  -0.00082   0.00000  -0.00061  -0.00061   1.94059
    A8        1.90064   0.00136   0.00000   0.00324   0.00324   1.90388
    A9        1.90160   0.00130   0.00000   0.00308   0.00308   1.90468
   A10        1.91086  -0.00016   0.00000  -0.00071  -0.00072   1.91014
   A11        1.91054  -0.00014   0.00000  -0.00069  -0.00069   1.90985
   A12        1.89848  -0.00156   0.00000  -0.00438  -0.00439   1.89410
   A13        1.93747  -0.00446   0.00000  -0.00608  -0.00608   1.93139
   A14        1.90596   0.00273   0.00000   0.00518   0.00518   1.91114
   A15        1.90569   0.00254   0.00000   0.00489   0.00489   1.91058
   A16        1.90688   0.00082   0.00000   0.00068   0.00069   1.90757
   A17        1.90517   0.00117   0.00000   0.00154   0.00155   1.90672
   A18        1.90235  -0.00279   0.00000  -0.00627  -0.00628   1.89607
   A19        2.12584  -0.00630   0.00000  -0.00943  -0.00943   2.11641
   A20        2.08006  -0.00026   0.00000  -0.00154  -0.00154   2.07852
   A21        2.07728   0.00656   0.00000   0.01097   0.01097   2.08824
   A22        2.08830   0.01125   0.00000   0.01554   0.01552   2.10381
   A23        2.08991  -0.02782   0.00000  -0.03805  -0.03807   2.05184
   A24        2.10422   0.01668   0.00000   0.02299   0.02297   2.12719
   A25        2.18460  -0.01795   0.00000  -0.02702  -0.02704   2.15756
   A26        2.04245   0.02448   0.00000   0.04171   0.04167   2.08412
   A27        2.04419  -0.00702   0.00000  -0.01618  -0.01618   2.02801
   A28        2.18163  -0.02115   0.00000  -0.02806  -0.02811   2.15352
   A29        2.02748   0.00173   0.00000   0.00333   0.00328   2.03076
   A30        2.07402   0.01942   0.00000   0.02472   0.02482   2.09884
   A31        2.06224   0.00545   0.00000   0.00574   0.00579   2.06803
   A32        2.15706  -0.01068   0.00000  -0.01369  -0.01372   2.14334
   A33        2.06208   0.00531   0.00000   0.00825   0.00822   2.07030
   A34        2.11901  -0.01920   0.00000  -0.02811  -0.02808   2.09093
   A35        2.09360   0.00512   0.00000   0.00589   0.00586   2.09947
   A36        2.07016   0.01411   0.00000   0.02237   0.02235   2.09250
   A37        2.09409   0.00975   0.00000   0.01650   0.01644   2.11053
   A38        2.09489  -0.00721   0.00000  -0.01144  -0.01142   2.08348
   A39        2.09416  -0.00254   0.00000  -0.00503  -0.00500   2.08915
   A40        2.09625  -0.00968   0.00000  -0.01096  -0.01106   2.08519
   A41        2.09399   0.00461   0.00000   0.00507   0.00512   2.09911
   A42        2.09278   0.00509   0.00000   0.00594   0.00598   2.09876
   A43        2.11936  -0.00565   0.00000  -0.00756  -0.00761   2.11176
   A44        2.10865  -0.00403   0.00000  -0.00876  -0.00874   2.09991
   A45        2.05475   0.00971   0.00000   0.01641   0.01643   2.07118
   A46        2.09477  -0.02085   0.00000  -0.02420  -0.02546   2.06930
   A47        2.10294  -0.02407   0.00000  -0.02863  -0.02989   2.07305
   A48        2.06454   0.04885   0.00000   0.07151   0.07024   2.13478
    D1       -3.14128   0.00002   0.00000   0.00006   0.00007  -3.14122
    D2        1.03460  -0.00016   0.00000  -0.00079  -0.00079   1.03381
    D3       -1.03374   0.00018   0.00000   0.00084   0.00084  -1.03290
    D4        1.05441  -0.00033   0.00000  -0.00098  -0.00098   1.05343
    D5       -1.05290  -0.00051   0.00000  -0.00183  -0.00184  -1.05473
    D6       -3.12123  -0.00017   0.00000  -0.00020  -0.00021  -3.12144
    D7       -1.05298   0.00034   0.00000   0.00101   0.00102  -1.05197
    D8        3.12289   0.00015   0.00000   0.00016   0.00016   3.12306
    D9        1.05456   0.00050   0.00000   0.00179   0.00179   1.05635
   D10       -3.13741  -0.00014   0.00000  -0.00040  -0.00040  -3.13781
   D11        1.04229  -0.00011   0.00000  -0.00078  -0.00078   1.04151
   D12       -1.03622   0.00015   0.00000   0.00086   0.00085  -1.03536
   D13       -1.03613   0.00094   0.00000   0.00279   0.00278  -1.03334
   D14       -3.13961   0.00096   0.00000   0.00241   0.00241  -3.13720
   D15        1.06506   0.00123   0.00000   0.00405   0.00404   1.06911
   D16        1.04350  -0.00115   0.00000  -0.00340  -0.00340   1.04009
   D17       -1.05999  -0.00112   0.00000  -0.00378  -0.00378  -1.06377
   D18       -3.13850  -0.00085   0.00000  -0.00214  -0.00215  -3.14064
   D19        3.13933  -0.00005   0.00000  -0.00011  -0.00011   3.13921
   D20        0.00203   0.00007   0.00000   0.00036   0.00035   0.00239
   D21       -1.04092   0.00106   0.00000   0.00293   0.00293  -1.03798
   D22        2.10497   0.00118   0.00000   0.00340   0.00340   2.10837
   D23        1.03783  -0.00115   0.00000  -0.00336  -0.00336   1.03447
   D24       -2.09946  -0.00103   0.00000  -0.00289  -0.00289  -2.10236
   D25        0.02503  -0.00196   0.00000  -0.00733  -0.00731   0.01772
   D26        3.12496   0.00172   0.00000   0.00643   0.00641   3.13137
   D27       -3.12085  -0.00209   0.00000  -0.00783  -0.00781  -3.12867
   D28       -0.02093   0.00159   0.00000   0.00593   0.00592  -0.01501
   D29       -3.10482   0.00115   0.00000   0.00292   0.00302  -3.10181
   D30       -0.13406  -0.00262   0.00000  -0.00867  -0.00879  -0.14285
   D31       -0.00528   0.00472   0.00000   0.01661   0.01673   0.01145
   D32        2.96548   0.00095   0.00000   0.00502   0.00492   2.97041
   D33        2.87920   0.00133   0.00000   0.00524   0.00536   2.88456
   D34       -0.27434   0.00137   0.00000   0.00472   0.00483  -0.26950
   D35       -0.09141   0.00233   0.00000   0.01174   0.01163  -0.07978
   D36        3.03824   0.00237   0.00000   0.01122   0.01110   3.04934
   D37        3.07173   0.00117   0.00000   0.00500   0.00503   3.07676
   D38       -0.13571   0.00281   0.00000   0.01095   0.01095  -0.12475
   D39       -0.05762   0.00125   0.00000   0.00568   0.00573  -0.05189
   D40        3.01812   0.00289   0.00000   0.01164   0.01166   3.02978
   D41       -3.08451  -0.00120   0.00000  -0.00460  -0.00457  -3.08908
   D42        0.02568   0.00047   0.00000   0.00139   0.00138   0.02706
   D43        0.04591  -0.00145   0.00000  -0.00547  -0.00545   0.04046
   D44       -3.12708   0.00022   0.00000   0.00053   0.00049  -3.12658
   D45        0.03169  -0.00112   0.00000  -0.00317  -0.00310   0.02859
   D46        3.14124  -0.00007   0.00000   0.00028   0.00030   3.14154
   D47       -3.04769  -0.00205   0.00000  -0.00795  -0.00793  -3.05562
   D48        0.06185  -0.00100   0.00000  -0.00450  -0.00453   0.05733
   D49        3.02784  -0.01227   0.00000  -0.04844  -0.04849   2.97935
   D50       -0.33584   0.01449   0.00000   0.05836   0.05843  -0.27741
   D51       -0.17960  -0.01062   0.00000  -0.04257  -0.04265  -0.22224
   D52        2.73990   0.01614   0.00000   0.06422   0.06428   2.80418
   D53       -0.00595   0.00045   0.00000   0.00119   0.00116  -0.00479
   D54        3.12542   0.00110   0.00000   0.00361   0.00357   3.12899
   D55       -3.11655  -0.00106   0.00000  -0.00446  -0.00448  -3.12103
   D56        0.01481  -0.00041   0.00000  -0.00204  -0.00206   0.01275
   D57       -0.02166   0.00100   0.00000   0.00309   0.00305  -0.01861
   D58        3.13967   0.00021   0.00000   0.00047   0.00045   3.14012
   D59        3.13016   0.00038   0.00000   0.00071   0.00067   3.13082
   D60        0.00830  -0.00041   0.00000  -0.00192  -0.00193   0.00637
   D61        0.00812  -0.00053   0.00000  -0.00194  -0.00193   0.00619
   D62       -3.10238  -0.00131   0.00000  -0.00485  -0.00484  -3.10722
   D63        3.12999   0.00026   0.00000   0.00068   0.00066   3.13065
   D64        0.01949  -0.00053   0.00000  -0.00224  -0.00225   0.01724
         Item               Value     Threshold  Converged?
 Maximum Force            0.119798     0.000450     NO 
 RMS     Force            0.015657     0.000300     NO 
 Maximum Displacement     0.394123     0.001800     NO 
 RMS     Displacement     0.090649     0.001200     NO 
 Predicted change in Energy=-4.570445D-02
 GradGradGradGradGradGradGradGradGradGradGradGradGradGradGradGradGradGrad

                          Input orientation:                          
 ---------------------------------------------------------------------
 Center     Atomic      Atomic             Coordinates (Angstroms)
 Number     Number       Type             X           Y           Z
 ---------------------------------------------------------------------
      1          6           0       -1.125469    2.190010    0.572065
      2          6           0        0.120835    1.608751   -0.092453
      3          6           0        1.375667    2.383794    0.312524
      4          7           0        2.552069    1.825253   -0.329124
      5          6           0        3.790588    2.354900   -0.119991
      6          8           0        3.940825    3.311237    0.635588
      7          7           0        4.848231    1.761236   -0.753346
      8          6           0        6.494599    2.268957   -0.554433
      9          6           0        7.604765    1.488266   -0.957469
     10          6           0        6.689908    3.521451    0.022178
     11          6           0        7.978169    4.026358    0.157925
     12          6           0        9.080112    3.295800   -0.269281
     13          6           0        8.891981    2.032885   -0.819994
     14          1           0       -2.017722    1.616269    0.266726
     15          1           0       -1.268878    3.243561    0.272551
     16          1           0       -0.000952    1.653274   -1.191284
     17          1           0        0.230341    0.549065    0.206432
     18          1           0        1.500837    2.336077    1.410588
     19          1           0        1.266499    3.443685    0.014867
     20          1           0        2.444065    1.020773   -0.953046
     21          1           0        5.840546    4.113974    0.343823
     22          9           0        8.156165    5.245259    0.703631
     23          7           0        7.475205    0.133329   -1.434818
     24          1           0       10.079291    3.700094   -0.159588
     25          8           0        8.442199   -0.403348   -1.916908
     26          8           0        6.444769   -0.458945   -1.228686
     27          1           0       -1.037915    2.140166    1.672051
     28          1           0        4.704440    0.878707   -1.252843
     29          1           0        9.762089    1.461533   -1.118925
 ---------------------------------------------------------------------
                    Distance matrix (angstroms):
                    1          2          3          4          5
     1  C    0.000000
     2  C    1.527324   0.000000
     3  C    2.522022   1.529477   0.000000
     4  N    3.803877   2.452302   1.451759   0.000000
     5  C    4.967268   3.744941   2.453518   1.363155   0.000000
     6  O    5.189270   4.245095   2.746736   2.251103   1.228028
     7  N    6.133975   4.775804   3.685425   2.335898   1.368278
     8  C    7.703289   6.424497   5.193098   3.973811   2.740037
     9  C    8.890946   7.534719   6.420010   5.102756   4.000047
    10  C    7.947027   6.842827   5.442400   4.485779   3.128435
    11  C    9.296232   8.224671   6.805509   5.875767   4.517393
    12  C   10.299734   9.118446   7.780021   6.691893   5.374630
    13  C   10.114931   8.811482   7.609252   6.362276   5.159255
    14  H    1.103869   2.168523   3.479408   4.613210   5.867844
    15  H    1.104647   2.176496   2.781082   4.119861   5.151893
    16  H    2.159172   1.106455   2.165682   2.700150   4.001965
    17  H    2.159770   1.106462   2.165470   2.702943   4.005366
    18  H    2.760786   2.166227   1.106205   2.095860   2.754267
    19  H    2.757477   2.165882   1.106293   2.095315   2.752211
    20  H    4.053967   2.546318   2.144987   1.023783   2.070508
    21  H    7.230429   6.259519   4.788491   4.062657   2.740765
    22  F    9.772441   8.855759   7.369946   6.645970   5.300075
    23  N    9.068027   7.620077   6.732174   5.321882   4.498950
    24  H   11.329710  10.175907   8.815249   7.759049   6.431089
    25  O   10.220605   8.753416   7.916717   6.494717   5.698625
    26  O    8.219986   6.749706   6.012678   4.602161   4.023880
    27  H    1.104591   2.176828   2.780836   4.122119   5.154801
    28  H    6.248012   4.784235   3.974468   2.526244   2.073072
    29  H   11.042149   9.696860   8.557552   7.262263   6.120033
                    6          7          8          9         10
     6  O    0.000000
     7  N    2.270469   0.000000
     8  C    3.004040   1.734323   0.000000
     9  C    4.391528   2.777528   1.415763   0.000000
    10  C    2.824521   2.663000   1.392611   2.435264   0.000000
    11  C    4.127918   3.969598   2.407674   2.797399   1.390315
    12  C    5.218362   4.527475   2.796533   2.432576   2.418459
    13  C    5.316658   4.053413   2.423571   1.404434   2.788226
    14  H    6.205906   6.942829   8.576707   9.700892   8.916970
    15  H    5.222776   6.377207   7.867994   9.128831   7.967571
    16  H    4.650151   4.870115   6.555671   7.611099   7.051963
    17  H    4.645586   4.869850   6.540480   7.524554   7.113019
    18  H    2.739545   4.027170   5.366886   6.601850   5.500841
    19  H    2.748610   4.031078   5.388610   6.703933   5.423972
    20  H    3.163902   2.523525   4.257192   5.181834   5.023110
    21  H    2.082896   2.779181   2.153773   3.420551   1.084415
    22  F    4.638336   5.020322   3.633442   4.144670   2.363431
    23  N    5.184354   3.164724   2.509497   1.442395   3.770795
    24  H    6.201958   5.610322   3.879958   3.413514   3.398952
    25  O    6.369910   4.353838   3.576409   2.280356   4.715360
    26  O    4.894847   2.775623   2.810436   2.282714   4.179510
    27  H    5.218575   6.377527   7.855736   9.057333   8.021801
    28  H    3.172772   1.024222   2.371759   2.978371   3.542860
    29  H    6.355064   4.936545   3.412781   2.163522   3.870875
                   11         12         13         14         15
    11  C    0.000000
    12  C    1.389424   0.000000
    13  C    2.401106   1.390550   0.000000
    14  H   10.282909  11.236995  10.971607   0.000000
    15  H    9.280830  10.363297  10.290892   1.791335   0.000000
    16  H    8.433165   9.274357   8.908772   2.488880   2.505886
    17  H    8.492512   9.278433   8.847559   2.489246   3.084208
    18  H    6.810437   7.822304   7.726347   3.769191   3.128894
    19  H    6.738434   7.820177   7.799701   3.766828   2.556284
    20  H    6.394850   7.048433   6.528224   4.663690   4.497646
    21  H    2.147479   3.397071   3.872552   8.246021   7.162864
    22  F    1.347293   2.366565   3.630730  10.810571   9.644899
    23  N    4.236210   3.733018   2.448179   9.757562   9.436506
    24  H    2.149878   1.083442   2.150680  12.282582  11.365567
    25  O    4.913506   4.099426   2.709383  10.874606  10.601826
    26  O    4.938820   4.686534   3.516404   8.840618   8.686922
    27  H    9.334885  10.367196  10.238391   1.791488   1.797060
    28  H    4.755552   5.094726   4.365202   6.931129   6.603022
    29  H    3.375061   2.133429   1.083001  11.862037  11.260287
                   16         17         18         19         20
    16  H    0.000000
    17  H    1.796213   0.000000
    18  H    3.080800   2.501513   0.000000
    19  H    2.503358   3.080445   1.797149   0.000000
    20  H    2.536715   2.543122   2.864693   2.862520   0.000000
    21  H    6.521863   6.648448   4.809572   4.634588   4.773453
    22  F    9.112169   9.226058   7.297707   7.154549   7.295132
    23  N    7.632985   7.440067   6.974346   7.183876   5.131475
    24  H   10.337561  10.347212   8.826997   8.818248   8.130500
    25  O    8.720265   8.535238   8.170630   8.367920   6.239773
    26  O    6.783081   6.457149   6.262618   6.602380   4.274480
    27  H    3.083998   2.507612   2.559689   3.123419   4.502040
    28  H    4.769115   4.717596   4.413713   4.472767   2.284591
    29  H    9.765192   9.666613   8.683982   8.797128   7.333162
                   21         22         23         24         25
    21  H    0.000000
    22  F    2.602184   0.000000
    23  N    4.656308   5.582875   0.000000
    24  H    4.288552   2.613636   4.596661   0.000000
    25  O    5.682051   6.233442   1.206446   4.754627   0.000000
    26  O    4.873342   6.261044   1.206266   5.625863   2.113402
    27  H    7.278279   9.752464   9.281878  11.374558  10.450965
    28  H    3.782464   5.899913   2.875037   6.168019   4.006930
    29  H    4.955156   4.496363   2.663410   2.456033   2.420055
                   26         27         28         29
    26  O    0.000000
    27  H    8.435652   0.000000
    28  H    2.195140   6.566653   0.000000
    29  H    3.834697  11.175428   5.092881   0.000000
 Stoichiometry    C10H12FN3O3
 Framework group  C1[X(C10H12FN3O3)]
 Deg. of freedom    81
 Full point group                 C1      NOp   1
 Largest Abelian subgroup         C1      NOp   1
 Largest concise Abelian subgroup C1      NOp   1
                         Standard orientation:                         
 ---------------------------------------------------------------------
 Center     Atomic      Atomic             Coordinates (Angstroms)
 Number     Number       Type             X           Y           Z
 ---------------------------------------------------------------------
      1          6           0       -6.463467    0.217197    0.108155
      2          6           0       -5.160608   -0.544132   -0.127764
      3          6           0       -3.946091    0.364755    0.067615
      4          7           0       -2.714862   -0.368682   -0.164220
      5          6           0       -1.498775    0.236643   -0.050618
      6          8           0       -1.417931    1.419160    0.270583
      7          7           0       -0.387062   -0.529163   -0.273822
      8          6           0        1.235031    0.064003   -0.116201
      9          6           0        2.370020   -0.779622   -0.049256
     10          6           0        1.385660    1.447720   -0.071437
     11          6           0        2.658963    2.002527   -0.009276
     12          6           0        3.789329    1.194940    0.014716
     13          6           0        3.642759   -0.187768   -0.001528
     14          1           0       -7.325491   -0.456761   -0.037522
     15          1           0       -6.554725    1.058680   -0.601651
     16          1           0       -5.157948   -0.945855   -1.158712
     17          1           0       -5.103069   -1.392485    0.580222
     18          1           0       -3.945358    0.763345    1.099514
     19          1           0       -4.003429    1.213797   -0.639298
     20          1           0       -2.765917   -1.358220   -0.421784
     21          1           0        0.515740    2.094102   -0.108655
     22          9           0        2.795282    3.342609    0.018919
[...]
 76,-0.00008297,-0.00033396,0.00168077,0.00773375,0.00459560,-0.0113001
 1,0.59208364,-0.00005435,-0.00015807,-0.00004858,-0.00003312,0.0003150
 9,0.00013814,0.00071921,-0.00043466,-0.00026744,-0.00322246,-0.0009583
 1,0.00027688,0.00704615,-0.00317443,-0.00273099,-0.00121977,0.00126058
 ,0.00072964,-0.01327360,-0.00204823,-0.00006398,0.01069496,-0.00903465
 ,-0.01570948,0.00585400,-0.02497060,-0.08488313,0.00248731,-0.00511787
 ,0.00437953,0.00602447,-0.00474429,-0.00415515,-0.00078715,0.00654765,
 0.01154128,-0.02167620,-0.01211892,-0.01057760,-0.00011005,-0.00001501
 ,0.00001577,0.00001306,0.00002934,0.00000589,-0.00001104,-0.00003301,-
 0.00006375,0.00001869,-0.00001537,0.00001954,-0.00006017,0.00003245,0.
 00000006,-0.00023113,0.00009738,0.00002526,-0.00004489,0.00058119,0.00
 004513,-0.00019524,-0.00045381,0.00025298,0.00078838,0.00456883,0.0013
 1843,-0.11560781,0.19905361,0.36063569,-0.00000018,-0.00000385,-0.0000
 0078,-0.00000038,0.00000546,-0.00000049,0.00002375,-0.00001531,-0.0000
 0649,-0.00005487,-0.00006787,-0.00002629,0.00000379,0.00034891,0.00020
 809,-0.00028535,-0.00021107,-0.00008648,0.00032912,-0.00005757,-0.0001
 3764,0.00006987,0.00085169,0.00035115,0.00209181,-0.00052994,0.0003650
 5,-0.00136523,0.00308925,0.00242178,-0.01723752,-0.01081771,-0.0032786
 4,-0.32838480,-0.08916466,-0.01121394,-0.00035070,-0.00055326,-0.00002
 006,-0.00000267,-0.00000037,0.00000031,0.,0.00000109,-0.00000027,-0.00
 000100,-0.00000157,-0.00000002,0.00000009,-0.00000030,-0.00000052,0.00
 000217,0.00000172,-0.00000206,-0.00000159,0.00000473,0.00000021,-0.000
 00513,-0.00000314,0.00000056,-0.00047049,-0.00055163,-0.00020166,0.001
 92814,0.00005116,-0.00069058,0.00002637,0.00008021,0.00023824,0.343240
 91,0.00000053,0.00000276,0.00000068,-0.00000064,-0.00000506,-0.0000020
 1,-0.00002038,0.00001028,-0.00000286,0.00005941,0.00008996,0.00000158,
 -0.00006417,-0.00026988,-0.00012893,0.00023902,0.00015579,0.00009894,0
 .00002841,0.00016714,0.00040820,0.00009757,-0.00120106,-0.00025249,0.0
 0031819,-0.00174276,-0.00499053,0.00231518,-0.00130516,-0.00345823,0.0
 1747832,0.00975786,0.00117716,-0.09019888,-0.08122577,-0.01541365,-0.0
 2612433,-0.00410985,0.00003976,0.00000191,0.00000019,-0.00000039,0.000
 00012,-0.00000107,0.00000042,0.00000145,0.00000155,0.00000195,-0.00000
 014,-0.00000068,-0.00000008,0.00000126,0.00000182,0.00000375,0.0000018
 6,-0.00000502,0.00000201,0.00000904,-0.00000165,-0.00000913,0.00060725
 ,0.00056755,0.00002909,-0.00118483,0.00052635,0.00249366,-0.00164629,0
 .00066918,-0.00025964,0.09743075,0.07909081,0.00000089,0.00000189,0.00
 000133,-0.00000206,-0.00000276,0.00000236,-0.00000998,-0.00000172,0.00
 002405,0.00004875,0.00003609,0.00006405,-0.00006783,-0.00013718,-0.000
 12750,0.00012674,0.00013543,-0.00002171,-0.00009003,0.00039959,-0.0003
 5304,-0.00002804,-0.00034400,-0.00094422,0.00080304,-0.00485154,0.0045
 3058,0.00199823,-0.00355189,0.00228181,0.01222437,0.00473241,0.0046146
 1,-0.01180527,-0.01555176,-0.03911461,-0.01396576,-0.00317317,0.001908
 90,0.00000150,0.00000023,0.00000009,-0.00000113,0.00000078,-0.00000068
 ,0.00000063,-0.00000042,-0.00000092,0.00000065,0.00000283,-0.00000115,
 -0.00000652,-0.00000447,-0.00000357,0.00000330,0.00000170,-0.00000619,
 0.00001547,-0.00001964,0.00002090,0.00046287,0.00015545,0.00041552,-0.
 00137068,0.00234659,-0.00231131,-0.00070524,-0.00051316,0.00136150,0.0
 1279840,0.01787854,0.03194649,0.00000577,-0.00010907,-0.00002916,-0.00
 005261,0.00018006,0.00002554,0.00081555,-0.00031603,-0.00024221,-0.001
 55467,-0.00001903,0.00020422,0.00512324,-0.00227812,-0.00190849,-0.001
 01573,0.00239468,0.00155277,-0.00397478,0.00615737,0.00359353,-0.00010
 746,-0.00357381,-0.00123922,0.00583221,0.02990283,0.01823934,0.0013892
 9,-0.00019198,-0.00047591,0.00115377,-0.00246937,-0.00149848,0.0022183
 5,0.00365892,0.00164668,-0.01306803,-0.01063384,-0.00391901,-0.0000933
 6,-0.00002100,0.00000785,-0.00000195,0.00003978,-0.00000596,0.00002441
 ,-0.00002217,0.00003643,0.00003158,0.00000072,-0.00003811,-0.00008456,
 0.00007013,0.00003440,-0.00020867,0.00011887,0.00000383,0.00057528,-0.
 00008935,0.00003434,-0.00023770,0.00001833,0.00000732,0.00082759,0.001
 16216,0.00055119,-0.40450247,0.17879867,0.14509351,-0.00001767,0.00018
 031,0.00008920,0.52939727,0.00003142,0.00011691,0.00003483,0.00002765,
 -0.00023208,-0.00006917,-0.00062151,0.00028182,0.00031778,0.00229476,0
 .00064595,-0.00027676,-0.00482802,0.00168974,0.00172428,0.00112722,-0.
 00074089,-0.00062179,0.00641280,-0.00025469,-0.00036614,-0.01257056,-0
 .00112186,-0.00206292,0.03497605,-0.03897575,-0.03627285,0.00127502,-0
 .00165370,-0.00028548,-0.00015399,0.00234352,0.00142608,0.00205802,-0.
 00318397,-0.00166303,0.00397677,-0.00143295,-0.00271486,0.00009105,0.0
 0001519,-0.00001054,-0.00001198,-0.00002280,-0.00000453,0.00000449,0.0
 0002273,0.00002850,-0.00001911,0.00001624,-0.00000920,0.00003821,-0.00
 003519,-0.00000084,0.00018515,-0.00008740,-0.00002355,-0.00010551,-0.0
 0027603,-0.00005262,-0.00057078,-0.00055736,-0.00006585,-0.00082024,-0
 .00269482,-0.00148634,0.18373210,-0.24610079,-0.11761302,-0.00008840,-
 0.00010138,-0.00003254,-0.21865180,0.25462642,0.00001707,0.00008403,0.
 00002377,0.00002178,-0.00015401,-0.00005534,-0.00046284,0.00022101,0.0
 0018391,0.00148858,0.00032509,-0.00009831,-0.00351152,0.00155639,0.000
 62422,0.00080416,-0.00086726,-0.00041507,0.00402662,-0.00059985,-0.001
 55352,-0.00624398,-0.00314527,0.00442021,0.02110826,-0.03554542,-0.004
 91768,0.00035531,-0.00013003,-0.00147837,-0.00026122,0.00173849,0.0007
 6081,0.00077650,-0.00194686,-0.00173361,0.00424777,-0.00060814,0.00134
 970,0.00006269,0.00001164,-0.00000847,-0.00000513,-0.00002174,-0.00000
 055,-0.00000143,0.00001827,0.00001372,-0.00001367,0.00000643,0.0000037
 1,0.00003179,-0.00003356,-0.00001104,0.00013251,-0.00006462,-0.0000148
 4,-0.00015387,-0.00016143,-0.00000356,-0.00030873,-0.00017577,-0.00030
 135,-0.00054045,-0.00175967,-0.00068867,0.14762904,-0.11696993,-0.1665
 9366,-0.00005105,-0.00006164,-0.00006203,-0.19221732,0.15548793,0.1437
 0166,0.00006174,-0.00001064,0.00000597,-0.00006490,-0.00005582,-0.0000
 9328,0.00051159,-0.00025393,0.00007491,0.00107134,0.00108010,-0.000099
 20,0.00183850,0.00142684,0.00050460,-0.00103369,0.00309377,0.00204345,
 0.00673960,0.01922319,0.01017222,-0.02519990,-0.00302780,0.00153072,-0
 .02279973,-0.04153268,-0.01721500,0.00445832,0.00348808,0.00117342,-0.
 00821760,0.00384287,0.00319620,0.00375841,-0.00765876,-0.00482969,0.00
 869262,0.00338484,0.00130355,-0.00002829,-0.00001688,-0.00000323,-0.00
 001941,0.00003477,-0.00001778,0.00005327,0.00000113,0.00011556,0.00002
 627,0.00002730,-0.00007826,-0.00005337,0.00008560,0.00005533,-0.000018
 64,0.00009040,-0.00004683,0.00093479,-0.00067656,-0.00008848,-0.000627
 19,-0.00021020,-0.00001428,0.00028890,-0.00268666,-0.00149449,-0.46754
 804,-0.14474976,-0.02377122,0.00000820,-0.00024651,-0.00021973,-0.1305
 4645,0.00261393,0.02418599,0.61853508,0.00006347,0.00010202,0.00002617
 ,0.00000929,-0.00023010,-0.00007093,-0.00026923,0.00023804,0.00031158,
 0.00215965,0.00099766,-0.00033930,-0.00649677,-0.00124139,-0.00028212,
 0.00206221,-0.00090499,-0.00062097,0.01594191,-0.00605585,-0.00719244,
 -0.00462848,0.00239724,0.00192560,-0.04577690,-0.01588860,-0.01180091,
 0.00012680,0.00035566,0.00037531,-0.00216613,0.00274311,0.00164416,-0.
 00096247,-0.00323532,-0.00120891,0.00571994,-0.00212704,-0.00423364,0.
 00006210,0.00000137,-0.00000953,-0.00002456,0.00000453,-0.00001228,0.0
 0003101,0.00001390,0.00007795,0.00000370,0.00003534,-0.00006206,-0.000
 02965,-0.00001739,0.00002469,0.00009781,-0.00003283,-0.00003920,0.0002
 5172,-0.00067706,0.00004417,-0.00017058,0.00002946,0.00005292,-0.00032
 233,-0.00222217,-0.00118598,-0.16205442,-0.18889203,-0.03893472,-0.000
 00915,-0.00076454,-0.00003395,0.02468403,0.04384758,0.00584971,0.16860
 317,0.18719990,0.00002425,0.00005122,0.00002724,0.00001276,-0.00009854
 ,-0.00008952,-0.00021994,0.00020852,0.00009713,0.00108259,0.00022571,0
 .00007639,-0.00379606,-0.00120906,0.00061363,0.00121932,-0.00074682,-0
 .00087138,0.00825301,-0.00787352,-0.00163595,0.00082076,0.00156989,0.0
 0084979,-0.01948687,-0.01236412,0.01288747,-0.00054514,0.00001432,-0.0
 0039450,-0.00009821,0.00083543,0.00076073,-0.00114247,-0.00030108,-0.0
 0089888,0.00253318,-0.00393569,0.00189167,0.00003417,0.00000438,-0.000
 00897,-0.00000029,-0.00001555,-0.00000285,0.00001586,0.00002025,0.0000
 4469,-0.00000937,-0.00000508,0.00000453,-0.00000874,-0.00000052,0.0000
 2171,0.00006926,-0.00006248,-0.00000784,0.00008448,-0.00012459,-0.0003
 1062,-0.00000017,0.00004913,0.00001278,-0.00021100,-0.00086305,-0.0004
 1891,-0.03312114,-0.04117969,-0.09418710,-0.00009429,-0.00000309,-0.00
 068922,0.03628294,0.00888659,0.02670196,0.00840907,0.06274587,0.061799
 17,-0.04851240,-0.00270930,-0.00704129,0.00008256,0.00993671,0.0302386
 3,0.00136135,0.00096112,0.00150195,0.00010490,-0.00003734,-0.00037611,
 -0.00003400,0.00005192,-0.00001915,0.00004665,-0.00011548,-0.00009797,
 0.00014276,-0.00002624,-0.00002641,-0.00006054,-0.00002866,-0.00000492
 ,0.00000302,-0.00002139,-0.00001059,0.00001833,0.00002027,0.00000295,-
 0.00002858,-0.00000564,0.00000300,0.00001092,-0.00001171,-0.00000905,0
 .00001273,0.00000628,0.00000160,-0.00012645,-0.00648124,-0.02346520,-0
 .00124905,-0.00334067,-0.00655543,-0.00571396,0.00242709,0.00167571,0.
 00132935,-0.00038432,-0.00055700,-0.00046188,-0.00039628,-0.00060214,-
 0.00002841,-0.00015300,-0.00009183,0.00034099,-0.00006259,-0.00010869,
 -0.00000878,-0.00000310,0.00000323,0.00000537,0.00000363,0.00000095,0.
 00001954,0.00004899,0.00002613,0.00000043,-0.00000079,-0.00000014,0.00
 000345,-0.00001649,-0.00000999,-0.00002034,-0.00002268,-0.00001374,0.0
 5275112,-0.00255503,-0.07943975,-0.08437069,-0.00028651,-0.00529517,-0
 .01303279,-0.00064415,0.00024117,0.00053516,0.00000713,0.00003453,0.00
 027707,-0.00024875,0.00000143,0.00001477,0.00013424,0.00003560,0.00003
 481,0.00016629,-0.00001984,-0.00002119,-0.00009462,-0.00003495,-0.0000
 2304,0.00001422,-0.00001630,-0.00000719,0.00003415,0.00002801,0.000014
 33,-0.00003676,-0.00002179,-0.00000752,0.00001397,-0.00000597,-0.00000
 412,0.00000462,0.00000211,0.00000141,0.00048295,-0.00757759,-0.0221349
 1,0.00029125,0.01010279,0.02485544,0.00286284,-0.00032665,-0.00049062,
 -0.00052719,-0.00012655,-0.00008703,0.00013824,0.00049421,0.00006078,0
 .00010172,-0.00001250,0.00011451,-0.00019074,-0.00005326,-0.00000139,-
 0.00001435,-0.00000145,-0.00000381,0.00001038,0.00001851,0.00001021,-0
 .00004639,0.00002663,0.00001764,0.00000079,0.00000009,-0.00000116,0.00
 003361,-0.00002114,-0.00001500,0.00003010,-0.00000437,0.00000043,0.000
 33933,0.08195726,-0.00623971,-0.08470901,-0.28958686,0.00002237,-0.002
 33613,-0.00692221,-0.00055465,-0.00014165,0.00009727,0.00022522,0.0004
 7748,0.00049566,-0.00019405,-0.00021901,-0.00018897,0.00005147,0.00018
 004,0.00014328,0.00009426,0.00003068,0.00002337,-0.00005350,-0.0000329
 9,-0.00001524,0.00001566,0.00000661,0.00000308,0.00002724,0.00001825,0
 .00000776,-0.00001809,-0.00003463,-0.00001587,0.00000398,0.00000706,0.
 00000385,-0.00000898,-0.00000461,-0.00000112,-0.00041173,0.00021300,-0
 .00093073,-0.00067724,-0.00722582,-0.01774998,0.00147102,-0.00062279,0
 .00129089,0.00025444,-0.00004067,0.00066887,0.00070296,0.00030241,0.00
 007998,0.00007208,-0.00008060,-0.00008584,-0.00029547,-0.00007129,0.00
 003890,-0.00000144,-0.00000484,-0.00000673,0.00000814,0.00003116,0.000
 01704,-0.00006057,-0.00002136,-0.00000700,0.00000049,0.00000029,-0.000
 00083,0.00002643,-0.00000248,-0.00000370,0.00004507,0.00001849,0.00001
 025,0.00551689,0.09426543,0.31264262,0.00000384,0.00007621,0.00000750,
 0.00007177,-0.00014427,0.00000388,-0.00062134,0.00003924,-0.00039082,-
 0.00173459,-0.00184865,0.00010311,0.01449359,0.02570785,0.01062006,-0.
 00572232,0.00270809,0.00306048,-0.08090530,-0.05194326,-0.01839924,0.0
 0129512,-0.03388849,-0.01790100,0.00068750,0.00274378,0.00152387,-0.00
 786891,-0.00124114,0.00070569,0.00322454,-0.00183152,-0.00127025,-0.00
 103794,0.00200766,0.00123722,-0.00191935,-0.00135194,-0.00065108,0.000
 05319,0.00000497,-0.00000517,0.00000564,-0.00002229,0.00000624,-0.0000
 5105,0.00000056,-0.00005408,-0.00002019,-0.00000235,0.00003512,0.00037
 967,-0.00014578,-0.00011052,0.00019599,-0.00012310,0.00000629,-0.00435
 472,0.00067462,-0.00042517,-0.00004015,0.00022997,0.00009583,-0.000813
 16,0.00005493,0.00008704,-0.01702580,-0.00526909,-0.00067601,-0.000017
 43,0.00011664,0.00007632,0.00455346,0.00013817,-0.00034795,0.00744977,
 0.00313919,0.00013218,0.00001008,-0.00002114,-0.00002137,0.08981135,-0
 .00008022,-0.00017818,-0.00003277,-0.00011917,0.00034610,0.00007733,0.
 00093712,-0.00077898,-0.00012905,-0.00349714,-0.00015962,0.00167349,0.
 00482035,-0.00791217,-0.00249216,-0.00127699,0.00445086,0.00006394,-0.
 05167531,-0.34762402,-0.16356995,-0.01461483,-0.00722199,-0.00076709,-
 0.00016998,-0.00428785,-0.00251111,0.00304981,0.00437008,0.00056981,-0
 .00356121,0.00077217,-0.00001339,0.00161655,-0.00219274,-0.00138697,0.
 00217514,0.00065181,0.00059081,-0.00009612,-0.00000005,0.00001204,0.00
 002876,0.00000339,0.00000407,0.00000598,0.00000608,-0.00005677,0.00000
 188,-0.00004198,0.00006821,-0.00009566,0.00013860,0.00011588,-0.000104
 04,0.00005636,-0.00002470,0.00024131,0.00228966,-0.00028801,-0.0000651
 7,-0.00030092,0.00009834,0.00035169,-0.00030402,0.00000796,0.01530424,
 0.01263693,0.00544589,-0.00001103,-0.00009100,-0.00008635,-0.00646881,
 -0.00063423,-0.00030160,-0.00736812,-0.01602920,-0.00563326,0.00002024
 ,0.00001428,-0.00000234,0.06030579,0.36168065,-0.00002670,-0.00005648,
 -0.00005615,0.00001713,0.00009913,0.00017052,0.00051161,0.00024258,-0.
 00113060,-0.00238634,0.00155674,-0.00065462,0.00128731,-0.00653957,-0.
 00833541,0.00106943,-0.00115259,0.00472055,-0.01788413,-0.16018398,-0.
 09225692,-0.00884476,0.00070615,-0.00090395,-0.00012272,-0.00290496,-0
 .00132424,0.00287119,0.00103346,0.00314252,-0.00227280,-0.00030791,0.0
 0183799,0.00108145,-0.00151398,-0.00098899,0.00132339,0.00117398,-0.00
 058246,-0.00004226,-0.00000917,0.00001637,-0.00000615,0.00002497,0.000
 00308,-0.00001947,-0.00002483,-0.00006528,0.00004003,0.00002835,-0.000
 03969,0.00010148,-0.00009174,-0.00003396,-0.00040225,0.00024478,0.0000
 6492,-0.00031095,-0.00078284,0.00238373,-0.00012285,0.00008566,-0.0004
 3160,0.00019864,0.00000789,-0.00045936,0.01061666,0.00824411,0.0017776
 5,0.00000297,-0.00011067,0.00002413,-0.00395680,-0.00127029,0.00156681
 ,-0.00553979,-0.00711906,-0.00652539,0.00001795,-0.00000097,-0.0000066
 5,0.02260767,0.16841756,0.09800977,-0.00000479,-0.00000875,-0.00000176
 ,-0.00000941,0.00001988,0.00000841,0.00000139,-0.00004515,-0.00002946,
 -0.00018733,0.00008595,0.00006645,-0.00001706,-0.00047606,-0.00024161,
 0.00004318,0.00010816,0.00006108,-0.00077768,0.00101368,0.00075181,-0.
 00365041,-0.00345537,-0.00096902,-0.01628026,0.01690754,0.01199568,0.0
 0002240,-0.00039502,-0.00040918,-0.00005760,-0.00238472,-0.00019724,0.
 01173914,-0.00659305,-0.00433153,-0.20808343,0.12175059,0.08800431,-0.
 00000331,0.00000118,0.00000110,0.00000075,-0.00000014,0.00000038,-0.00
 000087,-0.00000088,-0.00000424,0.00000017,-0.00000134,0.00000224,0.000
 00120,0.00000142,0.00000033,-0.00000636,0.00000380,0.00000120,-0.00000
 603,0.00002000,0.00001089,0.00000933,0.00006947,0.00003074,0.00046851,
 -0.00082214,-0.00058681,-0.00424553,0.00342234,0.00197011,0.00047037,0
 .00059973,-0.00037793,0.00351490,-0.00052442,-0.00075893,0.00174911,-0
 .00002266,-0.00022640,0.00000083,-0.00000020,-0.00000094,-0.00010325,0
 .00034495,0.00019103,0.21541205,-0.00000419,-0.00000744,-0.00000218,-0
 .00000570,0.00001805,0.00000492,0.00001635,-0.00003583,-0.00000958,-0.
 00016409,-0.00003396,0.00006753,0.00002443,-0.00007657,-0.00014566,-0.
 00003436,0.00000979,-0.00001734,-0.00075975,0.00046178,0.00003505,-0.0
 0214321,0.00035359,-0.00159144,-0.00577855,0.01019480,0.00346816,-0.00
 088066,-0.00074864,0.00051985,-0.00243949,-0.00084410,-0.00486268,0.01
 813600,-0.00922629,-0.01062518,0.12427479,-0.15315540,-0.07758119,-0.0
 0000485,-0.00000002,0.00000057,0.00000150,-0.00000018,0.00000083,-0.00
 000126,-0.00000054,-0.00000392,0.00000013,-0.00000222,0.00000337,-0.00
 000006,0.00000177,0.00000004,-0.00000247,0.00000212,0.00000062,-0.0000
 1098,0.00003376,-0.00000527,0.00008085,-0.00000063,0.00001613,0.000894
 93,-0.00128790,-0.00047593,-0.00060051,-0.00041461,0.00213499,0.000221
 08,-0.00021645,0.00261414,-0.00255607,-0.00547906,-0.00273720,0.001468
 24,0.00035708,-0.00019563,0.00000134,0.00000068,-0.00000066,-0.0001146
 6,0.00034000,0.00020370,-0.12961880,0.15975641,-0.00000116,-0.00000240
 ,-0.00000056,0.00000153,0.00000351,0.00000555,0.00000660,0.00000237,-0
 .00002408,-0.00008112,0.00001785,-0.00005766,0.00005189,-0.00005515,0.
 00013641,-0.00002158,-0.00003996,0.00001530,-0.00025539,-0.00021633,0.
 00050846,-0.00020890,-0.00142360,0.00301161,-0.00035970,0.00066386,0.0
 0559825,-0.00070276,0.00044425,-0.00115274,-0.00018722,-0.00486206,0.0
 0594521,0.00915783,-0.00740641,0.00074226,0.08934700,-0.07734329,-0.09
 373388,-0.00000144,-0.00000049,0.00000094,0.00000008,0.00000125,-0.000
 00013,-0.00000096,-0.00000144,-0.00000338,0.00000030,0.00000087,-0.000
 00017,0.00000392,-0.00000149,-0.00000086,-0.00000852,0.00000479,0.0000
 0205,-0.00000683,-0.00000292,0.00001777,0.00003884,0.00001441,-0.00004
 133,0.00034608,-0.00025691,-0.00079914,-0.00032298,0.00152023,-0.00323
 552,-0.00057600,0.00255730,-0.00355935,-0.00189887,-0.00300121,-0.0014
 1073,0.00069523,0.00004936,0.00024197,0.00000067,-0.00000056,-0.000001
 12,-0.00005583,0.00015021,0.00007721,-0.09496071,0.08918395,0.08771765
 \\0.00000087,-0.00000168,-0.00000180,0.00000038,-0.00000230,-0.0000002
 5,0.00000525,0.00000283,-0.00000058,-0.00000409,-0.00000531,0.00000210
 ,0.00000611,-0.00000328,-0.00000109,-0.00000212,0.00000163,-0.00000099
 ,-0.00000374,0.00000270,0.00000182,0.00000378,0.00000098,0.00000140,-0
 .00000160,-0.00000285,-0.00000214,-0.00000122,-0.00000241,-0.00000111,
 0.00000149,0.00000407,0.00000473,-0.00000180,0.00000089,0.00000043,0.0
 0000034,0.00000132,0.00000166,-0.00000002,-0.00000164,-0.00000175,-0.0
 0000003,-0.00000109,-0.00000115,-0.00000046,-0.00000076,-0.00000199,0.
 00000051,-0.00000062,-0.00000098,-0.00000084,-0.00000119,-0.00000100,-
 0.00000292,0.00000083,-0.00000018,0.00000100,-0.00000059,-0.00000161,-
 0.00000155,0.00000054,0.00000061,-0.00000139,-0.00000042,-0.00000012,0
 .00000438,0.00000324,0.00000215,-0.00000001,0.00000123,0.00000160,0.00
 000078,0.00000196,0.00000069,-0.00000224,0.00000157,0.00000054,-0.0000
 0050,-0.00000165,-0.00000114,-0.00000134,0.00000016,-0.00000113,0.0000
 0098,0.00000185,0.00000129\\\@


 HERE WE GO......
 SLIDING DOWN THE RAZOR BLADE OF LIFE......
                                 TOM LEHRER
 Job cpu time:       0 days  2 hours 54 minutes 16.0 seconds.
 File lengths (MBytes):  RWF=    373 Int=      0 D2E=      0 Chk=     11 Scr=      1
 Normal termination of Gaussian 09 at Mon Feb  4 15:01:49 2019.
WARNING: pbs_rusage is deprecated and values produced may not be accurate


=============================================================================
                                     Resource usage:
                                       CPU time:              14:18:39
   JobId:    5365539.r-man2            Elapsed time:          03:48:59
   Project:             q95            Requested time:        34:00:00
   Service Units:     15.27 
                                       Max physical memory:      600MB
                                       Max virtual memory:      1269MB
                                       Requested memory:           0MB

                                       Number of cpus:               4

                                       Max jobfs disk use:       0.4GB
                                       Requested jobfs:         16.0GB
=============================================================================

