 Entering Gaussian System, Link 0=/apps/gaussian/g09e01/g09/g09
 AtFile(1): /home/507/hio507/Basis/6-31pGd.gbs
 Initial command:
 /apps/gaussian/g09e01/g09/l1.exe "/jobfs/local/5877184.r-man2/Gau-48993.inp" -scrdir="/jobfs/local/5877184.r-man2/"
 Entering Link 1 = /apps/gaussian/g09e01/g09/l1.exe PID=     48994.
  
 Copyright (c) 1988,1990,1992,1993,1995,1998,2003,2009,2015,
            Gaussian, Inc.  All Rights Reserved.
  
 This is part of the Gaussian(R) 09 program.  It is based on
 the Gaussian(R) 03 system (copyright 2003, Gaussian, Inc.),
 the Gaussian(R) 98 system (copyright 1998, Gaussian, Inc.),
 the Gaussian(R) 94 system (copyright 1995, Gaussian, Inc.),
 the Gaussian 92(TM) system (copyright 1992, Gaussian, Inc.),
 the Gaussian 90(TM) system (copyright 1990, Gaussian, Inc.),
 the Gaussian 88(TM) system (copyright 1988, Gaussian, Inc.),
 the Gaussian 86(TM) system (copyright 1986, Carnegie Mellon
 University), and the Gaussian 82(TM) system (copyright 1983,
 Carnegie Mellon University). Gaussian is a federally registered
 trademark of Gaussian, Inc.
  
 This software contains proprietary and confidential information,
 including trade secrets, belonging to Gaussian, Inc.
  
 This software is provided under written license and may be
 used, copied, transmitted, or stored only in accord with that
 written license.
  
 The following legend is applicable only to US Government
 contracts under FAR:
  
                    RESTRICTED RIGHTS LEGEND
  
 Use, reproduction and disclosure by the US Government is
 subject to restrictions as set forth in subparagraphs (a)
 and (c) of the Commercial Computer Software - Restricted
 Rights clause in FAR 52.227-19.
  
 Gaussian, Inc.
 340 Quinnipiac St., Bldg. 40, Wallingford CT 06492
  
  
 ---------------------------------------------------------------
 Warning -- This program may not be used in any manner that
 competes with the business of Gaussian, Inc. or will provide
 assistance to any competitor of Gaussian, Inc.  The licensee
 of this program is prohibited from giving any competitor of
 Gaussian, Inc. access to this program.  By using this program,
 the user acknowledges that Gaussian, Inc. is engaged in the
 business of creating and licensing software in the field of
 computational chemistry and represents and warrants to the
 licensee that it is not a competitor of Gaussian, Inc. and that
 it will not use this program in any manner prohibited above.
 ---------------------------------------------------------------
  

 Cite this work as:
 Gaussian 09, Revision E.01,
 M. J. Frisch, G. W. Trucks, H. B. Schlegel, G. E. Scuseria, 
 M. A. Robb, J. R. Cheeseman, G. Scalmani, V. Barone, B. Mennucci, 
 G. A. Petersson, H. Nakatsuji, M. Caricato, X. Li, H. P. Hratchian, 
 A. F. Izmaylov, J. Bloino, G. Zheng, J. L. Sonnenberg, M. Hada, 
 M. Ehara, K. Toyota, R. Fukuda, J. Hasegawa, M. Ishida, T. Nakajima, 
 Y. Honda, O. Kitao, H. Nakai, T. Vreven, J. A. Montgomery, Jr., 
 J. E. Peralta, F. Ogliaro, M. Bearpark, J. J. Heyd, E. Brothers, 
 K. N. Kudin, V. N. Staroverov, T. Keith, R. Kobayashi, J. Normand, 
 K. Raghavachari, A. Rendell, J. C. Burant, S. S. Iyengar, J. Tomasi, 
 M. Cossi, N. Rega, J. M. Millam, M. Klene, J. E. Knox, J. B. Cross, 
 V. Bakken, C. Adamo, J. Jaramillo, R. Gomperts, R. E. Stratmann, 
 O. Yazyev, A. J. Austin, R. Cammi, C. Pomelli, J. W. Ochterski, 
 R. L. Martin, K. Morokuma, V. G. Zakrzewski, G. A. Voth, 
 P. Salvador, J. J. Dannenberg, S. Dapprich, A. D. Daniels, 
 O. Farkas, J. B. Foresman, J. V. Ortiz, J. Cioslowski, 
 and D. J. Fox, Gaussian, Inc., Wallingford CT, 2013.
 
 ******************************************
 Gaussian 09:  ES64L-G09RevE.01 30-Nov-2015
                19-Feb-2019 
 ******************************************
 %chk=2Nitro4Fluro_OS_EtO.M062X_6-31pGd_opt_water.chk
 %mem=196608000
 %nproc=8
 Will use up to    8 processors via shared memory.
 ----------------------------------------------------------------------
 # M062X/Gen 6D SCF=Tight INT(grid=ultrafine) OPT IOP(2/17=4) SCRF=(SMD
 ,Solvent=h2o) maxdisk=2684354560
 ----------------------------------------------------------------------
 1/14=-1,18=20,19=15,26=4,38=1/1,3;
 2/9=110,12=2,17=4,18=5,40=1/2;
 3/5=7,8=2,11=2,16=1,25=1,30=1,70=32201,71=1,72=1,74=-55,75=-5/1,2,3;
 4//1;
 5/5=2,32=2,38=5,53=1/2;
 6/7=2,8=2,9=2,10=2,28=1/1;
 7//1,2,3,16;
 1/14=-1,18=20,19=15,26=4/3(2);
 2/9=110,17=4/2;
 99//99;
 2/9=110,17=4/2;
 3/5=7,6=1,8=2,11=2,16=1,25=1,30=1,70=32205,71=1,72=1,74=-55,75=-5,82=7/1,2,3;
 4/5=5,16=3,69=1/1;
 5/5=2,32=2,38=5,53=1/2;
 7//1,2,3,16;
 1/14=-1,18=20,19=15,26=4/3(-5);
 2/9=110,17=4/2;
 6/7=2,8=2,9=2,10=2,19=2,28=1/1;
 99/9=1/99;
 -------------------------------------------
 2Nitro4Fluro_OS_EtO.M062X_6-31pGd_opt_water
 -------------------------------------------
 Symbolic Z-matrix:
 Charge = -1 Multiplicity = 1
 C                    -1.07835   2.67149   1.17132 
 C                     0.10314   2.00791   0.46991 
 C                     1.42099   2.70491   0.82402 
 N                     2.5467    2.07106   0.15724 
 C                     3.81824   2.54183   0.30544 
 O                     4.01629   3.50934   1.02727 
 N                     4.86118   1.91303  -0.32607 
 C                     6.23257   2.36188  -0.30516 
 C                     6.57719   3.75612  -0.35841 
 C                     7.28224   1.42034  -0.15875 
 C                     8.61284   1.82025  -0.06245 
 C                     8.93914   3.16739  -0.099 
 C                     7.93829   4.12233  -0.24208 
 H                    -2.01785   2.14984   0.89182 
 H                    -1.15956   3.73703   0.86758 
 H                    -0.05759   2.05856  -0.62918 
 H                     0.15142   0.94066   0.77722 
 H                     1.57647   2.66103   1.92465 
 H                     1.36157   3.77019   0.50881 
 H                     2.3582    1.16452  -0.51067 
 H                     7.09302   0.36146  -0.07937 
 F                     9.59087   0.89225   0.08452 
 N                     5.61544   4.80191  -0.57544 
 H                     9.97378   3.47622  -0.01977 
 O                     5.94658   5.94632  -0.48868 
 O                     4.53939   4.55852  -1.02737 
 H                    -0.95397   2.61455   2.27371 
 H                     4.60295   0.98482  -0.94249 
 H                     8.23862   5.16164  -0.28157 
 O                     4.12867  -0.4504   -2.36595 
 O                     1.95792  -0.34559  -1.8748 
 C                     2.85132  -0.86108  -2.53159 
 C                     2.50871  -1.95381  -3.50734 
 C                     3.73677  -2.50996  -4.22485 
 H                     1.79642  -1.55627  -4.26161 
 H                     2.01626  -2.78257  -2.95425 
 H                     4.23964  -1.70968  -4.80832 
 H                     3.42625  -3.31682  -4.92171 
 H                     4.45349  -2.93467  -3.48927 
 
 Add virtual bond connecting atoms O30        and H28        Dist= 3.92D+00.
 Add virtual bond connecting atoms O31        and H20        Dist= 3.92D+00.

 GradGradGradGradGradGradGradGradGradGradGradGradGradGradGradGradGradGrad
 Berny optimization.
 Initialization pass.
                           ----------------------------
                           !    Initial Parameters    !
                           ! (Angstroms and Degrees)  !
 --------------------------                            --------------------------
 ! Name  Definition              Value          Derivative Info.                !
 --------------------------------------------------------------------------------
 ! R1    R(1,2)                  1.5259         estimate D2E/DX2                !
 ! R2    R(1,14)                 1.1104         estimate D2E/DX2                !
 ! R3    R(1,15)                 1.111          estimate D2E/DX2                !
 ! R4    R(1,27)                 1.1108         estimate D2E/DX2                !
 ! R5    R(2,3)                  1.5323         estimate D2E/DX2                !
 ! R6    R(2,16)                 1.1119         estimate D2E/DX2                !
 ! R7    R(2,17)                 1.1117         estimate D2E/DX2                !
 ! R8    R(3,4)                  1.4538         estimate D2E/DX2                !
 ! R9    R(3,18)                 1.1124         estimate D2E/DX2                !
 ! R10   R(3,19)                 1.1125         estimate D2E/DX2                !
 ! R11   R(4,5)                  1.364          estimate D2E/DX2                !
 ! R12   R(4,20)                 1.1417         estimate D2E/DX2                !
 ! R13   R(5,6)                  1.2232         estimate D2E/DX2                !
 ! R14   R(5,7)                  1.3718         estimate D2E/DX2                !
 ! R15   R(7,8)                  1.4431         estimate D2E/DX2                !
 ! R16   R(7,28)                 1.1438         estimate D2E/DX2                !
 ! R17   R(8,9)                  1.4372         estimate D2E/DX2                !
 ! R18   R(8,10)                 1.4177         estimate D2E/DX2                !
 ! R19   R(9,13)                 1.4143         estimate D2E/DX2                !
 ! R20   R(9,23)                 1.4373         estimate D2E/DX2                !
 ! R21   R(10,11)                1.3927         estimate D2E/DX2                !
 ! R22   R(10,21)                1.0786         estimate D2E/DX2                !
 ! R23   R(11,12)                1.3866         estimate D2E/DX2                !
 ! R24   R(11,22)                1.3562         estimate D2E/DX2                !
 ! R25   R(12,13)                1.3907         estimate D2E/DX2                !
 ! R26   R(12,24)                1.0827         estimate D2E/DX2                !
 ! R27   R(13,29)                1.0826         estimate D2E/DX2                !
 ! R28   R(20,31)                2.074          estimate D2E/DX2                !
 ! R29   R(23,25)                1.1945         estimate D2E/DX2                !
 ! R30   R(23,26)                1.1922         estimate D2E/DX2                !
 ! R31   R(28,30)                2.0763         estimate D2E/DX2                !
 ! R32   R(30,32)                1.3519         estimate D2E/DX2                !
 ! R33   R(31,32)                1.2228         estimate D2E/DX2                !
 ! R34   R(32,33)                1.5045         estimate D2E/DX2                !
 ! R35   R(33,34)                1.5272         estimate D2E/DX2                !
 ! R36   R(33,35)                1.111          estimate D2E/DX2                !
 ! R37   R(33,36)                1.1114         estimate D2E/DX2                !
 ! R38   R(34,37)                1.1107         estimate D2E/DX2                !
 ! R39   R(34,38)                1.1104         estimate D2E/DX2                !
 ! R40   R(34,39)                1.1114         estimate D2E/DX2                !
 ! A1    A(2,1,14)             109.581          estimate D2E/DX2                !
 ! A2    A(2,1,15)             110.3671         estimate D2E/DX2                !
 ! A3    A(2,1,27)             110.3158         estimate D2E/DX2                !
 ! A4    A(14,1,15)            108.6583         estimate D2E/DX2                !
 ! A5    A(14,1,27)            108.6909         estimate D2E/DX2                !
 ! A6    A(15,1,27)            109.1881         estimate D2E/DX2                !
 ! A7    A(1,2,3)              111.2167         estimate D2E/DX2                !
 ! A8    A(1,2,16)             108.8224         estimate D2E/DX2                !
 ! A9    A(1,2,17)             108.9092         estimate D2E/DX2                !
 ! A10   A(3,2,16)             109.3919         estimate D2E/DX2                !
 ! A11   A(3,2,17)             109.6007         estimate D2E/DX2                !
 ! A12   A(16,2,17)            108.8601         estimate D2E/DX2                !
 ! A13   A(2,3,4)              111.2007         estimate D2E/DX2                !
 ! A14   A(2,3,18)             109.3241         estimate D2E/DX2                !
 ! A15   A(2,3,19)             108.9138         estimate D2E/DX2                !
 ! A16   A(4,3,18)             109.1691         estimate D2E/DX2                !
 ! A17   A(4,3,19)             109.2012         estimate D2E/DX2                !
 ! A18   A(18,3,19)            108.9995         estimate D2E/DX2                !
 ! A19   A(3,4,5)              121.4349         estimate D2E/DX2                !
 ! A20   A(3,4,20)             119.1214         estimate D2E/DX2                !
 ! A21   A(5,4,20)             119.442          estimate D2E/DX2                !
 ! A22   A(4,5,6)              119.2118         estimate D2E/DX2                !
 ! A23   A(4,5,7)              120.0341         estimate D2E/DX2                !
 ! A24   A(6,5,7)              120.7366         estimate D2E/DX2                !
 ! A25   A(5,7,8)              124.9757         estimate D2E/DX2                !
 ! A26   A(5,7,28)             116.6429         estimate D2E/DX2                !
 ! A27   A(8,7,28)             118.3439         estimate D2E/DX2                !
 ! A28   A(7,8,9)              121.9422         estimate D2E/DX2                !
 ! A29   A(7,8,10)             119.9041         estimate D2E/DX2                !
 ! A30   A(9,8,10)             118.0725         estimate D2E/DX2                !
 ! A31   A(8,9,13)             118.6148         estimate D2E/DX2                !
 ! A32   A(8,9,23)             123.4371         estimate D2E/DX2                !
 ! A33   A(13,9,23)            117.9043         estimate D2E/DX2                !
 ! A34   A(8,10,11)            121.5897         estimate D2E/DX2                !
 ! A35   A(8,10,21)            121.9871         estimate D2E/DX2                !
 ! A36   A(11,10,21)           116.386          estimate D2E/DX2                !
 ! A37   A(10,11,12)           120.1312         estimate D2E/DX2                !
 ! A38   A(10,11,22)           119.9993         estimate D2E/DX2                !
 ! A39   A(12,11,22)           119.8642         estimate D2E/DX2                !
 ! A40   A(11,12,13)           120.0317         estimate D2E/DX2                !
 ! A41   A(11,12,24)           120.0068         estimate D2E/DX2                !
 ! A42   A(13,12,24)           119.961          estimate D2E/DX2                !
 ! A43   A(9,13,12)            121.5513         estimate D2E/DX2                !
 ! A44   A(9,13,29)            120.836          estimate D2E/DX2                !
 ! A45   A(12,13,29)           117.6018         estimate D2E/DX2                !
 ! A46   A(9,23,25)            120.0421         estimate D2E/DX2                !
 ! A47   A(9,23,26)            120.8405         estimate D2E/DX2                !
 ! A48   A(25,23,26)           118.2506         estimate D2E/DX2                !
 ! A49   A(28,30,32)           120.6505         estimate D2E/DX2                !
 ! A50   A(20,31,32)           121.2794         estimate D2E/DX2                !
 ! A51   A(30,32,31)           119.7647         estimate D2E/DX2                !
 ! A52   A(30,32,33)           121.0144         estimate D2E/DX2                !
 ! A53   A(31,32,33)           119.2193         estimate D2E/DX2                !
 ! A54   A(32,33,34)           112.7112         estimate D2E/DX2                !
 ! A55   A(32,33,35)           109.0517         estimate D2E/DX2                !
 ! A56   A(32,33,36)           108.6473         estimate D2E/DX2                !
 ! A57   A(34,33,35)           109.0801         estimate D2E/DX2                !
 ! A58   A(34,33,36)           108.5755         estimate D2E/DX2                !
 ! A59   A(35,33,36)           108.6994         estimate D2E/DX2                !
 ! A60   A(33,34,37)           110.3942         estimate D2E/DX2                !
 ! A61   A(33,34,38)           109.5475         estimate D2E/DX2                !
 ! A62   A(33,34,39)           110.2911         estimate D2E/DX2                !
 ! A63   A(37,34,38)           108.6912         estimate D2E/DX2                !
 ! A64   A(37,34,39)           109.3322         estimate D2E/DX2                !
 ! A65   A(38,34,39)           108.5433         estimate D2E/DX2                !
 ! A66   L(4,20,31,2,-1)       178.8995         estimate D2E/DX2                !
 ! A67   L(7,28,30,1,-1)       180.8553         estimate D2E/DX2                !
 ! A68   L(4,20,31,2,-2)       173.9237         estimate D2E/DX2                !
 ! A69   L(7,28,30,1,-2)       168.9198         estimate D2E/DX2                !
 ! D1    D(14,1,2,3)           179.681          estimate D2E/DX2                !
 ! D2    D(14,1,2,16)           59.109          estimate D2E/DX2                !
 ! D3    D(14,1,2,17)          -59.4308         estimate D2E/DX2                !
 ! D4    D(15,1,2,3)            60.0599         estimate D2E/DX2                !
 ! D5    D(15,1,2,16)          -60.512          estimate D2E/DX2                !
 ! D6    D(15,1,2,17)         -179.0518         estimate D2E/DX2                !
 ! D7    D(27,1,2,3)           -60.6897         estimate D2E/DX2                !
 ! D8    D(27,1,2,16)          178.7384         estimate D2E/DX2                !
 ! D9    D(27,1,2,17)           60.1986         estimate D2E/DX2                !
 ! D10   D(1,2,3,4)            179.9085         estimate D2E/DX2                !
 ! D11   D(1,2,3,18)            59.2952         estimate D2E/DX2                !
 ! D12   D(1,2,3,19)           -59.7069         estimate D2E/DX2                !
 ! D13   D(16,2,3,4)           -59.8558         estimate D2E/DX2                !
 ! D14   D(16,2,3,18)          179.5309         estimate D2E/DX2                !
 ! D15   D(16,2,3,19)           60.5288         estimate D2E/DX2                !
 ! D16   D(17,2,3,4)            59.4272         estimate D2E/DX2                !
 ! D17   D(17,2,3,18)          -61.186          estimate D2E/DX2                !
 ! D18   D(17,2,3,19)          179.8119         estimate D2E/DX2                !
 ! D19   D(2,3,4,5)            178.6791         estimate D2E/DX2                !
 ! D20   D(2,3,4,20)            -0.849          estimate D2E/DX2                !
 ! D21   D(18,3,4,5)           -60.6163         estimate D2E/DX2                !
 ! D22   D(18,3,4,20)          119.8556         estimate D2E/DX2                !
 ! D23   D(19,3,4,5)            58.4644         estimate D2E/DX2                !
 ! D24   D(19,3,4,20)         -121.0637         estimate D2E/DX2                !
 ! D25   D(3,4,5,6)              0.83           estimate D2E/DX2                !
 ! D26   D(3,4,5,7)            179.3217         estimate D2E/DX2                !
 ! D27   D(20,4,5,6)          -179.6434         estimate D2E/DX2                !
 ! D28   D(20,4,5,7)            -1.1517         estimate D2E/DX2                !
 ! D29   D(3,4,31,32)          175.1548         estimate D2E/DX2                !
 ! D30   D(5,4,31,32)           -0.2107         estimate D2E/DX2                !
 ! D31   D(4,5,7,8)            176.3213         estimate D2E/DX2                !
 ! D32   D(4,5,7,28)            -1.4047         estimate D2E/DX2                !
 ! D33   D(6,5,7,8)             -5.2103         estimate D2E/DX2                !
 ! D34   D(6,5,7,28)           177.0637         estimate D2E/DX2                !
 ! D35   D(5,7,8,9)            -37.911          estimate D2E/DX2                !
 ! D36   D(5,7,8,10)           138.7476         estimate D2E/DX2                !
 ! D37   D(28,7,8,9)           139.7795         estimate D2E/DX2                !
 ! D38   D(28,7,8,10)          -43.5619         estimate D2E/DX2                !
 ! D39   D(5,7,30,32)           -3.9406         estimate D2E/DX2                !
 ! D40   D(8,7,30,32)         -174.6267         estimate D2E/DX2                !
 ! D41   D(7,8,9,13)           175.7588         estimate D2E/DX2                !
 ! D42   D(7,8,9,23)            -6.7051         estimate D2E/DX2                !
 ! D43   D(10,8,9,13)           -0.9586         estimate D2E/DX2                !
 ! D44   D(10,8,9,23)          176.5776         estimate D2E/DX2                !
 ! D45   D(7,8,10,11)         -176.5231         estimate D2E/DX2                !
 ! D46   D(7,8,10,21)            1.1764         estimate D2E/DX2                !
 ! D47   D(9,8,10,11)            0.2635         estimate D2E/DX2                !
 ! D48   D(9,8,10,21)          177.9631         estimate D2E/DX2                !
 ! D49   D(8,9,13,12)            0.9721         estimate D2E/DX2                !
 ! D50   D(8,9,13,29)          179.7398         estimate D2E/DX2                !
 ! D51   D(23,9,13,12)        -176.7014         estimate D2E/DX2                !
 ! D52   D(23,9,13,29)           2.0664         estimate D2E/DX2                !
 ! D53   D(8,9,23,25)          173.2323         estimate D2E/DX2                !
 ! D54   D(8,9,23,26)          -17.6115         estimate D2E/DX2                !
 ! D55   D(13,9,23,25)          -9.2152         estimate D2E/DX2                !
 ! D56   D(13,9,23,26)         159.941          estimate D2E/DX2                !
 ! D57   D(8,10,11,12)           0.4671         estimate D2E/DX2                !
 ! D58   D(8,10,11,22)         179.6259         estimate D2E/DX2                !
 ! D59   D(21,10,11,12)       -177.3549         estimate D2E/DX2                !
 ! D60   D(21,10,11,22)          1.8039         estimate D2E/DX2                !
 ! D61   D(10,11,12,13)         -0.481          estimate D2E/DX2                !
 ! D62   D(10,11,12,24)        179.7417         estimate D2E/DX2                !
 ! D63   D(22,11,12,13)       -179.641          estimate D2E/DX2                !
 ! D64   D(22,11,12,24)          0.5818         estimate D2E/DX2                !
 ! D65   D(11,12,13,9)          -0.249          estimate D2E/DX2                !
 ! D66   D(11,12,13,29)       -179.055          estimate D2E/DX2                !
 ! D67   D(24,12,13,9)         179.5283         estimate D2E/DX2                !
 ! D68   D(24,12,13,29)          0.7223         estimate D2E/DX2                !
 ! D69   D(28,30,32,31)          2.9188         estimate D2E/DX2                !
 ! D70   D(28,30,32,33)       -176.623          estimate D2E/DX2                !
 ! D71   D(20,31,32,30)          0.4023         estimate D2E/DX2                !
 ! D72   D(20,31,32,33)        179.9524         estimate D2E/DX2                !
 ! D73   D(30,32,33,34)          0.7209         estimate D2E/DX2                !
 ! D74   D(30,32,33,35)       -120.5738         estimate D2E/DX2                !
 ! D75   D(30,32,33,36)        121.0987         estimate D2E/DX2                !
 ! D76   D(31,32,33,34)       -178.8234         estimate D2E/DX2                !
 ! D77   D(31,32,33,35)         59.8819         estimate D2E/DX2                !
 ! D78   D(31,32,33,36)        -58.4456         estimate D2E/DX2                !
 ! D79   D(32,33,34,37)        -60.9191         estimate D2E/DX2                !
 ! D80   D(32,33,34,38)        179.4236         estimate D2E/DX2                !
 ! D81   D(32,33,34,39)         60.0123         estimate D2E/DX2                !
 ! D82   D(35,33,34,37)         60.3594         estimate D2E/DX2                !
 ! D83   D(35,33,34,38)        -59.2979         estimate D2E/DX2                !
 ! D84   D(35,33,34,39)       -178.7092         estimate D2E/DX2                !
 ! D85   D(36,33,34,37)        178.6618         estimate D2E/DX2                !
 ! D86   D(36,33,34,38)         59.0045         estimate D2E/DX2                !
 ! D87   D(36,33,34,39)        -60.4068         estimate D2E/DX2                !
 --------------------------------------------------------------------------------
 Trust Radius=3.00D-01 FncErr=1.00D-07 GrdErr=1.00D-06
 Number of steps in this run=    206 maximum allowed number of steps=    234.
 GradGradGradGradGradGradGradGradGradGradGradGradGradGradGradGradGradGrad

                          Input orientation:                          
 ---------------------------------------------------------------------
 Center     Atomic      Atomic             Coordinates (Angstroms)
 Number     Number       Type             X           Y           Z
 ---------------------------------------------------------------------
      1          6           0       -1.078350    2.671490    1.171320
      2          6           0        0.103140    2.007910    0.469910
      3          6           0        1.420990    2.704910    0.824020
      4          7           0        2.546700    2.071060    0.157240
      5          6           0        3.818240    2.541830    0.305440
      6          8           0        4.016290    3.509340    1.027270
      7          7           0        4.861180    1.913030   -0.326070
      8          6           0        6.232570    2.361880   -0.305160
      9          6           0        6.577190    3.756120   -0.358410
     10          6           0        7.282240    1.420340   -0.158750
     11          6           0        8.612840    1.820250   -0.062450
     12          6           0        8.939140    3.167390   -0.099000
     13          6           0        7.938290    4.122330   -0.242080
     14          1           0       -2.017850    2.149840    0.891820
     15          1           0       -1.159560    3.737030    0.867580
     16          1           0       -0.057590    2.058560   -0.629180
     17          1           0        0.151420    0.940660    0.777220
     18          1           0        1.576470    2.661030    1.924650
     19          1           0        1.361570    3.770190    0.508810
     20          1           0        2.358200    1.164520   -0.510670
     21          1           0        7.093020    0.361460   -0.079370
     22          9           0        9.590870    0.892250    0.084520
     23          7           0        5.615440    4.801910   -0.575440
     24          1           0        9.973780    3.476220   -0.019770
     25          8           0        5.946580    5.946320   -0.488680
     26          8           0        4.539390    4.558520   -1.027370
     27          1           0       -0.953970    2.614550    2.273710
     28          1           0        4.602950    0.984820   -0.942490
     29          1           0        8.238620    5.161640   -0.281570
     30          8           0        4.128670   -0.450400   -2.365950
     31          8           0        1.957920   -0.345590   -1.874800
     32          6           0        2.851320   -0.861080   -2.531590
     33          6           0        2.508710   -1.953810   -3.507340
     34          6           0        3.736770   -2.509960   -4.224850
     35          1           0        1.796420   -1.556270   -4.261610
     36          1           0        2.016260   -2.782570   -2.954250
     37          1           0        4.239640   -1.709680   -4.808320
     38          1           0        3.426250   -3.316820   -4.921710
     39          1           0        4.453490   -2.934670   -3.489270
 ---------------------------------------------------------------------
                    Distance matrix (angstroms):
                    1          2          3          4          5
     1  C    0.000000
     2  C    1.525855   0.000000
     3  C    2.523576   1.532296   0.000000
     4  N    3.811806   2.464292   1.453817   0.000000
     5  C    4.974249   3.756872   2.458115   1.363965   0.000000
     6  O    5.165085   4.228201   2.724702   2.232778   1.223249
     7  N    6.172152   4.825094   3.712774   2.369679   1.371830
     8  C    7.464945   6.188371   4.954192   3.726128   2.496839
     9  C    7.881865   6.756898   5.393476   4.398883   3.086584
    10  C    8.557682   7.230486   6.080313   4.790472   3.670492
    11  C    9.806425   8.528401   7.300079   6.075296   4.862531
    12  C   10.109883   8.929891   7.588704   6.490831   5.174796
    13  C    9.241344   8.146611   6.754321   5.782422   4.446636
    14  H    1.110360   2.167199   3.484009   4.623952   5.878558
    15  H    1.110958   2.177707   2.779642   4.125094   5.150048
    16  H    2.158572   1.111935   2.171579   2.720467   4.016108
    17  H    2.159496   1.111662   2.174069   2.720211   4.028882
    18  H    2.759653   2.171068   1.112423   2.100750   2.767956
    19  H    2.756677   2.165823   1.112524   2.101232   2.754170
    20  H    4.112168   2.599642   2.243337   1.141688   2.166734
    21  H    8.583225   7.202147   6.203209   4.862894   3.953008
    22  F   10.871020   9.560870   8.401163   7.142493   6.007760
    23  N    7.238555   6.267746   4.893803   4.172712   3.018914
    24  H   11.145217   9.991259   8.628854   7.560908   6.234542
    25  O    7.926522   7.111664   5.719343   5.195579   4.092800
    26  O    6.320927   5.331770   4.072829   3.400231   2.522594
    27  H    1.110845   2.176968   2.783918   4.126684   5.162690
    28  H    6.292076   4.825959   4.025436   2.572448   2.144150
    29  H    9.752829   8.757669   7.330616   6.491702   5.171822
    30  O    7.026488   5.503661   5.240555   3.902163   4.023199
    31  O    5.253623   3.804844   4.108220   3.211860   4.068345
    32  C    6.452356   4.979217   5.101201   3.989993   4.534696
    33  C    7.493348   6.107414   6.453486   5.443360   6.038455
    34  C    8.896710   7.460240   7.618976   6.450172   6.786070
    35  H    7.460227   6.160995   6.645467   5.765993   6.460660
    36  H    7.506245   6.191413   6.688954   5.789686   6.497842
    37  H    9.123144   7.667517   7.691336   6.466593   6.663592
    38  H    9.657965   8.274381   8.561292   7.456446   7.861332
    39  H    9.151578   7.683082   7.720453   6.479986   6.692938
                    6          7          8          9         10
     6  O    0.000000
     7  N    2.256895   0.000000
     8  C    2.829122   1.443126   0.000000
     9  C    2.922194   2.518475   1.437186   0.000000
    10  C    4.054256   2.476342   1.417653   2.448025   0.000000
    11  C    5.016850   3.762055   2.453152   2.824722   1.392730
    12  C    5.061607   4.272556   2.831408   2.448000   2.408541
    13  C    4.167624   3.789019   2.452069   1.414297   2.781743
    14  H    6.186876   6.990021   8.339494   8.832776   9.387627
    15  H    5.183316   6.403209   7.609858   7.833308   8.813875
    16  H    4.630884   4.930249   6.305799   6.853855   7.382529
    17  H    4.647350   4.934024   6.338123   7.106827   7.207963
    18  H    2.734528   4.051489   5.171152   5.605246   6.199651
    19  H    2.717422   4.048869   5.135419   5.287245   6.404824
    20  H    3.257714   2.619018   4.060375   4.953731   4.943224
    21  H    4.538730   2.729348   2.189300   3.444947   1.078579
    22  F    6.230079   4.855980   3.686440   4.180934   2.380721
    23  N    2.607048   2.996118   2.531333   1.437269   3.793003
    24  H    6.048891   5.355003   3.914058   3.424886   3.389741
    25  O    3.458756   4.179948   3.600511   2.282896   4.730469
    26  O    2.365578   2.755719   2.865951   2.289974   4.257452
    27  H    5.201706   6.408350   7.639422   8.059132   8.670534
    28  H    3.255353   1.143779   2.226689   3.452373   2.825336
    29  H    4.719240   4.686422   3.444336   2.177554   3.863557
    30  O    5.215948   3.206787   4.072121   5.265005   4.279767
    31  O    5.245892   3.991096   5.297811   6.360906   5.866150
    32  C    5.755277   4.074254   5.174680   6.318493   5.519810
    33  C    7.258202   5.532363   6.538063   7.685804   6.736804
    34  C    7.993427   6.002302   6.732593   7.891838   6.674637
    35  H    7.652482   6.075958   7.119327   8.143232   7.469129
    36  H    7.709783   6.086835   7.159631   8.384207   7.294506
    37  H    7.832124   5.796629   6.389665   7.425686   6.377534
    38  H    9.073862   7.108464   7.838086   8.987692   7.745652
    39  H    7.881341   5.802779   6.430950   7.686290   6.169303
                   11         12         13         14         15
    11  C    0.000000
    12  C    1.386576   0.000000
    13  C    2.405589   1.390713   0.000000
    14  H   10.678522  11.048654  10.212794   0.000000
    15  H   10.001940  10.160832   9.173368   1.804556   0.000000
    16  H    8.692199   9.080294   8.266988   2.482819   2.504374
    17  H    8.548354   9.107695   8.473331   2.486158   3.089744
    18  H    7.359754   7.652481   6.877708   3.774545   3.124265
    19  H    7.530572   7.625770   6.628807   3.767321   2.546745
    20  H    6.304871   6.891279   6.321249   4.699750   4.570779
    21  H    2.106705   3.358837   3.858121   9.335388   8.966396
    22  F    1.356218   2.373751   3.642953  11.704514  11.147991
    23  N    4.258857   3.734385   2.443070   8.213005   7.008345
    24  H    2.143879   1.082651   2.147114  12.099152  11.171691
    25  O    4.931031   4.102404   2.711948   8.930352   7.564234
    26  O    5.002218   4.706901   3.515603   7.244476   6.061659
    27  H    9.879899  10.188671   9.363487   1.804831   1.810920
    28  H    4.189467   4.927234   4.632390   6.968282   6.637585
    29  H    3.369413   2.121578   1.082554  10.753742   9.574750
    30  O    5.528991   6.431803   6.319327   7.426575   7.480352
    31  O    7.229345   8.014482   7.641525   5.448679   5.822982
    32  C    6.817719   7.694649   7.480207   6.670397   6.984564
    33  C    7.960603   8.899096   8.778482   7.528765   8.061128
    34  C    7.736430   8.736109   8.803550   9.000539   9.430365
    35  H    8.688925   9.521488   9.280393   7.405521   7.941375
    36  H    8.547709   9.564557   9.492310   7.442779   8.197402
    37  H    7.355853   8.249170   8.279064   9.302885   9.541166
    38  H    8.769413   9.782406   9.879190   9.660214  10.212851
    39  H    7.186971   8.297597   8.514066   9.323327   9.746797
                   16         17         18         19         20
    16  H    0.000000
    17  H    1.808686   0.000000
    18  H    3.091144   2.511381   0.000000
    19  H    2.497742   3.089134   1.811359   0.000000
    20  H    2.578642   2.564888   2.963347   2.970207   0.000000
    21  H    7.369780   7.018193   6.303685   6.694394   4.821768
    22  F    9.744867   9.464956   8.411021   8.728341   7.262224
    23  N    6.301756   6.826013   5.210288   4.509485   4.883074
    24  H   10.149361  10.175609   8.657951   8.633422   7.973832
    25  O    7.154333   7.761637   5.976216   5.172315   5.978509
    26  O    5.247912   5.966551   4.592797   3.616608   4.067408
    27  H    3.088591   2.502654   2.554825   3.132427   4.563533
    28  H    4.792882   4.772365   4.493301   4.513436   2.292959
    29  H    8.864369   9.183709   7.450148   7.060783   7.113986
    30  O    5.180350   5.256718   5.882514   5.808138   3.030610
    31  O    3.375468   3.457035   4.860153   4.793420   2.074007
    32  C    4.539297   4.635078   5.821390   5.736902   2.903505
    33  C    5.564963   5.682625   7.188347   7.085871   4.327432
    34  C    6.942434   7.055651   8.319999   8.215193   5.403461
    35  H    5.449669   5.859223   7.490248   7.163601   4.667745
    36  H    5.757026   5.591416   7.323241   7.440435   4.654839
    37  H    7.080327   7.411889   8.457450   8.159910   5.501876
    38  H    7.710880   7.831248   9.275183   9.164014   6.378120
    39  H    7.311792   7.192282   8.300580   8.396414   5.483216
                   21         22         23         24         25
    21  H    0.000000
    22  F    2.558877   0.000000
    23  N    4.706052   5.614716   0.000000
    24  H    4.243119   2.614268   4.589265   0.000000
    25  O    5.715988   6.257238   1.194510   4.747590   0.000000
    26  O    5.003503   6.339975   1.192209   5.631982   2.048502
    27  H    8.681443  10.906536   7.487279  11.199029   8.145494
    28  H    2.708136   5.093394   3.966111   5.992020   5.160210
    29  H    4.939131   4.493361   2.663989   2.433097   2.431474
    30  O    3.830788   6.135401   5.744839   7.422144   6.909918
    31  O    5.485685   7.977036   6.446902   9.072011   7.577524
    32  C    5.049753   7.439068   6.598207   8.709239   7.752084
    33  C    6.174735   8.435550   7.992970   9.867910   9.129256
    34  C    6.057596   8.025970   8.385168   9.613394   9.505309
    35  H    7.015896   9.254056   8.282464  10.497065   9.367373
    36  H    6.627469   8.950594   8.725662  10.540671   9.885341
    37  H    5.898675   7.703609   7.887389   9.094181   8.954734
    38  H    7.100930   8.987833   9.465537  10.632241  10.574005
    39  H    5.427615   7.335528   8.348365   9.143880   9.492357
                   26         27         28         29         30
    26  O    0.000000
    27  H    6.697250   0.000000
    28  H    3.575273   6.624147   0.000000
    29  H    3.821554   9.875264   5.576803   0.000000
    30  O    5.200939   7.533498   2.076304   7.261634   0.000000
    31  O    5.606462   5.869554   3.104090   8.503832   2.228086
    32  C    5.872335   7.046357   3.000132   8.388012   1.351931
    33  C    7.258399   8.141290   4.427171   9.688503   2.487425
    34  C    7.799454   9.512882   4.872129   9.729828   2.801943
    35  H    7.441428   8.226226   5.034909  10.122894   3.202478
    36  H    7.998166   8.079773   4.993132  10.438939   3.201154
    37  H    7.326375   9.789162   4.726200   9.148680   2.750140
    38  H    8.855842  10.302502   5.976866  10.796948   3.904058
    39  H    7.887726   9.656418   4.676626   9.495619   2.745715
                   31         32         33         34         35
    31  O    0.000000
    32  C    1.222811   0.000000
    33  C    2.356889   1.504503   0.000000
    34  C    3.656712   2.523877   1.527172   0.000000
    35  H    2.681173   2.142212   1.110999   2.162368   0.000000
    36  H    2.665987   2.137309   1.111422   2.156130   1.805916
    37  H    3.958854   2.798402   2.179052   1.110749   2.508336
    38  H    4.501984   3.474748   2.167976   1.110432   2.488295
    39  H    3.941791   2.789960   2.178206   1.111370   3.091362
                   36         37         38         39
    36  H    0.000000
    37  H    3.087408   0.000000
    38  H    2.478789   1.804816   0.000000
    39  H    2.499894   1.812795   1.803648   0.000000
 Stoichiometry    C13H17FN3O5(1-)
 Framework group  C1[X(C13H17FN3O5)]
 Deg. of freedom   111
 Full point group                 C1      NOp   1
 Largest Abelian subgroup         C1      NOp   1
 Largest concise Abelian subgroup C1      NOp   1
                         Standard orientation:                         
 ---------------------------------------------------------------------
 Center     Atomic      Atomic             Coordinates (Angstroms)
 Number     Number       Type             X           Y           Z
 ---------------------------------------------------------------------
      1          6           0       -4.414328   -3.876399   -0.747919
      2          6           0       -3.738443   -2.518688   -0.580488
      3          6           0       -2.212667   -2.648050   -0.637097
      4          7           0       -1.569109   -1.353972   -0.479683
      5          6           0       -0.210688   -1.231423   -0.471050
      6          8           0        0.479825   -2.230975   -0.613966
      7          7           0        0.366266    0.005675   -0.334549
      8          6           0        1.785070    0.250452   -0.236097
      9          6           0        2.659707   -0.628579    0.490414
     10          6           0        2.362842    1.345878   -0.925997
     11          6           0        3.736865    1.573051   -0.913727
     12          6           0        4.578328    0.713521   -0.223987
     13          6           0        4.050413   -0.372508    0.465890
     14          1           0       -5.516543   -3.752198   -0.696960
     15          1           0       -4.096896   -4.568699    0.060899
     16          1           0       -4.036319   -2.088197    0.400505
     17          1           0       -4.085566   -1.841120   -1.390549
     18          1           0       -1.916473   -3.086692   -1.615539
     19          1           0       -1.877607   -3.325088    0.179643
     20          1           0       -2.217399   -0.422810   -0.352762
     21          1           0        1.769837    2.025828   -1.517050
     22          9           0        4.256005    2.626906   -1.591378
     23          7           0        2.192534   -1.730140    1.286689
     24          1           0        5.646547    0.889645   -0.219258
     25          8           0        2.974480   -2.494654    1.767245
     26          8           0        1.054920   -1.791113    1.638087
     27          1           0       -4.151140   -4.319508   -1.731973
     28          1           0       -0.345348    0.897772   -0.257096
     29          1           0        4.741412   -1.009034    1.003736
     30          8           0       -1.587633    2.475073    0.271948
     31          8           0       -3.414675    1.214144    0.081307
     32          6           0       -2.929306    2.313101    0.309295
     33          6           0       -3.841398    3.469097    0.617984
     34          6           0       -3.082061    4.773631    0.850046
     35          1           0       -4.436769    3.229182    1.524788
     36          1           0       -4.536632    3.611464   -0.237375
     37          1           0       -2.394019    4.672206    1.716115
     38          1           0       -3.803429    5.590689    1.062423
     39          1           0       -2.496863    5.045173   -0.054914
 ---------------------------------------------------------------------
 Rotational constants (GHZ):      0.2655754      0.1693993      0.1154043
 General basis read from cards:  (6D, 7F)
 There are   452 symmetry adapted cartesian basis functions of A   symmetry.
 There are   452 symmetry adapted basis functions of A   symmetry.
   452 basis functions,   772 primitive gaussians,   452 cartesian basis functions
    83 alpha electrons       83 beta electrons
       nuclear repulsion energy      1807.3183443552 Hartrees.
 NAtoms=   39 NActive=   39 NUniq=   39 SFac= 1.00D+00 NAtFMM=   60 NAOKFM=F Big=F
 Integral buffers will be    131072 words long.
 Raffenetti 2 integral format.
 Two-electron integral symmetry is turned on.
 ------------------------------------------------------------------------------
 Polarizable Continuum Model (PCM)
 =================================
 Model                : PCM (using non-symmetric T matrix).
 Atomic radii         : SMD-Coulomb.
 Polarization charges : Total charges.
 Charge compensation  : None.
 Solution method      : On-the-fly selection.
 Cavity type          : VdW (van der Waals Surface) (Alpha=1.000).
 Cavity algorithm     : GePol (No added spheres)
                        Default sphere list used, NSphG=   39.
                        Lebedev-Laikov grids with approx.  5.0 points / Ang**2.
                        Smoothing algorithm: York/Karplus (Gamma=1.0000).
                        Polarization charges: spherical gaussians, with
                                              point-specific exponents (IZeta= 3).
                        Self-potential: point-specific (ISelfS= 7).
                        Self-field    : sphere-specific E.n sum rule (ISelfD= 2).
 1st derivatives      : Analytical E(r).r(x)/FMM algorithm (CHGder, D1EAlg=3).
                        Cavity 1st derivative terms included.
 Solvent              : Water, Eps=  78.355300 Eps(inf)=   1.777849
 ------------------------------------------------------------------------------
 ------------------------------------------------------------------------------
 Atomic radii for non-electrostatic terms: SMD-CDS.
 ------------------------------------------------------------------------------
 Nuclear repulsion after PCM non-electrostatic terms =     1807.3352421205 Hartrees.
 One-electron integrals computed using PRISM.
 NBasis=   452 RedAO= T EigKep=  1.24D-06  NBF=   452
 NBsUse=   452 1.00D-06 EigRej= -1.00D+00 NBFU=   452
 ExpMin= 4.38D-02 ExpMax= 7.00D+03 ExpMxC= 1.05D+03 IAcc=3 IRadAn=         5 AccDes= 0.00D+00
 Harris functional with IExCor= 1009 and IRadAn=       5 diagonalized for initial guess.
 HarFok:  IExCor= 1009 AccDes= 0.00D+00 IRadAn=         5 IDoV= 1 UseB2=F ITyADJ=14
 ICtDFT=  3500011 ScaDFX=  1.000000  1.000000  1.000000  1.000000
 FoFCou: FMM=F IPFlag=           0 FMFlag=      100000 FMFlg1=           0
         NFxFlg=           0 DoJE=T BraDBF=F KetDBF=T FulRan=T
         wScrn=  0.000000 ICntrl=     500 IOpCl=  0 I1Cent=   200000004 NGrid=           0
         NMat0=    1 NMatS0=      1 NMatT0=    0 NMatD0=    1 NMtDS0=    0 NMtDT0=    0
 Petite list used in FoFCou.
 Requested convergence on RMS density matrix=1.00D-08 within 128 cycles.
 Requested convergence on MAX density matrix=1.00D-06.
 Requested convergence on             energy=1.00D-06.
 No special actions if energy rises.
 Inv3:  Mode=1 IEnd=    26231547.
 Iteration    1 A*A^-1 deviation from unit magnitude is 7.77D-15 for   2952.
 Iteration    1 A*A^-1 deviation from orthogonality  is 5.38D-15 for   2947   1743.
 Iteration    1 A^-1*A deviation from unit magnitude is 7.99D-15 for   2952.
 Iteration    1 A^-1*A deviation from orthogonality  is 3.25D-11 for   2466   2321.
 Error on total polarization charges =  0.07376
 SCF Done:  E(RM062X) =  -1145.47705684     A.U. after   17 cycles
            NFock= 17  Conv=0.54D-08     -V/T= 2.0089
 SMD-CDS (non-electrostatic) energy       (kcal/mol) =      10.60
 (included in total energy above)

 **********************************************************************

            Population analysis using the SCF density.

 **********************************************************************

 Orbital symmetries:
       Occupied  (A) (A) (A) (A) (A) (A) (A) (A) (A) (A) (A) (A)
                 (A) (A) (A) (A) (A) (A) (A) (A) (A) (A) (A) (A)
                 (A) (A) (A) (A) (A) (A) (A) (A) (A) (A) (A) (A)
                 (A) (A) (A) (A) (A) (A) (A) (A) (A) (A) (A) (A)
                 (A) (A) (A) (A) (A) (A) (A) (A) (A) (A) (A) (A)
                 (A) (A) (A) (A) (A) (A) (A) (A) (A) (A) (A) (A)
                 (A) (A) (A) (A) (A) (A) (A) (A) (A) (A) (A)
       Virtual   (A) (A) (A) (A) (A) (A) (A) (A) (A) (A) (A) (A)
                 (A) (A) (A) (A) (A) (A) (A) (A) (A) (A) (A) (A)
                 (A) (A) (A) (A) (A) (A) (A) (A) (A) (A) (A) (A)
                 (A) (A) (A) (A) (A) (A) (A) (A) (A) (A) (A) (A)
                 (A) (A) (A) (A) (A) (A) (A) (A) (A) (A) (A) (A)
                 (A) (A) (A) (A) (A) (A) (A) (A) (A) (A) (A) (A)
                 (A) (A) (A) (A) (A) (A) (A) (A) (A) (A) (A) (A)
                 (A) (A) (A) (A) (A) (A) (A) (A) (A) (A) (A) (A)
                 (A) (A) (A) (A) (A) (A) (A) (A) (A) (A) (A) (A)
                 (A) (A) (A) (A) (A) (A) (A) (A) (A) (A) (A) (A)
                 (A) (A) (A) (A) (A) (A) (A) (A) (A) (A) (A) (A)
                 (A) (A) (A) (A) (A) (A) (A) (A) (A) (A) (A) (A)
                 (A) (A) (A) (A) (A) (A) (A) (A) (A) (A) (A) (A)
                 (A) (A) (A) (A) (A) (A) (A) (A) (A) (A) (A) (A)
                 (A) (A) (A) (A) (A) (A) (A) (A) (A) (A) (A) (A)
                 (A) (A) (A) (A) (A) (A) (A) (A) (A) (A) (A) (A)
                 (A) (A) (A) (A) (A) (A) (A) (A) (A) (A) (A) (A)
                 (A) (A) (A) (A) (A) (A) (A) (A) (A) (A) (A) (A)
                 (A) (A) (A) (A) (A) (A) (A) (A) (A) (A) (A) (A)
                 (A) (A) (A) (A) (A) (A) (A) (A) (A) (A) (A) (A)
                 (A) (A) (A) (A) (A) (A) (A) (A) (A) (A) (A) (A)
                 (A) (A) (A) (A) (A) (A) (A) (A) (A) (A) (A) (A)
                 (A) (A) (A) (A) (A) (A) (A) (A) (A) (A) (A) (A)
                 (A) (A) (A) (A) (A) (A) (A) (A) (A) (A) (A) (A)
                 (A) (A) (A) (A) (A) (A) (A) (A) (A) (A) (A) (A)
                 (A) (A) (A) (A) (A) (A) (A) (A) (A) (A) (A) (A)
                 (A) (A) (A) (A) (A) (A) (A) (A) (A) (A) (A) (A)
                 (A) (A) (A) (A) (A) (A) (A) (A) (A) (A) (A) (A)
                 (A) (A) (A) (A) (A) (A) (A) (A) (A) (A) (A) (A)
                 (A) (A) (A) (A) (A) (A) (A) (A) (A) (A) (A) (A)
                 (A) (A) (A) (A) (A) (A) (A) (A) (A)
 The electronic state is 1-A.
 Alpha  occ. eigenvalues --  -25.29980 -19.68602 -19.68485 -19.61068 -19.61045
 Alpha  occ. eigenvalues --  -19.59543 -15.02636 -14.80559 -14.78219 -10.68348
 Alpha  occ. eigenvalues --  -10.66777 -10.65187 -10.65077 -10.62941 -10.59154
 Alpha  occ. eigenvalues --  -10.58160 -10.57685 -10.57443 -10.54296 -10.54274
 Alpha  occ. eigenvalues --  -10.53283 -10.53071  -1.41024  -1.38870  -1.20352
 Alpha  occ. eigenvalues --   -1.18027  -1.16652  -1.04534  -1.03970  -1.01430
 Alpha  occ. eigenvalues --   -0.98310  -0.92767  -0.87827  -0.86096  -0.85953
 Alpha  occ. eigenvalues --   -0.80990  -0.77002  -0.72915  -0.71811  -0.70714
 Alpha  occ. eigenvalues --   -0.67821  -0.66314  -0.65805  -0.65506  -0.62998
 Alpha  occ. eigenvalues --   -0.62477  -0.61110  -0.59097  -0.58934  -0.58182
 Alpha  occ. eigenvalues --   -0.56808  -0.55018  -0.53247  -0.52900  -0.52875
 Alpha  occ. eigenvalues --   -0.52135  -0.51942  -0.51175  -0.50235  -0.50031
 Alpha  occ. eigenvalues --   -0.49491  -0.46204  -0.45899  -0.45407  -0.44709
 Alpha  occ. eigenvalues --   -0.43812  -0.43540  -0.41614  -0.41380  -0.40857
 Alpha  occ. eigenvalues --   -0.39728  -0.39509  -0.39157  -0.39002  -0.38082
 Alpha  occ. eigenvalues --   -0.36501  -0.35509  -0.33118  -0.32961  -0.32919
 Alpha  occ. eigenvalues --   -0.31692  -0.31547  -0.29059
 Alpha virt. eigenvalues --   -0.05851  -0.00422   0.01905   0.02975   0.03192
 Alpha virt. eigenvalues --    0.03677   0.03697   0.04019   0.04287   0.04651
 Alpha virt. eigenvalues --    0.05180   0.05826   0.05840   0.06308   0.06557
 Alpha virt. eigenvalues --    0.07036   0.07529   0.07693   0.07840   0.08516
 Alpha virt. eigenvalues --    0.08638   0.09184   0.09300   0.09807   0.09945
 Alpha virt. eigenvalues --    0.10447   0.10849   0.11095   0.11623   0.11821
 Alpha virt. eigenvalues --    0.12329   0.12849   0.13237   0.13451   0.13991
 Alpha virt. eigenvalues --    0.14186   0.14427   0.15089   0.15305   0.15897
 Alpha virt. eigenvalues --    0.16099   0.16639   0.16898   0.17208   0.17460
 Alpha virt. eigenvalues --    0.17958   0.18590   0.19139   0.19260   0.20028
 Alpha virt. eigenvalues --    0.20485   0.20776   0.20986   0.21823   0.21893
 Alpha virt. eigenvalues --    0.22029   0.22442   0.22738   0.23090   0.23689
 Alpha virt. eigenvalues --    0.24001   0.24252   0.24514   0.24610   0.25050
 Alpha virt. eigenvalues --    0.25231   0.25764   0.26220   0.26508   0.26786
 Alpha virt. eigenvalues --    0.27320   0.27508   0.27937   0.28228   0.28699
 Alpha virt. eigenvalues --    0.28915   0.29133   0.29422   0.29510   0.30170
 Alpha virt. eigenvalues --    0.30539   0.30862   0.31574   0.32104   0.32215
 Alpha virt. eigenvalues --    0.32603   0.32656   0.33243   0.33549   0.33970
 Alpha virt. eigenvalues --    0.34085   0.34333   0.34869   0.35404   0.35839
 Alpha virt. eigenvalues --    0.35996   0.36576   0.36749   0.37156   0.37545
 Alpha virt. eigenvalues --    0.38065   0.38488   0.38989   0.39445   0.39780
 Alpha virt. eigenvalues --    0.40351   0.40819   0.41286   0.41784   0.42407
 Alpha virt. eigenvalues --    0.42684   0.43169   0.43690   0.44360   0.45069
 Alpha virt. eigenvalues --    0.45485   0.46859   0.47340   0.48159   0.48974
 Alpha virt. eigenvalues --    0.49266   0.50544   0.50917   0.52000   0.52278
 Alpha virt. eigenvalues --    0.54468   0.55133   0.55978   0.57219   0.60870
 Alpha virt. eigenvalues --    0.65316   0.67159   0.70160   0.71307   0.71517
 Alpha virt. eigenvalues --    0.72355   0.72633   0.73315   0.73541   0.75182
 Alpha virt. eigenvalues --    0.75946   0.76495   0.77314   0.77632   0.79361
 Alpha virt. eigenvalues --    0.79552   0.80318   0.80506   0.81254   0.81749
 Alpha virt. eigenvalues --    0.82729   0.83242   0.84483   0.86949   0.87552
 Alpha virt. eigenvalues --    0.87875   0.88997   0.89299   0.91179   0.92148
 Alpha virt. eigenvalues --    0.93000   0.93919   0.94961   0.96188   0.97270
 Alpha virt. eigenvalues --    0.99187   0.99679   0.99895   1.00451   1.01657
 Alpha virt. eigenvalues --    1.03235   1.03561   1.04170   1.04917   1.06909
 Alpha virt. eigenvalues --    1.07418   1.07757   1.08138   1.09685   1.10905
 Alpha virt. eigenvalues --    1.11152   1.12306   1.13346   1.13721   1.14740
 Alpha virt. eigenvalues --    1.15105   1.16462   1.16652   1.17755   1.18732
 Alpha virt. eigenvalues --    1.18936   1.19052   1.20671   1.22217   1.22918
 Alpha virt. eigenvalues --    1.24381   1.25512   1.26528   1.26702   1.27706
 Alpha virt. eigenvalues --    1.28027   1.29002   1.30755   1.31398   1.33215
 Alpha virt. eigenvalues --    1.33951   1.35019   1.35336   1.37537   1.37739
 Alpha virt. eigenvalues --    1.37995   1.38978   1.39221   1.40375   1.41278
 Alpha virt. eigenvalues --    1.42263   1.43324   1.44693   1.45187   1.45351
 Alpha virt. eigenvalues --    1.47308   1.47531   1.48670   1.49466   1.50486
 Alpha virt. eigenvalues --    1.51119   1.51700   1.53359   1.53800   1.55001
 Alpha virt. eigenvalues --    1.57324   1.57529   1.59415   1.60177   1.61983
 Alpha virt. eigenvalues --    1.64434   1.67124   1.68396   1.69565   1.70817
 Alpha virt. eigenvalues --    1.71757   1.72433   1.74158   1.76287   1.76531
 Alpha virt. eigenvalues --    1.79795   1.80135   1.80534   1.82660   1.83278
 Alpha virt. eigenvalues --    1.84993   1.85758   1.86467   1.86846   1.87808
 Alpha virt. eigenvalues --    1.89408   1.89623   1.89981   1.90562   1.91416
 Alpha virt. eigenvalues --    1.92480   1.93824   1.94216   1.95371   1.95628
 Alpha virt. eigenvalues --    1.96835   1.97623   1.97872   1.98334   1.99676
 Alpha virt. eigenvalues --    2.02257   2.02701   2.02862   2.04044   2.04267
 Alpha virt. eigenvalues --    2.06061   2.06294   2.06676   2.07802   2.08496
 Alpha virt. eigenvalues --    2.10055   2.10389   2.10756   2.12361   2.14047
 Alpha virt. eigenvalues --    2.15022   2.16742   2.17192   2.18455   2.20007
 Alpha virt. eigenvalues --    2.21412   2.22979   2.25441   2.26043   2.27247
 Alpha virt. eigenvalues --    2.29070   2.29970   2.30950   2.32522   2.32665
 Alpha virt. eigenvalues --    2.34844   2.34973   2.35267   2.37737   2.37999
 Alpha virt. eigenvalues --    2.38796   2.40384   2.41310   2.43523   2.50757
 Alpha virt. eigenvalues --    2.53075   2.53843   2.54310   2.55266   2.55852
 Alpha virt. eigenvalues --    2.58682   2.61322   2.64207   2.64374   2.66876
 Alpha virt. eigenvalues --    2.68514   2.71207   2.71265   2.71649   2.74379
 Alpha virt. eigenvalues --    2.75266   2.77422   2.79121   2.80258   2.82397
 Alpha virt. eigenvalues --    2.85406   2.86578   2.91930   2.97051   3.01648
 Alpha virt. eigenvalues --    3.05487   3.07158   3.10251   3.14987   3.15953
 Alpha virt. eigenvalues --    3.16879   3.19366   3.20281   3.25779   3.29492
 Alpha virt. eigenvalues --    3.34183   3.45426   4.15062   4.21574   4.26112
 Alpha virt. eigenvalues --    4.27303   4.30718   4.32222   4.33215   4.36410
 Alpha virt. eigenvalues --    4.41986   4.45000   4.46874   4.48398   4.49877
 Alpha virt. eigenvalues --    4.52990   4.54873   4.57219   4.64497   4.69960
 Alpha virt. eigenvalues --    4.78091   4.84907   4.89730   6.08858
          Condensed to atoms (all electrons):
               1          2          3          4          5          6
     1  C    5.775392  -0.094066  -0.045774  -0.001266  -0.019847  -0.000109
     2  C   -0.094066   6.188086  -0.323802  -0.057211   0.064593   0.013734
     3  C   -0.045774  -0.323802   6.819058   0.369485  -0.770587  -0.032430
     4  N   -0.001266  -0.057211   0.369485   7.610603   0.288853  -0.151240
     5  C   -0.019847   0.064593  -0.770587   0.288853   6.186627   0.609952
     6  O   -0.000109   0.013734  -0.032430  -0.151240   0.609952   8.587405
     7  N    0.000660  -0.004995  -0.124197  -0.249072   0.304411  -0.178829
     8  C    0.001875   0.017537  -0.319728  -0.203395  -1.018402  -0.285687
     9  C   -0.006439  -0.022626  -0.208004  -0.085842  -1.037825   0.223236
    10  C    0.001818   0.011522   0.120341   0.061175   0.378293  -0.084502
    11  C    0.000076  -0.000473   0.009276   0.007742   0.064370  -0.013437
    12  C   -0.000027   0.000070  -0.003689  -0.004821   0.029584   0.033758
    13  C   -0.000253  -0.002721   0.038157   0.032154   0.379781   0.097376
    14  H    0.433142  -0.108618   0.027178   0.000427  -0.000923   0.000006
    15  H    0.421543  -0.064453  -0.013679   0.000317   0.000198  -0.000031
    16  H   -0.026973   0.430329  -0.098231   0.007478   0.002520  -0.000123
    17  H   -0.020259   0.412746  -0.076846   0.006767  -0.006909  -0.000116
    18  H   -0.007113  -0.038983   0.414492  -0.050676  -0.014273   0.002883
    19  H   -0.000550  -0.048576   0.454468  -0.053249  -0.046304   0.004086
    20  H   -0.001469  -0.005844  -0.056036   0.197309   0.020224   0.004996
    21  H    0.000001   0.000004   0.000110  -0.000140   0.004235  -0.000128
    22  F    0.000000  -0.000000   0.000064   0.000003   0.003124   0.000008
    23  N    0.001002   0.000413   0.014594   0.031561  -0.100948  -0.044377
    24  H   -0.000000   0.000000  -0.000004  -0.000001  -0.000359   0.000003
    25  O    0.000014   0.000239  -0.000235  -0.002681   0.011273  -0.003466
    26  O   -0.000310   0.001178  -0.042473  -0.022302   0.111693  -0.060731
    27  H    0.417642  -0.066677  -0.011258   0.000758   0.003449  -0.000032
    28  H    0.000118   0.000261   0.007077   0.021956  -0.010456   0.004400
    29  H   -0.000000   0.000002  -0.000016  -0.000012   0.000157  -0.000007
    30  O    0.000005  -0.001722   0.002640   0.004730  -0.028205  -0.000565
    31  O    0.002976   0.007070  -0.019940  -0.018311   0.006225  -0.000232
    32  C   -0.001495  -0.002791   0.007883  -0.006564  -0.000348   0.000026
    33  C    0.000613  -0.003793   0.007037  -0.007180  -0.014947  -0.000303
    34  C   -0.000086  -0.000019  -0.001101   0.001485   0.000040   0.000063
    35  H    0.000014   0.000058   0.000008  -0.000003  -0.000130  -0.000000
    36  H    0.000006   0.000050  -0.000004   0.000018   0.000010   0.000000
    37  H    0.000000   0.000002   0.000006   0.000010   0.000039   0.000000
    38  H   -0.000000   0.000001  -0.000003  -0.000002   0.000008   0.000000
    39  H    0.000000   0.000008  -0.000005  -0.000003   0.000030  -0.000000
               7          8          9         10         11         12
     1  C    0.000660   0.001875  -0.006439   0.001818   0.000076  -0.000027
     2  C   -0.004995   0.017537  -0.022626   0.011522  -0.000473   0.000070
     3  C   -0.124197  -0.319728  -0.208004   0.120341   0.009276  -0.003689
     4  N   -0.249072  -0.203395  -0.085842   0.061175   0.007742  -0.004821
     5  C    0.304411  -1.018402  -1.037825   0.378293   0.064370   0.029584
     6  O   -0.178829  -0.285687   0.223236  -0.084502  -0.013437   0.033758
     7  N    7.679041  -0.375491   0.260964   0.141145   0.014983  -0.008354
     8  C   -0.375491  25.880765 -11.587027  -4.649116   0.284546  -1.667347
     9  C    0.260964 -11.587027  26.932101  -1.199008  -1.408132   0.982870
    10  C    0.141145  -4.649116  -1.199008  14.152135  -0.444768   0.100235
    11  C    0.014983   0.284546  -1.408132  -0.444768   6.197715  -0.124178
    12  C   -0.008354  -1.667347   0.982870   0.100235  -0.124178   8.362779
    13  C   -0.000005  -1.078070  -5.166872  -2.694084   0.830427  -1.902173
    14  H    0.000012  -0.000015   0.000002  -0.000000  -0.000000  -0.000000
    15  H    0.000019   0.000139  -0.000127   0.000023   0.000000   0.000000
    16  H    0.000326  -0.000184   0.000327  -0.000251  -0.000006  -0.000002
    17  H   -0.000241  -0.000225  -0.000579   0.000450   0.000009   0.000003
    18  H    0.002793  -0.008317   0.008684  -0.003093   0.000004   0.000006
    19  H   -0.002886   0.010524  -0.011930   0.001987  -0.000003  -0.000021
    20  H    0.030074   0.011355   0.009343  -0.006952   0.000138  -0.000023
    21  H    0.000460  -0.029287   0.003515   0.354324  -0.028364   0.024678
    22  F   -0.000324  -0.052675  -0.051872  -0.143507   0.344960  -0.131385
    23  N   -0.051099   0.397999  -1.023113   0.332140  -0.029535   0.071182
    24  H    0.000168  -0.022111   0.024406   0.029053  -0.055218   0.351383
    25  O   -0.017650   0.530347  -0.429402  -0.035758   0.006900   0.113551
    26  O   -0.002056  -0.083965  -0.195295  -0.037500   0.015680  -0.036841
    27  H    0.000027  -0.000025   0.000052  -0.000025  -0.000000  -0.000000
    28  H    0.183437   0.021951   0.020730  -0.069861   0.003539  -0.001018
    29  H   -0.000867   0.079990   0.069349  -0.024206  -0.002589  -0.080548
    30  O   -0.031155   0.082025   0.014932  -0.049236  -0.002694  -0.000310
    31  O    0.012256   0.007580  -0.002139  -0.001500   0.000432  -0.000019
    32  C   -0.007805  -0.029926   0.003043   0.003458  -0.003145   0.000255
    33  C   -0.015975  -0.001924   0.009162  -0.006301  -0.001901   0.000080
    34  C    0.002403  -0.000202   0.002558  -0.002056  -0.000511   0.000108
    35  H   -0.000002   0.000179  -0.000037  -0.000055  -0.000013   0.000000
    36  H    0.000047  -0.000268   0.000011   0.000109   0.000018  -0.000000
    37  H    0.000064  -0.000339   0.000195  -0.000216   0.000082  -0.000005
    38  H    0.000003   0.000025   0.000002  -0.000019  -0.000003  -0.000000
    39  H   -0.000028  -0.000190  -0.000119   0.000368  -0.000098   0.000011
              13         14         15         16         17         18
     1  C   -0.000253   0.433142   0.421543  -0.026973  -0.020259  -0.007113
     2  C   -0.002721  -0.108618  -0.064453   0.430329   0.412746  -0.038983
     3  C    0.038157   0.027178  -0.013679  -0.098231  -0.076846   0.414492
     4  N    0.032154   0.000427   0.000317   0.007478   0.006767  -0.050676
     5  C    0.379781  -0.000923   0.000198   0.002520  -0.006909  -0.014273
     6  O    0.097376   0.000006  -0.000031  -0.000123  -0.000116   0.002883
     7  N   -0.000005   0.000012   0.000019   0.000326  -0.000241   0.002793
     8  C   -1.078070  -0.000015   0.000139  -0.000184  -0.000225  -0.008317
     9  C   -5.166872   0.000002  -0.000127   0.000327  -0.000579   0.008684
    10  C   -2.694084  -0.000000   0.000023  -0.000251   0.000450  -0.003093
    11  C    0.830427  -0.000000   0.000000  -0.000006   0.000009   0.000004
    12  C   -1.902173  -0.000000   0.000000  -0.000002   0.000003   0.000006
    13  C   15.416468   0.000000  -0.000008   0.000040  -0.000036   0.000822
    14  H    0.000000   0.481969  -0.023937  -0.003179  -0.003121  -0.000050
    15  H   -0.000008  -0.023937   0.487528  -0.004610   0.003784  -0.000327
    16  H    0.000040  -0.003179  -0.004610   0.488869  -0.031335   0.003744
    17  H   -0.000036  -0.003121   0.003784  -0.031335   0.489168  -0.005080
    18  H    0.000822  -0.000050  -0.000327   0.003744  -0.005080   0.497220
    19  H   -0.000797  -0.000049   0.002783  -0.005329   0.003815  -0.040202
    20  H    0.000888  -0.000002   0.000000   0.000570   0.000730   0.001668
    21  H   -0.022006  -0.000000  -0.000000   0.000000  -0.000000  -0.000000
    22  F    0.011301   0.000000   0.000000  -0.000000   0.000000  -0.000000
    23  N   -0.184118   0.000000   0.000007   0.000065  -0.000006   0.000371
    24  H   -0.011962   0.000000  -0.000000  -0.000000  -0.000000  -0.000000
    25  O   -0.281097   0.000000  -0.000000  -0.000000   0.000000  -0.000008
    26  O    0.294678   0.000000   0.000005  -0.000015   0.000001  -0.000151
    27  H    0.000004  -0.023959  -0.028430   0.003785  -0.004689   0.002752
    28  H    0.010020  -0.000000   0.000000   0.000001   0.000002   0.000007
    29  H    0.288620  -0.000000   0.000000  -0.000000  -0.000000  -0.000000
    30  O    0.000886  -0.000000   0.000000  -0.000001   0.000022  -0.000001
    31  O    0.000468  -0.000028  -0.000001  -0.000186  -0.000601   0.000021
    32  C   -0.000202  -0.000049  -0.000003  -0.000785  -0.000413   0.000151
    33  C   -0.000747   0.000026  -0.000003  -0.000183  -0.000083   0.000030
    34  C   -0.000008  -0.000000  -0.000000  -0.000026  -0.000020   0.000001
    35  H   -0.000003  -0.000000   0.000000  -0.000000  -0.000000   0.000000
    36  H    0.000002  -0.000000   0.000000   0.000000  -0.000000  -0.000000
    37  H    0.000035   0.000000   0.000000   0.000000   0.000000  -0.000000
    38  H    0.000000   0.000000  -0.000000  -0.000000  -0.000000  -0.000000
    39  H   -0.000023   0.000000  -0.000000   0.000000  -0.000000   0.000000
              19         20         21         22         23         24
     1  C   -0.000550  -0.001469   0.000001   0.000000   0.001002  -0.000000
     2  C   -0.048576  -0.005844   0.000004  -0.000000   0.000413   0.000000
     3  C    0.454468  -0.056036   0.000110   0.000064   0.014594  -0.000004
     4  N   -0.053249   0.197309  -0.000140   0.000003   0.031561  -0.000001
     5  C   -0.046304   0.020224   0.004235   0.003124  -0.100948  -0.000359
     6  O    0.004086   0.004996  -0.000128   0.000008  -0.044377   0.000003
     7  N   -0.002886   0.030074   0.000460  -0.000324  -0.051099   0.000168
     8  C    0.010524   0.011355  -0.029287  -0.052675   0.397999  -0.022111
     9  C   -0.011930   0.009343   0.003515  -0.051872  -1.023113   0.024406
    10  C    0.001987  -0.006952   0.354324  -0.143507   0.332140   0.029053
    11  C   -0.000003   0.000138  -0.028364   0.344960  -0.029535  -0.055218
    12  C   -0.000021  -0.000023   0.024678  -0.131385   0.071182   0.351383
    13  C   -0.000797   0.000888  -0.022006   0.011301  -0.184118  -0.011962
    14  H   -0.000049  -0.000002  -0.000000   0.000000   0.000000   0.000000
    15  H    0.002783   0.000000  -0.000000   0.000000   0.000007  -0.000000
    16  H   -0.005329   0.000570   0.000000  -0.000000   0.000065  -0.000000
    17  H    0.003815   0.000730  -0.000000   0.000000  -0.000006  -0.000000
    18  H   -0.040202   0.001668  -0.000000  -0.000000   0.000371  -0.000000
    19  H    0.497347   0.001744   0.000000   0.000000  -0.000619   0.000000
    20  H    0.001744   0.261769   0.000002   0.000000  -0.000901   0.000000
    21  H    0.000000   0.000002   0.403401  -0.002989   0.000217  -0.000106
    22  F    0.000000   0.000000  -0.002989   9.362234   0.000323  -0.002499
    23  N   -0.000619  -0.000901   0.000217   0.000323   7.284225  -0.000053
    24  H    0.000000   0.000000  -0.000106  -0.002499  -0.000053   0.407998
    25  O    0.000070   0.000007   0.000040  -0.000024   0.339355  -0.000123
    26  O    0.000389   0.000283  -0.000001   0.000010   0.241003   0.000036
    27  H   -0.000294  -0.000000   0.000000  -0.000000  -0.000001   0.000000
    28  H   -0.000001   0.003280   0.000856   0.000002   0.001232  -0.000000
    29  H   -0.000000  -0.000000   0.000008  -0.000341  -0.035639  -0.003111
    30  O   -0.000004   0.002820  -0.000213  -0.000007  -0.001438   0.000000
    31  O   -0.000032   0.033470   0.000003   0.000000  -0.000094   0.000000
    32  C    0.000297  -0.005393   0.000257  -0.000015   0.002925   0.000000
    33  C    0.000031   0.002298   0.000218  -0.000014   0.001083  -0.000000
    34  C   -0.000001  -0.000265  -0.000042   0.000004  -0.000113   0.000000
    35  H   -0.000000  -0.000002   0.000000  -0.000000   0.000000   0.000000
    36  H    0.000000  -0.000004  -0.000000   0.000000  -0.000000  -0.000000
    37  H    0.000000   0.000000   0.000000   0.000000  -0.000000  -0.000000
    38  H   -0.000000   0.000000  -0.000000  -0.000000  -0.000000  -0.000000
    39  H   -0.000000   0.000000   0.000000  -0.000000   0.000000  -0.000000
              25         26         27         28         29         30
     1  C    0.000014  -0.000310   0.417642   0.000118  -0.000000   0.000005
     2  C    0.000239   0.001178  -0.066677   0.000261   0.000002  -0.001722
     3  C   -0.000235  -0.042473  -0.011258   0.007077  -0.000016   0.002640
     4  N   -0.002681  -0.022302   0.000758   0.021956  -0.000012   0.004730
     5  C    0.011273   0.111693   0.003449  -0.010456   0.000157  -0.028205
     6  O   -0.003466  -0.060731  -0.000032   0.004400  -0.000007  -0.000565
     7  N   -0.017650  -0.002056   0.000027   0.183437  -0.000867  -0.031155
     8  C    0.530347  -0.083965  -0.000025   0.021951   0.079990   0.082025
     9  C   -0.429402  -0.195295   0.000052   0.020730   0.069349   0.014932
    10  C   -0.035758  -0.037500  -0.000025  -0.069861  -0.024206  -0.049236
    11  C    0.006900   0.015680  -0.000000   0.003539  -0.002589  -0.002694
    12  C    0.113551  -0.036841  -0.000000  -0.001018  -0.080548  -0.000310
    13  C   -0.281097   0.294678   0.000004   0.010020   0.288620   0.000886
    14  H    0.000000   0.000000  -0.023959  -0.000000  -0.000000  -0.000000
    15  H   -0.000000   0.000005  -0.028430   0.000000   0.000000   0.000000
    16  H   -0.000000  -0.000015   0.003785   0.000001  -0.000000  -0.000001
    17  H    0.000000   0.000001  -0.004689   0.000002  -0.000000   0.000022
    18  H   -0.000008  -0.000151   0.002752   0.000007  -0.000000  -0.000001
    19  H    0.000070   0.000389  -0.000294  -0.000001  -0.000000  -0.000004
    20  H    0.000007   0.000283  -0.000000   0.003280  -0.000000   0.002820
    21  H    0.000040  -0.000001   0.000000   0.000856   0.000008  -0.000213
    22  F   -0.000024   0.000010  -0.000000   0.000002  -0.000341  -0.000007
    23  N    0.339355   0.241003  -0.000001   0.001232  -0.035639  -0.001438
    24  H   -0.000123   0.000036   0.000000  -0.000000  -0.003111   0.000000
    25  O    7.987700  -0.127919   0.000000   0.000064   0.018794  -0.000032
    26  O   -0.127919   8.019461  -0.000001  -0.001162  -0.002248  -0.000194
    27  H    0.000000  -0.000001   0.487263  -0.000000  -0.000000   0.000000
    28  H    0.000064  -0.001162  -0.000000   0.241308   0.000001   0.047508
    29  H    0.018794  -0.002248  -0.000000   0.000001   0.398325   0.000000
    30  O   -0.000032  -0.000194   0.000000   0.047508   0.000000   8.775664
    31  O   -0.000000   0.000081   0.000000  -0.000188  -0.000000  -0.169309
    32  C    0.000105  -0.001406  -0.000027  -0.003856   0.000001   0.283172
    33  C    0.000013  -0.000336  -0.000008   0.003651   0.000000  -0.100873
    34  C   -0.000001   0.000005   0.000000  -0.000160  -0.000000   0.032028
    35  H    0.000000   0.000000   0.000000  -0.000003   0.000000   0.001608
    36  H    0.000000  -0.000000   0.000000  -0.000005  -0.000000   0.001758
    37  H    0.000000   0.000000  -0.000000   0.000001  -0.000000  -0.001448
    38  H    0.000000   0.000000  -0.000000  -0.000000   0.000000   0.001191
    39  H   -0.000000  -0.000000  -0.000000   0.000001   0.000000  -0.001523
              31         32         33         34         35         36
     1  C    0.002976  -0.001495   0.000613  -0.000086   0.000014   0.000006
     2  C    0.007070  -0.002791  -0.003793  -0.000019   0.000058   0.000050
     3  C   -0.019940   0.007883   0.007037  -0.001101   0.000008  -0.000004
     4  N   -0.018311  -0.006564  -0.007180   0.001485  -0.000003   0.000018
     5  C    0.006225  -0.000348  -0.014947   0.000040  -0.000130   0.000010
     6  O   -0.000232   0.000026  -0.000303   0.000063  -0.000000   0.000000
     7  N    0.012256  -0.007805  -0.015975   0.002403  -0.000002   0.000047
     8  C    0.007580  -0.029926  -0.001924  -0.000202   0.000179  -0.000268
     9  C   -0.002139   0.003043   0.009162   0.002558  -0.000037   0.000011
    10  C   -0.001500   0.003458  -0.006301  -0.002056  -0.000055   0.000109
    11  C    0.000432  -0.003145  -0.001901  -0.000511  -0.000013   0.000018
    12  C   -0.000019   0.000255   0.000080   0.000108   0.000000  -0.000000
    13  C    0.000468  -0.000202  -0.000747  -0.000008  -0.000003   0.000002
    14  H   -0.000028  -0.000049   0.000026  -0.000000  -0.000000  -0.000000
    15  H   -0.000001  -0.000003  -0.000003  -0.000000   0.000000   0.000000
    16  H   -0.000186  -0.000785  -0.000183  -0.000026  -0.000000   0.000000
    17  H   -0.000601  -0.000413  -0.000083  -0.000020  -0.000000  -0.000000
    18  H    0.000021   0.000151   0.000030   0.000001   0.000000  -0.000000
    19  H   -0.000032   0.000297   0.000031  -0.000001  -0.000000   0.000000
    20  H    0.033470  -0.005393   0.002298  -0.000265  -0.000002  -0.000004
    21  H    0.000003   0.000257   0.000218  -0.000042   0.000000  -0.000000
    22  F    0.000000  -0.000015  -0.000014   0.000004  -0.000000   0.000000
    23  N   -0.000094   0.002925   0.001083  -0.000113   0.000000  -0.000000
    24  H    0.000000   0.000000  -0.000000   0.000000   0.000000  -0.000000
    25  O   -0.000000   0.000105   0.000013  -0.000001   0.000000   0.000000
    26  O    0.000081  -0.001406  -0.000336   0.000005   0.000000  -0.000000
    27  H    0.000000  -0.000027  -0.000008   0.000000   0.000000   0.000000
    28  H   -0.000188  -0.003856   0.003651  -0.000160  -0.000003  -0.000005
    29  H   -0.000000   0.000001   0.000000  -0.000000   0.000000  -0.000000
    30  O   -0.169309   0.283172  -0.100873   0.032028   0.001608   0.001758
    31  O    8.632902   0.426495  -0.242714   0.032270  -0.002061  -0.002405
    32  C    0.426495   5.154048  -0.330166  -0.103612  -0.057789  -0.054097
    33  C   -0.242714  -0.330166   6.588454  -0.035868   0.417538   0.415902
    34  C    0.032270  -0.103612  -0.035868   5.658541  -0.042493  -0.045324
    35  H   -0.002061  -0.057789   0.417538  -0.042493   0.455569  -0.021829
    36  H   -0.002405  -0.054097   0.415902  -0.045324  -0.021829   0.457333
    37  H   -0.000089  -0.017914  -0.040399   0.406357  -0.003874   0.003420
    38  H   -0.000288   0.030170  -0.076723   0.391141  -0.002236  -0.002285
    39  H   -0.000011  -0.008174  -0.051465   0.407719   0.003372  -0.003908
              37         38         39
     1  C    0.000000  -0.000000   0.000000
     2  C    0.000002   0.000001   0.000008
     3  C    0.000006  -0.000003  -0.000005
     4  N    0.000010  -0.000002  -0.000003
     5  C    0.000039   0.000008   0.000030
     6  O    0.000000   0.000000  -0.000000
     7  N    0.000064   0.000003  -0.000028
     8  C   -0.000339   0.000025  -0.000190
     9  C    0.000195   0.000002  -0.000119
    10  C   -0.000216  -0.000019   0.000368
    11  C    0.000082  -0.000003  -0.000098
    12  C   -0.000005  -0.000000   0.000011
    13  C    0.000035   0.000000  -0.000023
    14  H    0.000000   0.000000   0.000000
    15  H    0.000000  -0.000000  -0.000000
    16  H    0.000000  -0.000000   0.000000
    17  H    0.000000  -0.000000  -0.000000
    18  H   -0.000000  -0.000000   0.000000
    19  H    0.000000  -0.000000  -0.000000
    20  H    0.000000   0.000000   0.000000
    21  H    0.000000  -0.000000   0.000000
    22  F    0.000000  -0.000000  -0.000000
    23  N   -0.000000  -0.000000   0.000000
    24  H   -0.000000  -0.000000  -0.000000
    25  O    0.000000   0.000000  -0.000000
    26  O    0.000000   0.000000  -0.000000
    27  H   -0.000000  -0.000000  -0.000000
    28  H    0.000001  -0.000000   0.000001
    29  H   -0.000000   0.000000   0.000000
    30  O   -0.001448   0.001191  -0.001523
    31  O   -0.000089  -0.000288  -0.000011
    32  C   -0.017914   0.030170  -0.008174
    33  C   -0.040399  -0.076723  -0.051465
    34  C    0.406357   0.391141   0.407719
    35  H   -0.003874  -0.002236   0.003372
    36  H    0.003420  -0.002285  -0.003908
    37  H    0.487239  -0.025292  -0.026380
    38  H   -0.025292   0.496513  -0.025563
    39  H   -0.026380  -0.025563   0.487448
 Mulliken charges:
               1
     1  C   -0.830860
     2  C   -0.300533
     3  C   -0.143834
     4  N   -0.728858
     5  C    0.600774
     6  O   -0.725589
     7  N   -0.562262
     8  C    0.087078
     9  C   -0.129094
    10  C   -0.236561
    11  C    0.334170
    12  C   -0.109791
    13  C   -0.056944
    14  H    0.221170
    15  H    0.219264
    16  H    0.233365
    17  H    0.233061
    18  H    0.232624
    19  H    0.233305
    20  H    0.493922
    21  H    0.290946
    22  F   -0.336383
    23  N   -0.247642
    24  H    0.282499
    25  O   -0.110075
    26  O   -0.069600
    27  H    0.219692
    28  H    0.515309
    29  H    0.294340
    30  O   -0.862060
    31  O   -0.702101
    32  C    0.723690
    33  C   -0.514229
    34  C   -0.702818
    35  H    0.252185
    36  H    0.251445
    37  H    0.218506
    38  H    0.213360
    39  H    0.218532
 Sum of Mulliken charges =  -1.00000
 Mulliken charges with hydrogens summed into heavy atoms:
               1
     1  C   -0.170734
     2  C    0.165893
     3  C    0.322095
     4  N   -0.234936
     5  C    0.600774
     6  O   -0.725589
     7  N   -0.046953
     8  C    0.087078
     9  C   -0.129094
    10  C    0.054384
    11  C    0.334170
    12  C    0.172707
    13  C    0.237395
    22  F   -0.336383
    23  N   -0.247642
    25  O   -0.110075
    26  O   -0.069600
    30  O   -0.862060
    31  O   -0.702101
    32  C    0.723690
    33  C   -0.010600
    34  C   -0.052419
 Electronic spatial extent (au):  <R**2>=           9340.4818
 Charge=             -1.0000 electrons
 Dipole moment (field-independent basis, Debye):
    X=              4.3791    Y=              1.5634    Z=             -2.4373  Tot=              5.2499
 Quadrupole moment (field-independent basis, Debye-Ang):
   XX=           -132.7699   YY=           -163.7838   ZZ=           -139.8229
   XY=             17.6857   XZ=             -0.0403   YZ=              4.8861
 Traceless Quadrupole moment (field-independent basis, Debye-Ang):
   XX=             12.6890   YY=            -18.3249   ZZ=              5.6360
   XY=             17.6857   XZ=             -0.0403   YZ=              4.8861
 Octapole moment (field-independent basis, Debye-Ang**2):
  XXX=            139.7985  YYY=             16.1764  ZZZ=             -9.5425  XYY=            -57.3480
  XXY=              0.8365  XXZ=              9.2258  XZZ=            -16.8427  YZZ=             18.8439
  YYZ=            -16.4199  XYZ=             15.2657
 Hexadecapole moment (field-independent basis, Debye-Ang**3):
 XXXX=          -6715.4536 YYYY=          -4798.1873 ZZZZ=           -748.8486 XXXY=             13.7034
 XXXZ=             33.4001 YYYX=             45.4323 YYYZ=            -17.6234 ZZZX=            -36.2344
 ZZZY=             -9.2667 XXYY=          -1970.7744 XXZZ=          -1358.5221 YYZZ=           -921.5299
 XXYZ=             82.4120 YYXZ=            -34.9222 ZZXY=             27.2686
 N-N= 1.807335242120D+03 E-N=-6.313104949399D+03  KE= 1.135366247640D+03
 D1PCM: PCM CHGder 1st derivatives, ID1Alg=3 FixD1E=F DoIter=F DoCFld=F I1PDM=0.
 Calling FoFJK, ICntrl=      2127 FMM=F ISym2X=0 I1Cent= 0 IOpClX= 0 NMat=1 NMatS=1 NMatT=0.
 ***** Axes restored to original set *****
 -------------------------------------------------------------------
 Center     Atomic                   Forces (Hartrees/Bohr)
 Number     Number              X              Y              Z
 -------------------------------------------------------------------
      1        6          -0.004617977    0.001694813    0.002151456
      2        6           0.003176199   -0.004462144   -0.004299035
      3        6          -0.003241571    0.004585606    0.004048009
      4        7           0.005882441   -0.065076040   -0.053567353
      5        6          -0.019258100   -0.007958961    0.003962907
      6        8           0.005539591    0.016716301    0.034481850
      7        7           0.011071555   -0.061311309   -0.044921906
      8        6          -0.023927374    0.007863704    0.005794407
      9        6           0.023825213   -0.031089182    0.011745112
     10        6          -0.001371688    0.002250591   -0.001380697
     11        6          -0.014220676    0.005378012   -0.003432920
     12        6           0.005556005    0.004781388   -0.000020879
[...]
 00000042,0.00012503,0.00057666,0.00039230,-0.00000251,-0.00000046,-0.0
 0000076,-0.00412743,-0.00474127,-0.00024687,-0.00070783,-0.00134042,0.
 00170183,-0.00376070,0.01051811,-0.02652426,0.02373775,-0.07214143,0.0
 7492393,0.00587656,-0.00824603,0.02100639,-0.02742759,0.08100250,0.000
 00048,-0.00000015,0.00000163,0.00000061,0.00000047,-0.00000735,-0.0000
 0481,0.00000582,0.00000555,0.00004486,0.00004567,0.00001406,-0.0001576
 5,0.00002214,0.00010175,0.00003170,-0.00003825,-0.00006630,-0.00007840
 ,-0.00031435,-0.00021588,0.00012849,-0.00001745,-0.00001957,-0.0000220
 1,-0.00002031,-0.00000266,-0.00002406,0.00002114,0.00000886,0.00002236
 ,-0.00000121,0.00000253,-0.00000885,-0.00000774,-0.00000141,-0.0000019
 5,-0.00000687,0.00000001,0.00000163,0.00000048,-0.00000040,0.00000044,
 -0.00000070,-0.00000032,-0.00000048,-0.00000108,0.00000254,-0.00000100
 ,0.00000021,0.00000063,0.00000364,-0.00000014,-0.00000120,0.00000132,-
 0.00000107,-0.00000006,-0.00003797,-0.00003238,-0.00000030,-0.00000153
 ,-0.00000490,-0.00000429,-0.00001021,0.00000748,0.00000050,-0.00001443
 ,0.00003305,0.00000420,-0.00000046,-0.00000039,-0.00000043,0.00000230,
 -0.00001462,-0.00000645,0.00000627,-0.00001310,0.00000319,-0.00000012,
 0.00000021,0.00000052,0.00014159,0.00053552,0.00029588,-0.00000257,-0.
 00000053,-0.00000066,-0.00204342,-0.00394296,-0.00093498,-0.00003970,-
 0.00118913,0.00272435,-0.00336168,0.00914548,-0.01639563,-0.06335903,0
 .07654159,-0.27276439,0.00151752,-0.00154344,0.00483762,0.07036198,-0.
 08261516,0.29248518,-0.00000167,-0.00000019,0.00000144,-0.00000151,0.0
 0000033,-0.00000531,-0.00000519,-0.00000497,0.00000614,0.00001503,-0.0
 0000494,-0.00000817,-0.00007420,0.00001027,0.00005744,0.00000879,-0.00
 001634,-0.00004330,-0.00005292,-0.00021140,-0.00009670,0.00006073,-0.0
 0001420,-0.00000651,-0.00001195,-0.00000879,-0.00000262,-0.00001147,0.
 00000830,0.00000650,0.00001293,0.00000165,0.00000044,-0.00000453,-0.00
 000466,-0.00000117,-0.00000208,-0.00000349,-0.00000108,0.00000218,0.00
 000044,0.00000019,0.00000027,0.00000020,-0.00000014,0.00000077,0.00000
 034,0.00000135,0.00000318,-0.00000912,-0.00000328,0.00000218,-0.000000
 80,-0.00000201,0.00000246,-0.00000061,-0.00000290,-0.00001090,-0.00002
 246,-0.00004153,-0.00000082,-0.00000142,0.00000148,-0.00000503,0.00000
 296,-0.00000034,-0.00000490,0.00001810,0.00000584,-0.00000024,-0.00000
 029,0.00000018,0.00000068,-0.00000913,-0.00000526,0.00000160,-0.000006
 66,-0.00000015,-0.00000007,0.00000014,-0.00000080,0.00009602,0.0003393
 2,0.00009952,-0.00000144,-0.00000032,0.00000008,-0.00002656,-0.0020093
 9,-0.00243351,0.00124952,0.00225883,-0.00046066,-0.00959065,-0.0033999
 6,0.00405252,-0.22543991,-0.08894006,0.09260120,-0.01871504,-0.0086066
 6,0.00963427,0.00734289,0.00374975,-0.00312403,0.24590655,-0.00000106,
 0.00000202,0.00000194,0.00000417,-0.00000911,-0.00000673,-0.00004203,0
 .00000421,0.00002170,-0.00005066,-0.00011923,-0.00008980,-0.00001258,0
 .00003925,0.00010874,-0.00002275,-0.00005495,-0.00010764,-0.00009179,-
 0.00031789,-0.00011987,0.00012059,-0.00001317,-0.00000606,-0.00001896,
 -0.00001404,-0.00000507,-0.00002743,0.00001292,0.00001122,0.00002538,-
 0.00000089,0.00000230,-0.00000867,-0.00000797,-0.00000383,-0.00000254,
 -0.00000596,-0.00000156,0.00000385,-0.00000008,-0.00000094,0.00000037,
 -0.00000028,-0.00000036,0.00000055,0.00000206,0.00000041,0.00000261,0.
 00000008,-0.00000231,0.00000726,-0.00000235,-0.00000814,0.00000955,-0.
 00000516,-0.00000724,0.00005523,0.00023970,0.00019411,0.00000140,-0.00
 000243,0.00000001,-0.00001160,0.00000877,0.00000052,-0.00000507,0.0000
 3279,0.00000999,-0.00000036,-0.00000036,0.00000004,0.00000013,-0.00001
 632,-0.00000913,0.00000015,-0.00001325,-0.00000046,0.00000041,-0.00000
 023,-0.00000132,0.00019632,0.00057967,0.00014700,-0.00000256,-0.000000
 60,-0.00000003,-0.00135079,-0.00199552,-0.00515339,0.00187809,0.000368
 92,-0.00287254,-0.02073847,-0.00988463,0.01597009,-0.08948505,-0.09213
 630,0.04554089,0.02098663,0.00970865,-0.01080100,-0.00759799,-0.004339
 02,0.00367207,0.09389628,0.09901036,0.00000144,0.00000240,0.00000057,0
 .00000152,-0.00000833,0.00000179,-0.00001210,0.00000359,0.00000905,-0.
 00001402,-0.00003741,-0.00000841,-0.00003013,0.00001694,0.00005809,-0.
 00000655,-0.00001820,-0.00004896,-0.00004027,-0.00020275,-0.00004931,0
 .00005352,-0.00000693,-0.00000224,-0.00000895,-0.00000471,-0.00000171,
 -0.00001234,0.00000480,0.00000422,0.00001017,-0.00000071,0.00000233,-0
 .00000343,-0.00000326,-0.00000252,-0.00000088,-0.00000289,-0.00000137,
 -0.00000036,-0.00000080,-0.00000030,-0.00000055,0.00000020,0.00000035,
 0.00000009,0.00000267,-0.00000172,-0.00000020,0.00001130,0.00000289,0.
 00000137,-0.00000088,-0.00000231,0.00000355,-0.00000114,-0.00000203,0.
 00002263,0.00009413,0.00004053,0.00000044,0.00000002,0.00000067,-0.000
 00517,0.00000426,0.00000040,-0.00000070,0.00001285,0.00000370,-0.00000
 010,-0.00000015,0.00000007,-0.00000015,-0.00000625,-0.00000354,-0.0000
 0075,-0.00000574,0.00000014,0.00000015,-0.00000052,-0.00000055,0.00011
 771,0.00035436,0.00002673,-0.00000123,-0.00000036,0.00000015,-0.000912
 59,-0.00113161,-0.00448008,0.00043940,0.00132394,-0.00080993,-0.016306
 18,-0.00953752,0.00946960,0.09066395,0.04354482,-0.08824806,0.00086158
 ,0.00024794,-0.00108216,0.02508283,0.01288616,-0.01209185,-0.09979225,
 -0.04637761,0.09562267,0.00000049,0.00000064,-0.00000113,0.,-0.0000023
 9,0.00000138,0.00000802,-0.00000020,-0.00000093,0.00001233,0.00003469,
 0.00003391,-0.00002518,-0.00000325,-0.00000621,0.00000944,0.00000864,0
 .00001370,0.00001276,0.00002520,0.00000803,-0.00001651,-0.00000076,0.0
 0000415,0.00000263,0.00000347,0.00000079,0.00000416,-0.00000238,-0.000
 00404,-0.00000253,0.00000075,0.00000009,0.00000147,0.00000018,0.,-0.00
 000044,0.00000031,-0.00000055,-0.00000014,-0.00000020,0.00000015,-0.00
 000049,0.00000090,0.00000044,-0.00000008,-0.00000135,-0.00000017,-0.00
 000045,0.00000136,-0.00000148,-0.00000116,0.00000033,0.00000209,-0.000
 00134,0.00000201,0.00000176,-0.00000169,-0.00004599,-0.00005355,0.0000
 0044,0.00000349,0.00000498,0.00000162,-0.00000044,0.00000026,0.0000014
 2,-0.00000128,0.00000308,0.00000041,-0.00000002,0.00000037,-0.00000045
 ,-0.00000043,-0.00000108,-0.00000104,0.00000039,-0.00000243,-0.0000001
 3,-0.00000021,0.00000050,-0.00001024,-0.00004906,-0.00001432,0.0000002
 6,0.00000011,0.00000043,0.00144249,-0.00018351,0.00002410,0.00029510,0
 .00062835,0.00026973,-0.00092913,-0.00163739,-0.00138964,-0.01960542,-
 0.00920356,0.01047793,-0.22895829,-0.08618728,0.09577082,0.00083800,-0
 .00044489,-0.00044676,-0.00260575,0.00418221,0.00002745,0.24912950,0.0
 0000004,-0.00000023,0.00000007,0.00000013,0.00000058,-0.00000007,0.000
 00090,0.00000057,-0.00000100,0.00000257,0.00000491,0.00000419,0.000003
 81,-0.00000221,-0.00000278,0.00000028,0.00000193,0.00000348,0.00000064
 ,0.00001149,0.00000796,-0.00000344,0.00000133,-0.00000334,0.00000049,-
 0.00000115,0.00000034,0.00000163,-0.00000230,0.00000389,-0.00000413,0.
 00000302,-0.00000192,0.00000029,-0.00000026,0.00000125,0.00000005,0.00
 000082,-0.00000005,-0.00000017,0.,0.00000006,0.00000004,-0.00000010,-0
 .00000007,-0.00000020,0.00000021,-0.00000006,-0.00000012,-0.00000006,0
 .00000047,-0.00000022,-0.00000032,-0.00000010,-0.00000035,-0.00000001,
 0.00000015,-0.00000559,0.00000107,-0.00000457,0.00000022,0.00000279,-0
 .00000082,0.00000193,-0.00000169,0.00000023,-0.00000095,-0.00000135,-0
 .00000142,0.00000015,0.00000011,-0.00000003,0.00000043,0.00000072,0.00
 000071,0.00000052,0.00000020,0.00000058,0.00000003,0.00000001,-0.00000
 011,-0.00000753,-0.00002160,-0.00000250,0.00000011,0.00000003,-0.00000
 012,0.00037774,-0.00041047,-0.00030924,-0.00006000,-0.00011638,0.00034
 431,-0.00045588,0.00104868,-0.00049494,0.02042720,0.00980689,-0.011105
 26,-0.08800008,-0.08907972,0.04707734,-0.00094825,0.00110813,0.0001520
 0,0.00367581,-0.00304240,-0.00076463,0.09258612,0.09487724,-0.00000059
 ,-0.00000023,-0.00000019,0.,0.00000130,0.00000047,0.00000095,-0.000000
 52,-0.00000122,-0.00000848,-0.00000303,-0.00000560,0.00002400,-0.00000
 472,-0.00001410,-0.00000462,0.00000371,0.00000799,0.00000417,0.0000298
 1,0.00001945,-0.00000549,0.00000164,-0.00000204,0.00000028,0.00000198,
 0.00000082,0.00000045,-0.00000317,0.00000408,-0.00000387,-0.00000248,-
 0.00000288,0.00000077,0.00000231,0.00000155,0.00000206,0.00000173,0.00
 000034,-0.00000013,0.00000013,0.00000009,0.00000018,-0.00000039,-0.000
 00011,0.00000010,-0.00000006,0.00000008,0.00000002,-0.00000101,0.00000
 027,-0.00000036,0.00000015,0.00000033,-0.00000065,-0.00000009,0.000000
 21,0.00000216,0.00000212,0.00000497,0.00000050,-0.00000052,-0.00000544
 ,0.00000043,0.00000163,0.00000078,0.00000395,-0.00000817,-0.00000283,-
 0.00000013,0.00000028,-0.00000012,-0.00000051,0.00000465,0.00000229,-0
 .00000174,0.00000354,0.00000037,0.00000004,0.00000008,0.00000001,-0.00
 002523,-0.00005579,-0.00002826,0.00000019,0.,-0.00000016,-0.00027683,0
 .00024653,0.00013773,-0.00014191,-0.00015100,-0.00010375,0.00071719,0.
 00029965,0.00012968,0.00045767,0.00016941,-0.00101469,0.09566643,0.045
 83838,-0.09947466,-0.00018729,-0.00049938,0.00036505,0.00006225,-0.000
 39778,0.00113040,-0.10501193,-0.05032179,0.10167933,0.00000001,-0.0000
 0087,-0.00000154,-0.00000043,0.00000079,0.00000119,0.00003180,0.000001
 06,-0.00000716,0.00005664,0.00009758,0.00013796,-0.00008305,-0.0000165
 1,-0.00001539,0.00003141,0.00002937,0.00003821,0.00003183,0.00003203,0
 .00001175,-0.00003413,-0.00000360,-0.00000007,0.00000455,0.00000471,0.
 00000126,0.00000881,-0.00000261,-0.00000323,-0.00000512,0.00000079,-0.
 00000057,0.00000249,0.00000162,0.00000075,-0.00000011,0.00000043,0.000
 00007,-0.00000132,0.00000030,0.00000074,-0.00000037,0.00000056,0.00000
 047,0.00000008,-0.00000237,0.00000011,-0.00000089,0.00000102,-0.000001
 78,-0.00000541,0.00000230,0.00000718,-0.00000557,0.00000392,0.00000562
 ,-0.00003892,-0.00015092,-0.00022968,0.,0.00000198,0.00000265,0.000002
 64,-0.00000279,-0.00000037,-0.00000040,-0.00000691,-0.00000228,-0.0000
 0003,-0.00000013,0.,0.00000046,0.00000314,0.00000186,0.00000063,0.0000
 0228,-0.00000007,-0.00000025,0.00000020,0.00000086,-0.00001886,-0.0000
 6460,-0.00003143,0.00000048,0.,0.00000018,0.00121950,-0.00051439,0.000
 12944,-0.00038129,0.00288248,0.00135879,-0.00468009,0.00052588,-0.0020
 5576,0.00823985,0.02113202,0.01548529,-0.07491604,-0.06764264,-0.04772
 303,0.00087152,-0.00086896,-0.00029195,0.00101244,-0.00092932,0.000046
 84,-0.00747044,-0.01922945,-0.01593830,0.07940951,-0.00000084,0.000001
 24,0.00000262,0.00000105,-0.00000235,-0.00000349,-0.00004412,0.0000005
 5,0.00001404,-0.00006302,-0.00011331,-0.00016603,0.00006946,0.00003553
 ,0.00005364,-0.00003329,-0.00005285,-0.00007250,-0.00006592,-0.0001168
 5,-0.00006247,0.00007532,-0.00000122,-0.00000203,-0.00001019,-0.000011
 27,-0.00000252,-0.00001949,0.00000644,0.00000333,0.00001596,0.00000021
 ,0.00000227,-0.00000564,-0.00000597,-0.00000165,-0.00000147,-0.0000027
 7,-0.00000110,0.00000287,0.00000013,-0.00000079,0.00000087,-0.00000136
 ,-0.00000081,-0.00000019,0.00000321,0.00000018,0.00000088,-0.00000128,
 0.00000235,0.00000761,-0.00000284,-0.00001018,0.00000797,-0.00000611,-
 0.00000785,0.00004115,0.00021387,0.00030829,0.00000018,-0.00000133,-0.
 00000006,-0.00000733,0.00000529,0.00000016,-0.00000307,0.00002272,0.00
 000704,-0.00000044,-0.00000027,0.00000002,-0.00000044,-0.00001165,-0.0
 0000609,0.,-0.00000982,-0.00000067,0.00000039,0.00000005,-0.00000175,0
 .00009756,0.00024281,0.00011720,-0.00000138,-0.00000032,-0.00000018,-0
 .00044235,-0.00064423,-0.00064034,0.00085933,-0.00335342,-0.00147219,0
 .00394913,0.00173882,0.00213194,-0.00861691,-0.01730086,-0.01247100,-0
 .06612242,-0.21070937,-0.11581550,-0.00059391,0.00060314,0.00048787,-0
 .00008778,0.00101288,0.00001955,-0.00325682,-0.00931374,-0.00641061,0.
 07037145,0.22753665,-0.00000038,0.00000006,0.00000121,-0.00000011,-0.0
 0000055,-0.00000184,-0.00001145,0.00000104,0.00000386,-0.00000911,-0.0
 0002372,-0.00003016,0.00000577,0.00001317,0.00002372,-0.00000558,-0.00
 001683,-0.00002420,-0.00002619,-0.00005543,-0.00002618,0.00002832,-0.0
 0000237,-0.00000146,-0.00000406,-0.00000477,-0.00000182,-0.00000716,0.
 00000246,0.00000114,0.00000617,0.00000003,0.00000152,-0.00000228,-0.00
 000228,-0.00000103,-0.00000067,-0.00000131,0.00000012,0.00000115,0.000
 00009,-0.00000011,0.00000038,-0.00000044,-0.00000025,0.00000015,0.0000
 0040,0.00000018,-0.00000023,-0.00000030,0.00000041,0.00000176,-0.00000
 053,-0.00000244,0.00000235,-0.00000179,-0.00000208,0.00000249,0.000052
 08,0.00006649,0.00000062,0.00000056,-0.00000160,-0.00000290,0.00000177
 ,0.00000002,-0.00000201,0.00000932,0.00000241,-0.00000026,-0.00000017,
 -0.00000005,0.00000015,-0.00000495,-0.00000215,0.00000068,-0.00000373,
 -0.00000026,0.00000007,0.00000006,-0.00000055,0.00004956,0.00011304,0.
 00005427,-0.00000060,-0.00000014,-0.00000010,0.00020820,-0.00074108,-0
 .00010138,0.00029442,-0.00064584,-0.00014998,-0.00025536,0.00073836,0.
 00105877,-0.00075751,0.00024982,-0.00130934,-0.04687069,-0.11651849,-0
 .13219922,0.00036669,0.00003114,0.00041828,-0.00000127,0.00000203,-0.0
 0011401,0.00372329,0.01205362,0.00887598,0.05218937,0.12813439,0.13835
 819,-0.00000006,-0.00000083,-0.00000088,0.00000009,0.00000225,0.000000
 61,0.00000887,0.00000085,-0.00000367,0.00000850,0.00002347,0.00003291,
 -0.00000844,-0.00000310,-0.00001324,0.00000536,0.00000931,0.00001511,0
 .00001150,0.00002768,0.00001780,-0.00001286,-0.00000002,0.00000253,0.0
 0000123,0.00000261,-0.00000101,0.00000362,-0.00000258,-0.00000068,-0.0
 0000246,-0.00000103,0.00000009,0.00000123,0.00000171,-0.00000037,0.000
 00055,0.00000075,0.00000099,-0.00000056,0.00000017,0.00000004,0.000000
 04,-0.00000008,0.00000006,0.00000034,-0.00000141,0.00000045,-0.0000005
 5,-0.00000051,-0.00000018,-0.00000159,0.00000108,0.00000268,-0.0000019
 0,0.00000098,0.00000164,-0.00000602,-0.00004573,-0.00005406,0.00000014
 ,0.00000075,0.00000033,0.00000103,0.00000028,0.00000052,0.00000054,-0.
 00000524,-0.00000218,0.00000022,0.00000011,0.00000005,0.00000009,0.000
 00326,0.00000183,0.00000017,0.00000135,0.00000076,-0.00000011,0.000000
 14,0.00000084,-0.00001430,-0.00005036,-0.00002000,0.00000035,0.0000001
 1,-0.00000004,0.00065945,-0.00012750,0.00053611,0.00003230,0.00024768,
 0.00039709,-0.00019369,-0.00131605,-0.00083694,-0.00658257,0.00851728,
 -0.02325380,-0.06463383,0.02194191,-0.06033133,-0.00298385,0.00394384,
 0.00076788,0.00084859,-0.00097150,-0.00018575,0.00787038,-0.00836479,0
 .02466428,-0.00328195,0.00387584,-0.00892380,0.06827017,-0.00000047,0.
 00000048,0.00000021,0.00000011,-0.00000226,0.00000069,-0.00000379,-0.0
 0000255,0.00000182,-0.00001332,-0.00001691,-0.00002681,0.00002820,-0.0
 0000517,-0.00000528,-0.00000839,0.00000051,-0.00000170,0.00000374,0.00
 002697,0.00001519,-0.00000541,0.00000178,0.00000320,0.00000048,0.00000
 191,-0.00000184,-0.00000018,-0.00000121,-0.00000489,-0.00000226,-0.000
 00233,0.00000113,0.00000048,0.00000221,-0.00000042,0.00000065,0.000001
 15,0.00000090,0.00000009,-0.00000003,0.00000010,-0.00000011,0.00000010
 ,0.00000004,-0.00000039,0.00000138,-0.00000090,0.00000099,0.00000074,0
 .00000021,0.00000050,-0.00000070,-0.00000196,0.00000073,-0.00000014,-0
 .00000076,0.00000761,0.00002934,0.00003772,-0.00000210,-0.00000189,0.0
 0000336,0.00000063,0.00000069,-0.00000025,0.00000534,-0.00000537,0.000
 00236,-0.00000016,0.00000010,0.00000022,-0.00000114,0.00000197,-0.0000
 0090,-0.00000272,0.00000263,-0.00000139,0.00000021,-0.00000002,-0.0000
 0090,-0.00002053,-0.00004430,-0.00001928,0.00000026,-0.00000011,0.0000
 0030,-0.00030369,-0.00000977,-0.00014270,-0.00006883,-0.00012337,-0.00
 042419,0.00013671,0.00073986,0.00121370,0.00524943,-0.00836393,0.02111
 929,0.02188108,-0.07873255,0.08344356,0.00354560,-0.00272289,-0.000905
 26,-0.00059908,0.00095984,-0.00041753,0.00354229,-0.00487675,0.0112517
 0,-0.00565985,0.01023966,-0.02337874,-0.02771270,0.08290095,0.00000045
 ,0.00000027,-0.00000125,0.00000062,0.00000097,0.00000052,0.00000427,0.
 00000053,-0.00000183,0.00000834,0.00001272,0.00002398,-0.00001291,0.00
 000008,-0.00000459,0.00000530,0.00000490,0.00000656,0.00000291,0.00000
 422,0.00000331,-0.00000681,-0.00000046,0.00000043,0.00000096,0.0000001
 5,-0.00000176,0.00000157,-0.00000259,0.,-0.00000187,0.00000132,0.00000
 196,0.00000066,-0.00000009,-0.00000122,-0.00000065,-0.00000029,0.00000
 131,-0.00000051,-0.00000015,-0.00000010,-0.00000020,0.00000014,0.00000
 005,0.00000018,-0.00000082,0.00000016,-0.00000005,-0.00000124,-0.00000
 055,-0.00000067,0.00000027,0.00000199,-0.00000069,0.00000056,0.0000007
 2,-0.00000752,-0.00002264,-0.00003877,0.00000033,0.00000417,0.00000009
 ,0.00000165,-0.00000176,-0.00000017,-0.00000335,-0.00000098,-0.0000029
 3,0.00000023,0.,-0.00000021,0.00000082,0.00000053,0.00000107,0.0000020
 7,-0.00000100,0.00000218,-0.00000008,-0.00000020,0.00000095,0.00000795
 ,-0.00001160,-0.00000400,0.00000012,0.00000006,0.00000010,0.00096623,-
 0.00106013,0.00037442,0.00028478,0.00045805,0.00021323,-0.00149478,-0.
 00068663,-0.00050799,0.00106322,-0.00123126,0.00402395,-0.06119800,0.0
 8565740,-0.27440812,0.00024314,-0.00088332,0.00124180,-0.00049786,0.00
 028974,0.00057671,-0.00343519,0.00336417,-0.01170621,-0.00311797,0.005
 86493,-0.01489635,0.06718331,-0.09176002,0.29510056\\0.00000107,0.0000
 0403,-0.00000230,0.00000004,0.00000406,-0.00000037,-0.00000352,0.00000
 125,-0.00000033,0.00000362,0.00000985,0.00000348,-0.00000628,0.0000051
 0,0.00001153,0.00000018,0.00000238,-0.00000711,0.00001181,-0.00000557,
 -0.00000470,-0.00000802,0.00000100,-0.00000129,0.00000424,-0.00000404,
 -0.00000236,0.00000715,-0.00000033,0.00000106,-0.00000760,-0.00000162,
 0.00000040,0.00000144,0.00000025,0.00000035,0.00000432,-0.00000012,-0.
 00000028,-0.00000079,0.00000354,-0.00000157,0.00000042,0.00000524,-0.0
 0000295,0.00000014,0.00000164,-0.00000232,-0.00000021,0.00000138,-0.00
 000005,0.00000014,0.00000268,0.00000005,0.00000159,0.00000345,-0.00000
 288,-0.00000320,-0.00000746,-0.00000780,-0.00000052,-0.00000119,0.0000
 0153,0.00000191,-0.00000413,0.00000147,-0.00000245,-0.00000623,-0.0000
 0293,-0.00000037,-0.00000226,-0.00000070,0.00001012,0.00000581,0.00000
 386,-0.00000504,-0.00000250,-0.00001168,0.00000022,0.00000476,-0.00000
 025,-0.00000231,0.00000071,-0.00000155,-0.00000051,0.00000004,-0.00000
 302,-0.00000390,-0.00000274,0.00000277,-0.00000363,0.00000489,0.000006
 01,0.00000559,-0.00000729,-0.00001276,0.00000050,-0.00000177,0.0000103
 1,0.00000381,0.00000088,0.00000763,-0.00000123,-0.00000316,0.00000190,
 -0.00000381,-0.00000268,0.00000303,-0.00000074,-0.00000330,0.00000373,
 -0.00000215,-0.00000381,0.00000458,-0.00000204,-0.00000275,0.00000552\
 \\@


 THE PROMISED LAND ALWAYS LIES ON THE OTHER SIDE OF A WILDERNESS.

                         -- HAVELOCK ELLIS
 Job cpu time:       0 days  6 hours 49 minutes 30.5 seconds.
 File lengths (MBytes):  RWF=    996 Int=      0 D2E=      0 Chk=     29 Scr=      1
 Normal termination of Gaussian 09 at Tue Feb 19 14:22:40 2019.
WARNING: pbs_rusage is deprecated and values produced may not be accurate


=============================================================================
                                     Resource usage:
                                       CPU time:              32:50:03
   JobId:    5877184.r-man2            Elapsed time:          04:07:27
   Project:             q95            Requested time:        44:00:00
   Service Units:     32.99 
                                       Max physical memory:     1549MB
                                       Max virtual memory:      2890MB
                                       Requested memory:           0MB

                                       Number of cpus:               8

                                       Max jobfs disk use:       1.0GB
                                       Requested jobfs:         20.0GB
=============================================================================

