 Entering Gaussian System, Link 0=/apps/gaussian/g09e01/g09/g09
 AtFile(1): /home/507/hio507/Basis/6-31pGd.gbs
 Initial command:
 /apps/gaussian/g09e01/g09/l1.exe "/jobfs/local/5977115.r-man2/Gau-36900.inp" -scrdir="/jobfs/local/5977115.r-man2/"
 Entering Link 1 = /apps/gaussian/g09e01/g09/l1.exe PID=     36901.
  
 Copyright (c) 1988,1990,1992,1993,1995,1998,2003,2009,2015,
            Gaussian, Inc.  All Rights Reserved.
  
 This is part of the Gaussian(R) 09 program.  It is based on
 the Gaussian(R) 03 system (copyright 2003, Gaussian, Inc.),
 the Gaussian(R) 98 system (copyright 1998, Gaussian, Inc.),
 the Gaussian(R) 94 system (copyright 1995, Gaussian, Inc.),
 the Gaussian 92(TM) system (copyright 1992, Gaussian, Inc.),
 the Gaussian 90(TM) system (copyright 1990, Gaussian, Inc.),
 the Gaussian 88(TM) system (copyright 1988, Gaussian, Inc.),
 the Gaussian 86(TM) system (copyright 1986, Carnegie Mellon
 University), and the Gaussian 82(TM) system (copyright 1983,
 Carnegie Mellon University). Gaussian is a federally registered
 trademark of Gaussian, Inc.
  
 This software contains proprietary and confidential information,
 including trade secrets, belonging to Gaussian, Inc.
  
 This software is provided under written license and may be
 used, copied, transmitted, or stored only in accord with that
 written license.
  
 The following legend is applicable only to US Government
 contracts under FAR:
  
                    RESTRICTED RIGHTS LEGEND
  
 Use, reproduction and disclosure by the US Government is
 subject to restrictions as set forth in subparagraphs (a)
 and (c) of the Commercial Computer Software - Restricted
 Rights clause in FAR 52.227-19.
  
 Gaussian, Inc.
 340 Quinnipiac St., Bldg. 40, Wallingford CT 06492
  
  
 ---------------------------------------------------------------
 Warning -- This program may not be used in any manner that
 competes with the business of Gaussian, Inc. or will provide
 assistance to any competitor of Gaussian, Inc.  The licensee
 of this program is prohibited from giving any competitor of
 Gaussian, Inc. access to this program.  By using this program,
 the user acknowledges that Gaussian, Inc. is engaged in the
 business of creating and licensing software in the field of
 computational chemistry and represents and warrants to the
 licensee that it is not a competitor of Gaussian, Inc. and that
 it will not use this program in any manner prohibited above.
 ---------------------------------------------------------------
  

 Cite this work as:
 Gaussian 09, Revision E.01,
 M. J. Frisch, G. W. Trucks, H. B. Schlegel, G. E. Scuseria, 
 M. A. Robb, J. R. Cheeseman, G. Scalmani, V. Barone, B. Mennucci, 
 G. A. Petersson, H. Nakatsuji, M. Caricato, X. Li, H. P. Hratchian, 
 A. F. Izmaylov, J. Bloino, G. Zheng, J. L. Sonnenberg, M. Hada, 
 M. Ehara, K. Toyota, R. Fukuda, J. Hasegawa, M. Ishida, T. Nakajima, 
 Y. Honda, O. Kitao, H. Nakai, T. Vreven, J. A. Montgomery, Jr., 
 J. E. Peralta, F. Ogliaro, M. Bearpark, J. J. Heyd, E. Brothers, 
 K. N. Kudin, V. N. Staroverov, T. Keith, R. Kobayashi, J. Normand, 
 K. Raghavachari, A. Rendell, J. C. Burant, S. S. Iyengar, J. Tomasi, 
 M. Cossi, N. Rega, J. M. Millam, M. Klene, J. E. Knox, J. B. Cross, 
 V. Bakken, C. Adamo, J. Jaramillo, R. Gomperts, R. E. Stratmann, 
 O. Yazyev, A. J. Austin, R. Cammi, C. Pomelli, J. W. Ochterski, 
 R. L. Martin, K. Morokuma, V. G. Zakrzewski, G. A. Voth, 
 P. Salvador, J. J. Dannenberg, S. Dapprich, A. D. Daniels, 
 O. Farkas, J. B. Foresman, J. V. Ortiz, J. Cioslowski, 
 and D. J. Fox, Gaussian, Inc., Wallingford CT, 2013.
 
 ******************************************
 Gaussian 09:  ES64L-G09RevE.01 30-Nov-2015
                21-Feb-2019 
 ******************************************
 %chk=2Nitro4Fluro_OS_EtO.M062X_6-31pGd_bsse.chk
 %mem=196608000
 %nproc=4
 Will use up to    4 processors via shared memory.
 ----------------------------------------------------------------------
 # M062X/Gen 6D SCF=Tight INT(grid=ultrafine) Counterpoise=2 maxdisk=67
 1088640
 ----------------------------------------------------------------------
 1/38=1,62=2/1;
 2/12=2,17=6,18=5,40=1/2;
 1/38=1,53=2,62=2,63=1/22;
 3/5=7,8=2,11=2,16=1,25=1,30=1,74=-55,75=-5/1,2,3;
 4//1;
 5/5=2,32=2,38=5/2;
 6/7=2,8=2,9=2,10=2,28=1/1;
 1/53=2,62=2,63=1/22;
 3/5=7,6=11,8=2,11=2,16=1,25=1,30=1,74=-55,75=-5,82=7/1,2,3;
 4//1;
 5/5=2,32=2,38=5/2;
 6/7=2,8=2,9=2,10=2,28=1/1;
 1/53=2,62=2,63=1/22(-4);
 99/5=1,9=1/99;
 --------------------------------------
 2Nitro4Fluro_OS_EtO.M062X_6-31pGd_bsse
 --------------------------------------
 Symbolic Z-matrix:
 Charge = -1 Multiplicity = 1 in supermolecule
 Charge =  0 Multiplicity = 1 in fragment      1.
 Charge = -1 Multiplicity = 1 in fragment      2.
 C(Fragment=1)        -1.12974   2.39647   1.11982 
 C(Fragment=1)         0.02204   2.25194   0.12772 
 C(Fragment=1)         1.37238   2.50761   0.7889 
 N(Fragment=1)         2.43714   2.29224  -0.16556 
 C(Fragment=1)         3.68497   2.7431    0.09834 
 O(Fragment=1)         3.98169   3.4666    1.04543 
 N(Fragment=1)         4.62753   2.27571  -0.82726 
 C(Fragment=1)         5.97248   2.51554  -0.71623 
 C(Fragment=1)         6.56241   3.7237   -0.28863 
 C(Fragment=1)         6.85017   1.4609   -1.05209 
 C(Fragment=1)         8.2076    1.62958  -0.90467 
 C(Fragment=1)         8.79049   2.79543  -0.41443 
 C(Fragment=1)         7.93946   3.84512  -0.10874 
 H(Fragment=1)        -2.09759   2.22492   0.63718 
 H(Fragment=1)        -1.14687   3.40055   1.56037 
 H(Fragment=1)        -0.10045   2.95668  -0.70359 
 H(Fragment=1)         0.0245    1.24744  -0.31289 
 H(Fragment=1)         1.48908   1.84707   1.6641 
 H(Fragment=1)         1.43898   3.5369    1.15796 
 H(Fragment=1)         2.30967   1.53306  -0.85881 
 H(Fragment=1)         6.43399   0.51867  -1.4001 
 F(Fragment=1)         9.02477   0.60101  -1.2269 
 N(Fragment=1)         5.80072   4.96741  -0.15661 
 H(Fragment=1)         9.86582   2.86818  -0.3014 
 O(Fragment=1)         6.17672   5.77463   0.681 
 O(Fragment=1)         4.89871   5.16636  -0.94744 
 H(Fragment=1)        -1.03317   1.67624   1.94075 
 H(Fragment=1)         4.39098   1.38445  -1.32068 
 H(Fragment=1)         8.32618   4.79209   0.2506 
 O(Fragment=2)         4.25506  -0.16326  -2.0456 
 O(Fragment=2)         2.02888   0.08198  -1.87662 
 C(Fragment=2)         3.06321  -0.53421  -2.23473 
 C(Fragment=2)         2.84227  -1.86418  -2.9733 
 C(Fragment=2)         4.12332  -2.5808   -3.38199 
 H(Fragment=2)         2.21737  -1.64387  -3.84767 
 H(Fragment=2)         2.22729  -2.49564  -2.32016 
 H(Fragment=2)         4.72763  -1.94704  -4.03732 
 H(Fragment=2)         3.90338  -3.51874  -3.90673 
 H(Fragment=2)         4.7362   -2.8073   -2.5047 
 
                          Input orientation:                          
 ---------------------------------------------------------------------
 Center     Atomic      Atomic             Coordinates (Angstroms)
 Number     Number       Type             X           Y           Z
 ---------------------------------------------------------------------
      1          6           0       -1.129736    2.396466    1.119824
      2          6           0        0.022039    2.251940    0.127724
      3          6           0        1.372377    2.507611    0.788903
      4          7           0        2.437135    2.292240   -0.165556
      5          6           0        3.684973    2.743098    0.098337
      6          8           0        3.981686    3.466603    1.045427
      7          7           0        4.627525    2.275715   -0.827258
      8          6           0        5.972480    2.515543   -0.716228
      9          6           0        6.562408    3.723703   -0.288633
     10          6           0        6.850168    1.460905   -1.052091
     11          6           0        8.207605    1.629583   -0.904670
     12          6           0        8.790494    2.795434   -0.414426
     13          6           0        7.939458    3.845116   -0.108736
     14          1           0       -2.097590    2.224916    0.637184
     15          1           0       -1.146874    3.400554    1.560371
     16          1           0       -0.100455    2.956679   -0.703591
     17          1           0        0.024504    1.247437   -0.312887
     18          1           0        1.489079    1.847073    1.664100
     19          1           0        1.438975    3.536896    1.157955
     20          1           0        2.309673    1.533063   -0.858810
     21          1           0        6.433987    0.518671   -1.400097
     22          9           0        9.024772    0.601008   -1.226900
     23          7           0        5.800724    4.967411   -0.156610
     24          1           0        9.865821    2.868183   -0.301398
     25          8           0        6.176723    5.774631    0.681002
     26          8           0        4.898709    5.166358   -0.947440
     27          1           0       -1.033171    1.676238    1.940752
     28          1           0        4.390975    1.384446   -1.320675
     29          1           0        8.326183    4.792090    0.250602
     30          8           0        4.255060   -0.163262   -2.045600
     31          8           0        2.028881    0.081981   -1.876616
     32          6           0        3.063209   -0.534210   -2.234733
     33          6           0        2.842266   -1.864180   -2.973303
     34          6           0        4.123317   -2.580801   -3.381988
     35          1           0        2.217370   -1.643873   -3.847672
     36          1           0        2.227290   -2.495642   -2.320159
     37          1           0        4.727627   -1.947035   -4.037317
     38          1           0        3.903382   -3.518737   -3.906729
     39          1           0        4.736198   -2.807302   -2.504698
 ---------------------------------------------------------------------
                    Distance matrix (angstroms):
                    1          2          3          4          5
     1  C    0.000000
     2  C    1.527002   0.000000
     3  C    2.526348   1.525103   0.000000
     4  N    3.792840   2.433172   1.446058   0.000000
     5  C    4.934066   3.695833   2.424960   1.352779   0.000000
     6  O    5.222773   4.242215   2.791766   2.287191   1.228201
     7  N    6.078797   4.703516   3.641667   2.288216   1.401278
     8  C    7.336671   6.015770   4.840085   3.584936   2.438849
     9  C    7.931859   6.716835   5.438417   4.368307   3.064468
    10  C    8.322942   6.974313   5.872908   4.577327   3.603605
    11  C    9.585020   8.273854   7.096440   5.855230   4.764466
    12  C   10.046097   8.801995   7.520591   6.378112   5.131473
    13  C    9.265971   8.079582   6.761747   5.717535   4.399769
    14  H    1.095039   2.180162   3.484768   4.605720   5.830686
    15  H    1.096616   2.176729   2.781930   4.129443   5.090828
    16  H    2.167510   1.096698   2.144396   2.677746   3.875328
    17  H    2.169147   1.096891   2.149126   2.633269   3.975567
    18  H    2.730616   2.162539   1.102678   2.108228   2.841905
    19  H    2.810749   2.172602   1.095474   2.072962   2.607185
    20  H    4.060787   2.592933   2.131485   1.035953   2.066825
    21  H    8.190606   6.815536   5.862380   4.543618   3.840633
    22  F   10.575671   9.252555   8.139886   6.883580   5.904088
    23  N    7.501354   6.391231   5.153141   4.297714   3.080417
    24  H   11.097056   9.872383   8.570726   7.452217   6.195024
    25  O    8.061570   7.113059   5.810921   5.179597   3.967179
    26  O    6.948959   5.782017   4.745402   3.864096   2.904994
    27  H    1.096348   2.175310   2.793672   4.105973   5.176250
    28  H    6.120333   4.683803   3.850163   2.444562   2.087575
    29  H    9.793313   8.684830   7.339212   6.411188   5.075666
    30  O    6.750418   5.336197   4.845393   3.587326   3.656282
    31  O    4.930756   3.571206   3.663287   2.824826   3.704676
    32  C    6.117409   4.753162   4.610202   3.558410   4.070695
    33  C    7.119242   5.874734   5.952086   5.032237   5.601084
    34  C    8.522562   7.245270   7.131335   6.077432   6.375634
    35  H    7.225197   5.983361   6.280657   5.394373   6.080326
    36  H    6.858267   5.778823   5.952284   5.254538   5.951333
    37  H    8.931450   7.557877   7.375227   6.181290   6.339409
    38  H    9.251386   8.040046   8.048094   7.064964   7.436318
    39  H    8.638607   7.399247   7.100098   6.063217   6.219952
                    6          7          8          9         10
     6  O    0.000000
     7  N    2.311336   0.000000
     8  C    2.823332   1.370674   0.000000
     9  C    2.916495   2.475996   1.410851   0.000000
    10  C    4.080514   2.377942   1.412587   2.405396   0.000000
    11  C    5.003590   3.638743   2.411684   2.733407   1.375798
    12  C    5.070136   4.215548   2.847916   2.416997   2.439764
    13  C    4.139967   3.734728   2.450676   1.394048   2.785845
    14  H    6.218202   6.882902   8.187931   8.837367   9.137819
    15  H    5.154770   6.348994   7.526708   7.934498   8.633648
    16  H    4.470230   4.778368   6.088948   6.719691   7.118283
    17  H    4.735926   4.744443   6.095014   6.991185   6.868892
    18  H    3.036235   4.029944   5.119931   5.750963   6.022300
    19  H    2.546170   3.962134   5.010827   5.327014   6.202826
    20  H    3.187526   2.434126   3.794964   4.817651   4.545180
    21  H    4.548041   2.584309   2.160594   3.394713   1.087254
    22  F    6.229593   4.722302   3.639055   4.085928   2.344970
    23  N    2.646926   3.011875   2.520779   1.464378   3.768130
    24  H    6.065896   5.297857   3.931227   3.412421   3.411470
    25  O    3.205931   4.113062   3.551847   2.301141   4.697379
    26  O    2.775179   2.905822   2.869366   2.298516   4.189215
    27  H    5.399611   6.329671   7.539438   8.176496   8.435077
    28  H    3.178259   1.045837   2.036147   3.354452   2.474998
    29  H    4.611217   4.601521   3.414285   2.131462   3.869422
    30  O    4.775469   2.751671   3.448588   4.849668   3.218628
    31  O    4.879287   3.559012   4.777101   6.027992   5.081937
    32  C    5.254479   3.510520   4.480035   5.844786   4.440742
    33  C    6.772423   4.993134   5.837346   7.229893   5.550723
    34  C    7.496209   5.510591   6.041391   7.434028   5.403658
    35  H    7.291926   5.504082   6.419310   7.768976   6.238409
    36  H    7.067774   5.545785   6.458407   7.848604   6.215566
    37  H    7.463122   5.305291   5.700342   7.041045   5.003080
    38  H    8.562999   6.601757   7.132531   8.521383   6.452080
    39  H    7.248072   5.353753   5.749756   7.134424   4.979611
                   11         12         13         14         15
    11  C    0.000000
    12  C    1.392590   0.000000
    13  C    2.369388   1.385474   0.000000
    14  H   10.436895  10.953618  10.194301   0.000000
    15  H    9.834583  10.149742   9.249053   1.771514   0.000000
    16  H    8.415787   8.897111   8.110694   2.514300   2.533287
    17  H    8.213366   8.902201   8.332833   2.522178   3.084985
    18  H    7.196143   7.650511   6.981584   3.749868   3.061422
    19  H    7.328480   7.554269   6.629916   3.807858   2.620523
    20  H    5.898900   6.617560   6.132103   4.705382   4.613857
    21  H    2.150650   3.421743   3.872892   8.935860   8.633601
    22  F    1.352613   2.351703   3.598949  11.393806  10.911861
    23  N    4.182555   3.704413   2.415786   8.398497   7.326130
    24  H    2.155863   1.083696   2.168500  12.017401  11.181639
    25  O    4.880600   4.111858   2.730192   9.003703   7.748846
    26  O    4.843490   4.588177   3.419833   7.753149   6.779104
    27  H    9.669051  10.163851   9.455818   1.770120   1.769430
    28  H    3.847053   4.708284   4.485021   6.829427   6.559946
    29  H    3.369001   2.155106   1.084178  10.742201   9.663885
    30  O    4.487608   5.655508   5.778695   7.297731   7.408421
    31  O    6.443320   7.431032   7.226444   5.285747   5.736831
    32  C    5.737236   6.870360   6.890295   6.518782   6.899998
    33  C    6.728483   7.977548   8.172097   7.359246   8.011546
    34  C    6.367561   7.713161   8.159014   8.828836   9.379682
    35  H    7.433686   8.642950   8.766466   7.328051   8.124734
    36  H    7.401706   8.643086   8.816147   7.052243   7.823594
    37  H    5.892022   7.219642   7.700559   9.264973   9.718054
    38  H    7.351455   8.714860   9.216343   9.468282  10.162227
    39  H    5.856339   7.224763   7.762484   9.049601   9.469571
                   16         17         18         19         20
    16  H    0.000000
    17  H    1.757776   0.000000
    18  H    3.060033   2.532394   0.000000
    19  H    2.484321   3.066876   1.764708   0.000000
    20  H    2.803478   2.366772   2.671527   2.973349   0.000000
    21  H    7.009132   6.541758   5.967083   6.372085   4.281583
    22  F    9.438898   9.069625   8.166837   8.476514   6.789461
    23  N    6.258286   6.872215   5.625102   4.774862   4.947249
    24  H    9.974780   9.973889   8.664621   8.578381   7.693415
    25  O    7.018612   7.702798   6.194046   5.261293   5.942727
    26  O    5.471177   6.286372   5.428017   4.365501   4.462264
    27  H    3.082539   2.526150   2.543121   3.191603   4.362643
    28  H    4.798505   4.483356   4.188545   4.414856   2.137107
    29  H    8.676834   9.044333   7.577407   7.059210   6.931844
    30  O    5.523181   4.784346   5.045193   5.646616   2.840866
    31  O    3.764831   2.796616   3.992945   4.636060   1.794550
    32  C    4.953733   4.012665   4.832111   5.542777   2.595110
    33  C    6.087026   4.969885   6.091800   6.943209   4.036830
    34  C    7.461752   6.393360   7.211677   8.077313   5.155541
    35  H    6.035117   5.065870   6.564811   7.245866   4.362881
    36  H    6.144876   4.784563   5.939567   7.007870   4.286349
    37  H    7.646601   6.796719   7.575593   8.238907   5.297215
    38  H    8.259650   7.118835   8.102772   9.028083   6.111497
    39  H    7.736968   6.591281   7.041723   8.033402   5.237913
                   21         22         23         24         25
    21  H    0.000000
    22  F    2.597873   0.000000
    23  N    4.662464   5.532222   0.000000
    24  H    4.301724   2.589208   4.577415   0.000000
    25  O    5.658823   6.206275   1.222527   4.798124   0.000000
    26  O    4.915584   6.159944   1.215987   5.511005   2.157578
    27  H    8.261942  10.599639   7.869744  11.190889   8.388467
    28  H    2.220309   4.700494   4.022446   5.763188   5.144835
    29  H    4.956544   4.498467   2.564079   2.525194   2.402251
    30  O    2.372642   4.899442   5.681652   6.611546   6.810707
    31  O    4.452272   7.045140   6.407234   8.465332   7.493482
    32  C    3.628680   6.151803   6.486942   7.847904   7.615574
    33  C    4.588400   6.881166   7.959703   8.880577   9.100769
    34  C    4.344399   6.228368   8.378082   8.494575   9.515125
    35  H    5.333580   7.632081   8.376959   9.562087   9.550894
    36  H    5.256319   7.549186   8.552633   9.549511   9.643776
    37  H    3.993281   5.732052   8.001312   7.971477   9.164417
    38  H    5.384034   7.098057   9.469847   9.452080  10.610468
    39  H    3.894191   5.625052   8.191025   7.961073   9.266789
                   26         27         28         29         30
    26  O    0.000000
    27  H    7.463899   0.000000
    28  H    3.834051   6.335883   0.000000
    29  H    3.650063  10.008130   5.437537   0.000000
    30  O    5.479515   6.873147   1.714465   6.811909   0.000000
    31  O    5.911866   5.146855   2.754083   8.146545   2.246012
    32  C    6.125574   6.253086   2.505935   7.889567   1.262491
    33  C    7.600101   7.190377   3.960209   9.207217   2.397862
    34  C    8.157617   8.546538   4.477034   9.231431   2.765462
    35  H    7.872748   7.422601   4.503442   9.774205   3.097072
    36  H    8.229646   6.796363   4.553634   9.844610   3.102778
    37  H    7.757381   9.058268   4.311873   8.760803   2.715161
    38  H    9.229243   9.249344   5.564766  10.291473   3.853140
    39  H    8.125928   8.552764   4.369421   8.844797   2.726391
                   31         32         33         34         35
    31  O    0.000000
    32  C    1.256094   0.000000
    33  C    2.377365   1.537245   0.000000
    34  C    3.707184   2.574599   1.523699   0.000000
    35  H    2.626625   2.132690   1.097066   2.174243   0.000000
    36  H    2.623021   2.133840   1.097058   2.174776   1.748973
    37  H    4.008586   2.831196   2.166466   1.093757   2.535599
    38  H    4.538753   3.522622   2.175961   1.097018   2.522150
    39  H    4.008990   2.835263   2.167036   1.093875   3.082473
                   36         37         38         39
    36  H    0.000000
    37  H    3.082415   0.000000
    38  H    2.524522   1.779516   0.000000
    39  H    2.534916   1.757570   1.779161   0.000000
 Stoichiometry    C13H17FN3O5(1-)
 Framework group  C1[X(C13H17FN3O5)]
 Deg. of freedom   111
 Full point group                 C1      NOp   1
 Largest Abelian subgroup         C1      NOp   1
 Largest concise Abelian subgroup C1      NOp   1
                         Standard orientation:                         
 ---------------------------------------------------------------------
 Center     Atomic      Atomic             Coordinates (Angstroms)
 Number     Number       Type             X           Y           Z
 ---------------------------------------------------------------------
      1          6           0       -5.009594   -3.080647   -0.666827
      2          6           0       -4.032488   -2.100654   -0.021369
      3          6           0       -2.648483   -2.182043   -0.656857
      4          7           0       -1.775867   -1.191813   -0.066033
      5          6           0       -0.437988   -1.271978   -0.249512
      6          8           0        0.140525   -2.219315   -0.775205
      7          7           0        0.232885   -0.132323    0.213838
      8          6           0        1.579612    0.064635    0.051718
      9          6           0        2.578001   -0.925370    0.168384
     10          6           0        2.011162    1.371377   -0.267023
     11          6           0        3.346200    1.612343   -0.495994
     12          6           0        4.326113    0.623796   -0.452955
     13          6           0        3.916255   -0.655457   -0.113740
     14          1           0       -5.997871   -3.027532   -0.198215
     15          1           0       -4.649837   -4.112677   -0.577063
     16          1           0       -3.938463   -2.307383    1.051557
     17          1           0       -4.406103   -1.073112   -0.109332
     18          1           0       -2.730191   -2.034312   -1.746535
     19          1           0       -2.205056   -3.172018   -0.503936
     20          1           0       -2.196530   -0.282963    0.198982
     21          1           0        1.272840    2.165055   -0.351139
     22          9           0        3.731060    2.871354   -0.806373
     23          7           0        2.311704   -2.247648    0.738530
     24          1           0        5.362027    0.865755   -0.659677
     25          8           0        2.988546   -3.183288    0.337236
     26          8           0        1.500791   -2.322738    1.641528
     27          1           0       -5.133816   -2.864919   -1.734538
     28          1           0       -0.326649    0.750202    0.256806
     29          1           0        4.629276   -1.468221   -0.033387
     30          8           0       -1.035080    2.309564    0.179944
     31          8           0       -3.020413    1.292608    0.442297
     32          6           0       -2.288818    2.307278    0.328335
     33          6           0       -3.000501    3.668992    0.376974
     34          6           0       -2.076273    4.871098    0.227293
     35          1           0       -3.548989    3.708886    1.326249
     36          1           0       -3.766366    3.659046   -0.408447
     37          1           0       -1.319666    4.876713    1.017115
     38          1           0       -2.638273    5.812094    0.273464
     39          1           0       -1.541057    4.830820   -0.725851
 ---------------------------------------------------------------------
 Rotational constants (GHZ):      0.2808971      0.1967211      0.1219736
 Counterpoise: doing full dimer calculation.
 General basis read from cards:  (6D, 7F)
 There are   452 symmetry adapted cartesian basis functions of A   symmetry.
 There are   452 symmetry adapted basis functions of A   symmetry.
   452 basis functions,   772 primitive gaussians,   452 cartesian basis functions
    83 alpha electrons       83 beta electrons
       nuclear repulsion energy      1851.4948352070 Hartrees.
 NAtoms=   39 NActive=   39 NUniq=   39 SFac= 1.00D+00 NAtFMM=   60 NAOKFM=F Big=F
 Integral buffers will be    131072 words long.
 Raffenetti 2 integral format.
 Two-electron integral symmetry is turned on.
 One-electron integrals computed using PRISM.
 NBasis=   452 RedAO= T EigKep=  1.08D-06  NBF=   452
 NBsUse=   451 1.00D-06 EigRej=  6.81D-07 NBFU=   451
 ExpMin= 4.38D-02 ExpMax= 7.00D+03 ExpMxC= 1.05D+03 IAcc=3 IRadAn=         5 AccDes= 0.00D+00
 Harris functional with IExCor= 1009 and IRadAn=       5 diagonalized for initial guess.
 HarFok:  IExCor= 1009 AccDes= 0.00D+00 IRadAn=         5 IDoV= 1 UseB2=F ITyADJ=14
 ICtDFT=  3500011 ScaDFX=  1.000000  1.000000  1.000000  1.000000
 FoFCou: FMM=F IPFlag=           0 FMFlag=      100000 FMFlg1=           0
         NFxFlg=           0 DoJE=T BraDBF=F KetDBF=T FulRan=T
         wScrn=  0.000000 ICntrl=     500 IOpCl=  0 I1Cent=   200000004 NGrid=           0
         NMat0=    1 NMatS0=      1 NMatT0=    0 NMatD0=    1 NMtDS0=    0 NMtDT0=    0
 Petite list used in FoFCou.
 Requested convergence on RMS density matrix=1.00D-08 within 128 cycles.
 Requested convergence on MAX density matrix=1.00D-06.
 Requested convergence on             energy=1.00D-06.
 No special actions if energy rises.
 SCF Done:  E(RM062X) =  -1145.45626568     A.U. after   16 cycles
            NFock= 16  Conv=0.75D-08     -V/T= 2.0083

 **********************************************************************

            Population analysis using the SCF density.

 **********************************************************************

 Orbital symmetries:
       Occupied  (A) (A) (A) (A) (A) (A) (A) (A) (A) (A) (A) (A)
                 (A) (A) (A) (A) (A) (A) (A) (A) (A) (A) (A) (A)
                 (A) (A) (A) (A) (A) (A) (A) (A) (A) (A) (A) (A)
                 (A) (A) (A) (A) (A) (A) (A) (A) (A) (A) (A) (A)
                 (A) (A) (A) (A) (A) (A) (A) (A) (A) (A) (A) (A)
                 (A) (A) (A) (A) (A) (A) (A) (A) (A) (A) (A) (A)
                 (A) (A) (A) (A) (A) (A) (A) (A) (A) (A) (A)
       Virtual   (A) (A) (A) (A) (A) (A) (A) (A) (A) (A) (A) (A)
                 (A) (A) (A) (A) (A) (A) (A) (A) (A) (A) (A) (A)
                 (A) (A) (A) (A) (A) (A) (A) (A) (A) (A) (A) (A)
                 (A) (A) (A) (A) (A) (A) (A) (A) (A) (A) (A) (A)
                 (A) (A) (A) (A) (A) (A) (A) (A) (A) (A) (A) (A)
                 (A) (A) (A) (A) (A) (A) (A) (A) (A) (A) (A) (A)
                 (A) (A) (A) (A) (A) (A) (A) (A) (A) (A) (A) (A)
                 (A) (A) (A) (A) (A) (A) (A) (A) (A) (A) (A) (A)
                 (A) (A) (A) (A) (A) (A) (A) (A) (A) (A) (A) (A)
                 (A) (A) (A) (A) (A) (A) (A) (A) (A) (A) (A) (A)
                 (A) (A) (A) (A) (A) (A) (A) (A) (A) (A) (A) (A)
                 (A) (A) (A) (A) (A) (A) (A) (A) (A) (A) (A) (A)
                 (A) (A) (A) (A) (A) (A) (A) (A) (A) (A) (A) (A)
                 (A) (A) (A) (A) (A) (A) (A) (A) (A) (A) (A) (A)
                 (A) (A) (A) (A) (A) (A) (A) (A) (A) (A) (A) (A)
                 (A) (A) (A) (A) (A) (A) (A) (A) (A) (A) (A) (A)
                 (A) (A) (A) (A) (A) (A) (A) (A) (A) (A) (A) (A)
                 (A) (A) (A) (A) (A) (A) (A) (A) (A) (A) (A) (A)
                 (A) (A) (A) (A) (A) (A) (A) (A) (A) (A) (A) (A)
                 (A) (A) (A) (A) (A) (A) (A) (A) (A) (A) (A) (A)
                 (A) (A) (A) (A) (A) (A) (A) (A) (A) (A) (A) (A)
                 (A) (A) (A) (A) (A) (A) (A) (A) (A) (A) (A) (A)
                 (A) (A) (A) (A) (A) (A) (A) (A) (A) (A) (A) (A)
                 (A) (A) (A) (A) (A) (A) (A) (A) (A) (A) (A) (A)
                 (A) (A) (A) (A) (A) (A) (A) (A) (A) (A) (A) (A)
                 (A) (A) (A) (A) (A) (A) (A) (A) (A) (A) (A) (A)
                 (A) (A) (A) (A) (A) (A) (A) (A) (A) (A) (A) (A)
                 (A) (A) (A) (A) (A) (A) (A) (A) (A) (A) (A) (A)
                 (A) (A) (A) (A) (A) (A) (A) (A) (A) (A) (A) (A)
                 (A) (A) (A) (A) (A) (A) (A) (A) (A) (A) (A) (A)
                 (A) (A) (A) (A) (A) (A) (A) (A)
 The electronic state is 1-A.
 Alpha  occ. eigenvalues --  -25.19178 -19.57150 -19.57053 -19.49069 -19.47366
 Alpha  occ. eigenvalues --  -19.46755 -14.90449 -14.66716 -14.64892 -10.55936
 Alpha  occ. eigenvalues --  -10.55586 -10.52375 -10.51955 -10.50795 -10.48580
 Alpha  occ. eigenvalues --  -10.47298 -10.46861 -10.46343 -10.45206 -10.44461
 Alpha  occ. eigenvalues --  -10.43034 -10.42989  -1.28439  -1.25740  -1.07086
 Alpha  occ. eigenvalues --   -1.05308  -1.03381  -0.94482  -0.93634  -0.90981
 Alpha  occ. eigenvalues --   -0.87501  -0.80512  -0.78455  -0.75791  -0.75089
 Alpha  occ. eigenvalues --   -0.69427  -0.67355  -0.62801  -0.61449  -0.60190
 Alpha  occ. eigenvalues --   -0.58085  -0.56295  -0.53550  -0.53035  -0.52498
 Alpha  occ. eigenvalues --   -0.50381  -0.49341  -0.48159  -0.47803  -0.47122
 Alpha  occ. eigenvalues --   -0.45579  -0.44468  -0.43051  -0.41676  -0.41602
 Alpha  occ. eigenvalues --   -0.41012  -0.40510  -0.40298  -0.39510  -0.38902
 Alpha  occ. eigenvalues --   -0.37800  -0.36994  -0.35554  -0.34240  -0.34154
 Alpha  occ. eigenvalues --   -0.34101  -0.33418  -0.32498  -0.31048  -0.30481
 Alpha  occ. eigenvalues --   -0.29636  -0.28912  -0.28423  -0.27331  -0.26782
 Alpha  occ. eigenvalues --   -0.26125  -0.23427  -0.21606  -0.20170  -0.19740
 Alpha  occ. eigenvalues --   -0.19507  -0.18881  -0.16743
 Alpha virt. eigenvalues --    0.06805   0.10060   0.10422   0.10460   0.11110
 Alpha virt. eigenvalues --    0.11741   0.12501   0.12953   0.13124   0.13548
 Alpha virt. eigenvalues --    0.13936   0.14197   0.14776   0.15387   0.15604
 Alpha virt. eigenvalues --    0.15656   0.16521   0.16992   0.17507   0.17730
 Alpha virt. eigenvalues --    0.17892   0.18204   0.18838   0.19280   0.19480
 Alpha virt. eigenvalues --    0.19735   0.20488   0.20840   0.21485   0.21745
 Alpha virt. eigenvalues --    0.22135   0.22683   0.22919   0.23231   0.23467
 Alpha virt. eigenvalues --    0.23872   0.24210   0.25037   0.25186   0.25631
 Alpha virt. eigenvalues --    0.25952   0.26570   0.27046   0.27429   0.27812
 Alpha virt. eigenvalues --    0.28816   0.29306   0.29730   0.30033   0.30185
 Alpha virt. eigenvalues --    0.30527   0.30857   0.31533   0.31806   0.32241
 Alpha virt. eigenvalues --    0.32703   0.33425   0.33771   0.34121   0.34138
 Alpha virt. eigenvalues --    0.34621   0.34928   0.35210   0.35468   0.36076
 Alpha virt. eigenvalues --    0.36283   0.36685   0.37321   0.37554   0.37864
 Alpha virt. eigenvalues --    0.38163   0.38465   0.38868   0.39179   0.39451
 Alpha virt. eigenvalues --    0.39764   0.40368   0.40815   0.41307   0.41869
 Alpha virt. eigenvalues --    0.42012   0.42639   0.42722   0.43090   0.43416
 Alpha virt. eigenvalues --    0.44063   0.44257   0.44616   0.45001   0.45674
 Alpha virt. eigenvalues --    0.45888   0.46128   0.46723   0.46995   0.47587
 Alpha virt. eigenvalues --    0.47948   0.48384   0.48914   0.49043   0.49149
 Alpha virt. eigenvalues --    0.49816   0.50232   0.50796   0.51063   0.51279
 Alpha virt. eigenvalues --    0.51953   0.52403   0.53017   0.53701   0.53909
 Alpha virt. eigenvalues --    0.54599   0.55176   0.55556   0.56343   0.56856
 Alpha virt. eigenvalues --    0.57274   0.58703   0.58938   0.60195   0.60585
 Alpha virt. eigenvalues --    0.61960   0.62613   0.63339   0.64367   0.65782
 Alpha virt. eigenvalues --    0.66705   0.69590   0.71137   0.72727   0.77214
 Alpha virt. eigenvalues --    0.78280   0.79506   0.80557   0.80869   0.82621
 Alpha virt. eigenvalues --    0.82914   0.83859   0.84387   0.84889   0.86071
 Alpha virt. eigenvalues --    0.86796   0.87197   0.87593   0.89781   0.90532
 Alpha virt. eigenvalues --    0.90832   0.91821   0.92122   0.92655   0.93471
 Alpha virt. eigenvalues --    0.94214   0.96372   0.97121   0.97560   0.99042
 Alpha virt. eigenvalues --    0.99350   1.01089   1.02591   1.03757   1.04056
 Alpha virt. eigenvalues --    1.05565   1.05726   1.07709   1.09019   1.09859
 Alpha virt. eigenvalues --    1.10320   1.11411   1.11703   1.13423   1.14316
 Alpha virt. eigenvalues --    1.14925   1.15496   1.16247   1.17392   1.18465
 Alpha virt. eigenvalues --    1.18654   1.19314   1.19900   1.21742   1.23000
 Alpha virt. eigenvalues --    1.23727   1.24740   1.25591   1.26134   1.27249
 Alpha virt. eigenvalues --    1.28289   1.28514   1.29209   1.29911   1.30731
 Alpha virt. eigenvalues --    1.30933   1.33371   1.33799   1.36496   1.37320
 Alpha virt. eigenvalues --    1.38451   1.39051   1.41512   1.42959   1.43908
 Alpha virt. eigenvalues --    1.44784   1.45535   1.45865   1.46394   1.47389
 Alpha virt. eigenvalues --    1.48617   1.48846   1.49135   1.50261   1.51416
 Alpha virt. eigenvalues --    1.51797   1.52900   1.53954   1.54040   1.54309
 Alpha virt. eigenvalues --    1.55720   1.56289   1.57357   1.57979   1.59067
 Alpha virt. eigenvalues --    1.59814   1.60168   1.60959   1.61412   1.62915
 Alpha virt. eigenvalues --    1.63227   1.65096   1.66042   1.66926   1.68234
 Alpha virt. eigenvalues --    1.68977   1.70438   1.70983   1.74358   1.75824
 Alpha virt. eigenvalues --    1.78172   1.80026   1.81251   1.82919   1.84101
 Alpha virt. eigenvalues --    1.85442   1.86206   1.88812   1.89963   1.91234
 Alpha virt. eigenvalues --    1.91317   1.94224   1.95370   1.95807   1.97046
 Alpha virt. eigenvalues --    1.97230   1.97467   1.98336   1.99076   1.99910
 Alpha virt. eigenvalues --    2.01627   2.02531   2.03617   2.04257   2.05091
 Alpha virt. eigenvalues --    2.05369   2.06337   2.06758   2.08300   2.08434
 Alpha virt. eigenvalues --    2.09227   2.10456   2.10712   2.11885   2.12752
 Alpha virt. eigenvalues --    2.13277   2.13820   2.14593   2.15332   2.16239
 Alpha virt. eigenvalues --    2.17534   2.19023   2.20436   2.21317   2.21888
 Alpha virt. eigenvalues --    2.22796   2.23448   2.24905   2.26648   2.28381
 Alpha virt. eigenvalues --    2.29700   2.31364   2.32395   2.33843   2.34997
 Alpha virt. eigenvalues --    2.35510   2.37111   2.38246   2.39762   2.42233
 Alpha virt. eigenvalues --    2.43085   2.43294   2.45245   2.46838   2.47311
 Alpha virt. eigenvalues --    2.48626   2.49461   2.50078   2.51908   2.52069
 Alpha virt. eigenvalues --    2.54362   2.58245   2.59245   2.60030   2.64578
 Alpha virt. eigenvalues --    2.65663   2.66166   2.69728   2.72063   2.72677
 Alpha virt. eigenvalues --    2.74882   2.75617   2.76185   2.76765   2.79826
 Alpha virt. eigenvalues --    2.81719   2.82331   2.86436   2.87851   2.89442
 Alpha virt. eigenvalues --    2.90094   2.91022   2.93190   2.93649   2.96746
 Alpha virt. eigenvalues --    3.04994   3.06397   3.07565   3.17414   3.17989
 Alpha virt. eigenvalues --    3.20802   3.23189   3.24661   3.26428   3.28184
 Alpha virt. eigenvalues --    3.29814   3.35178   3.37259   3.41804   3.48302
 Alpha virt. eigenvalues --    3.58146   4.26623   4.35630   4.36688   4.38034
 Alpha virt. eigenvalues --    4.43008   4.44348   4.49656   4.52901   4.54042
 Alpha virt. eigenvalues --    4.56800   4.57800   4.59820   4.64788   4.67356
 Alpha virt. eigenvalues --    4.68322   4.74018   4.77433   4.84645   4.85885
 Alpha virt. eigenvalues --    4.90877   4.99229   6.14322
          Condensed to atoms (all electrons):
               1          2          3          4          5          6
     1  C    5.819757  -0.229424   0.057533  -0.018609  -0.051160  -0.000756
     2  C   -0.229424   6.399928  -0.378835  -0.065635   0.060679   0.013335
     3  C    0.057533  -0.378835   6.973901   0.415258  -0.869711  -0.051036
     4  N   -0.018609  -0.065635   0.415258   7.804818   0.149686  -0.148773
     5  C   -0.051160   0.060679  -0.869711   0.149686   6.808181   0.699599
     6  O   -0.000756   0.013335  -0.051036  -0.148773   0.699599   8.294691
     7  N    0.006110  -0.012423  -0.245008  -0.444289   0.268726  -0.170903
     8  C   -0.005490   0.000204  -0.128750   0.090463  -0.713440  -0.086569
     9  C   -0.002383   0.008403  -0.135003  -0.117408  -0.124507   0.023679
    10  C    0.000613  -0.005473  -0.059245   0.042728  -0.491591  -0.048320
    11  C   -0.000705   0.000051  -0.038741  -0.034939  -0.115013  -0.011730
    12  C    0.000214  -0.000806   0.007845   0.000009   0.040369   0.017793
    13  C    0.000405   0.001086  -0.039782  -0.066560  -0.029507   0.047778
    14  H    0.429916  -0.107130   0.030612   0.000439  -0.000549   0.000003
    15  H    0.436025  -0.064217  -0.021460   0.000432  -0.003051  -0.000053
    16  H   -0.055708   0.426404  -0.065912   0.002706   0.005044  -0.000226
    17  H   -0.039069   0.455065  -0.091386   0.007742  -0.007020  -0.000063
    18  H    0.002585  -0.096830   0.403663  -0.078702   0.049222   0.001737
    19  H   -0.007621  -0.014864   0.468345  -0.041326  -0.073810   0.002254
    20  H    0.002372   0.006670  -0.052061   0.151565   0.010454   0.003683
    21  H   -0.000003   0.000005   0.000169  -0.000154   0.009917  -0.000144
    22  F    0.000000  -0.000001   0.000128   0.000003   0.004516   0.000008
    23  N    0.000542  -0.001241   0.066501   0.059241  -0.029476  -0.004630
    24  H   -0.000000  -0.000000  -0.000010  -0.000002  -0.000853   0.000003
    25  O    0.000010   0.000236  -0.004974  -0.007550   0.006510  -0.013597
    26  O   -0.000279  -0.001664  -0.024836  -0.014633   0.045311  -0.019131
    27  H    0.400337  -0.060375   0.002444   0.000115   0.003914  -0.000010
    28  H   -0.000044   0.001438   0.002414   0.013110  -0.011083   0.003037
    29  H    0.000000   0.000001   0.000019  -0.000032   0.000231   0.000026
    30  O   -0.000852  -0.001245  -0.009022   0.009981   0.001063  -0.000083
    31  O    0.003645  -0.011503   0.010847  -0.032164  -0.010659  -0.000326
    32  C   -0.002335   0.001783  -0.000279  -0.001088  -0.007516   0.000917
    33  C    0.003235   0.002668  -0.006140  -0.025569  -0.036003  -0.000367
    34  C   -0.000566  -0.000726  -0.001978   0.005241   0.002555   0.000073
    35  H    0.000035   0.000153   0.000040  -0.000040  -0.000615  -0.000000
    36  H    0.000005  -0.000144   0.000297  -0.000199   0.000201   0.000000
    37  H    0.000000  -0.000006   0.000013   0.000008   0.000106   0.000000
    38  H    0.000000   0.000003   0.000002  -0.000005   0.000034   0.000000
    39  H    0.000001   0.000012  -0.000007   0.000010  -0.000265  -0.000000
               7          8          9         10         11         12
     1  C    0.006110  -0.005490  -0.002383   0.000613  -0.000705   0.000214
     2  C   -0.012423   0.000204   0.008403  -0.005473   0.000051  -0.000806
     3  C   -0.245008  -0.128750  -0.135003  -0.059245  -0.038741   0.007845
     4  N   -0.444289   0.090463  -0.117408   0.042728  -0.034939   0.000009
     5  C    0.268726  -0.713440  -0.124507  -0.491591  -0.115013   0.040369
     6  O   -0.170903  -0.086569   0.023679  -0.048320  -0.011730   0.017793
     7  N    8.060166   0.066682   0.039012  -0.097321   0.063087  -0.027267
     8  C    0.066682  15.828550   0.221381  -4.762496  -2.346469  -0.903327
     9  C    0.039012   0.221381  17.326331  -1.427672  -0.204459  -0.128989
    10  C   -0.097321  -4.762496  -1.427672  20.186639  -4.360103   1.607854
    11  C    0.063087  -2.346469  -0.204459  -4.360103  11.036312  -1.244278
    12  C   -0.027267  -0.903327  -0.128989   1.607854  -1.244278  10.724257
    13  C    0.028162  -1.363641  -9.184714  -5.591079   3.218195  -4.479243
    14  H    0.000014  -0.000013   0.000003  -0.000001  -0.000000   0.000000
    15  H    0.000021  -0.000122   0.000007  -0.000006   0.000000  -0.000000
    16  H    0.000068   0.001767  -0.000139  -0.000160  -0.000011   0.000000
    17  H   -0.000162  -0.002006   0.000273  -0.000273   0.000012  -0.000002
    18  H    0.005857   0.004868  -0.000310   0.000060  -0.000180   0.000078
    19  H   -0.003916  -0.008154   0.001058   0.000054   0.000188  -0.000100
    20  H    0.019343  -0.005859   0.006982  -0.003492  -0.000215  -0.000056
    21  H   -0.014348   0.033229   0.029706   0.230524   0.002744   0.014444
    22  F   -0.001858  -0.007170  -0.045817  -0.124562   0.263614  -0.150789
    23  N   -0.075739   0.460923  -0.485825   0.403607  -0.206110   0.059876
    24  H    0.000047  -0.007087   0.042275   0.059989  -0.043963   0.308035
    25  O    0.006038   0.061499  -0.102937  -0.037994  -0.027360   0.224825
    26  O   -0.002193  -0.108718  -0.115603   0.029966   0.040637  -0.041880
    27  H    0.000039   0.000166  -0.000025   0.000005  -0.000000   0.000000
    28  H    0.087215   0.030062   0.015158  -0.062708   0.015839   0.001891
    29  H   -0.000780   0.032801   0.025272  -0.027927  -0.008313  -0.034568
    30  O   -0.017422  -0.190859  -0.006099   0.166203   0.062053   0.004390
    31  O    0.015437  -0.006436   0.004609  -0.007451  -0.006914   0.000061
    32  C   -0.003236   0.047325  -0.030857  -0.003557  -0.068534   0.005108
    33  C   -0.017320  -0.055965   0.006712   0.044290   0.012704  -0.000247
    34  C    0.002773  -0.016601  -0.002685   0.011907   0.007137   0.000886
    35  H   -0.000105  -0.000045  -0.000147   0.000321  -0.000214   0.000003
    36  H    0.000160  -0.000293   0.000178   0.000129  -0.000024  -0.000016
    37  H    0.000009  -0.001298   0.000068   0.000553   0.000467  -0.000060
    38  H    0.000033   0.000120   0.000000  -0.000211  -0.000041   0.000002
    39  H   -0.000159  -0.001664  -0.000297   0.001800  -0.000702   0.000123
              13         14         15         16         17         18
     1  C    0.000405   0.429916   0.436025  -0.055708  -0.039069   0.002585
     2  C    0.001086  -0.107130  -0.064217   0.426404   0.455065  -0.096830
     3  C   -0.039782   0.030612  -0.021460  -0.065912  -0.091386   0.403663
     4  N   -0.066560   0.000439   0.000432   0.002706   0.007742  -0.078702
     5  C   -0.029507  -0.000549  -0.003051   0.005044  -0.007020   0.049222
     6  O    0.047778   0.000003  -0.000053  -0.000226  -0.000063   0.001737
     7  N    0.028162   0.000014   0.000021   0.000068  -0.000162   0.005857
     8  C   -1.363641  -0.000013  -0.000122   0.001767  -0.002006   0.004868
     9  C   -9.184714   0.000003   0.000007  -0.000139   0.000273  -0.000310
    10  C   -5.591079  -0.000001  -0.000006  -0.000160  -0.000273   0.000060
    11  C    3.218195  -0.000000   0.000000  -0.000011   0.000012  -0.000180
    12  C   -4.479243   0.000000  -0.000000   0.000000  -0.000002   0.000078
    13  C   24.515760   0.000000  -0.000000  -0.000010   0.000014   0.000007
    14  H    0.000000   0.512284  -0.028139  -0.002909  -0.002758  -0.000078
    15  H   -0.000000  -0.028139   0.511793  -0.004678   0.003763  -0.000598
    16  H   -0.000010  -0.002909  -0.004678   0.506141  -0.032002   0.004467
    17  H    0.000014  -0.002758   0.003763  -0.032002   0.467040  -0.005586
    18  H    0.000007  -0.000078  -0.000598   0.004467  -0.005586   0.552803
    19  H    0.000176  -0.000080   0.002497  -0.005865   0.003759  -0.042938
    20  H    0.001255  -0.000001   0.000004  -0.000440   0.002800   0.001112
    21  H   -0.018582  -0.000000  -0.000000   0.000000  -0.000000  -0.000000
    22  F    0.025693  -0.000000   0.000000  -0.000000   0.000000   0.000000
    23  N   -0.725522   0.000000   0.000002   0.000017   0.000003  -0.000053
    24  H   -0.047531   0.000000   0.000000  -0.000000   0.000000  -0.000000
    25  O   -0.161980  -0.000000   0.000000  -0.000000   0.000000   0.000005
    26  O    0.237488   0.000000  -0.000000   0.000003  -0.000002  -0.000012
    27  H   -0.000001  -0.027326  -0.032778   0.003945  -0.004251   0.002856
    28  H    0.000289  -0.000000  -0.000000  -0.000000   0.000006  -0.000033
    29  H    0.325038  -0.000000   0.000000  -0.000000  -0.000000   0.000000
    30  O   -0.009662  -0.000000  -0.000000   0.000011  -0.000028  -0.000040
    31  O    0.001847   0.000008  -0.000034   0.001140  -0.004422   0.001308
    32  C   -0.001378  -0.000042  -0.000079   0.000473   0.000734  -0.000069
    33  C    0.000586   0.000011  -0.000013   0.000303  -0.001979   0.000732
    34  C   -0.001436  -0.000000   0.000000  -0.000001  -0.000007  -0.000020
    35  H   -0.000018  -0.000000  -0.000000   0.000000  -0.000000   0.000000
    36  H    0.000022  -0.000000  -0.000000   0.000000  -0.000002   0.000000
    37  H    0.000061   0.000000  -0.000000  -0.000000   0.000000   0.000000
    38  H    0.000001   0.000000  -0.000000  -0.000000  -0.000000   0.000000
    39  H   -0.000102  -0.000000  -0.000000  -0.000000   0.000000   0.000000
              19         20         21         22         23         24
     1  C   -0.007621   0.002372  -0.000003   0.000000   0.000542  -0.000000
     2  C   -0.014864   0.006670   0.000005  -0.000001  -0.001241  -0.000000
     3  C    0.468345  -0.052061   0.000169   0.000128   0.066501  -0.000010
     4  N   -0.041326   0.151565  -0.000154   0.000003   0.059241  -0.000002
     5  C   -0.073810   0.010454   0.009917   0.004516  -0.029476  -0.000853
     6  O    0.002254   0.003683  -0.000144   0.000008  -0.004630   0.000003
     7  N   -0.003916   0.019343  -0.014348  -0.001858  -0.075739   0.000047
     8  C   -0.008154  -0.005859   0.033229  -0.007170   0.460923  -0.007087
     9  C    0.001058   0.006982   0.029706  -0.045817  -0.485825   0.042275
    10  C    0.000054  -0.003492   0.230524  -0.124562   0.403607   0.059989
    11  C    0.000188  -0.000215   0.002744   0.263614  -0.206110  -0.043963
    12  C   -0.000100  -0.000056   0.014444  -0.150789   0.059876   0.308035
    13  C    0.000176   0.001255  -0.018582   0.025693  -0.725522  -0.047531
    14  H   -0.000080  -0.000001  -0.000000  -0.000000   0.000000   0.000000
    15  H    0.002497   0.000004  -0.000000   0.000000   0.000002   0.000000
    16  H   -0.005865  -0.000440   0.000000  -0.000000   0.000017  -0.000000
    17  H    0.003759   0.002800  -0.000000   0.000000   0.000003   0.000000
    18  H   -0.042938   0.001112  -0.000000   0.000000  -0.000053  -0.000000
    19  H    0.492692   0.002026   0.000000  -0.000000   0.000047   0.000000
    20  H    0.002026   0.254845   0.000008  -0.000000  -0.000767   0.000000
    21  H    0.000000   0.000008   0.404325  -0.002864   0.000131  -0.000111
    22  F   -0.000000  -0.000000  -0.002864   9.389561   0.000172  -0.003421
    23  N    0.000047  -0.000767   0.000131   0.000172   7.165818  -0.000219
    24  H    0.000000   0.000000  -0.000111  -0.003421  -0.000219   0.485274
    25  O   -0.000011   0.000011   0.000038  -0.000008   0.240701  -0.000053
    26  O    0.000014   0.000129  -0.000060   0.000016   0.256163   0.000021
    27  H   -0.000170  -0.000005   0.000000  -0.000000   0.000000  -0.000000
    28  H    0.000015   0.008743   0.005545   0.000032   0.002465  -0.000000
    29  H   -0.000000  -0.000000   0.000010  -0.000423  -0.014081  -0.003089
    30  O   -0.000014  -0.002683   0.000698   0.000155   0.001625   0.000004
    31  O   -0.000656   0.076338  -0.000039  -0.000001  -0.000245   0.000000
    32  C    0.000170  -0.003562   0.000413   0.000076   0.000385   0.000008
    33  C   -0.000114   0.016889   0.002322  -0.000234  -0.001313  -0.000000
    34  C    0.000006  -0.002695  -0.000190   0.000108   0.000221  -0.000001
    35  H   -0.000000  -0.000001   0.000000  -0.000000   0.000000  -0.000000
    36  H   -0.000000  -0.000012   0.000000   0.000000  -0.000000   0.000000
    37  H    0.000000  -0.000000   0.000007   0.000001  -0.000001   0.000000
    38  H   -0.000000   0.000000  -0.000000  -0.000000  -0.000000  -0.000000
    39  H   -0.000000  -0.000000   0.000024  -0.000000   0.000000   0.000000
              25         26         27         28         29         30
     1  C    0.000010  -0.000279   0.400337  -0.000044   0.000000  -0.000852
     2  C    0.000236  -0.001664  -0.060375   0.001438   0.000001  -0.001245
     3  C   -0.004974  -0.024836   0.002444   0.002414   0.000019  -0.009022
     4  N   -0.007550  -0.014633   0.000115   0.013110  -0.000032   0.009981
     5  C    0.006510   0.045311   0.003914  -0.011083   0.000231   0.001063
     6  O   -0.013597  -0.019131  -0.000010   0.003037   0.000026  -0.000083
     7  N    0.006038  -0.002193   0.000039   0.087215  -0.000780  -0.017422
     8  C    0.061499  -0.108718   0.000166   0.030062   0.032801  -0.190859
     9  C   -0.102937  -0.115603  -0.000025   0.015158   0.025272  -0.006099
    10  C   -0.037994   0.029966   0.000005  -0.062708  -0.027927   0.166203
    11  C   -0.027360   0.040637  -0.000000   0.015839  -0.008313   0.062053
    12  C    0.224825  -0.041880   0.000000   0.001891  -0.034568   0.004390
    13  C   -0.161980   0.237488  -0.000001   0.000289   0.325038  -0.009662
    14  H   -0.000000   0.000000  -0.027326  -0.000000  -0.000000  -0.000000
    15  H    0.000000  -0.000000  -0.032778  -0.000000   0.000000  -0.000000
    16  H   -0.000000   0.000003   0.003945  -0.000000  -0.000000   0.000011
    17  H    0.000000  -0.000002  -0.004251   0.000006  -0.000000  -0.000028
    18  H    0.000005  -0.000012   0.002856  -0.000033   0.000000  -0.000040
    19  H   -0.000011   0.000014  -0.000170   0.000015  -0.000000  -0.000014
    20  H    0.000011   0.000129  -0.000005   0.008743  -0.000000  -0.002683
    21  H    0.000038  -0.000060   0.000000   0.005545   0.000010   0.000698
    22  F   -0.000008   0.000016  -0.000000   0.000032  -0.000423   0.000155
    23  N    0.240701   0.256163   0.000000   0.002465  -0.014081   0.001625
    24  H   -0.000053   0.000021  -0.000000  -0.000000  -0.003089   0.000004
    25  O    7.930201  -0.059185   0.000000   0.000077   0.011631  -0.000017
    26  O   -0.059185   7.838627   0.000000  -0.000327  -0.003229  -0.000332
    27  H    0.000000   0.000000   0.508893   0.000000   0.000000   0.000001
    28  H    0.000077  -0.000327   0.000000   0.274780   0.000001   0.098200
    29  H    0.011631  -0.003229   0.000000   0.000001   0.456455  -0.000000
    30  O   -0.000017  -0.000332   0.000001   0.098200  -0.000000   8.570581
    31  O   -0.000003   0.000006   0.000065  -0.001831  -0.000000  -0.179146
    32  C   -0.000063  -0.000441   0.000148  -0.010270   0.000004   0.280044
    33  C    0.000002   0.000154   0.000007   0.026460   0.000000  -0.167852
    34  C   -0.000000  -0.000040   0.000000  -0.003088   0.000000   0.062107
    35  H    0.000000  -0.000000   0.000000  -0.000034   0.000000   0.001086
    36  H   -0.000000   0.000000   0.000000  -0.000027  -0.000000   0.002476
    37  H   -0.000000   0.000000   0.000000  -0.000015  -0.000000  -0.004835
    38  H   -0.000000   0.000000   0.000000  -0.000000   0.000000   0.001953
    39  H    0.000000  -0.000000  -0.000000  -0.000013   0.000000  -0.004806
              31         32         33         34         35         36
     1  C    0.003645  -0.002335   0.003235  -0.000566   0.000035   0.000005
     2  C   -0.011503   0.001783   0.002668  -0.000726   0.000153  -0.000144
     3  C    0.010847  -0.000279  -0.006140  -0.001978   0.000040   0.000297
     4  N   -0.032164  -0.001088  -0.025569   0.005241  -0.000040  -0.000199
     5  C   -0.010659  -0.007516  -0.036003   0.002555  -0.000615   0.000201
     6  O   -0.000326   0.000917  -0.000367   0.000073  -0.000000   0.000000
     7  N    0.015437  -0.003236  -0.017320   0.002773  -0.000105   0.000160
     8  C   -0.006436   0.047325  -0.055965  -0.016601  -0.000045  -0.000293
     9  C    0.004609  -0.030857   0.006712  -0.002685  -0.000147   0.000178
    10  C   -0.007451  -0.003557   0.044290   0.011907   0.000321   0.000129
    11  C   -0.006914  -0.068534   0.012704   0.007137  -0.000214  -0.000024
    12  C    0.000061   0.005108  -0.000247   0.000886   0.000003  -0.000016
    13  C    0.001847  -0.001378   0.000586  -0.001436  -0.000018   0.000022
    14  H    0.000008  -0.000042   0.000011  -0.000000  -0.000000  -0.000000
    15  H   -0.000034  -0.000079  -0.000013   0.000000  -0.000000  -0.000000
    16  H    0.001140   0.000473   0.000303  -0.000001   0.000000   0.000000
    17  H   -0.004422   0.000734  -0.001979  -0.000007  -0.000000  -0.000002
    18  H    0.001308  -0.000069   0.000732  -0.000020   0.000000   0.000000
    19  H   -0.000656   0.000170  -0.000114   0.000006  -0.000000  -0.000000
    20  H    0.076338  -0.003562   0.016889  -0.002695  -0.000001  -0.000012
    21  H   -0.000039   0.000413   0.002322  -0.000190   0.000000   0.000000
    22  F   -0.000001   0.000076  -0.000234   0.000108  -0.000000   0.000000
    23  N   -0.000245   0.000385  -0.001313   0.000221   0.000000  -0.000000
    24  H    0.000000   0.000008  -0.000000  -0.000001  -0.000000   0.000000
    25  O   -0.000003  -0.000063   0.000002  -0.000000   0.000000  -0.000000
    26  O    0.000006  -0.000441   0.000154  -0.000040  -0.000000   0.000000
    27  H    0.000065   0.000148   0.000007   0.000000   0.000000   0.000000
    28  H   -0.001831  -0.010270   0.026460  -0.003088  -0.000034  -0.000027
    29  H   -0.000000   0.000004   0.000000   0.000000   0.000000  -0.000000
    30  O   -0.179146   0.280044  -0.167852   0.062107   0.001086   0.002476
    31  O    8.494296   0.565899  -0.307987   0.037397  -0.001783  -0.002853
    32  C    0.565899   5.594263  -0.907708   0.018758  -0.082512  -0.075225
    33  C   -0.307987  -0.907708   7.572801  -0.375974   0.448314   0.446513
    34  C    0.037397   0.018758  -0.375974   5.845490  -0.046039  -0.052643
    35  H   -0.001783  -0.082512   0.448314  -0.046039   0.502966  -0.029780
    36  H   -0.002853  -0.075225   0.446513  -0.052643  -0.029780   0.503592
    37  H    0.000033  -0.007446  -0.053407   0.417846  -0.003888   0.003671
    38  H   -0.000176   0.035440  -0.082117   0.385333  -0.002075  -0.002043
    39  H    0.000157  -0.010645  -0.054825   0.423653   0.003676  -0.003854
              37         38         39
     1  C    0.000000   0.000000   0.000001
     2  C   -0.000006   0.000003   0.000012
     3  C    0.000013   0.000002  -0.000007
     4  N    0.000008  -0.000005   0.000010
     5  C    0.000106   0.000034  -0.000265
     6  O    0.000000   0.000000  -0.000000
     7  N    0.000009   0.000033  -0.000159
     8  C   -0.001298   0.000120  -0.001664
     9  C    0.000068   0.000000  -0.000297
    10  C    0.000553  -0.000211   0.001800
    11  C    0.000467  -0.000041  -0.000702
    12  C   -0.000060   0.000002   0.000123
    13  C    0.000061   0.000001  -0.000102
    14  H    0.000000   0.000000  -0.000000
    15  H   -0.000000  -0.000000  -0.000000
    16  H   -0.000000  -0.000000  -0.000000
    17  H    0.000000  -0.000000   0.000000
    18  H    0.000000   0.000000   0.000000
    19  H    0.000000  -0.000000  -0.000000
    20  H   -0.000000   0.000000  -0.000000
    21  H    0.000007  -0.000000   0.000024
    22  F    0.000001  -0.000000  -0.000000
    23  N   -0.000001  -0.000000   0.000000
    24  H    0.000000  -0.000000   0.000000
    25  O   -0.000000  -0.000000   0.000000
    26  O    0.000000   0.000000  -0.000000
    27  H    0.000000   0.000000  -0.000000
    28  H   -0.000015  -0.000000  -0.000013
    29  H   -0.000000   0.000000   0.000000
    30  O   -0.004835   0.001953  -0.004806
    31  O    0.000033  -0.000176   0.000157
    32  C   -0.007446   0.035440  -0.010645
    33  C   -0.053407  -0.082117  -0.054825
    34  C    0.417846   0.385333   0.423653
    35  H   -0.003888  -0.002075   0.003676
    36  H    0.003671  -0.002043  -0.003854
    37  H    0.487198  -0.029820  -0.026915
    38  H   -0.029820   0.550773  -0.030041
    39  H   -0.026915  -0.030041   0.489021
 Mulliken charges:
               1
     1  C   -0.748338
     2  C   -0.325578
     3  C   -0.215854
     4  N   -0.655878
     5  C    0.409511
     6  O   -0.551897
     7  N   -0.534550
     8  C   -0.157568
     9  C    0.364770
    10  C    0.324400
    11  C   -0.004023
    12  C   -0.006432
    13  C   -0.683113
    14  H    0.195735
    15  H    0.200683
    16  H    0.215571
    17  H    0.249804
    18  H    0.194087
    19  H    0.226338
    20  H    0.506620
    21  H    0.302238
    22  F   -0.346932
    23  N   -0.173218
    24  H    0.210682
    25  O   -0.066051
    26  O   -0.055967
    27  H    0.202005
    28  H    0.502699
    29  H    0.240952
    30  O   -0.667633
    31  O   -0.638465
    32  C    0.664893
    33  C   -0.489566
    34  C   -0.716800
    35  H    0.210702
    36  H    0.209869
    37  H    0.217651
    38  H    0.172834
    39  H    0.215818
 Sum of Mulliken charges =  -1.00000
 Mulliken charges with hydrogens summed into heavy atoms:
               1
     1  C   -0.149914
     2  C    0.139798
     3  C    0.204570
     4  N   -0.149258
     5  C    0.409511
     6  O   -0.551897
     7  N   -0.031851
     8  C   -0.157568
     9  C    0.364770
    10  C    0.626638
    11  C   -0.004023
    12  C    0.204250
    13  C   -0.442162
    22  F   -0.346932
    23  N   -0.173218
    25  O   -0.066051
    26  O   -0.055967
    30  O   -0.667633
    31  O   -0.638465
    32  C    0.664893
    33  C   -0.068994
    34  C   -0.110497
         Mulliken charges condensed to fragments:
      1     -0.179305
      2     -0.820695
 Electronic spatial extent (au):  <R**2>=           8639.7568
 Charge=             -1.0000 electrons
 Dipole moment (field-independent basis, Debye):
    X=              1.1519    Y=              1.3352    Z=             -1.0819  Tot=              2.0688
 Quadrupole moment (field-independent basis, Debye-Ang):
   XX=           -155.8983   YY=           -173.4575   ZZ=           -139.8804
   XY=             11.6101   XZ=              2.4815   YZ=              0.7590
 Traceless Quadrupole moment (field-independent basis, Debye-Ang):
   XX=              0.5138   YY=            -17.0454   ZZ=             16.5316
   XY=             11.6101   XZ=              2.4815   YZ=              0.7590
 Octapole moment (field-independent basis, Debye-Ang**2):
  XXX=             89.7701  YYY=              9.5140  ZZZ=             -0.8389  XYY=            -33.8960
  XXY=            -15.9590  XXZ=             -5.6684  XZZ=             -2.3003  YZZ=             11.6357
  YYZ=              1.1015  XYZ=             14.2917
 Hexadecapole moment (field-independent basis, Debye-Ang**3):
 XXXX=          -6808.6463 YYYY=          -5090.7462 ZZZZ=           -429.6536 XXXY=            -18.1018
 XXXZ=             -6.3041 YYYX=            128.7408 YYYZ=            -10.5577 ZZZX=            -10.3610
 ZZZY=            -19.4367 XXYY=          -2127.7161 XXZZ=          -1211.7382 YYZZ=           -864.7781
 XXYZ=            -12.4566 YYXZ=            -13.1797 ZZXY=              4.2730
 N-N= 1.851494835207D+03 E-N=-6.400226187609D+03  KE= 1.135991955006D+03
 CPIOFr:  IOpCl= 0 IRwI=-1 IRwCP=  731 ICalc= -1 LCPTot=      319382 Len1MO=      825702 IndFrg=      319382
 CPIOFr:  IOpCl= 0 IRwI=-1 IRwCP=  731 ICalc=  0 LCPTot=      319382 Len1MO=      825702 IndFrg=     1145084
 Counterpoise: doing DCBS calculation for fragment   1 NewBq=T
 Basis read from rwf:  (6D, 7F)
 There are   452 symmetry adapted cartesian basis functions of A   symmetry.
 There are   452 symmetry adapted basis functions of A   symmetry.
   452 basis functions,   772 primitive gaussians,   452 cartesian basis functions
    63 alpha electrons       63 beta electrons
       nuclear repulsion energy      1210.7077600682 Hartrees.
 NAtoms=   39 NActive=   39 NUniq=   39 SFac= 1.00D+00 NAtFMM=   60 NAOKFM=F Big=F
 Integral buffers will be    131072 words long.
 Raffenetti 2 integral format.
 Two-electron integral symmetry is turned on.
 One-electron integrals computed using PRISM.
 NBasis=   452 RedAO= T EigKep=  1.08D-06  NBF=   452
 NBsUse=   451 1.00D-06 EigRej=  6.81D-07 NBFU=   451
 ExpMin= 4.38D-02 ExpMax= 7.00D+03 ExpMxC= 1.05D+03 IAcc=3 IRadAn=         5 AccDes= 0.00D+00
 Harris functional with IExCor= 1009 and IRadAn=       5 diagonalized for initial guess.
 HarFok:  IExCor= 1009 AccDes= 0.00D+00 IRadAn=         5 IDoV= 1 UseB2=F ITyADJ=14
 ICtDFT=  3500011 ScaDFX=  1.000000  1.000000  1.000000  1.000000
 FoFCou: FMM=F IPFlag=           0 FMFlag=      100000 FMFlg1=           0
         NFxFlg=           0 DoJE=T BraDBF=F KetDBF=T FulRan=T
         wScrn=  0.000000 ICntrl=     500 IOpCl=  0 I1Cent=   200000004 NGrid=           0
         NMat0=    1 NMatS0=      1 NMatT0=    0 NMatD0=    1 NMtDS0=    0 NMtDT0=    0
 Petite list used in FoFCou.
 Requested convergence on RMS density matrix=1.00D-08 within 128 cycles.
 Requested convergence on MAX density matrix=1.00D-06.
 Requested convergence on             energy=1.00D-06.
 No special actions if energy rises.
 SCF Done:  E(RM062X) =  -877.646672592     A.U. after   17 cycles
            NFock= 17  Conv=0.49D-08     -V/T= 2.0084

 **********************************************************************

            Population analysis using the SCF density.

 **********************************************************************

 Orbital symmetries:
       Occupied  (A) (A) (A) (A) (A) (A) (A) (A) (A) (A) (A) (A)
                 (A) (A) (A) (A) (A) (A) (A) (A) (A) (A) (A) (A)
                 (A) (A) (A) (A) (A) (A) (A) (A) (A) (A) (A) (A)
                 (A) (A) (A) (A) (A) (A) (A) (A) (A) (A) (A) (A)
                 (A) (A) (A) (A) (A) (A) (A) (A) (A) (A) (A) (A)
                 (A) (A) (A)
       Virtual   (A) (A) (A) (A) (A) (A) (A) (A) (A) (A) (A) (A)
                 (A) (A) (A) (A) (A) (A) (A) (A) (A) (A) (A) (A)
                 (A) (A) (A) (A) (A) (A) (A) (A) (A) (A) (A) (A)
                 (A) (A) (A) (A) (A) (A) (A) (A) (A) (A) (A) (A)
                 (A) (A) (A) (A) (A) (A) (A) (A) (A) (A) (A) (A)
                 (A) (A) (A) (A) (A) (A) (A) (A) (A) (A) (A) (A)
                 (A) (A) (A) (A) (A) (A) (A) (A) (A) (A) (A) (A)
                 (A) (A) (A) (A) (A) (A) (A) (A) (A) (A) (A) (A)
                 (A) (A) (A) (A) (A) (A) (A) (A) (A) (A) (A) (A)
                 (A) (A) (A) (A) (A) (A) (A) (A) (A) (A) (A) (A)
                 (A) (A) (A) (A) (A) (A) (A) (A) (A) (A) (A) (A)
                 (A) (A) (A) (A) (A) (A) (A) (A) (A) (A) (A) (A)
                 (A) (A) (A) (A) (A) (A) (A) (A) (A) (A) (A) (A)
                 (A) (A) (A) (A) (A) (A) (A) (A) (A) (A) (A) (A)
                 (A) (A) (A) (A) (A) (A) (A) (A) (A) (A) (A) (A)
                 (A) (A) (A) (A) (A) (A) (A) (A) (A) (A) (A) (A)
                 (A) (A) (A) (A) (A) (A) (A) (A) (A) (A) (A) (A)
                 (A) (A) (A) (A) (A) (A) (A) (A) (A) (A) (A) (A)
                 (A) (A) (A) (A) (A) (A) (A) (A) (A) (A) (A) (A)
                 (A) (A) (A) (A) (A) (A) (A) (A) (A) (A) (A) (A)
                 (A) (A) (A) (A) (A) (A) (A) (A) (A) (A) (A) (A)
                 (A) (A) (A) (A) (A) (A) (A) (A) (A) (A) (A) (A)
                 (A) (A) (A) (A) (A) (A) (A) (A) (A) (A) (A) (A)
                 (A) (A) (A) (A) (A) (A) (A) (A) (A) (A) (A) (A)
                 (A) (A) (A) (A) (A) (A) (A) (A) (A) (A) (A) (A)
                 (A) (A) (A) (A) (A) (A) (A) (A) (A) (A) (A) (A)
                 (A) (A) (A) (A) (A) (A) (A) (A) (A) (A) (A) (A)
                 (A) (A) (A) (A) (A) (A) (A) (A) (A) (A) (A) (A)
                 (A) (A) (A) (A) (A) (A) (A) (A) (A) (A) (A) (A)
                 (A) (A) (A) (A) (A) (A) (A) (A) (A) (A) (A) (A)
                 (A) (A) (A) (A) (A) (A) (A) (A) (A) (A) (A) (A)
                 (A) (A) (A) (A) (A) (A) (A) (A) (A) (A) (A) (A)
                 (A) (A) (A) (A)
 The electronic state is 1-A.
 Alpha  occ. eigenvalues --  -25.29729 -19.67643 -19.67498 -19.62840 -15.01008
 Alpha  occ. eigenvalues --  -14.82969 -14.80969 -10.70348 -10.67065 -10.64906
 Alpha  occ. eigenvalues --  -10.62469 -10.59488 -10.59456 -10.59125 -10.58264
 Alpha  occ. eigenvalues --  -10.56514 -10.55168  -1.38966  -1.36249  -1.19431
 Alpha  occ. eigenvalues --   -1.17446  -1.08764  -1.05588  -0.99705  -0.91840
 Alpha  occ. eigenvalues --   -0.90468  -0.87739  -0.81217  -0.78924  -0.74796
 Alpha  occ. eigenvalues --   -0.72725  -0.70412  -0.68744  -0.65977  -0.65503
 Alpha  occ. eigenvalues --   -0.64084  -0.61904  -0.60595  -0.60069  -0.58380
 Alpha  occ. eigenvalues --   -0.57671  -0.56916  -0.55630  -0.53957  -0.53628
 Alpha  occ. eigenvalues --   -0.52135  -0.50999  -0.50545  -0.49153  -0.47777
 Alpha  occ. eigenvalues --   -0.45860  -0.45571  -0.44207  -0.42110  -0.41508
 Alpha  occ. eigenvalues --   -0.40220  -0.38073  -0.37696  -0.36903  -0.36640
 Alpha  occ. eigenvalues --   -0.33691  -0.33128  -0.30079
 Alpha virt. eigenvalues --   -0.04075  -0.02694  -0.01221   0.01054   0.01894
 Alpha virt. eigenvalues --    0.02241   0.02449   0.02837   0.03265   0.03514
 Alpha virt. eigenvalues --    0.04453   0.04584   0.05118   0.05651   0.05850
 Alpha virt. eigenvalues --    0.06240   0.06772   0.07256   0.07533   0.07918
 Alpha virt. eigenvalues --    0.08551   0.08884   0.08976   0.09307   0.10110
 Alpha virt. eigenvalues --    0.10270   0.10498   0.11004   0.11323   0.12025
 Alpha virt. eigenvalues --    0.12660   0.13104   0.13233   0.13764   0.13865
 Alpha virt. eigenvalues --    0.14192   0.14548   0.14724   0.15314   0.15755
 Alpha virt. eigenvalues --    0.16208   0.16613   0.16783   0.17247   0.17876
 Alpha virt. eigenvalues --    0.18017   0.18602   0.18913   0.19523   0.19620
 Alpha virt. eigenvalues --    0.20501   0.20651   0.20896   0.21151   0.21251
 Alpha virt. eigenvalues --    0.21566   0.21825   0.22236   0.22694   0.23228
 Alpha virt. eigenvalues --    0.23392   0.23819   0.24286   0.24608   0.24841
 Alpha virt. eigenvalues --    0.25739   0.26184   0.26265   0.26460   0.27241
 Alpha virt. eigenvalues --    0.27591   0.27871   0.28282   0.28467   0.29140
 Alpha virt. eigenvalues --    0.29337   0.29570   0.30047   0.30643   0.31138
 Alpha virt. eigenvalues --    0.31550   0.32052   0.32254   0.32609   0.32984
 Alpha virt. eigenvalues --    0.33459   0.34058   0.34974   0.35078   0.35268
 Alpha virt. eigenvalues --    0.35815   0.35977   0.36125   0.36316   0.37765
 Alpha virt. eigenvalues --    0.38242   0.38830   0.39174   0.39521   0.39719
 Alpha virt. eigenvalues --    0.39996   0.40237   0.40621   0.41014   0.41354
 Alpha virt. eigenvalues --    0.41806   0.42636   0.43203   0.43438   0.43882
 Alpha virt. eigenvalues --    0.44808   0.45191   0.45270   0.47212   0.47611
 Alpha virt. eigenvalues --    0.48226   0.49095   0.49420   0.50513   0.50973
 Alpha virt. eigenvalues --    0.52296   0.53820   0.55490   0.56240   0.57318
 Alpha virt. eigenvalues --    0.59177   0.60005   0.61986   0.64278   0.64903
 Alpha virt. eigenvalues --    0.66032   0.67137   0.67856   0.69628   0.70346
 Alpha virt. eigenvalues --    0.71704   0.72122   0.72452   0.73170   0.73668
 Alpha virt. eigenvalues --    0.74115   0.74562   0.75097   0.76081   0.76708
 Alpha virt. eigenvalues --    0.76808   0.79313   0.79657   0.79727   0.80929
 Alpha virt. eigenvalues --    0.81514   0.82718   0.83457   0.84512   0.85214
 Alpha virt. eigenvalues --    0.86266   0.87781   0.88420   0.88796   0.89350
 Alpha virt. eigenvalues --    0.90572   0.91605   0.93173   0.93758   0.94034
 Alpha virt. eigenvalues --    0.95346   0.97047   0.98269   0.99555   1.00747
 Alpha virt. eigenvalues --    1.01046   1.02371   1.02955   1.04047   1.04277
 Alpha virt. eigenvalues --    1.05311   1.06374   1.06479   1.07366   1.10088
 Alpha virt. eigenvalues --    1.11995   1.12773   1.13006   1.14469   1.15408
 Alpha virt. eigenvalues --    1.16285   1.16444   1.17083   1.18528   1.18813
 Alpha virt. eigenvalues --    1.21173   1.21830   1.23711   1.24529   1.25827
 Alpha virt. eigenvalues --    1.26061   1.29377   1.30149   1.31935   1.32137
 Alpha virt. eigenvalues --    1.33885   1.34842   1.36055   1.36616   1.37488
 Alpha virt. eigenvalues --    1.38229   1.39427   1.40375   1.40523   1.41902
 Alpha virt. eigenvalues --    1.43003   1.43539   1.44943   1.45466   1.48175
 Alpha virt. eigenvalues --    1.48370   1.49237   1.49986   1.51984   1.52258
 Alpha virt. eigenvalues --    1.52862   1.55215   1.56567   1.57643   1.61779
 Alpha virt. eigenvalues --    1.64727   1.68285   1.71134   1.72947   1.74274
 Alpha virt. eigenvalues --    1.75447   1.77511   1.78840   1.80374   1.82352
 Alpha virt. eigenvalues --    1.82816   1.83318   1.85290   1.86329   1.86689
 Alpha virt. eigenvalues --    1.87025   1.90190   1.90511   1.91062   1.91438
 Alpha virt. eigenvalues --    1.93092   1.94104   1.94399   1.96306   1.97019
 Alpha virt. eigenvalues --    1.98041   1.98699   2.00144   2.01116   2.01577
 Alpha virt. eigenvalues --    2.02130   2.02442   2.03612   2.04422   2.06523
 Alpha virt. eigenvalues --    2.07942   2.09296   2.10520   2.11192   2.12465
 Alpha virt. eigenvalues --    2.13783   2.14550   2.16635   2.18898   2.19341
 Alpha virt. eigenvalues --    2.20342   2.20905   2.21449   2.22666   2.23654
 Alpha virt. eigenvalues --    2.24297   2.26881   2.27990   2.30135   2.31416
 Alpha virt. eigenvalues --    2.32229   2.33322   2.33975   2.37191   2.37773
 Alpha virt. eigenvalues --    2.38955   2.39282   2.40358   2.40617   2.41579
 Alpha virt. eigenvalues --    2.45624   2.48214   2.51121   2.52432   2.54414
 Alpha virt. eigenvalues --    2.54584   2.58336   2.59485   2.60186   2.62368
 Alpha virt. eigenvalues --    2.63204   2.63597   2.65014   2.65363   2.66306
 Alpha virt. eigenvalues --    2.69227   2.69958   2.70651   2.72181   2.73670
 Alpha virt. eigenvalues --    2.75176   2.76459   2.77668   2.78493   2.79382
 Alpha virt. eigenvalues --    2.80594   2.81115   2.83195   2.84560   2.85212
 Alpha virt. eigenvalues --    2.87187   2.91659   2.93840   2.95923   3.00590
 Alpha virt. eigenvalues --    3.03159   3.05859   3.06096   3.07742   3.10056
 Alpha virt. eigenvalues --    3.12081   3.13754   3.15263   3.16507   3.17055
 Alpha virt. eigenvalues --    3.21863   3.25002   3.26111   3.28269   3.32032
 Alpha virt. eigenvalues --    3.34459   3.35563   3.46425   3.52279   3.55439
 Alpha virt. eigenvalues --    3.63697   3.69687   3.76229   3.77551   3.84600
 Alpha virt. eigenvalues --    3.86601   4.03384   4.14900   4.16147   4.24615
 Alpha virt. eigenvalues --    4.26800   4.27227   4.29936   4.33129   4.37556
 Alpha virt. eigenvalues --    4.40760   4.43190   4.44481   4.47541   4.51308
 Alpha virt. eigenvalues --    4.53633   4.55133   4.57861   4.61290   4.61591
 Alpha virt. eigenvalues --    4.73763   4.74728   4.77916   4.79204   4.85683
 Alpha virt. eigenvalues --    5.20162   5.22532   5.26869   5.54261   5.65417
 Alpha virt. eigenvalues --    6.04204   6.44949   6.50096  23.87025  24.10113
 Alpha virt. eigenvalues --   24.28578  38.15735  38.76629
          Condensed to atoms (all electrons):
               1          2          3          4          5          6
     1  C    5.628169  -0.038555  -0.005366  -0.006330  -0.021860   0.001017
     2  C   -0.038555   6.082817  -0.245928  -0.049471   0.023772   0.008592
     3  C   -0.005366  -0.245928   6.854768   0.475854  -0.796325  -0.032135
     4  N   -0.006330  -0.049471   0.475854   7.761990   0.022700  -0.132115
     5  C   -0.021860   0.023772  -0.796325   0.022700   6.847756   0.712161
     6  O    0.001017   0.008592  -0.032135  -0.132115   0.712161   8.187745
     7  N    0.005900  -0.013918  -0.286982  -0.532403   0.138603  -0.167334
     8  C   -0.002231   0.001734  -0.129695   0.056526  -0.551911  -0.039375
     9  C   -0.001253   0.007238  -0.105369  -0.090225  -0.025457  -0.005050
    10  C    0.000583  -0.007485  -0.080694   0.006364  -0.791600  -0.037912
    11  C   -0.000308  -0.000924  -0.027249  -0.032081  -0.087188  -0.012188
    12  C    0.000107  -0.000911   0.007189  -0.004337   0.001966   0.019446
    13  C    0.000177   0.002574  -0.031285  -0.058649   0.116357   0.017761
    14  H    0.415023  -0.081784   0.022553   0.000692  -0.001243   0.000004
    15  H    0.422912  -0.059319  -0.012924   0.001056  -0.003822  -0.000028
    16  H   -0.026095   0.409203  -0.077132   0.003279   0.009609  -0.000230
    17  H   -0.040925   0.426254  -0.082374   0.009285  -0.005374  -0.000046
    18  H    0.003379  -0.089664   0.406134  -0.083332   0.045449   0.001926
    19  H    0.001892  -0.022761   0.441140  -0.029772  -0.056046  -0.000394
    20  H    0.000617   0.012543  -0.086988   0.211473   0.024045   0.002800
    21  H   -0.000003   0.000012   0.000358  -0.000103   0.014107  -0.000202
    22  F    0.000000  -0.000002   0.000138   0.000010   0.004949   0.000020
    23  N    0.000770  -0.001155   0.060976   0.054725  -0.019369  -0.011476
    24  H   -0.000000  -0.000000  -0.000010  -0.000002  -0.000869   0.000003
    25  O   -0.000005   0.000237  -0.005845  -0.008041  -0.003203  -0.011405
    26  O   -0.000307  -0.001128  -0.023121  -0.015674   0.058647  -0.018097
    27  H    0.406699  -0.066229  -0.002478   0.000019   0.008099  -0.000028
    28  H    0.000100   0.000528   0.009192   0.026796  -0.003593   0.001776
    29  H    0.000000   0.000001   0.000013  -0.000022   0.000033   0.000030
    30  O    0.000120  -0.000334   0.006336   0.004436   0.001293  -0.000255
    31  O   -0.000247   0.000556  -0.006176   0.015888   0.014960   0.000210
    32  C   -0.000694   0.004613  -0.000314  -0.003277  -0.010224   0.001812
    33  C    0.000494   0.001129  -0.020690   0.004692  -0.021516   0.000027
    34  C    0.000020   0.000006   0.001157   0.001515   0.001196  -0.000043
    35  H   -0.000000   0.000007   0.000003   0.000004  -0.000011  -0.000000
    36  H    0.000000   0.000006   0.000000   0.000001  -0.000013  -0.000000
    37  H    0.000000   0.000001  -0.000002   0.000000  -0.000012   0.000000
    38  H    0.000000   0.000000   0.000001   0.000000  -0.000000  -0.000000
    39  H   -0.000000   0.000000  -0.000000   0.000001  -0.000002   0.000000
               7          8          9         10         11         12
     1  C    0.005900  -0.002231  -0.001253   0.000583  -0.000308   0.000107
     2  C   -0.013918   0.001734   0.007238  -0.007485  -0.000924  -0.000911
     3  C   -0.286982  -0.129695  -0.105369  -0.080694  -0.027249   0.007189
     4  N   -0.532403   0.056526  -0.090225   0.006364  -0.032081  -0.004337
     5  C    0.138603  -0.551911  -0.025457  -0.791600  -0.087188   0.001966
     6  O   -0.167334  -0.039375  -0.005050  -0.037912  -0.012188   0.019446
     7  N    7.981676   0.022675  -0.076383   0.154233   0.036569  -0.015808
     8  C    0.022675  14.008658   0.813443  -4.969341  -1.237444  -0.500545
     9  C   -0.076383   0.813443  14.842176  -1.427774  -0.242277  -0.079638
    10  C    0.154233  -4.969341  -1.427774  17.776004  -2.751324   1.499811
    11  C    0.036569  -1.237444  -0.242277  -2.751324   8.736321  -1.243288
    12  C   -0.015808  -0.500545  -0.079638   1.499811  -1.243288   9.735838
    13  C    0.063868  -1.578600  -7.446896  -4.325917   2.805462  -3.808976
    14  H    0.000015  -0.000032   0.000008  -0.000002  -0.000000  -0.000000
    15  H    0.000015  -0.000174   0.000008  -0.000000   0.000000  -0.000000
    16  H    0.000237   0.003160  -0.000453  -0.000143  -0.000019   0.000001
    17  H    0.000304  -0.003033   0.000386  -0.000217   0.000018  -0.000002
    18  H    0.006091   0.008074  -0.001364  -0.000172  -0.000194   0.000071
    19  H   -0.003227  -0.006548   0.000048   0.000886   0.000127  -0.000051
    20  H    0.030578  -0.001114   0.007649  -0.005410   0.000315  -0.000231
    21  H   -0.024479   0.126394   0.041264   0.072627   0.044155   0.011470
    22  F   -0.002059  -0.003351  -0.041657  -0.119614   0.250882  -0.130764
    23  N   -0.078869   0.350639  -0.329283   0.354665  -0.150077   0.025355
    24  H    0.000063  -0.006535   0.044998   0.060453  -0.044753   0.306934
    25  O    0.011664   0.059648  -0.082732  -0.040718  -0.021976   0.201295
    26  O    0.017356  -0.074163  -0.146422   0.033232   0.022057  -0.027278
    27  H    0.000048   0.000270  -0.000035   0.000003  -0.000001   0.000000
    28  H    0.162873   0.107657   0.012801  -0.133511  -0.018796  -0.002996
    29  H   -0.000638   0.030293   0.030833  -0.024322  -0.006793  -0.021900
    30  O    0.023045   0.023571  -0.011479   0.023032  -0.027305   0.000513
    31  O    0.007811   0.002078   0.002775  -0.001363   0.000384  -0.000087
    32  C   -0.013741  -0.007688  -0.020691   0.027738  -0.024677   0.003951
    33  C    0.000158  -0.036529   0.001238   0.034747   0.005472  -0.001093
    34  C   -0.001523   0.003315  -0.002117  -0.002955  -0.003346   0.000701
    35  H   -0.000011  -0.000014  -0.000004   0.000004  -0.000001   0.000000
    36  H   -0.000005  -0.000008  -0.000004  -0.000004  -0.000003   0.000000
    37  H   -0.000007   0.000112   0.000009  -0.000046  -0.000044  -0.000006
    38  H   -0.000001   0.000002  -0.000000   0.000001  -0.000010  -0.000000
    39  H   -0.000013  -0.000041   0.000005   0.000039   0.000019   0.000000
              13         14         15         16         17         18
     1  C    0.000177   0.415023   0.422912  -0.026095  -0.040925   0.003379
     2  C    0.002574  -0.081784  -0.059319   0.409203   0.426254  -0.089664
     3  C   -0.031285   0.022553  -0.012924  -0.077132  -0.082374   0.406134
     4  N   -0.058649   0.000692   0.001056   0.003279   0.009285  -0.083332
     5  C    0.116357  -0.001243  -0.003822   0.009609  -0.005374   0.045449
     6  O    0.017761   0.000004  -0.000028  -0.000230  -0.000046   0.001926
     7  N    0.063868   0.000015   0.000015   0.000237   0.000304   0.006091
     8  C   -1.578600  -0.000032  -0.000174   0.003160  -0.003033   0.008074
     9  C   -7.446896   0.000008   0.000008  -0.000453   0.000386  -0.001364
    10  C   -4.325917  -0.000002  -0.000000  -0.000143  -0.000217  -0.000172
    11  C    2.805462  -0.000000   0.000000  -0.000019   0.000018  -0.000194
    12  C   -3.808976  -0.000000  -0.000000   0.000001  -0.000002   0.000071
    13  C   21.304087   0.000000   0.000000  -0.000038   0.000024  -0.000342
    14  H    0.000000   0.484730  -0.024632  -0.002756  -0.002867  -0.000061
    15  H    0.000000  -0.024632   0.487059  -0.004554   0.004029  -0.000579
    16  H   -0.000038  -0.002756  -0.004554   0.488018  -0.036819   0.004162
    17  H    0.000024  -0.002867   0.004029  -0.036819   0.530052  -0.005867
    18  H   -0.000342  -0.000061  -0.000579   0.004162  -0.005867   0.520267
    19  H    0.000265  -0.000063   0.002176  -0.005209   0.003890  -0.035915
    20  H    0.001221  -0.000002   0.000009  -0.000661   0.005062   0.000407
    21  H   -0.008350  -0.000000   0.000000  -0.000000  -0.000000  -0.000000
    22  F    0.022291   0.000000   0.000000  -0.000000   0.000000   0.000000
    23  N   -0.736109  -0.000000   0.000001   0.000052  -0.000007   0.000178
    24  H   -0.045939   0.000000   0.000000  -0.000000   0.000000  -0.000000
    25  O   -0.139418  -0.000000   0.000000  -0.000000   0.000000  -0.000001
    26  O    0.203779   0.000000  -0.000000   0.000026  -0.000006  -0.000008
    27  H   -0.000002  -0.025493  -0.030206   0.003750  -0.004788   0.002827
    28  H    0.006629  -0.000000  -0.000000   0.000001   0.000003  -0.000016
    29  H    0.307318  -0.000000   0.000000  -0.000000  -0.000000   0.000000
[...]
     6  O   -0.000302   0.006278  -0.000185   0.000018  -0.042175   0.000004
     7  N   -0.002612   0.033409  -0.018332  -0.001584  -0.086104   0.000151
     8  C   -0.013027   0.000205   0.049401  -0.013174   0.238712  -0.016450
     9  C    0.008462   0.032419   0.061263  -0.046129  -0.505791   0.043791
    10  C   -0.002220  -0.029766   0.128459  -0.138435   0.163451   0.032937
    11  C   -0.000068  -0.002476   0.062057   0.307963   0.008101  -0.016172
    12  C   -0.000048  -0.000396   0.019260  -0.130926   0.049832   0.306477
    13  C    0.001213   0.004325  -0.019111   0.001126  -0.408908  -0.035527
    14  H   -0.000063  -0.000001  -0.000000   0.000000   0.000000   0.000000
    15  H    0.002074   0.000005   0.000000   0.000000   0.000003  -0.000000
    16  H   -0.005076  -0.000388  -0.000000  -0.000000   0.000019  -0.000000
    17  H    0.003794   0.004118  -0.000000   0.000000  -0.000005   0.000000
    18  H   -0.035448   0.000649   0.000000   0.000000   0.000148  -0.000000
    19  H    0.448988   0.003253   0.000000  -0.000000  -0.000969   0.000000
    20  H    0.003253   0.354690   0.000011  -0.000000  -0.001578   0.000000
    21  H    0.000000   0.000011   0.479454  -0.003470   0.000415  -0.000110
    22  F   -0.000000  -0.000000  -0.003470   9.347964   0.000248  -0.003862
    23  N   -0.000969  -0.001578   0.000415   0.000248   7.122746  -0.000274
    24  H    0.000000   0.000000  -0.000110  -0.003862  -0.000274   0.450413
    25  O    0.000029   0.000021   0.000036  -0.000013   0.210965  -0.000059
    26  O    0.000063   0.000334  -0.000112   0.000021   0.261846   0.000025
    27  H   -0.000132  -0.000002  -0.000000  -0.000000  -0.000000  -0.000000
    28  H    0.000002   0.003243   0.007727   0.000014  -0.000524  -0.000000
    29  H   -0.000000  -0.000000   0.000010  -0.000375  -0.015980  -0.002684
              25         26         27         28         29
     1  C   -0.000008  -0.000329   0.399083   0.000026  -0.000000
     2  C    0.000136  -0.000490  -0.059116   0.001269   0.000001
     3  C   -0.006180  -0.024309  -0.003410   0.008910  -0.000008
     4  N   -0.009044  -0.014362   0.000394   0.017033  -0.000036
     5  C   -0.003546   0.048831   0.009135   0.002358  -0.000671
     6  O   -0.014538  -0.006723  -0.000021   0.004545   0.000055
     7  N    0.008122   0.015448   0.000069   0.228209  -0.001118
     8  C    0.404033  -0.263615   0.000204  -0.008934   0.082238
     9  C   -0.366455   0.000452  -0.000004   0.133721   0.036971
    10  C   -0.041485   0.047684   0.000003  -0.196781  -0.038484
    11  C    0.013474   0.011163   0.000000   0.012797   0.003244
    12  C    0.127969  -0.016313  -0.000000  -0.006572  -0.062498
    13  C   -0.153945   0.230539  -0.000000   0.035559   0.296248
    14  H   -0.000000   0.000000  -0.025461  -0.000000  -0.000000
    15  H   -0.000000  -0.000001  -0.030180   0.000000   0.000000
    16  H   -0.000000   0.000032   0.003738   0.000000  -0.000000
    17  H    0.000000  -0.000006  -0.004698   0.000006  -0.000000
    18  H   -0.000002  -0.000001   0.002752   0.000005  -0.000000
    19  H    0.000029   0.000063  -0.000132   0.000002  -0.000000
    20  H    0.000021   0.000334  -0.000002   0.003243  -0.000000
    21  H    0.000036  -0.000112  -0.000000   0.007727   0.000010
    22  F   -0.000013   0.000021  -0.000000   0.000014  -0.000375
    23  N    0.210965   0.261846  -0.000000  -0.000524  -0.015980
    24  H   -0.000059   0.000025  -0.000000  -0.000000  -0.002684
    25  O    7.888963  -0.057209   0.000000   0.000008   0.012927
    26  O   -0.057209   7.851504   0.000000   0.000705  -0.003386
    27  H    0.000000   0.000000   0.494444  -0.000000   0.000000
    28  H    0.000008   0.000705  -0.000000   0.355212   0.000002
    29  H    0.012927  -0.003386   0.000000   0.000002   0.426657
 Mulliken charges:
               1
     1  C   -0.721645
     2  C   -0.310514
     3  C   -0.187632
     4  N   -0.606748
     5  C    0.363562
     6  O   -0.510724
     7  N   -0.573725
     8  C    0.975794
     9  C    0.086554
    10  C   -0.332094
    11  C    0.071936
    12  C   -0.166746
    13  C   -0.620679
    14  H    0.215729
    15  H    0.218785
    16  H    0.233199
    17  H    0.198868
    18  H    0.215691
    19  H    0.256242
    20  H    0.385806
    21  H    0.220201
    22  F   -0.324722
    23  N   -0.114792
    24  H    0.242090
    25  O   -0.014197
    26  O   -0.081790
    27  H    0.213204
    28  H    0.401460
    29  H    0.266887
    30  O    0.000000
    31  O    0.000000
    32  C    0.000000
    33  C    0.000000
    34  C    0.000000
    35  H    0.000000
    36  H    0.000000
    37  H    0.000000
    38  H    0.000000
    39  H    0.000000
 Sum of Mulliken charges =  -0.00000
 Mulliken charges with hydrogens summed into heavy atoms:
               1
     1  C   -0.073926
     2  C    0.121554
     3  C    0.284302
     4  N   -0.220943
     5  C    0.363562
     6  O   -0.510724
     7  N   -0.172264
     8  C    0.975794
     9  C    0.086554
    10  C   -0.111893
    11  C    0.071936
    12  C    0.075343
    13  C   -0.353792
    22  F   -0.324722
    23  N   -0.114792
    25  O   -0.014197
    26  O   -0.081790
    30  O    0.000000
    31  O    0.000000
    32  C    0.000000
    33  C    0.000000
    34  C    0.000000
         Mulliken charges condensed to fragments:
      1     -0.000000
      2      0.000000
 Electronic spatial extent (au):  <R**2>=           6171.6481
 Charge=             -0.0000 electrons
 Dipole moment (field-independent basis, Debye):
    X=             -4.0420    Y=              4.8260    Z=             -0.5881  Tot=              6.3225
 Quadrupole moment (field-independent basis, Debye-Ang):
   XX=            -82.9184   YY=           -116.7740   ZZ=           -105.9532
   XY=              7.6105   XZ=             -0.2466   YZ=              2.9103
 Traceless Quadrupole moment (field-independent basis, Debye-Ang):
   XX=             18.9635   YY=            -14.8921   ZZ=             -4.0714
   XY=              7.6105   XZ=             -0.2466   YZ=              2.9103
 Octapole moment (field-independent basis, Debye-Ang**2):
  XXX=           -166.5781  YYY=            317.7137  ZZZ=             25.9298  XYY=           -129.9025
  XXY=             73.3619  XXZ=              4.9911  XZZ=            -74.8026  YZZ=            102.9261
  YYZ=              8.0608  XYZ=              4.5956
 Hexadecapole moment (field-independent basis, Debye-Ang**3):
 XXXX=          -4837.8878 YYYY=          -2536.5445 ZZZZ=           -351.8680 XXXY=           -603.6005
 XXXZ=           -111.5737 YYYX=           -529.8524 YYYZ=             89.0816 ZZZX=            -79.9588
 ZZZY=             66.4177 XXYY=          -1381.2711 XXZZ=           -970.6527 YYZZ=           -480.9083
 XXYZ=             35.9591 YYXZ=            -26.2292 ZZXY=           -205.0223
 N-N= 1.210707760068D+03 E-N=-4.470670534538D+03  KE= 8.703125782846D+02
 CPIOFr:  IOpCl= 0 IRwI=-1 IRwCP=  731 ICalc=  3 LCPTot=      319382 Len1MO=      825702 IndFrg=     3622190
 Counterpoise: doing MCBS calculation for fragment   2
 Basis read from rwf:  (6D, 7F)
 There are   105 symmetry adapted cartesian basis functions of A   symmetry.
 There are   105 symmetry adapted basis functions of A   symmetry.
   105 basis functions,   180 primitive gaussians,   105 cartesian basis functions
    20 alpha electrons       20 beta electrons
       nuclear repulsion energy       168.5371870800 Hartrees.
 NAtoms=   39 NActive=   10 NUniq=   10 SFac= 1.00D+00 NAtFMM=   60 NAOKFM=F Big=F
 Integral buffers will be    131072 words long.
 Raffenetti 2 integral format.
 Two-electron integral symmetry is turned on.
 One-electron integrals computed using PRISM.
 NBasis=   105 RedAO= T EigKep=  1.22D-04  NBF=   105
 NBsUse=   105 1.00D-06 EigRej= -1.00D+00 NBFU=   105
 ExpMin= 4.38D-02 ExpMax= 5.48D+03 ExpMxC= 8.25D+02 IAcc=3 IRadAn=         5 AccDes= 0.00D+00
 Harris functional with IExCor= 1009 and IRadAn=       5 diagonalized for initial guess.
 HarFok:  IExCor= 1009 AccDes= 0.00D+00 IRadAn=         5 IDoV= 1 UseB2=F ITyADJ=14
 ICtDFT=  3500011 ScaDFX=  1.000000  1.000000  1.000000  1.000000
 FoFCou: FMM=F IPFlag=           0 FMFlag=      100000 FMFlg1=           0
         NFxFlg=           0 DoJE=T BraDBF=F KetDBF=T FulRan=T
         wScrn=  0.000000 ICntrl=     500 IOpCl=  0 I1Cent=   200000004 NGrid=           0
         NMat0=    1 NMatS0=      1 NMatT0=    0 NMatD0=    1 NMtDS0=    0 NMtDT0=    0
 Petite list used in FoFCou.
 Keep R1 ints in memory in canonical form, NReq=16474032.
 Requested convergence on RMS density matrix=1.00D-08 within 128 cycles.
 Requested convergence on MAX density matrix=1.00D-06.
 Requested convergence on             energy=1.00D-06.
 No special actions if energy rises.
 SCF Done:  E(RM062X) =  -267.728474336     A.U. after   14 cycles
            NFock= 14  Conv=0.41D-08     -V/T= 2.0084

 **********************************************************************

            Population analysis using the SCF density.

 **********************************************************************

 Orbital symmetries:
       Occupied  (A) (A) (A) (A) (A) (A) (A) (A) (A) (A) (A) (A)
                 (A) (A) (A) (A) (A) (A) (A) (A)
       Virtual   (A) (A) (A) (A) (A) (A) (A) (A) (A) (A) (A) (A)
                 (A) (A) (A) (A) (A) (A) (A) (A) (A) (A) (A) (A)
                 (A) (A) (A) (A) (A) (A) (A) (A) (A) (A) (A) (A)
                 (A) (A) (A) (A) (A) (A) (A) (A) (A) (A) (A) (A)
                 (A) (A) (A) (A) (A) (A) (A) (A) (A) (A) (A) (A)
                 (A) (A) (A) (A) (A) (A) (A) (A) (A) (A) (A) (A)
                 (A) (A) (A) (A) (A) (A) (A) (A) (A) (A) (A) (A)
                 (A)
 The electronic state is 1-A.
 Alpha  occ. eigenvalues --  -19.38289 -19.38017 -10.43624 -10.38681 -10.37528
 Alpha  occ. eigenvalues --   -0.94223  -0.84523  -0.69908  -0.56015  -0.39479
 Alpha  occ. eigenvalues --   -0.36272  -0.33515  -0.30137  -0.27615  -0.27399
 Alpha  occ. eigenvalues --   -0.25012  -0.22636  -0.10892  -0.10835  -0.10188
 Alpha virt. eigenvalues --    0.14621   0.16485   0.18641   0.19570   0.21554
 Alpha virt. eigenvalues --    0.21831   0.22415   0.22883   0.23467   0.25912
 Alpha virt. eigenvalues --    0.28390   0.29730   0.30030   0.38014   0.38911
 Alpha virt. eigenvalues --    0.42277   0.42497   0.43637   0.45464   0.46247
 Alpha virt. eigenvalues --    0.46731   0.47994   0.49569   0.49790   0.50768
 Alpha virt. eigenvalues --    0.55097   0.56101   0.57219   0.71713   0.75136
 Alpha virt. eigenvalues --    0.84458   0.86651   0.89661   0.92072   0.94831
 Alpha virt. eigenvalues --    0.99490   1.01977   1.08485   1.10000   1.14585
 Alpha virt. eigenvalues --    1.20100   1.21330   1.31084   1.32749   1.33969
 Alpha virt. eigenvalues --    1.34584   1.49184   1.54767   1.57821   1.59179
 Alpha virt. eigenvalues --    1.61022   1.63152   1.63273   1.74396   1.78276
 Alpha virt. eigenvalues --    1.80811   1.86843   2.02628   2.02754   2.08621
 Alpha virt. eigenvalues --    2.10123   2.12075   2.14400   2.16376   2.22712
 Alpha virt. eigenvalues --    2.26498   2.28114   2.29471   2.45067   2.52363
 Alpha virt. eigenvalues --    2.54108   2.54327   2.73456   2.74142   2.78557
 Alpha virt. eigenvalues --    2.97703   3.13242   3.27138   3.32716   3.42426
 Alpha virt. eigenvalues --    4.36334   4.41516   4.58230   4.66907   4.82533
          Condensed to atoms (all electrons):
               1          2          3          4          5          6
     1  O    8.598298  -0.169500   0.463297  -0.324104   0.096037   0.001278
     2  O   -0.169500   8.616919   0.529580  -0.393243   0.079297  -0.002774
     3  C    0.463297   0.529580   4.836538  -0.362658   0.050590  -0.015452
     4  C   -0.324104  -0.393243  -0.362658   7.534884  -0.638659   0.388503
     5  C    0.096037   0.079297   0.050590  -0.638659   6.022700  -0.055690
     6  H    0.001278  -0.002774  -0.015452   0.388503  -0.055690   0.530694
     7  H    0.001364  -0.002786  -0.015022   0.388275  -0.055853  -0.032694
     8  H   -0.006689  -0.000110  -0.002500  -0.048648   0.411363  -0.004323
     9  H    0.002898  -0.000309   0.012490  -0.060380   0.378471  -0.002057
    10  H   -0.006615  -0.000103  -0.003208  -0.047616   0.410852   0.003860
               7          8          9         10
     1  O    0.001364  -0.006689   0.002898  -0.006615
     2  O   -0.002786  -0.000110  -0.000309  -0.000103
     3  C   -0.015022  -0.002500   0.012490  -0.003208
     4  C    0.388275  -0.048648  -0.060380  -0.047616
     5  C   -0.055853   0.411363   0.378471   0.410852
     6  H   -0.032694  -0.004323  -0.002057   0.003860
     7  H    0.530542   0.003861  -0.002014  -0.004350
     8  H    0.003861   0.498288  -0.033901  -0.025562
     9  H   -0.002014  -0.033901   0.589298  -0.033980
    10  H   -0.004350  -0.025562  -0.033980   0.499404
 Mulliken charges:
               1
     1  C    0.000000
     2  C    0.000000
     3  C    0.000000
     4  N    0.000000
     5  C    0.000000
     6  O    0.000000
     7  N    0.000000
     8  C    0.000000
     9  C    0.000000
    10  C    0.000000
    11  C    0.000000
    12  C    0.000000
    13  C    0.000000
    14  H    0.000000
    15  H    0.000000
    16  H    0.000000
    17  H    0.000000
    18  H    0.000000
    19  H    0.000000
    20  H    0.000000
    21  H    0.000000
    22  F    0.000000
    23  N    0.000000
    24  H    0.000000
    25  O    0.000000
    26  O    0.000000
    27  H    0.000000
    28  H    0.000000
    29  H    0.000000
    30  O   -0.656265
    31  O   -0.656971
    32  C    0.506345
    33  C   -0.436354
    34  C   -0.699108
    35  H    0.188656
    36  H    0.188677
    37  H    0.208219
    38  H    0.149484
    39  H    0.207317
 Sum of Mulliken charges =  -1.00000
 Mulliken charges with hydrogens summed into heavy atoms:
               1
     1  C    0.000000
     2  C    0.000000
     3  C    0.000000
     4  N    0.000000
     5  C    0.000000
     6  O    0.000000
     7  N    0.000000
     8  C    0.000000
     9  C    0.000000
    10  C    0.000000
    11  C    0.000000
    12  C    0.000000
    13  C    0.000000
    22  F    0.000000
    23  N    0.000000
    25  O    0.000000
    26  O    0.000000
    30  O   -0.656265
    31  O   -0.656971
    32  C    0.506345
    33  C   -0.059022
    34  C   -0.134088
         Mulliken charges condensed to fragments:
      1      0.000000
      2     -1.000000
 Electronic spatial extent (au):  <R**2>=           2457.3824
 Charge=             -1.0000 electrons
 Dipole moment (field-independent basis, Debye):
    X=              9.5279    Y=             -8.6624    Z=             -1.4661  Tot=             12.9602
 Quadrupole moment (field-independent basis, Debye-Ang):
   XX=            -60.2353   YY=            -55.9707   ZZ=            -32.9573
   XY=             14.1268   XZ=              4.0574   YZ=             -2.0553
 Traceless Quadrupole moment (field-independent basis, Debye-Ang):
   XX=            -10.5142   YY=             -6.2496   ZZ=             16.7638
   XY=             14.1268   XZ=              4.0574   YZ=             -2.0553
 Octapole moment (field-independent basis, Debye-Ang**2):
  XXX=            318.4190  YYY=           -391.3788  ZZZ=            -30.2777  XYY=            112.8472
  XXY=           -138.4430  XXZ=            -23.4899  XZZ=             76.4431  YZZ=            -99.0163
  YYZ=            -14.6594  XYZ=              5.3951
 Hexadecapole moment (field-independent basis, Debye-Ang**3):
 XXXX=          -1530.2547 YYYY=          -2678.3146 ZZZZ=            -70.7405 XXXY=            818.9079
 XXXZ=            123.3478 YYYX=            853.2958 YYYZ=           -104.6551 ZZZX=             77.0459
 ZZZY=            -85.6860 XXYY=           -668.2044 XXZZ=           -217.5748 YYZZ=           -379.6162
 XXYZ=            -47.6978 YYXZ=             37.1126 ZZXY=            227.0324
 N-N= 1.685371870800D+02 E-N=-9.724163277124D+02  KE= 2.654877976617D+02
 CPIOFr:  IOpCl= 0 IRwI=-1 IRwCP=  731 ICalc=  4 LCPTot=      319382 Len1MO=      825702 IndFrg=     4447892
 CPIOFr:  IOpCl= 0 IRwI=-2 IRwCP=  731 ICalc=  0 LCPTot=      319382 Len1MO=      825702 IndFrg=     1145084
 Counterpoise corrected energy =   -1145.454521855411
                   BSSE energy =       0.001743823731
               sum of monomers =   -1145.374367887325
           complexation energy =     -51.39 kcal/mole (raw)
           complexation energy =     -50.30 kcal/mole (corrected)
 1\1\GINC-R3747\SP\RM062X\Gen\C13H17F1N3O5(1-)\ROOT\21-Feb-2019\0\\# M0
 62X/Gen 6D SCF=Tight INT(grid=ultrafine) Counterpoise=2 maxdisk=671088
 640\\2Nitro4Fluro_OS_EtO.M062X_6-31pGd_bsse\\-1,1\C,0,-1.1297360717,2.
 3964663439,1.119823652\C,0,0.0220389649,2.2519398472,0.1277236605\C,0,
 1.3723773182,2.5076111547,0.7889029145\N,0,2.4371352014,2.2922401897,-
 0.1655555889\C,0,3.6849726872,2.7430983417,0.0983367986\O,0,3.98168553
 67,3.4666031099,1.0454266173\N,0,4.6275253398,2.2757149579,-0.82725848
 21\C,0,5.9724798625,2.515543343,-0.7162276324\C,0,6.5624079888,3.72370
 27227,-0.2886329181\C,0,6.8501682752,1.4609049261,-1.0520908211\C,0,8.
 2076047841,1.6295826765,-0.9046695791\C,0,8.7904937954,2.7954342952,-0
 .4144263475\C,0,7.9394579256,3.8451155029,-0.1087361243\H,0,-2.0975897
 422,2.224915508,0.6371843423\H,0,-1.1468735781,3.4005539422,1.56037118
 66\H,0,-0.10045457,2.9566794022,-0.7035913154\H,0,0.0245044916,1.24743
 66228,-0.3128865024\H,0,1.4890789871,1.8470734548,1.6641000921\H,0,1.4
 389750588,3.5368961175,1.1579551905\H,0,2.3096726042,1.5330629141,-0.8
 588104976\H,0,6.4339869116,0.5186707578,-1.4000974964\F,0,9.0247718742
 ,0.6010078017,-1.2269002991\N,0,5.8007243087,4.967410592,-0.1566095338
 \H,0,9.8658208157,2.8681825393,-0.3013975589\O,0,6.1767234063,5.774631
 3394,0.6810016511\O,0,4.8987091014,5.166357629,-0.9474404129\H,0,-1.03
 31709942,1.6762377865,1.9407523237\H,0,4.3909752855,1.3844463705,-1.32
 06750411\H,0,8.3261834916,4.7920899598,0.2506022672\O,0,4.2550600381,-
 0.1632620162,-2.0456000495\O,0,2.0288813997,0.0819811224,-1.876616107\
 C,0,3.0632086793,-0.5342100038,-2.2347328328\C,0,2.8422663648,-1.86418
 04944,-2.9733029244\C,0,4.1233174845,-2.5808007956,-3.3819876591\H,0,2
 .2173696447,-1.6438725652,-3.8476722675\H,0,2.2272904792,-2.495642009,
 -2.3201589564\H,0,4.7276270009,-1.9470350564,-4.0373168526\H,0,3.90338
 23387,-3.5187366042,-3.9067291366\H,0,4.7361975098,-2.8073017264,-2.50
 46977594\\Version=ES64L-G09RevE.01\State=1-A\HF=-267.7284743\RMSD=4.10
 5e-09\Dipole=0.6522519,-0.4939089,0.1235596\Quadrupole=3.9437066,-10.1
 848382,6.2411316,-1.8009603,-1.9030818,-11.972177\PG=C01 [X(C13H17F1N3
 O5)]\\@


 IN THE WOODS WE RETURN TO REASON AND FAITH.

                                 -- EMERSON
 Job cpu time:       0 days  1 hours 51 minutes 25.4 seconds.
 File lengths (MBytes):  RWF=    168 Int=      0 D2E=      0 Chk=     46 Scr=      1
 Normal termination of Gaussian 09 at Thu Feb 21 21:26:16 2019.
WARNING: pbs_rusage is deprecated and values produced may not be accurate


=============================================================================
                                     Resource usage:
                                       CPU time:              01:45:12
   JobId:    5977115.r-man2            Elapsed time:          00:27:19
   Project:             q95            Requested time:        48:00:00
   Service Units:      1.82 
                                       Max physical memory:      153MB
                                       Max virtual memory:       403MB
                                       Requested memory:           0MB

                                       Number of cpus:               4

                                       Max jobfs disk use:       0.2GB
                                       Requested jobfs:          5.0GB
=============================================================================

