 Entering Gaussian System, Link 0=/apps/gaussian/g09e01/g09/g09
 AtFile(1): /home/507/hio507/Basis/6-31pGd.gbs
 Initial command:
 /apps/gaussian/g09e01/g09/l1.exe "/jobfs/local/6064438.r-man2/Gau-12735.inp" -scrdir="/jobfs/local/6064438.r-man2/"
 Entering Link 1 = /apps/gaussian/g09e01/g09/l1.exe PID=     12736.
  
 Copyright (c) 1988,1990,1992,1993,1995,1998,2003,2009,2015,
            Gaussian, Inc.  All Rights Reserved.
  
 This is part of the Gaussian(R) 09 program.  It is based on
 the Gaussian(R) 03 system (copyright 2003, Gaussian, Inc.),
 the Gaussian(R) 98 system (copyright 1998, Gaussian, Inc.),
 the Gaussian(R) 94 system (copyright 1995, Gaussian, Inc.),
 the Gaussian 92(TM) system (copyright 1992, Gaussian, Inc.),
 the Gaussian 90(TM) system (copyright 1990, Gaussian, Inc.),
 the Gaussian 88(TM) system (copyright 1988, Gaussian, Inc.),
 the Gaussian 86(TM) system (copyright 1986, Carnegie Mellon
 University), and the Gaussian 82(TM) system (copyright 1983,
 Carnegie Mellon University). Gaussian is a federally registered
 trademark of Gaussian, Inc.
  
 This software contains proprietary and confidential information,
 including trade secrets, belonging to Gaussian, Inc.
  
 This software is provided under written license and may be
 used, copied, transmitted, or stored only in accord with that
 written license.
  
 The following legend is applicable only to US Government
 contracts under FAR:
  
                    RESTRICTED RIGHTS LEGEND
  
 Use, reproduction and disclosure by the US Government is
 subject to restrictions as set forth in subparagraphs (a)
 and (c) of the Commercial Computer Software - Restricted
 Rights clause in FAR 52.227-19.
  
 Gaussian, Inc.
 340 Quinnipiac St., Bldg. 40, Wallingford CT 06492
  
  
 ---------------------------------------------------------------
 Warning -- This program may not be used in any manner that
 competes with the business of Gaussian, Inc. or will provide
 assistance to any competitor of Gaussian, Inc.  The licensee
 of this program is prohibited from giving any competitor of
 Gaussian, Inc. access to this program.  By using this program,
 the user acknowledges that Gaussian, Inc. is engaged in the
 business of creating and licensing software in the field of
 computational chemistry and represents and warrants to the
 licensee that it is not a competitor of Gaussian, Inc. and that
 it will not use this program in any manner prohibited above.
 ---------------------------------------------------------------
  

 Cite this work as:
 Gaussian 09, Revision E.01,
 M. J. Frisch, G. W. Trucks, H. B. Schlegel, G. E. Scuseria, 
 M. A. Robb, J. R. Cheeseman, G. Scalmani, V. Barone, B. Mennucci, 
 G. A. Petersson, H. Nakatsuji, M. Caricato, X. Li, H. P. Hratchian, 
 A. F. Izmaylov, J. Bloino, G. Zheng, J. L. Sonnenberg, M. Hada, 
 M. Ehara, K. Toyota, R. Fukuda, J. Hasegawa, M. Ishida, T. Nakajima, 
 Y. Honda, O. Kitao, H. Nakai, T. Vreven, J. A. Montgomery, Jr., 
 J. E. Peralta, F. Ogliaro, M. Bearpark, J. J. Heyd, E. Brothers, 
 K. N. Kudin, V. N. Staroverov, T. Keith, R. Kobayashi, J. Normand, 
 K. Raghavachari, A. Rendell, J. C. Burant, S. S. Iyengar, J. Tomasi, 
 M. Cossi, N. Rega, J. M. Millam, M. Klene, J. E. Knox, J. B. Cross, 
 V. Bakken, C. Adamo, J. Jaramillo, R. Gomperts, R. E. Stratmann, 
 O. Yazyev, A. J. Austin, R. Cammi, C. Pomelli, J. W. Ochterski, 
 R. L. Martin, K. Morokuma, V. G. Zakrzewski, G. A. Voth, 
 P. Salvador, J. J. Dannenberg, S. Dapprich, A. D. Daniels, 
 O. Farkas, J. B. Foresman, J. V. Ortiz, J. Cioslowski, 
 and D. J. Fox, Gaussian, Inc., Wallingford CT, 2013.
 
 ******************************************
 Gaussian 09:  ES64L-G09RevE.01 30-Nov-2015
                24-Feb-2019 
 ******************************************
 %chk=CLCF3.M062X_6-31pGd_opt_Pentadecane.chk
 %mem=196608000
 %nproc=4
 Will use up to    4 processors via shared memory.
 ----------------------------------------------------------------------
 # M062X/Gen 6D SCF=Tight INT(grid=ultrafine) OPT IOP(2/17=4) SCRF=(SMD
 ,Solvent=n-Pentadecane) maxdisk=2147483648
 ----------------------------------------------------------------------
 1/14=-1,18=20,19=15,26=4,38=1/1,3;
 2/9=110,12=2,17=4,18=5,40=1/2;
 3/5=7,8=2,11=2,16=1,25=1,30=1,70=32201,71=1,72=151,74=-55,75=-5/1,2,3;
 4//1;
 5/5=2,32=2,38=5,53=151/2;
 6/7=2,8=2,9=2,10=2,28=1/1;
 7//1,2,3,16;
 1/14=-1,18=20,19=15,26=4/3(2);
 2/9=110,17=4/2;
 99//99;
 2/9=110,17=4/2;
 3/5=7,6=1,8=2,11=2,16=1,25=1,30=1,70=32205,71=1,72=151,74=-55,75=-5,82=7/1,2,3;
 4/5=5,16=3,69=1/1;
 5/5=2,32=2,38=5,53=151/2;
 7//1,2,3,16;
 1/14=-1,18=20,19=15,26=4/3(-5);
 2/9=110,17=4/2;
 6/7=2,8=2,9=2,10=2,19=2,28=1/1;
 99/9=1/99;
 -----------------------------------
 CLCF3.M062X_6-31pGd_opt_Pentadecane
 -----------------------------------
 Symbolic Z-matrix:
 Charge =  0 Multiplicity = 1
 C                    -4.27224   3.07376  -0.71609 
 C                    -4.18195   1.70417  -0.47274 
 C                    -2.97894   1.14791  -0.03458 
 C                    -1.83707   1.94516   0.17122 
 C                    -1.94518   3.33533  -0.08057 
 C                    -3.15533   3.90122  -0.52232 
 H                    -5.21493   3.4836   -1.0553 
 N                    -0.63867   1.28743   0.62411 
 C                     0.44158   1.8421    1.25687 
 N                     1.49135   1.04763   1.61089 
 O                     0.48491   3.03509   1.51126 
 C                     2.66346   1.58031   2.28386 
 C                     3.68677   0.47372   2.56402 
 C                     4.92033   1.02776   3.27094 
 H                    -2.93479   0.08099   0.14737 
 H                    -1.1224    4.01338   0.05133 
 H                    -0.58965   0.27143   0.44909 
 H                     1.45289   0.03894   1.39492 
 H                     2.35383   2.04412   3.24649 
 H                     3.13268   2.35803   1.64149 
 H                     4.00007   0.00711   1.60468 
 H                     3.22279  -0.30613   3.20649 
 H                     5.4148    1.79626   2.63926 
 H                     5.64175   0.20516   3.46015 
 H                     4.63617   1.48249   4.24386 
 Cl                   -5.58357   0.67726  -0.71772 
 C                    -3.23529   5.60513  -0.81563 
 F                    -2.46667   6.27026   0.12235 
 F                    -4.53277   6.08169  -0.73814 
 F                    -2.74204   5.87847  -2.07856 
 

 GradGradGradGradGradGradGradGradGradGradGradGradGradGradGradGradGradGrad
 Berny optimization.
 Initialization pass.
                           ----------------------------
                           !    Initial Parameters    !
                           ! (Angstroms and Degrees)  !
 --------------------------                            --------------------------
 ! Name  Definition              Value          Derivative Info.                !
 --------------------------------------------------------------------------------
 ! R1    R(1,2)                  1.394          estimate D2E/DX2                !
 ! R2    R(1,6)                  1.4035         estimate D2E/DX2                !
 ! R3    R(1,7)                  1.0824         estimate D2E/DX2                !
 ! R4    R(2,3)                  1.3959         estimate D2E/DX2                !
 ! R5    R(2,26)                 1.7547         estimate D2E/DX2                !
 ! R6    R(3,4)                  1.4078         estimate D2E/DX2                !
 ! R7    R(3,15)                 1.0832         estimate D2E/DX2                !
 ! R8    R(4,5)                  1.4169         estimate D2E/DX2                !
 ! R9    R(4,8)                  1.4401         estimate D2E/DX2                !
 ! R10   R(5,6)                  1.4071         estimate D2E/DX2                !
 ! R11   R(5,16)                 1.0743         estimate D2E/DX2                !
 ! R12   R(6,27)                 1.7308         estimate D2E/DX2                !
 ! R13   R(8,9)                  1.3693         estimate D2E/DX2                !
 ! R14   R(8,17)                 1.0321         estimate D2E/DX2                !
 ! R15   R(9,10)                 1.3633         estimate D2E/DX2                !
 ! R16   R(9,11)                 1.2206         estimate D2E/DX2                !
 ! R17   R(10,12)                1.4527         estimate D2E/DX2                !
 ! R18   R(10,18)                1.0323         estimate D2E/DX2                !
 ! R19   R(12,13)                1.533          estimate D2E/DX2                !
 ! R20   R(12,19)                1.1125         estimate D2E/DX2                !
 ! R21   R(12,20)                1.1125         estimate D2E/DX2                !
 ! R22   R(13,14)                1.5259         estimate D2E/DX2                !
 ! R23   R(13,21)                1.1119         estimate D2E/DX2                !
 ! R24   R(13,22)                1.1119         estimate D2E/DX2                !
 ! R25   R(14,23)                1.1109         estimate D2E/DX2                !
 ! R26   R(14,24)                1.1104         estimate D2E/DX2                !
 ! R27   R(14,25)                1.1109         estimate D2E/DX2                !
 ! R28   R(27,28)                1.3831         estimate D2E/DX2                !
 ! R29   R(27,29)                1.3844         estimate D2E/DX2                !
 ! R30   R(27,30)                1.3831         estimate D2E/DX2                !
 ! A1    A(2,1,6)              120.2399         estimate D2E/DX2                !
 ! A2    A(2,1,7)              118.8892         estimate D2E/DX2                !
 ! A3    A(6,1,7)              120.8709         estimate D2E/DX2                !
 ! A4    A(1,2,3)              120.1411         estimate D2E/DX2                !
 ! A5    A(1,2,26)             119.9258         estimate D2E/DX2                !
 ! A6    A(3,2,26)             119.9331         estimate D2E/DX2                !
 ! A7    A(2,3,4)              121.2807         estimate D2E/DX2                !
 ! A8    A(2,3,15)             118.7073         estimate D2E/DX2                !
 ! A9    A(4,3,15)             120.012          estimate D2E/DX2                !
 ! A10   A(3,4,5)              117.8892         estimate D2E/DX2                !
 ! A11   A(3,4,8)              117.536          estimate D2E/DX2                !
 ! A12   A(5,4,8)              124.5749         estimate D2E/DX2                !
 ! A13   A(4,5,6)              121.064          estimate D2E/DX2                !
 ! A14   A(4,5,16)             122.6147         estimate D2E/DX2                !
 ! A15   A(6,5,16)             116.3212         estimate D2E/DX2                !
 ! A16   A(1,6,5)              119.385          estimate D2E/DX2                !
 ! A17   A(1,6,27)             121.3493         estimate D2E/DX2                !
 ! A18   A(5,6,27)             119.2657         estimate D2E/DX2                !
 ! A19   A(4,8,9)              128.0841         estimate D2E/DX2                !
 ! A20   A(4,8,17)             115.8352         estimate D2E/DX2                !
 ! A21   A(9,8,17)             116.0807         estimate D2E/DX2                !
 ! A22   A(8,9,10)             119.434          estimate D2E/DX2                !
 ! A23   A(8,9,11)             121.348          estimate D2E/DX2                !
 ! A24   A(10,9,11)            119.2179         estimate D2E/DX2                !
 ! A25   A(9,10,12)            121.8632         estimate D2E/DX2                !
 ! A26   A(9,10,18)            119.1064         estimate D2E/DX2                !
 ! A27   A(12,10,18)           119.0304         estimate D2E/DX2                !
 ! A28   A(10,12,13)           111.0107         estimate D2E/DX2                !
 ! A29   A(10,12,19)           109.2171         estimate D2E/DX2                !
 ! A30   A(10,12,20)           109.2169         estimate D2E/DX2                !
 ! A31   A(13,12,19)           109.1831         estimate D2E/DX2                !
 ! A32   A(13,12,20)           109.1838         estimate D2E/DX2                !
 ! A33   A(19,12,20)           108.9998         estimate D2E/DX2                !
 ! A34   A(12,13,14)           111.2351         estimate D2E/DX2                !
 ! A35   A(12,13,21)           109.4716         estimate D2E/DX2                !
 ! A36   A(12,13,22)           109.4714         estimate D2E/DX2                !
 ! A37   A(14,13,21)           108.924          estimate D2E/DX2                !
 ! A38   A(14,13,22)           108.9247         estimate D2E/DX2                !
 ! A39   A(21,13,22)           108.7724         estimate D2E/DX2                !
 ! A40   A(13,14,23)           110.3393         estimate D2E/DX2                !
 ! A41   A(13,14,24)           109.5842         estimate D2E/DX2                !
 ! A42   A(13,14,25)           110.3392         estimate D2E/DX2                !
 ! A43   A(23,14,24)           108.6748         estimate D2E/DX2                !
 ! A44   A(23,14,25)           109.1885         estimate D2E/DX2                !
 ! A45   A(24,14,25)           108.6752         estimate D2E/DX2                !
 ! A46   A(6,27,28)            109.4401         estimate D2E/DX2                !
 ! A47   A(6,27,29)            111.8819         estimate D2E/DX2                !
 ! A48   A(6,27,30)            109.4398         estimate D2E/DX2                !
 ! A49   A(28,27,29)           108.5014         estimate D2E/DX2                !
 ! A50   A(28,27,30)           109.0274         estimate D2E/DX2                !
 ! A51   A(29,27,30)           108.5004         estimate D2E/DX2                !
 ! D1    D(6,1,2,3)              0.0009         estimate D2E/DX2                !
 ! D2    D(6,1,2,26)           179.9999         estimate D2E/DX2                !
 ! D3    D(7,1,2,3)           -179.9996         estimate D2E/DX2                !
 ! D4    D(7,1,2,26)            -0.0006         estimate D2E/DX2                !
 ! D5    D(2,1,6,5)             -0.0003         estimate D2E/DX2                !
 ! D6    D(2,1,6,27)          -179.9991         estimate D2E/DX2                !
 ! D7    D(7,1,6,5)           -179.9998         estimate D2E/DX2                !
 ! D8    D(7,1,6,27)             0.0014         estimate D2E/DX2                !
 ! D9    D(1,2,3,4)             -0.0018         estimate D2E/DX2                !
 ! D10   D(1,2,3,15)          -179.9998         estimate D2E/DX2                !
 ! D11   D(26,2,3,4)           179.9992         estimate D2E/DX2                !
 ! D12   D(26,2,3,15)            0.0011         estimate D2E/DX2                !
 ! D13   D(2,3,4,5)              0.002          estimate D2E/DX2                !
 ! D14   D(2,3,4,8)           -179.9994         estimate D2E/DX2                !
 ! D15   D(15,3,4,5)          -180.0            estimate D2E/DX2                !
 ! D16   D(15,3,4,8)            -0.0013         estimate D2E/DX2                !
 ! D17   D(3,4,5,6)             -0.0014         estimate D2E/DX2                !
 ! D18   D(3,4,5,16)           179.9983         estimate D2E/DX2                !
 ! D19   D(8,4,5,6)           -179.9999         estimate D2E/DX2                !
 ! D20   D(8,4,5,16)            -0.0002         estimate D2E/DX2                !
 ! D21   D(3,4,8,9)           -159.0247         estimate D2E/DX2                !
 ! D22   D(3,4,8,17)            20.9768         estimate D2E/DX2                !
 ! D23   D(5,4,8,9)             20.9739         estimate D2E/DX2                !
 ! D24   D(5,4,8,17)          -159.0246         estimate D2E/DX2                !
 ! D25   D(4,5,6,1)              0.0005         estimate D2E/DX2                !
 ! D26   D(4,5,6,27)           179.9994         estimate D2E/DX2                !
 ! D27   D(16,5,6,1)          -179.9992         estimate D2E/DX2                !
 ! D28   D(16,5,6,27)           -0.0003         estimate D2E/DX2                !
 ! D29   D(1,6,27,28)          143.3681         estimate D2E/DX2                !
 ! D30   D(1,6,27,29)           23.0771         estimate D2E/DX2                !
 ! D31   D(1,6,27,30)          -97.2125         estimate D2E/DX2                !
 ! D32   D(5,6,27,28)          -36.6307         estimate D2E/DX2                !
 ! D33   D(5,6,27,29)         -156.9217         estimate D2E/DX2                !
 ! D34   D(5,6,27,30)           82.7887         estimate D2E/DX2                !
 ! D35   D(4,8,9,10)           179.9995         estimate D2E/DX2                !
 ! D36   D(4,8,9,11)            -0.0023         estimate D2E/DX2                !
 ! D37   D(17,8,9,10)           -0.002          estimate D2E/DX2                !
 ! D38   D(17,8,9,11)          179.9962         estimate D2E/DX2                !
 ! D39   D(8,9,10,12)          179.9972         estimate D2E/DX2                !
 ! D40   D(8,9,10,18)           -0.0021         estimate D2E/DX2                !
 ! D41   D(11,9,10,12)          -0.001          estimate D2E/DX2                !
 ! D42   D(11,9,10,18)         179.9997         estimate D2E/DX2                !
 ! D43   D(9,10,12,13)         179.999          estimate D2E/DX2                !
 ! D44   D(9,10,12,19)          59.5587         estimate D2E/DX2                !
 ! D45   D(9,10,12,20)         -59.5601         estimate D2E/DX2                !
 ! D46   D(18,10,12,13)         -0.0017         estimate D2E/DX2                !
 ! D47   D(18,10,12,19)       -120.442          estimate D2E/DX2                !
 ! D48   D(18,10,12,20)        120.4392         estimate D2E/DX2                !
 ! D49   D(10,12,13,14)        179.9983         estimate D2E/DX2                !
 ! D50   D(10,12,13,21)         59.5718         estimate D2E/DX2                !
 ! D51   D(10,12,13,22)        -59.5745         estimate D2E/DX2                !
 ! D52   D(19,12,13,14)        -59.5412         estimate D2E/DX2                !
 ! D53   D(19,12,13,21)       -179.9677         estimate D2E/DX2                !
 ! D54   D(19,12,13,22)         60.8859         estimate D2E/DX2                !
 ! D55   D(20,12,13,14)         59.5377         estimate D2E/DX2                !
 ! D56   D(20,12,13,21)        -60.8888         estimate D2E/DX2                !
 ! D57   D(20,12,13,22)        179.9649         estimate D2E/DX2                !
 ! D58   D(12,13,14,23)        -60.3742         estimate D2E/DX2                !
 ! D59   D(12,13,14,24)        179.9997         estimate D2E/DX2                !
 ! D60   D(12,13,14,25)         60.3732         estimate D2E/DX2                !
 ! D61   D(21,13,14,23)         60.3749         estimate D2E/DX2                !
 ! D62   D(21,13,14,24)        -59.2512         estimate D2E/DX2                !
 ! D63   D(21,13,14,25)       -178.8778         estimate D2E/DX2                !
 ! D64   D(22,13,14,23)        178.8766         estimate D2E/DX2                !
 ! D65   D(22,13,14,24)         59.2505         estimate D2E/DX2                !
 ! D66   D(22,13,14,25)        -60.376          estimate D2E/DX2                !
 --------------------------------------------------------------------------------
 Trust Radius=3.00D-01 FncErr=1.00D-07 GrdErr=1.00D-06
 Number of steps in this run=    157 maximum allowed number of steps=    180.
 GradGradGradGradGradGradGradGradGradGradGradGradGradGradGradGradGradGrad

                          Input orientation:                          
 ---------------------------------------------------------------------
 Center     Atomic      Atomic             Coordinates (Angstroms)
 Number     Number       Type             X           Y           Z
 ---------------------------------------------------------------------
      1          6           0       -4.272240    3.073760   -0.716090
      2          6           0       -4.181950    1.704170   -0.472740
      3          6           0       -2.978940    1.147910   -0.034580
      4          6           0       -1.837070    1.945160    0.171220
      5          6           0       -1.945180    3.335330   -0.080570
      6          6           0       -3.155330    3.901220   -0.522320
      7          1           0       -5.214930    3.483600   -1.055300
      8          7           0       -0.638670    1.287430    0.624110
      9          6           0        0.441580    1.842100    1.256870
     10          7           0        1.491350    1.047630    1.610890
     11          8           0        0.484910    3.035090    1.511260
     12          6           0        2.663460    1.580310    2.283860
     13          6           0        3.686770    0.473720    2.564020
     14          6           0        4.920330    1.027760    3.270940
     15          1           0       -2.934790    0.080990    0.147370
     16          1           0       -1.122400    4.013380    0.051330
     17          1           0       -0.589650    0.271430    0.449090
     18          1           0        1.452890    0.038940    1.394920
     19          1           0        2.353830    2.044120    3.246490
     20          1           0        3.132680    2.358030    1.641490
     21          1           0        4.000070    0.007110    1.604680
     22          1           0        3.222790   -0.306130    3.206490
     23          1           0        5.414800    1.796260    2.639260
     24          1           0        5.641750    0.205160    3.460150
     25          1           0        4.636170    1.482490    4.243860
     26         17           0       -5.583570    0.677260   -0.717720
     27          6           0       -3.235290    5.605130   -0.815630
     28          9           0       -2.466670    6.270260    0.122350
     29          9           0       -4.532770    6.081690   -0.738140
     30          9           0       -2.742040    5.878470   -2.078560
 ---------------------------------------------------------------------
                    Distance matrix (angstroms):
                    1          2          3          4          5
     1  C    0.000000
     2  C    1.393969   0.000000
     3  C    2.417846   1.395938   0.000000
     4  C    2.826855   2.443609   1.407774   0.000000
     5  C    2.426420   2.796001   2.419831   1.416919   0.000000
     6  C    1.403469   2.425579   2.801735   2.458654   1.407067
     7  H    1.082449   2.138409   3.390718   3.909103   3.415164
     8  N    4.264967   3.732504   2.435201   1.440097   2.529315
     9  C    5.256392   4.938381   3.721518   2.526164   3.116906
    10  N    6.537508   6.079383   4.764569   3.735852   4.461429
    11  O    5.252910   5.242822   4.236665   2.894002   2.920514
    12  C    7.702858   7.380638   6.115457   4.985091   5.469021
    13  C    8.992506   8.523654   7.186024   6.197051   6.848469
    14  C   10.226723   9.865301   8.563841   7.490817   7.980772
    15  H    3.389839   2.138845   1.083224   2.163490   3.409107
    16  H    3.375398   3.868843   3.415412   2.191497   1.074298
    17  H    4.772019   3.975819   2.590533   2.105859   3.391974
    18  H    6.814955   6.165433   4.786899   3.994365   4.958844
    19  H    7.788903   7.527593   6.325113   5.199108   5.587310
    20  H    7.804056   7.642075   6.451783   5.199093   5.450254
    21  H    9.122578   8.610525   7.259144   6.315303   7.018769
    22  H    9.109652   8.509302   7.147043   6.315327   7.125511
    23  H   10.330979  10.089135   8.833156   7.661789   7.995969
    24  H   11.133600  10.687363   9.349771   8.353287   8.938466
    25  H   10.319545  10.002735   8.741104   7.661808   8.089986
    26  Cl   2.731813   1.754736   2.733549   4.053893   4.550734
    27  C    2.737336   4.028800   4.532391   4.040331   2.712322
    28  F    3.765724   4.913807   5.150293   4.370958   2.987799
    29  F    3.019272   4.399567   5.220304   5.020420   3.830211
    30  F    3.473361   4.698593   5.158699   4.620758   3.330842
                    6          7          8          9         10
     6  C    0.000000
     7  H    2.168047   0.000000
     8  N    3.805230   5.346563   0.000000
     9  C    4.510350   6.327461   1.369301   0.000000
    10  N    5.855356   7.616870   2.359708   1.363279   0.000000
    11  O    4.258753   6.267102   2.259155   1.220581   2.229988
    12  C    6.864371   8.765930   3.707373   2.461705   1.452749
    13  C    8.251520  10.069713   4.809865   3.756643   2.461239
    14  C    9.373467  11.290305   6.162436   4.977834   3.809733
    15  H    3.884750   4.268865   2.637223   3.966406   4.760987
    16  H    2.115292   4.272482   2.827167   2.934930   4.249658
    17  H    4.549915   5.828760   1.032129   2.045226   2.506557
    18  H    6.310999   7.894877   2.554897   2.072002   1.032268
    19  H    6.928463   8.824037   4.050248   2.766966   2.100488
    20  H    6.826608   8.844330   4.050226   2.766972   2.100488
    21  H    8.419499  10.201848   4.911074   4.018832   2.715952
    22  H    8.502131  10.184303   4.911109   4.018836   2.715969
    23  H    9.374091  11.379282   6.400331   5.161978   4.124494
    24  H   10.339707  12.206759   6.975536   5.880118   4.621184
    25  H    9.448502  11.363525   6.400357   5.161978   4.124503
    26  Cl   4.040848   2.850509   5.159927   6.446572   7.457486
    27  C    1.730819   2.911581   5.240021   5.654646   6.999995
    28  F    2.549942   4.087208   5.331223   5.417901   6.719936
    29  F    2.588121   2.704811   6.324924   6.833619   8.194494
    30  F    2.549943   3.591330   5.727673   6.128035   7.407472
                   11         12         13         14         15
    11  O    0.000000
    12  C    2.731186   0.000000
    13  C    4.233300   1.533034   0.000000
    14  C    5.176756   2.524500   1.525899   0.000000
    15  H    4.720302   6.176808   7.059709   8.506231   0.000000
    16  H    2.381574   5.023620   6.478497   7.469565   4.331013
    17  H    3.149714   3.957559   4.775104   6.236566   2.372126
    18  H    3.150783   2.152096   2.558525   4.064524   4.561785
    19  H    2.736038   1.112496   2.169943   2.760527   6.436453
    20  H    2.736066   1.112499   2.169954   2.760510   6.650677
    21  H    4.640446   2.173194   1.111852   2.159867   7.086712
    22  H    4.640425   2.173189   1.111850   2.159875   6.886499
    23  H    5.206813   2.782591   2.177352   1.110906   8.880727
    24  H    6.196747   3.484954   2.167284   1.110368   9.194943
    25  H    5.206787   2.782580   2.177347   1.110900   8.721518
    26  Cl   6.881436   8.822612   9.836181  11.241182   2.849553
    27  C    5.085215   7.784681   9.255718  10.206199   5.615496
    28  F    4.594260   7.279148   8.799230   9.589848   6.206998
    29  F    6.286389   9.010030  10.484008  11.444476   6.272644
    30  F    5.602216   8.168495   9.596586  10.528934   6.213106
                   16         17         18         19         20
    16  H    0.000000
    17  H    3.800556   0.000000
    18  H    4.922756   2.262878   0.000000
    19  H    5.115780   4.430796   2.874152   0.000000
    20  H    4.834718   4.430740   2.874138   1.811401   0.000000
    21  H    6.686015   4.740336   2.556000   3.091125   2.506102
    22  H    6.891580   4.740414   2.556053   2.506066   3.091131
    23  H    7.372109   6.570797   4.509245   3.130447   2.553273
    24  H    8.477990   6.921071   4.673259   3.773307   3.773302
    25  H    7.559354   6.570855   4.509276   2.553282   3.130396
    26  Cl   5.623448   5.144451   7.374447   8.976947   9.184981
    27  C    2.783809   6.086648   7.605790   7.773022   7.558580
    28  F    2.627853   6.294118   7.470725   7.131461   6.997575
    29  F    4.065931   7.121575   8.768860   8.922136   8.848017
    30  F    3.261629   6.516187   7.985149   8.308206   7.793883
                   21         22         23         24         25
    21  H    0.000000
    22  H    1.807783   0.000000
    23  H    2.504571   3.089774   0.000000
    24  H    2.485378   2.485383   1.804707   0.000000
    25  H    3.089764   2.504584   1.810927   1.804706   0.000000
    26  Cl   9.883764   9.691154  11.553598  11.986880  11.388975
    27  C    9.462883   9.634689  10.063191  11.235827  10.225189
    28  F    9.123764   9.226634   9.405800  10.661746   9.505784
    29  F   10.733065  10.794122  11.345743  12.477183  11.403615
    30  F    9.669290  10.087627  10.269192  11.539137  10.664690
                   26         27         28         29         30
    26  Cl   0.000000
    27  C    5.459662   0.000000
    28  F    6.457742   1.383106   0.000000
    29  F    5.505675   1.384402   2.246057   0.000000
    30  F    6.081017   1.383113   2.252406   2.246049   0.000000
 Stoichiometry    C11H12ClF3N2O
 Framework group  C1[X(C11H12ClF3N2O)]
 Deg. of freedom    84
 Full point group                 C1      NOp   1
 Largest Abelian subgroup         C1      NOp   1
 Largest concise Abelian subgroup C1      NOp   1
                         Standard orientation:                         
 ---------------------------------------------------------------------
 Center     Atomic      Atomic             Coordinates (Angstroms)
 Number     Number       Type             X           Y           Z
 ---------------------------------------------------------------------
      1          6           0       -2.977320    0.559146   -0.049283
      2          6           0       -2.384329    1.820582   -0.032317
      3          6           0       -0.997864    1.941955    0.075505
      4          6           0       -0.169852    0.807284    0.169027
      5          6           0       -0.787921   -0.467589    0.150376
      6          6           0       -2.184940   -0.595650    0.041859
      7          1           0       -4.054172    0.488606   -0.133606
      8          7           0        1.249443    1.025901    0.277140
      9          6           0        2.262995    0.150437   -0.007919
     10          7           0        3.556838    0.545981    0.159543
     11          8           0        2.032445   -0.978880   -0.409551
     12          6           0        4.672572   -0.339296   -0.126643
     13          6           0        6.010759    0.356710    0.147268
     14          6           0        7.186489   -0.568843   -0.151690
     15          1           0       -0.561643    2.933400    0.086458
     16          1           0       -0.229425   -1.382877    0.217046
     17          1           0        1.536599    1.959272    0.611281
     18          1           0        3.749846    1.501437    0.499293
     19          1           0        4.631989   -0.645878   -1.195290
     20          1           0        4.594252   -1.245825    0.513456
     21          1           0        6.056663    0.664746    1.214611
     22          1           0        6.094330    1.263449   -0.490737
     23          1           0        7.137092   -1.475095    0.488919
     24          1           0        8.139735   -0.038476    0.055561
     25          1           0        7.174823   -0.875365   -1.219401
     26         17           0       -3.382918    3.258921   -0.146772
     27          6           0       -2.890877   -2.175856    0.023531
     28          9           0       -2.064669   -3.041106   -0.670518
     29          9           0       -4.136199   -2.177647   -0.581233
     30          9           0       -3.032720   -2.631744    1.321625
 ---------------------------------------------------------------------
 Rotational constants (GHZ):      0.4793339      0.1511018      0.1181277
 General basis read from cards:  (6D, 7F)
 There are   370 symmetry adapted cartesian basis functions of A   symmetry.
 There are   370 symmetry adapted basis functions of A   symmetry.
   370 basis functions,   648 primitive gaussians,   370 cartesian basis functions
    72 alpha electrons       72 beta electrons
       nuclear repulsion energy      1384.4284072387 Hartrees.
 NAtoms=   30 NActive=   30 NUniq=   30 SFac= 1.00D+00 NAtFMM=   60 NAOKFM=F Big=F
 Integral buffers will be    131072 words long.
 Raffenetti 2 integral format.
 Two-electron integral symmetry is turned on.
 ------------------------------------------------------------------------------
 Polarizable Continuum Model (PCM)
 =================================
 Model                : PCM (using non-symmetric T matrix).
 Atomic radii         : SMD-Coulomb.
 Polarization charges : Total charges.
 Charge compensation  : None.
 Solution method      : On-the-fly selection.
 Cavity type          : VdW (van der Waals Surface) (Alpha=1.000).
 Cavity algorithm     : GePol (No added spheres)
                        Default sphere list used, NSphG=   30.
                        Lebedev-Laikov grids with approx.  5.0 points / Ang**2.
                        Smoothing algorithm: York/Karplus (Gamma=1.0000).
                        Polarization charges: spherical gaussians, with
                                              point-specific exponents (IZeta= 3).
                        Self-potential: point-specific (ISelfS= 7).
                        Self-field    : sphere-specific E.n sum rule (ISelfD= 2).
 1st derivatives      : Analytical E(r).r(x)/FMM algorithm (CHGder, D1EAlg=3).
                        Cavity 1st derivative terms included.
 Solvent              : n-Pentadecane, Eps=   2.033300 Eps(inf)=   2.049192
 ------------------------------------------------------------------------------
 ------------------------------------------------------------------------------
 Atomic radii for non-electrostatic terms: SMD-CDS.
 ------------------------------------------------------------------------------
 Nuclear repulsion after PCM non-electrostatic terms =     1384.4212269496 Hartrees.
 One-electron integrals computed using PRISM.
 NBasis=   370 RedAO= T EigKep=  1.22D-06  NBF=   370
 NBsUse=   370 1.00D-06 EigRej= -1.00D+00 NBFU=   370
 ExpMin= 4.38D-02 ExpMax= 2.52D+04 ExpMxC= 3.78D+03 IAcc=3 IRadAn=         5 AccDes= 0.00D+00
 Harris functional with IExCor= 1009 and IRadAn=       5 diagonalized for initial guess.
 HarFok:  IExCor= 1009 AccDes= 0.00D+00 IRadAn=         5 IDoV= 1 UseB2=F ITyADJ=14
 ICtDFT=  3500011 ScaDFX=  1.000000  1.000000  1.000000  1.000000
 FoFCou: FMM=F IPFlag=           0 FMFlag=      100000 FMFlg1=           0
         NFxFlg=           0 DoJE=T BraDBF=F KetDBF=T FulRan=T
         wScrn=  0.000000 ICntrl=     500 IOpCl=  0 I1Cent=   200000004 NGrid=           0
         NMat0=    1 NMatS0=      1 NMatT0=    0 NMatD0=    1 NMtDS0=    0 NMtDT0=    0
 Petite list used in FoFCou.
 Requested convergence on RMS density matrix=1.00D-08 within 128 cycles.
 Requested convergence on MAX density matrix=1.00D-06.
 Requested convergence on             energy=1.00D-06.
 No special actions if energy rises.
 Inv3:  Mode=1 IEnd=    19431075.
 Iteration    1 A*A^-1 deviation from unit magnitude is 5.77D-15 for    601.
 Iteration    1 A*A^-1 deviation from orthogonality  is 2.49D-15 for   1771     55.
 Iteration    1 A^-1*A deviation from unit magnitude is 5.11D-15 for   1241.
 Iteration    1 A^-1*A deviation from orthogonality  is 2.03D-15 for   2538   2391.
 Error on total polarization charges =  0.01992
 SCF Done:  E(RM062X) =  -1370.51515262     A.U. after   15 cycles
            NFock= 15  Conv=0.79D-08     -V/T= 2.0071
 SMD-CDS (non-electrostatic) energy       (kcal/mol) =      -4.51
 (included in total energy above)

 **********************************************************************

            Population analysis using the SCF density.

 **********************************************************************

 Orbital symmetries:
       Occupied  (A) (A) (A) (A) (A) (A) (A) (A) (A) (A) (A) (A)
                 (A) (A) (A) (A) (A) (A) (A) (A) (A) (A) (A) (A)
                 (A) (A) (A) (A) (A) (A) (A) (A) (A) (A) (A) (A)
                 (A) (A) (A) (A) (A) (A) (A) (A) (A) (A) (A) (A)
                 (A) (A) (A) (A) (A) (A) (A) (A) (A) (A) (A) (A)
                 (A) (A) (A) (A) (A) (A) (A) (A) (A) (A) (A) (A)
       Virtual   (A) (A) (A) (A) (A) (A) (A) (A) (A) (A) (A) (A)
                 (A) (A) (A) (A) (A) (A) (A) (A) (A) (A) (A) (A)
                 (A) (A) (A) (A) (A) (A) (A) (A) (A) (A) (A) (A)
                 (A) (A) (A) (A) (A) (A) (A) (A) (A) (A) (A) (A)
                 (A) (A) (A) (A) (A) (A) (A) (A) (A) (A) (A) (A)
                 (A) (A) (A) (A) (A) (A) (A) (A) (A) (A) (A) (A)
                 (A) (A) (A) (A) (A) (A) (A) (A) (A) (A) (A) (A)
                 (A) (A) (A) (A) (A) (A) (A) (A) (A) (A) (A) (A)
                 (A) (A) (A) (A) (A) (A) (A) (A) (A) (A) (A) (A)
                 (A) (A) (A) (A) (A) (A) (A) (A) (A) (A) (A) (A)
                 (A) (A) (A) (A) (A) (A) (A) (A) (A) (A) (A) (A)
                 (A) (A) (A) (A) (A) (A) (A) (A) (A) (A) (A) (A)
                 (A) (A) (A) (A) (A) (A) (A) (A) (A) (A) (A) (A)
                 (A) (A) (A) (A) (A) (A) (A) (A) (A) (A) (A) (A)
                 (A) (A) (A) (A) (A) (A) (A) (A) (A) (A) (A) (A)
                 (A) (A) (A) (A) (A) (A) (A) (A) (A) (A) (A) (A)
                 (A) (A) (A) (A) (A) (A) (A) (A) (A) (A) (A) (A)
                 (A) (A) (A) (A) (A) (A) (A) (A) (A) (A) (A) (A)
                 (A) (A) (A) (A) (A) (A) (A) (A) (A) (A) (A) (A)
                 (A) (A) (A) (A) (A) (A) (A) (A) (A) (A) (A) (A)
                 (A) (A) (A) (A) (A) (A) (A) (A) (A) (A) (A) (A)
                 (A) (A) (A) (A) (A) (A) (A) (A) (A) (A) (A) (A)
                 (A) (A) (A) (A) (A) (A) (A) (A) (A) (A) (A) (A)
                 (A) (A) (A) (A) (A) (A) (A) (A) (A) (A) (A) (A)
                 (A) (A) (A) (A) (A) (A) (A) (A) (A) (A)
 The electronic state is 1-A.
 Alpha  occ. eigenvalues -- -102.68625 -25.31498 -25.31206 -25.31177 -19.60664
 Alpha  occ. eigenvalues --  -14.81695 -14.79302 -10.84175 -10.68744 -10.63834
 Alpha  occ. eigenvalues --  -10.63790 -10.61728 -10.58792 -10.58635 -10.58388
 Alpha  occ. eigenvalues --  -10.58017 -10.55822 -10.54562  -9.83250  -7.55661
 Alpha  occ. eigenvalues --   -7.54985  -7.54973  -1.44859  -1.37255  -1.37144
 Alpha  occ. eigenvalues --   -1.18273  -1.05882  -1.03224  -1.00561  -0.94913
 Alpha  occ. eigenvalues --   -0.89037  -0.87318  -0.84649  -0.81265  -0.78383
 Alpha  occ. eigenvalues --   -0.72754  -0.72054  -0.68589  -0.68408  -0.68306
 Alpha  occ. eigenvalues --   -0.66478  -0.65635  -0.63561  -0.60090  -0.58757
 Alpha  occ. eigenvalues --   -0.57175  -0.57027  -0.56306  -0.55292  -0.54104
 Alpha  occ. eigenvalues --   -0.53822  -0.53477  -0.52357  -0.52100  -0.51535
 Alpha  occ. eigenvalues --   -0.49935  -0.48580  -0.48564  -0.46880  -0.46298
 Alpha  occ. eigenvalues --   -0.44934  -0.43008  -0.42743  -0.42073  -0.40470
 Alpha  occ. eigenvalues --   -0.40291  -0.39237  -0.37810  -0.34590  -0.32254
 Alpha  occ. eigenvalues --   -0.32062  -0.29099
 Alpha virt. eigenvalues --   -0.01218  -0.00208   0.00126   0.01907   0.02864
 Alpha virt. eigenvalues --    0.02968   0.03533   0.03817   0.04070   0.05149
 Alpha virt. eigenvalues --    0.05413   0.05568   0.05807   0.06547   0.07017
 Alpha virt. eigenvalues --    0.07461   0.07878   0.07974   0.08686   0.09135
 Alpha virt. eigenvalues --    0.09483   0.09744   0.10402   0.10818   0.11757
 Alpha virt. eigenvalues --    0.12178   0.12235   0.12479   0.12527   0.13107
 Alpha virt. eigenvalues --    0.13427   0.14100   0.14402   0.14854   0.15270
 Alpha virt. eigenvalues --    0.16162   0.16511   0.17411   0.17647   0.17916
 Alpha virt. eigenvalues --    0.18107   0.18569   0.19573   0.19784   0.19942
 Alpha virt. eigenvalues --    0.20390   0.20717   0.20808   0.21793   0.22066
 Alpha virt. eigenvalues --    0.22368   0.22585   0.23319   0.23820   0.23874
 Alpha virt. eigenvalues --    0.24589   0.24885   0.25093   0.25718   0.26474
 Alpha virt. eigenvalues --    0.27008   0.27539   0.27819   0.28427   0.28976
 Alpha virt. eigenvalues --    0.29244   0.29549   0.29692   0.30571   0.30730
 Alpha virt. eigenvalues --    0.30904   0.31400   0.31804   0.32338   0.32425
 Alpha virt. eigenvalues --    0.33205   0.33696   0.34316   0.34746   0.35314
 Alpha virt. eigenvalues --    0.35962   0.36219   0.37118   0.37623   0.37879
 Alpha virt. eigenvalues --    0.38289   0.38926   0.39438   0.39525   0.40738
 Alpha virt. eigenvalues --    0.41633   0.41764   0.42600   0.43290   0.44654
 Alpha virt. eigenvalues --    0.45696   0.46721   0.48099   0.49228   0.49948
 Alpha virt. eigenvalues --    0.50335   0.52278   0.53961   0.57081   0.58242
 Alpha virt. eigenvalues --    0.59952   0.64596   0.66125   0.66599   0.68529
 Alpha virt. eigenvalues --    0.69426   0.70630   0.71357   0.72421   0.73132
 Alpha virt. eigenvalues --    0.73728   0.74452   0.75986   0.76856   0.77392
 Alpha virt. eigenvalues --    0.78246   0.79132   0.79846   0.80903   0.80947
 Alpha virt. eigenvalues --    0.81609   0.83127   0.83755   0.85225   0.86939
 Alpha virt. eigenvalues --    0.88308   0.88630   0.89527   0.91235   0.93181
 Alpha virt. eigenvalues --    0.93305   0.94513   0.96577   0.97326   0.97904
 Alpha virt. eigenvalues --    0.99087   0.99304   1.00174   1.01273   1.03061
 Alpha virt. eigenvalues --    1.03852   1.04448   1.05327   1.05783   1.06367
 Alpha virt. eigenvalues --    1.09681   1.10204   1.10585   1.12124   1.12489
 Alpha virt. eigenvalues --    1.14803   1.15173   1.15565   1.17693   1.19255
 Alpha virt. eigenvalues --    1.19835   1.20759   1.21712   1.23350   1.24524
 Alpha virt. eigenvalues --    1.27007   1.29214   1.31296   1.31397   1.34086
 Alpha virt. eigenvalues --    1.35887   1.37547   1.39183   1.39651   1.41224
 Alpha virt. eigenvalues --    1.41974   1.44123   1.45470   1.46048   1.48281
 Alpha virt. eigenvalues --    1.49339   1.50944   1.51296   1.52085   1.54524
 Alpha virt. eigenvalues --    1.55456   1.57389   1.57590   1.59311   1.60798
 Alpha virt. eigenvalues --    1.61466   1.64339   1.65897   1.69408   1.70124
 Alpha virt. eigenvalues --    1.71955   1.74063   1.74826   1.75514   1.76695
 Alpha virt. eigenvalues --    1.76971   1.77979   1.79202   1.82451   1.84017
 Alpha virt. eigenvalues --    1.85963   1.86450   1.87556   1.88678   1.89044
 Alpha virt. eigenvalues --    1.89157   1.90402   1.90487   1.90856   1.92472
 Alpha virt. eigenvalues --    1.94261   1.94936   1.96413   1.98497   1.99689
 Alpha virt. eigenvalues --    2.01926   2.02578   2.03012   2.03638   2.04141
 Alpha virt. eigenvalues --    2.04644   2.04766   2.05758   2.08428   2.09876
 Alpha virt. eigenvalues --    2.11326   2.13157   2.14764   2.16578   2.19052
 Alpha virt. eigenvalues --    2.19631   2.19917   2.20499   2.20905   2.22308
 Alpha virt. eigenvalues --    2.23648   2.27321   2.28004   2.29756   2.32396
 Alpha virt. eigenvalues --    2.35337   2.35640   2.37828   2.39270   2.39872
 Alpha virt. eigenvalues --    2.41084   2.42295   2.44116   2.49567   2.56431
 Alpha virt. eigenvalues --    2.59370   2.61079   2.63070   2.65042   2.66645
 Alpha virt. eigenvalues --    2.69552   2.72237   2.72625   2.73638   2.73933
 Alpha virt. eigenvalues --    2.77402   2.78209   2.80057   2.82723   2.86135
 Alpha virt. eigenvalues --    2.93089   2.96782   3.04449   3.11572   3.16212
 Alpha virt. eigenvalues --    3.20440   3.21792   3.26892   3.30761   3.37764
 Alpha virt. eigenvalues --    4.14491   4.24014   4.25350   4.28341   4.32155
 Alpha virt. eigenvalues --    4.35869   4.39131   4.41025   4.45384   4.47999
 Alpha virt. eigenvalues --    4.48760   4.55536   4.57588   4.64926   4.75032
 Alpha virt. eigenvalues --    5.51234   5.83595   6.38477
          Condensed to atoms (all electrons):
               1          2          3          4          5          6
     1  C   27.055994  -2.306584  -2.985954  -1.576446 -13.937802  -0.560085
     2  C   -2.306584   9.061064  -1.250376   0.538812   0.007284  -0.078943
     3  C   -2.985954  -1.250376  16.952009  -0.680361  -5.178640   0.209123
     4  C   -1.576446   0.538812  -0.680361  14.327350  -2.051089  -2.116307
     5  C  -13.937802   0.007284  -5.178640  -2.051089  35.537781 -10.103546
     6  C   -0.560085  -0.078943   0.209123  -2.116307 -10.103546  20.201642
     7  H    0.115570   0.023635   0.062018  -0.000842   0.059706   0.059804
     8  N    0.055572   0.008247   0.198255  -0.011542  -0.120407  -0.007754
     9  C    0.212627  -0.013898  -0.736763  -1.169974   1.155945  -0.907129
    10  N   -0.013691   0.018534  -0.079278  -0.125806   0.058425  -0.064555
    11  O   -0.031636   0.020193  -0.141135  -0.205320   0.357733  -0.065648
    12  C    0.011848   0.005053  -0.051052  -0.383724   0.061035  -0.087347
    13  C    0.000527   0.000236   0.001216   0.012411  -0.001760   0.004493
    14  C    0.000030   0.000046  -0.000841  -0.006192   0.000806  -0.000962
    15  H    0.062478   0.044726   0.210181  -0.072488   0.062855  -0.005454
    16  H    0.102869  -0.019827   0.037543  -0.041276  -0.003280   0.228604
    17  H    0.002337   0.039577  -0.124472   0.006941   0.059633  -0.001049
    18  H    0.000155  -0.000231  -0.001231   0.017407   0.003066   0.001568
    19  H   -0.000009   0.000022  -0.001653  -0.005519   0.003472   0.000143
    20  H    0.000061  -0.000022   0.000043   0.000244   0.001278   0.000575
    21  H    0.000002  -0.000017  -0.000120  -0.000464   0.000685   0.000081
    22  H    0.000002   0.000020   0.000306  -0.000242  -0.000798  -0.000101
    23  H   -0.000000   0.000000   0.000009   0.000051  -0.000066  -0.000006
    24  H    0.000000  -0.000000  -0.000001  -0.000027   0.000004   0.000000
    25  H    0.000000   0.000000  -0.000003   0.000022   0.000008  -0.000000
    26  Cl  -0.156279  -0.162192   0.008864   0.059934   0.010070   0.065045
    27  C    0.993067  -0.404163   0.311441  -0.728996  -0.677267   0.023558
    28  F   -0.063435   0.026505  -0.004914   0.079541  -0.095889   0.036032
    29  F   -0.091480   0.065496   0.002527   0.025907  -0.004881   0.001277
    30  F   -0.113239   0.024453   0.000595   0.034296  -0.217047   0.284504
               7          8          9         10         11         12
     1  C    0.115570   0.055572   0.212627  -0.013691  -0.031636   0.011848
     2  C    0.023635   0.008247  -0.013898   0.018534   0.020193   0.005053
     3  C    0.062018   0.198255  -0.736763  -0.079278  -0.141135  -0.051052
     4  C   -0.000842  -0.011542  -1.169974  -0.125806  -0.205320  -0.383724
     5  C    0.059706  -0.120407   1.155945   0.058425   0.357733   0.061035
     6  C    0.059804  -0.007754  -0.907129  -0.064555  -0.065648  -0.087347
     7  H    0.435420   0.000008   0.000259  -0.000002   0.000004   0.000000
     8  N    0.000008   7.868296   0.109961  -0.446785  -0.128485  -0.137918
     9  C    0.000259   0.109961   6.252184   0.318800   0.693440  -0.564219
    10  N   -0.000002  -0.446785   0.318800   7.726758  -0.189862   0.380152
    11  O    0.000004  -0.128485   0.693440  -0.189862   8.359558  -0.073544
    12  C    0.000000  -0.137918  -0.564219   0.380152  -0.073544   6.719543
    13  C    0.000000   0.013229   0.131683  -0.080346   0.018210  -0.369051
    14  C    0.000000  -0.001917  -0.040703  -0.000917  -0.002112  -0.004540
    15  H   -0.000128  -0.007300   0.000386   0.000803  -0.000055  -0.000087
    16  H   -0.000112  -0.009159  -0.001749  -0.000560  -0.004888   0.000666
    17  H   -0.000000   0.229707  -0.007333   0.026918   0.007468   0.005833
    18  H   -0.000000   0.031585   0.031290   0.237335   0.007977  -0.078795
    19  H   -0.000000   0.001113  -0.012790  -0.056621   0.001817   0.422434
    20  H   -0.000000  -0.000384  -0.003444  -0.056801   0.001330   0.415528
    21  H   -0.000000   0.000654   0.008912   0.007573  -0.000189  -0.094845
    22  H   -0.000000  -0.000446  -0.011988   0.007214  -0.000247  -0.064835
    23  H   -0.000000   0.000024   0.000913   0.000637  -0.000055  -0.010084
    24  H   -0.000000   0.000011  -0.001505   0.000583   0.000008   0.027541
    25  H   -0.000000   0.000020   0.001848   0.000592  -0.000053  -0.007913
    26  Cl   0.000706  -0.002233  -0.011828  -0.000192  -0.000122  -0.000313
    27  C   -0.019316   0.000896  -0.037720   0.001173  -0.002925  -0.002571
    28  F    0.000163  -0.000504   0.001503  -0.000003  -0.000307   0.000145
    29  F    0.003744   0.000042   0.000764  -0.000001  -0.000003   0.000010
    30  F    0.000040  -0.000155  -0.004181  -0.000008   0.000110  -0.000079
              13         14         15         16         17         18
     1  C    0.000527   0.000030   0.062478   0.102869   0.002337   0.000155
     2  C    0.000236   0.000046   0.044726  -0.019827   0.039577  -0.000231
     3  C    0.001216  -0.000841   0.210181   0.037543  -0.124472  -0.001231
     4  C    0.012411  -0.006192  -0.072488  -0.041276   0.006941   0.017407
     5  C   -0.001760   0.000806   0.062855  -0.003280   0.059633   0.003066
     6  C    0.004493  -0.000962  -0.005454   0.228604  -0.001049   0.001568
     7  H    0.000000   0.000000  -0.000128  -0.000112  -0.000000  -0.000000
     8  N    0.013229  -0.001917  -0.007300  -0.009159   0.229707   0.031585
     9  C    0.131683  -0.040703   0.000386  -0.001749  -0.007333   0.031290
    10  N   -0.080346  -0.000917   0.000803  -0.000560   0.026918   0.237335
    11  O    0.018210  -0.002112  -0.000055  -0.004888   0.007468   0.007977
    12  C   -0.369051  -0.004540  -0.000087   0.000666   0.005833  -0.078795
    13  C    6.112991  -0.006887   0.000013   0.000015   0.000047  -0.000385
    14  C   -0.006887   5.589725   0.000000   0.000002  -0.000017  -0.002230
    15  H    0.000013   0.000000   0.459069  -0.000086   0.004347   0.000004
    16  H    0.000015   0.000002  -0.000086   0.418328  -0.000101   0.000000
    17  H    0.000047  -0.000017   0.004347  -0.000101   0.312581   0.002316
    18  H   -0.000385  -0.002230   0.000004   0.000000   0.002316   0.318785
    19  H   -0.046938   0.004455   0.000000  -0.000000   0.000008   0.002573
    20  H   -0.052810   0.003807  -0.000000  -0.000000   0.000000   0.002567
    21  H    0.428137  -0.037697  -0.000000  -0.000000   0.000001   0.000987
    22  H    0.411570  -0.027946   0.000000   0.000000   0.000002   0.000783
    23  H   -0.061612   0.414631   0.000000   0.000000   0.000000   0.000001
    24  H   -0.084505   0.408928  -0.000000  -0.000000  -0.000000  -0.000003
    25  H   -0.064158   0.414216  -0.000000  -0.000000  -0.000000   0.000001
    26  Cl   0.000002  -0.000001  -0.001044   0.000270  -0.000349   0.000006
    27  C    0.000149  -0.000009   0.002440   0.008440   0.000100  -0.000006
    28  F    0.000003   0.000000  -0.000000   0.002844  -0.000000   0.000000
    29  F    0.000000   0.000000  -0.000000   0.000187  -0.000000  -0.000000
    30  F    0.000001  -0.000000   0.000000  -0.000163  -0.000000  -0.000000
              19         20         21         22         23         24
     1  C   -0.000009   0.000061   0.000002   0.000002  -0.000000   0.000000
     2  C    0.000022  -0.000022  -0.000017   0.000020   0.000000  -0.000000
     3  C   -0.001653   0.000043  -0.000120   0.000306   0.000009  -0.000001
     4  C   -0.005519   0.000244  -0.000464  -0.000242   0.000051  -0.000027
     5  C    0.003472   0.001278   0.000685  -0.000798  -0.000066   0.000004
     6  C    0.000143   0.000575   0.000081  -0.000101  -0.000006   0.000000
     7  H   -0.000000  -0.000000  -0.000000  -0.000000  -0.000000  -0.000000
     8  N    0.001113  -0.000384   0.000654  -0.000446   0.000024   0.000011
     9  C   -0.012790  -0.003444   0.008912  -0.011988   0.000913  -0.001505
    10  N   -0.056621  -0.056801   0.007573   0.007214   0.000637   0.000583
    11  O    0.001817   0.001330  -0.000189  -0.000247  -0.000055   0.000008
    12  C    0.422434   0.415528  -0.094845  -0.064835  -0.010084   0.027541
    13  C   -0.046938  -0.052810   0.428137   0.411570  -0.061612  -0.084505
    14  C    0.004455   0.003807  -0.037697  -0.027946   0.414631   0.408928
    15  H    0.000000  -0.000000  -0.000000   0.000000   0.000000  -0.000000
    16  H   -0.000000  -0.000000  -0.000000   0.000000   0.000000  -0.000000
    17  H    0.000008   0.000000   0.000001   0.000002   0.000000  -0.000000
    18  H    0.002573   0.002567   0.000987   0.000783   0.000001  -0.000003
    19  H    0.491894  -0.035628   0.003798  -0.005295  -0.000315  -0.000059
    20  H   -0.035628   0.494048  -0.005391   0.003839   0.002640  -0.000058
    21  H    0.003798  -0.005391   0.504698  -0.033131  -0.004774  -0.003058
    22  H   -0.005295   0.003839  -0.033131   0.505257   0.003891  -0.003044
    23  H   -0.000315   0.002640  -0.004774   0.003891   0.489404  -0.023987
    24  H   -0.000059  -0.000058  -0.003058  -0.003044  -0.023987   0.487393
    25  H    0.002659  -0.000330   0.003891  -0.004778  -0.027811  -0.023967
    26  Cl  -0.000000   0.000000   0.000000  -0.000000   0.000000   0.000000
    27  C   -0.000015   0.000012   0.000000  -0.000000  -0.000000  -0.000000
    28  F    0.000000  -0.000000   0.000000  -0.000000  -0.000000  -0.000000
    29  F    0.000000  -0.000000   0.000000  -0.000000  -0.000000  -0.000000
    30  F   -0.000000  -0.000000   0.000000  -0.000000  -0.000000   0.000000
              25         26         27         28         29         30
     1  C    0.000000  -0.156279   0.993067  -0.063435  -0.091480  -0.113239
     2  C    0.000000  -0.162192  -0.404163   0.026505   0.065496   0.024453
     3  C   -0.000003   0.008864   0.311441  -0.004914   0.002527   0.000595
     4  C    0.000022   0.059934  -0.728996   0.079541   0.025907   0.034296
     5  C    0.000008   0.010070  -0.677267  -0.095889  -0.004881  -0.217047
     6  C   -0.000000   0.065045   0.023558   0.036032   0.001277   0.284504
     7  H   -0.000000   0.000706  -0.019316   0.000163   0.003744   0.000040
     8  N    0.000020  -0.002233   0.000896  -0.000504   0.000042  -0.000155
     9  C    0.001848  -0.011828  -0.037720   0.001503   0.000764  -0.004181
    10  N    0.000592  -0.000192   0.001173  -0.000003  -0.000001  -0.000008
    11  O   -0.000053  -0.000122  -0.002925  -0.000307  -0.000003   0.000110
    12  C   -0.007913  -0.000313  -0.002571   0.000145   0.000010  -0.000079
    13  C   -0.064158   0.000002   0.000149   0.000003   0.000000   0.000001
    14  C    0.414216  -0.000001  -0.000009   0.000000   0.000000  -0.000000
    15  H   -0.000000  -0.001044   0.002440  -0.000000  -0.000000   0.000000
    16  H   -0.000000   0.000270   0.008440   0.002844   0.000187  -0.000163
    17  H   -0.000000  -0.000349   0.000100  -0.000000  -0.000000  -0.000000
    18  H    0.000001   0.000006  -0.000006   0.000000  -0.000000  -0.000000
    19  H    0.002659  -0.000000  -0.000015   0.000000   0.000000  -0.000000
    20  H   -0.000330   0.000000   0.000012  -0.000000  -0.000000  -0.000000
    21  H    0.003891   0.000000   0.000000   0.000000   0.000000   0.000000
    22  H   -0.004778  -0.000000  -0.000000  -0.000000  -0.000000  -0.000000
    23  H   -0.027811   0.000000  -0.000000  -0.000000  -0.000000  -0.000000
    24  H   -0.023967   0.000000  -0.000000  -0.000000  -0.000000   0.000000
    25  H    0.488917  -0.000000   0.000000   0.000000  -0.000000   0.000000
    26  Cl  -0.000000  16.972722  -0.003900  -0.000070  -0.000624  -0.000146
    27  C    0.000000  -0.003900   4.942478   0.155770   0.132616   0.138308
    28  F    0.000000  -0.000070   0.155770   9.218722  -0.033588  -0.038656
    29  F   -0.000000  -0.000624   0.132616  -0.033588   9.238525  -0.039330
    30  F    0.000000  -0.000146   0.138308  -0.038656  -0.039330   9.191565
 Mulliken charges:
               1
     1  C   -0.776501
     2  C    0.352349
     3  C   -0.757336
     4  C    0.073701
     5  C    1.012685
     6  C   -1.117564
     7  H    0.259323
     8  N   -0.642631
     9  C    0.604708
    10  N   -0.670070
    11  O   -0.621261
    12  C   -0.118871
    13  C   -0.366481
    14  C   -0.703676
    15  H    0.239339
    16  H    0.281434
    17  H    0.435506
    18  H    0.424473
    19  H    0.230455
    20  H    0.228897
    21  H    0.220266
    22  H    0.219965
    23  H    0.216511
    24  H    0.215746
    25  H    0.216840
    26  Cl   0.221674
    27  C    1.166441
    28  F   -0.283862
    29  F   -0.301187
    30  F   -0.260870
 Sum of Mulliken charges =  -0.00000
 Mulliken charges with hydrogens summed into heavy atoms:
               1
     1  C   -0.517178
     2  C    0.352349
     3  C   -0.517997
     4  C    0.073701
     5  C    1.294119
     6  C   -1.117564
     8  N   -0.207126
     9  C    0.604708
    10  N   -0.245597
    11  O   -0.621261
    12  C    0.340481
    13  C    0.073750
    14  C   -0.054578
    26  Cl   0.221674
    27  C    1.166441
    28  F   -0.283862
    29  F   -0.301187
    30  F   -0.260870
 Electronic spatial extent (au):  <R**2>=           8492.1613
 Charge=             -0.0000 electrons
 Dipole moment (field-independent basis, Debye):
    X=              5.1658    Y=              5.1226    Z=              1.6387  Tot=              7.4573
 Quadrupole moment (field-independent basis, Debye-Ang):
   XX=            -96.7440   YY=           -114.3516   ZZ=           -115.6840
   XY=              7.9083   XZ=              3.9449   YZ=              1.0812
 Traceless Quadrupole moment (field-independent basis, Debye-Ang):
   XX=             12.1825   YY=             -5.4251   ZZ=             -6.7575
   XY=              7.9083   XZ=              3.9449   YZ=              1.0812
 Octapole moment (field-independent basis, Debye-Ang**2):
  XXX=             83.3834  YYY=            -13.2034  ZZZ=             -3.2312  XYY=             18.3266
  XXY=             17.1197  XXZ=              7.2196  XZZ=             -7.7291  YZZ=            -12.4594
  YYZ=              7.4493  XYZ=              1.6122
 Hexadecapole moment (field-independent basis, Debye-Ang**3):
 XXXX=          -7867.0833 YYYY=          -2195.3618 ZZZZ=           -235.1347 XXXY=            153.4512
 XXXZ=             29.4144 YYYX=            138.9100 YYYZ=              6.1922 ZZZX=              0.5659
 ZZZY=              3.6389 XXYY=          -1826.8383 XXZZ=          -1463.5336 YYZZ=           -418.6006
 XXYZ=              5.9307 YYXZ=             21.7522 ZZXY=             35.4933
 N-N= 1.384421226950D+03 E-N=-5.992891268988D+03  KE= 1.360846829665D+03
 D1PCM: PCM CHGder 1st derivatives, ID1Alg=3 FixD1E=F DoIter=F DoCFld=F I1PDM=0.
 Calling FoFJK, ICntrl=      2127 FMM=F ISym2X=0 I1Cent= 0 IOpClX= 0 NMat=1 NMatS=1 NMatT=0.
 ***** Axes restored to original set *****
 -------------------------------------------------------------------
 Center     Atomic                   Forces (Hartrees/Bohr)
 Number     Number              X              Y              Z
 -------------------------------------------------------------------
      1        6          -0.005580600    0.014742135   -0.003939894
      2        6           0.013409624    0.005964956    0.001061194
      3        6           0.000617583   -0.001870557   -0.000365884
      4        6           0.005538133    0.003988321    0.003837159
      5        6          -0.005077497    0.008267089   -0.003399794
      6        6          -0.002598125    0.032777687   -0.002872825
      7        1          -0.002236198    0.002371572   -0.000500701
      8        7          -0.020631175   -0.023299685   -0.017475782
      9        6           0.012928763    0.022204341    0.009330573
     10        7          -0.012408494   -0.033407182   -0.012556667
     11        8          -0.003167654    0.016315561    0.001592091
     12        6           0.005059122    0.005934010    0.003780329
     13        6          -0.004516644   -0.004725987   -0.003146324
     14        6           0.004584840    0.000647493    0.002359306
     15        1           0.000953422   -0.002436205    0.001590697
     16        1           0.010040958   -0.001685125    0.004375591
     17        1          -0.005747490    0.015150244    0.001637759
     18        1           0.003398065    0.015356460    0.004741507
     19        1           0.003209462   -0.001378878   -0.010311625
     20        1          -0.005584421   -0.004924273    0.007862779
     21        1          -0.004559680    0.001857207    0.008004049
     22        1           0.002928741    0.004890544   -0.007467629
     23        1          -0.003129786   -0.006419309    0.007765383
     24        1          -0.005112138    0.009705926   -0.000589301
     25        1           0.004874037   -0.003174869   -0.008795087
     26       17           0.006778831    0.004633484    0.001274619
     27        6           0.003347355   -0.048561736    0.010038367
     28        9          -0.025059583   -0.016867714   -0.033855180
     29        9           0.043448925   -0.014324936   -0.003980309
     30        9          -0.015708374   -0.001730577    0.040005599
 -------------------------------------------------------------------
 Cartesian Forces:  Max     0.048561736 RMS     0.013171489

 GradGradGradGradGradGradGradGradGradGradGradGradGradGradGradGradGradGrad
 Berny optimization.
 FormGI is forming the generalized inverse of G from B-inverse, IUseBI=4.
 Internal  Forces:  Max     0.082568722 RMS     0.011642774
 Search for a local minimum.
 Step number   1 out of a maximum of  157
 All quantities printed in internal units (Hartrees-Bohrs-Radians)
 Mixed Optimization -- RFO/linear search
 Second derivative matrix not updated -- first step.
 ITU=  0
     Eigenvalues ---    0.00230   0.00329   0.00423   0.00994   0.01161
     Eigenvalues ---    0.01296   0.01468   0.01631   0.01689   0.01920
     Eigenvalues ---    0.01944   0.02029   0.02060   0.02098   0.02102
     Eigenvalues ---    0.02124   0.02137   0.02156   0.02178   0.03755
     Eigenvalues ---    0.04435   0.04933   0.05553   0.05673   0.05783
     Eigenvalues ---    0.08033   0.09179   0.10768   0.11201   0.11975
     Eigenvalues ---    0.12669   0.16000   0.16000   0.16000   0.16000
     Eigenvalues ---    0.16000   0.16000   0.16000   0.16000   0.16605
     Eigenvalues ---    0.21964   0.22000   0.22000   0.22004   0.23452
     Eigenvalues ---    0.23477   0.23501   0.25000   0.25000   0.25000
     Eigenvalues ---    0.25000   0.25000   0.25000   0.25000   0.25000
     Eigenvalues ---    0.29145   0.29805   0.30033   0.32337   0.32337
     Eigenvalues ---    0.32405   0.32405   0.32504   0.32505   0.32561
     Eigenvalues ---    0.35608   0.35700   0.36692   0.37887   0.39572
     Eigenvalues ---    0.40626   0.41157   0.42437   0.42458   0.43936
     Eigenvalues ---    0.44749   0.45525   0.46257   0.48306   0.48538
     Eigenvalues ---    0.48539   0.51111   0.52290   0.95126
 RFO step:  Lambda=-6.05019876D-02 EMin= 2.30000000D-03
 Linear search not attempted -- first point.
 Maximum step size (   0.300) exceeded in Quadratic search.
    -- Step size scaled by   0.656
 Iteration  1 RMS(Cart)=  0.05966910 RMS(Int)=  0.00323987
 Iteration  2 RMS(Cart)=  0.00596041 RMS(Int)=  0.00003379
 Iteration  3 RMS(Cart)=  0.00000234 RMS(Int)=  0.00003377
 Iteration  4 RMS(Cart)=  0.00000000 RMS(Int)=  0.00003377
 Variable       Old X    -DE/DX   Delta X   Delta X   Delta X     New X
                                 (Linear)    (Quad)   (Total)
    R1        2.63422  -0.00596   0.00000  -0.00699  -0.00699   2.62723
    R2        2.65217  -0.01588   0.00000  -0.02043  -0.02038   2.63179
    R3        2.04553   0.00300   0.00000   0.00472   0.00472   2.05025
    R4        2.63794  -0.00726   0.00000  -0.00863  -0.00869   2.62925
    R5        3.31597  -0.00830   0.00000  -0.01510  -0.01510   3.30087
    R6        2.66031  -0.00910   0.00000  -0.01179  -0.01184   2.64847
    R7        2.04700   0.00271   0.00000   0.00426   0.00426   2.05126
    R8        2.67759  -0.01981   0.00000  -0.02701  -0.02700   2.65058
    R9        2.72139  -0.03410   0.00000  -0.04904  -0.04904   2.67235
   R10        2.65897  -0.01707   0.00000  -0.02266  -0.02261   2.63636
   R11        2.03013   0.00716   0.00000   0.01100   0.01100   2.04113
   R12        3.27077  -0.08257   0.00000  -0.23914  -0.23914   3.03163
   R13        2.58760   0.00929   0.00000   0.01066   0.01066   2.59826
   R14        1.95044  -0.01546   0.00000  -0.02092  -0.02092   1.92952
   R15        2.57622  -0.00173   0.00000  -0.00195  -0.00195   2.57428
   R16        2.30656   0.01617   0.00000   0.01048   0.01048   2.31705
   R17        2.74530  -0.00117   0.00000  -0.00175  -0.00175   2.74355
   R18        1.95070  -0.01612   0.00000  -0.02182  -0.02182   1.92888
   R19        2.89702  -0.00565   0.00000  -0.01053  -0.01053   2.88649
   R20        2.10231  -0.01039   0.00000  -0.01776  -0.01776   2.08455
   R21        2.10232  -0.01034   0.00000  -0.01767  -0.01767   2.08465
   R22        2.88353   0.00161   0.00000   0.00294   0.00294   2.88647
   R23        2.10110  -0.00897   0.00000  -0.01531  -0.01531   2.08579
   R24        2.10109  -0.00897   0.00000  -0.01530  -0.01530   2.08579
   R25        2.09931  -0.01025   0.00000  -0.01744  -0.01744   2.08187
   R26        2.09829  -0.01061   0.00000  -0.01804  -0.01804   2.08026
   R27        2.09930  -0.01025   0.00000  -0.01744  -0.01744   2.08186
   R28        2.61369  -0.04500   0.00000  -0.05409  -0.05409   2.55960
   R29        2.61614  -0.04588   0.00000  -0.05538  -0.05538   2.56076
   R30        2.61371  -0.04247   0.00000  -0.05105  -0.05105   2.56266
    A1        2.09858  -0.01405   0.00000  -0.03081  -0.03077   2.06781
    A2        2.07501   0.00832   0.00000   0.01927   0.01925   2.09425
    A3        2.10960   0.00573   0.00000   0.01154   0.01152   2.12112
    A4        2.09686   0.00498   0.00000   0.01324   0.01318   2.11004
    A5        2.09310  -0.00201   0.00000  -0.00560  -0.00557   2.08753
    A6        2.09323  -0.00297   0.00000  -0.00764  -0.00761   2.08561
    A7        2.11675  -0.00692   0.00000  -0.01392  -0.01402   2.10273
    A8        2.07183   0.00462   0.00000   0.01041   0.01045   2.08229
    A9        2.09460   0.00230   0.00000   0.00351   0.00356   2.09817
   A10        2.05755   0.00922   0.00000   0.01997   0.01993   2.07748
   A11        2.05139  -0.00023   0.00000  -0.00072  -0.00070   2.05069
   A12        2.17424  -0.00900   0.00000  -0.01925  -0.01923   2.15501
   A13        2.11297  -0.01182   0.00000  -0.02806  -0.02800   2.08497
   A14        2.14003  -0.00260   0.00000  -0.01128  -0.01131   2.12872
   A15        2.03019   0.01441   0.00000   0.03934   0.03931   2.06950
   A16        2.08366   0.01858   0.00000   0.03958   0.03967   2.12333
   A17        2.11794  -0.01092   0.00000  -0.02322  -0.02327   2.09467
   A18        2.08158  -0.00767   0.00000  -0.01635  -0.01641   2.06517
   A19        2.23549  -0.01047   0.00000  -0.02449  -0.02449   2.21100
   A20        2.02171   0.00042   0.00000  -0.00210  -0.00210   2.01961
   A21        2.02599   0.01005   0.00000   0.02659   0.02659   2.05258
   A22        2.08452  -0.02595   0.00000  -0.05484  -0.05484   2.02968
   A23        2.11792   0.00816   0.00000   0.01725   0.01725   2.13517
   A24        2.08075   0.01779   0.00000   0.03759   0.03759   2.11834
   A25        2.12691  -0.00472   0.00000  -0.01104  -0.01104   2.11587
   A26        2.07880   0.00542   0.00000   0.01463   0.01463   2.09343
   A27        2.07747  -0.00070   0.00000  -0.00359  -0.00359   2.07388
   A28        1.93750  -0.00453   0.00000  -0.00940  -0.00938   1.92812
   A29        1.90620   0.00115   0.00000   0.00226   0.00228   1.90848
   A30        1.90619   0.00116   0.00000   0.00232   0.00234   1.90854
   A31        1.90560   0.00243   0.00000   0.00753   0.00753   1.91313
   A32        1.90562   0.00243   0.00000   0.00754   0.00753   1.91315
   A33        1.90240  -0.00265   0.00000  -0.01036  -0.01038   1.89203
   A34        1.94142  -0.00091   0.00000  -0.00081  -0.00081   1.94061
   A35        1.91064  -0.00016   0.00000  -0.00143  -0.00144   1.90920
   A36        1.91064  -0.00019   0.00000  -0.00158  -0.00159   1.90905
   A37        1.90108   0.00137   0.00000   0.00574   0.00574   1.90683
   A38        1.90109   0.00137   0.00000   0.00572   0.00572   1.90681
   A39        1.89844  -0.00149   0.00000  -0.00777  -0.00779   1.89065
   A40        1.92578   0.00234   0.00000   0.00671   0.00669   1.93247
   A41        1.91260   0.00329   0.00000   0.01027   0.01023   1.92283
   A42        1.92578   0.00230   0.00000   0.00659   0.00656   1.93235
   A43        1.89673  -0.00263   0.00000  -0.00736  -0.00740   1.88933
   A44        1.90570  -0.00286   0.00000  -0.00941  -0.00942   1.89628
   A45        1.89674  -0.00261   0.00000  -0.00730  -0.00734   1.88940
   A46        1.91009   0.00820   0.00000   0.01783   0.01772   1.92781
   A47        1.95271  -0.00033   0.00000  -0.00092  -0.00094   1.95177
   A48        1.91009   0.01015   0.00000   0.02117   0.02107   1.93116
   A49        1.89371  -0.00385   0.00000  -0.00762  -0.00764   1.88606
   A50        1.90289  -0.00876   0.00000  -0.01807  -0.01826   1.88463
   A51        1.89369  -0.00594   0.00000  -0.01350  -0.01351   1.88018
    D1        0.00002   0.00032   0.00000   0.00251   0.00252   0.00253
    D2        3.14159  -0.00012   0.00000  -0.00097  -0.00098   3.14062
    D3       -3.14159   0.00037   0.00000   0.00294   0.00295  -3.13863
    D4       -0.00001  -0.00007   0.00000  -0.00055  -0.00054  -0.00055
    D5       -0.00000  -0.00004   0.00000  -0.00018  -0.00014  -0.00014
    D6       -3.14158  -0.00043   0.00000  -0.00365  -0.00365   3.13795
    D7       -3.14159  -0.00009   0.00000  -0.00062  -0.00058   3.14101
    D8        0.00002  -0.00048   0.00000  -0.00409  -0.00410  -0.00407
    D9       -0.00003  -0.00047   0.00000  -0.00380  -0.00380  -0.00383
   D10       -3.14159  -0.00048   0.00000  -0.00384  -0.00383   3.13776
   D11        3.14158  -0.00003   0.00000  -0.00032  -0.00032   3.14126
   D12        0.00002  -0.00004   0.00000  -0.00035  -0.00035  -0.00033
   D13        0.00003   0.00033   0.00000   0.00265   0.00264   0.00267
   D14       -3.14158   0.00070   0.00000   0.00584   0.00587  -3.13571
   D15       -3.14159   0.00034   0.00000   0.00269   0.00267  -3.13892
   D16       -0.00002   0.00071   0.00000   0.00587   0.00590   0.00588
   D17       -0.00002  -0.00005   0.00000  -0.00029  -0.00029  -0.00032
   D18        3.14156  -0.00038   0.00000  -0.00305  -0.00301   3.13855
   D19       -3.14159  -0.00045   0.00000  -0.00372  -0.00373   3.13787
   D20       -0.00000  -0.00078   0.00000  -0.00647  -0.00644  -0.00645
   D21       -2.77550  -0.00127   0.00000  -0.01145  -0.01144  -2.78694
   D22        0.36611  -0.00143   0.00000  -0.01288  -0.01286   0.35326
   D23        0.36606  -0.00087   0.00000  -0.00803  -0.00805   0.35801
   D24       -2.77550  -0.00103   0.00000  -0.00946  -0.00947  -2.78498
   D25        0.00001  -0.00010   0.00000  -0.00093  -0.00095  -0.00095
   D26        3.14158   0.00028   0.00000   0.00247   0.00250  -3.13910
   D27       -3.14158   0.00022   0.00000   0.00166   0.00167  -3.13991
   D28       -0.00001   0.00060   0.00000   0.00506   0.00513   0.00512
   D29        2.50225   0.00018   0.00000   0.00151   0.00141   2.50365
   D30        0.40277  -0.00028   0.00000  -0.00030  -0.00034   0.40244
   D31       -1.69668   0.00058   0.00000   0.00303   0.00307  -1.69361
   D32       -0.63933  -0.00020   0.00000  -0.00196  -0.00199  -0.64132
   D33       -2.73880  -0.00066   0.00000  -0.00377  -0.00374  -2.74254
   D34        1.44494   0.00019   0.00000  -0.00044  -0.00033   1.44461
   D35        3.14158  -0.00033   0.00000  -0.00267  -0.00267   3.13891
   D36       -0.00004  -0.00020   0.00000  -0.00162  -0.00163  -0.00167
   D37       -0.00004  -0.00016   0.00000  -0.00124  -0.00123  -0.00126
   D38        3.14153  -0.00003   0.00000  -0.00019  -0.00019   3.14134
   D39        3.14154   0.00011   0.00000   0.00091   0.00091  -3.14073
   D40       -0.00004   0.00003   0.00000   0.00021   0.00021   0.00018
   D41       -0.00002  -0.00002   0.00000  -0.00012  -0.00012  -0.00013
   D42        3.14159  -0.00010   0.00000  -0.00081  -0.00082   3.14077
   D43        3.14157  -0.00006   0.00000  -0.00052  -0.00052   3.14106
   D44        1.03950  -0.00098   0.00000  -0.00542  -0.00542   1.03408
   D45       -1.03952   0.00087   0.00000   0.00444   0.00444  -1.03508
   D46       -0.00003   0.00002   0.00000   0.00018   0.00018   0.00015
   D47       -2.10211  -0.00090   0.00000  -0.00472  -0.00473  -2.10684
   D48        2.10206   0.00095   0.00000   0.00513   0.00513   2.10719
   D49        3.14156   0.00001   0.00000   0.00010   0.00010  -3.14152
   D50        1.03972  -0.00101   0.00000  -0.00561  -0.00560   1.03412
   D51       -1.03977   0.00102   0.00000   0.00568   0.00568  -1.03409
   D52       -1.03919   0.00017   0.00000   0.00188   0.00187  -1.03732
   D53       -3.14103  -0.00085   0.00000  -0.00382  -0.00383   3.13832
   D54        1.06266   0.00118   0.00000   0.00746   0.00745   1.07011
   D55        1.03913  -0.00016   0.00000  -0.00177  -0.00176   1.03737
   D56       -1.06271  -0.00118   0.00000  -0.00748  -0.00746  -1.07017
   D57        3.14098   0.00085   0.00000   0.00381   0.00382  -3.13839
   D58       -1.05373   0.00026   0.00000   0.00145   0.00145  -1.05227
   D59        3.14159  -0.00001   0.00000  -0.00010  -0.00010   3.14149
   D60        1.05371  -0.00029   0.00000  -0.00164  -0.00165   1.05206
   D61        1.05374   0.00039   0.00000   0.00292   0.00293   1.05667
   D62       -1.03413   0.00011   0.00000   0.00138   0.00138  -1.03275
   D63       -3.12201  -0.00016   0.00000  -0.00017  -0.00018  -3.12218
   D64        3.12199   0.00017   0.00000   0.00017   0.00018   3.12217
   D65        1.03412  -0.00011   0.00000  -0.00137  -0.00137   1.03275
   D66       -1.05376  -0.00038   0.00000  -0.00291  -0.00292  -1.05668
         Item               Value     Threshold  Converged?
 Maximum Force            0.082569     0.000450     NO 
 RMS     Force            0.011643     0.000300     NO 
 Maximum Displacement     0.286423     0.001800     NO 
 RMS     Displacement     0.064373     0.001200     NO 
 Predicted change in Energy=-2.942973D-02
 GradGradGradGradGradGradGradGradGradGradGradGradGradGradGradGradGradGrad

                          Input orientation:                          
 ---------------------------------------------------------------------
 Center     Atomic      Atomic             Coordinates (Angstroms)
 Number     Number       Type             X           Y           Z
 ---------------------------------------------------------------------
      1          6           0       -4.242420    3.090254   -0.716507
      2          6           0       -4.144340    1.724623   -0.475098
      3          6           0       -2.952726    1.161756   -0.028929
      4          6           0       -1.822881    1.963749    0.181995
      5          6           0       -1.911969    3.342441   -0.060166
      6          6           0       -3.118237    3.884497   -0.504467
      7          1           0       -5.179664    3.514067   -1.061564
      8          7           0       -0.643030    1.324983    0.628909
      9          6           0        0.425548    1.919934    1.257112
     10          7           0        1.456672    1.098955    1.601351
     11          8           0        0.457944    3.121420    1.499546
     12          6           0        2.637881    1.613929    2.270188
     13          6           0        3.632994    0.486980    2.540153
     14          6           0        4.883064    1.011171    3.244188
     15          1           0       -2.905996    0.092959    0.154793
     16          1           0       -1.071920    4.004739    0.089272
     17          1           0       -0.593744    0.318779    0.462515
     18          1           0        1.406455    0.101693    1.389650
     19          1           0        2.342484    2.083402    3.223688
     20          1           0        3.111501    2.382108    1.635741
     21          1           0        3.923402    0.017769    1.584241
     22          1           0        3.154229   -0.280785    3.172287
     23          1           0        5.391917    1.766353    2.624140
     24          1           0        5.587839    0.186307    3.430479
     25          1           0        4.622505    1.467743    4.212347
     26         17           0       -5.536626    0.701044   -0.729939
     27          6           0       -3.188729    5.464013   -0.776203
     28          9           0       -2.448417    6.135142    0.138208
     29          9           0       -4.459513    5.930122   -0.711860
     30          9           0       -2.702335    5.759634   -2.007070
 ---------------------------------------------------------------------
                    Distance matrix (angstroms):
                    1          2          3          4          5
     1  C    0.000000
     2  C    1.390268   0.000000
     3  C    2.419747   1.391341   0.000000
     4  C    2.816111   2.424484   1.401510   0.000000
     5  C    2.434211   2.788007   2.416513   1.402629   0.000000
     6  C    1.392685   2.391403   2.768908   2.416288   1.395103
     7  H    1.084946   2.148941   3.399846   3.901014   3.422000
     8  N    4.228703   3.692928   2.407092   1.414144   2.480960
     9  C    5.201417   4.891071   3.693436   2.492636   3.036895
    10  N    6.466636   6.006200   4.701547   3.676672   4.375112
    11  O    5.196660   5.199161   4.220093   2.877205   2.845705
    12  C    7.644502   7.317607   6.061789   4.937745   5.396243
    13  C    8.910949   8.432700   7.101212   6.124405   6.757361
    14  C   10.162880   9.789593   8.493266   7.433312   7.907341
    15  H    3.395434   2.143033   1.085479   2.161882   3.404913
    16  H    3.396709   3.867455   3.410858   2.176736   1.080117
    17  H    4.731173   3.932207   2.552826   2.072534   3.339677
    18  H    6.728832   6.076390   4.705163   3.918456   4.859666
    19  H    7.739499   7.475870   6.282372   5.159117   5.519895
    20  H    7.753367   7.585194   6.405875   5.161060   5.388283
    21  H    9.022985   8.499570   7.154870   6.226790   6.914411
    22  H    9.010940   8.402036   7.044403   6.225064   7.017327
    23  H   10.282659  10.027323   8.777094   7.619472   7.939540
    24  H   11.057323  10.598833   9.266081   8.284367   8.853976
    25  H   10.271954   9.944632   8.687127   7.617924   8.029210
    26  Cl   2.717255   1.746745   2.716655   4.027152   4.534723
    27  C    2.597800   3.871291   4.373046   3.877568   2.577576
    28  F    3.635977   4.764974   5.001683   4.218262   2.850669
    29  F    2.848158   4.223933   5.047189   4.845917   3.689279
    30  F    3.341109   4.550564   5.011609   4.469249   3.202802
                    6          7          8          9         10
     6  C    0.000000
     7  H    2.167269   0.000000
     8  N    3.736617   5.313269   0.000000
     9  C    4.418267   6.271835   1.374942   0.000000
    10  N    5.755303   7.547505   2.324969   1.362250   0.000000
    11  O    4.169823   6.204520   2.279767   1.226129   2.257917
    12  C    6.781378   8.707761   3.679900   2.452423   1.451825
    13  C    8.148126   9.989922   4.758096   3.739955   2.447905
    14  C    9.291352  11.227754   6.121754   4.964249   3.800892
    15  H    3.854275   4.284048   2.619864   3.956278   4.705043
    16  H    2.134104   4.294035   2.766992   2.820048   4.138084
    17  H    4.474647   5.793388   1.021060   2.057679   2.471807
    18  H    6.194362   7.812151   2.505105   2.070205   1.020721
    19  H    6.852924   8.774559   4.027576   2.751142   2.094224
    20  H    6.756279   8.792053   4.028365   2.751601   2.094308
    21  H    8.300541  10.103969   4.844974   3.995026   2.693328
    22  H    8.379256  10.088616   4.844217   3.994592   2.693181
    23  H    9.311146  11.331250   6.371525   5.153365   4.120397
    24  H   10.244812  12.132252   6.925973   5.863295   4.609249
    25  H    9.381265  11.317424   6.370813   5.152896   4.120170
    26  Cl   4.004225   2.854907   5.116938   6.401687   7.382376
    27  C    1.604270   2.801347   5.058310   5.455077   6.803400
[...]
 65,-0.00001024,0.00000512,0.00000840,0.00002252,0.00001072,0.00002415,
 0.00003479,0.00004588,-0.00011234,0.00029009,0.00007905,0.00008600,-0.
 00038939,0.00027428,0.00028116,0.00019560,-0.00016837,0.00026033,-0.00
 032509,0.00046718,-0.01380690,0.01890915,-0.01093842,0.06808398,-0.098
 54572,0.10617231,0.00000462,0.00000241,0.00000247,-0.00000478,-0.00000
 474,-0.00000206,0.00000554,-0.00000379,0.00000610,-0.00001581,0.000019
 62,-0.00001405,0.00000237,-0.00000743,0.00000774,-0.00000423,0.0000020
 2,-0.00000311,0.00000024,0.00000037,-0.00000051,0.00007491,-0.00000163
 ,0.00003690,-0.00000688,0.00001938,0.00003793,0.00004404,0.00005430,0.
 00029905,0.00001575,0.00009329,0.00003144,0.00124950,-0.00144459,-0.00
 037179,0.00302504,-0.02366417,-0.02172635,-0.05124155,0.02168685,0.019
 50166,0.00000126,-0.00000015,-0.00000155,-0.00000074,0.00000206,-0.000
 00429,0.00001077,-0.00000939,-0.00000567,0.00022426,0.00007141,0.00015
 525,-0.00025399,0.00062990,0.00020148,-0.00001363,0.00018479,0.0000297
 6,-0.00562090,-0.00195471,-0.00243760,0.00138651,0.00028956,0.00058588
 ,-0.00229928,0.01417101,0.01036590,-0.00221802,0.01124048,0.01195395,0
 .05563039,-0.00001476,0.00000201,-0.00000581,0.00001631,0.00000571,0.0
 0000814,-0.00002953,-0.00000188,-0.00000626,0.00008328,-0.00005544,0.0
 0001758,-0.00001755,0.00002478,-0.00000560,0.00000532,0.00000155,0.000
 00694,0.00000012,-0.00000072,-0.00000124,-0.00016574,0.00002299,-0.000
 05159,0.00023806,-0.00015948,0.00003967,-0.00014336,0.00042511,0.00020
 864,-0.00011816,0.00013237,-0.00000922,0.00054664,0.00050711,0.0007047
 8,0.00093757,-0.00829073,-0.00659524,0.02096974,-0.19938702,-0.1322546
 6,0.00000428,0.00000095,-0.00000187,0.00000898,-0.00000806,-0.00000025
 ,0.00001650,0.00000144,-0.00000552,0.00018812,-0.00010593,0.00011064,-
 0.00017812,0.00047566,-0.00029577,-0.00013764,-0.00002805,0.00001942,-
 0.00230966,0.00038629,-0.00027872,0.00009040,-0.00004555,0.00027406,-0
 .00066191,0.00975062,0.00806980,0.00206177,-0.01739816,-0.01651701,-0.
 02138037,0.21375355,0.00000095,0.00000560,0.00000025,-0.00000045,-0.00
 000728,-0.00000052,-0.00000348,-0.00000205,-0.00000110,0.00000603,-0.0
 0000353,0.00000862,-0.00000272,-0.00000135,-0.00000180,-0.00000308,0.0
 0000504,-0.00000048,0.00000025,-0.00000009,-0.00000035,0.00001421,0.00
 004285,0.00001851,0.00002455,-0.00023276,-0.00003685,-0.00011840,0.000
 48806,0.00012216,0.00003020,0.00018560,0.00004063,0.00048686,-0.000695
 92,-0.00005301,0.00088828,-0.00661915,-0.00674494,0.01870691,-0.132319
 33,-0.16637901,0.00000207,0.00000100,-0.00000082,-0.00000350,-0.000002
 78,-0.00000395,0.00001099,-0.00000653,-0.00000039,0.00019667,-0.000017
 44,0.00012234,-0.00054333,0.00029296,-0.00009207,-0.00001198,-0.000041
 02,-0.00007497,-0.00207712,-0.00035735,0.00067883,-0.00016337,0.000485
 56,0.00060292,0.00211802,-0.01957602,-0.01611455,-0.00091366,0.0118010
 3,0.01120682,-0.01865002,0.14657351,0.17670171,-0.00786269,-0.00974552
 ,-0.00418611,-0.11240983,-0.06139971,-0.03166128,-0.03198914,-0.027821
 07,-0.01252133,0.00156237,0.00584136,-0.00196883,-0.00093623,-0.001991
 23,0.00023141,0.00205442,-0.00108835,-0.00097583,0.00022141,0.00072343
 ,0.00107192,-0.00269048,-0.00175083,-0.00110247,0.00185839,0.00070764,
 0.00085662,-0.00105604,0.00032885,-0.00058289,-0.00066960,-0.00021012,
 -0.00033117,0.00029094,0.00021921,0.00013448,-0.00005471,-0.00010940,0
 .00001284,-0.00000747,0.00005997,-0.00001904,0.00023030,-0.00030495,0.
 00134429,0.00021315,-0.00004262,0.00033646,0.00007481,-0.00019090,0.00
 004677,0.00000964,-0.00012048,0.00005158,-0.00001039,-0.00001577,0.000
 00693,-0.00008874,-0.00003514,-0.00000814,0.00000066,0.00001654,0.0000
 0547,0.00000954,0.00000428,-0.00000295,0.00000066,-0.00000986,0.000004
 48,-0.00003680,0.00000789,-0.00001797,0.00000439,-0.00001054,0.0000037
 1,0.15180714,-0.03512132,-0.02576528,-0.01207898,-0.06175703,-0.090486
 57,-0.02055425,-0.00297989,0.00128386,-0.00102498,0.00164834,-0.000706
 88,0.00105203,-0.00209344,0.00049033,-0.00091962,0.00518870,-0.0042537
 8,0.00271591,-0.00056136,0.00073477,-0.00045320,-0.00117416,0.00003802
 ,-0.00046166,0.00132270,-0.00013776,0.00051822,-0.00065420,0.00038765,
 -0.00039953,-0.00052399,0.00013477,-0.00022081,0.00019514,0.00011727,0
 .00010222,-0.00002639,-0.00006938,0.00000896,-0.00000591,0.00003729,-0
 .00001168,0.00109607,0.00138978,0.00017680,0.00017455,0.00018080,0.000
 01295,-0.00003948,-0.00012469,-0.00000953,-0.00001690,-0.00008297,0.00
 004036,-0.00000535,-0.00000803,0.00000778,-0.00005725,-0.00002412,-0.0
 0000720,-0.00000241,0.00001387,0.00000592,0.00000629,0.00000206,-0.000
 00422,0.00000179,-0.00000716,0.00000200,-0.00002415,0.00000621,-0.0000
 1243,0.00000356,-0.00000583,0.00000452,0.09679716,0.11703961,-0.002470
 07,-0.00191867,0.00338747,-0.03160864,-0.02040299,-0.03472197,-0.01420
 304,-0.01101081,-0.00096689,-0.00172501,0.00274732,0.00462904,0.000213
 72,-0.00090326,-0.00095339,-0.00141629,0.00019472,0.00417542,0.0011529
 5,0.00007410,-0.00212807,-0.00106662,-0.00069945,-0.00028346,0.0007306
 5,0.00029285,0.00014547,-0.00037827,0.00010418,-0.00021940,-0.00026299
 ,-0.00009107,-0.00005399,0.00010521,0.00007925,0.00005193,-0.00001947,
 -0.00003802,0.00000274,-0.00000162,0.00002065,-0.00000545,0.00123476,-
 0.00038209,-0.00252085,0.00033153,-0.00006962,-0.00048477,0.00003513,-
 0.00006446,0.00001281,0.00000721,-0.00003625,0.00000820,-0.00000211,-0
 .00000576,0.00000229,-0.00003464,-0.00001278,-0.00000304,-0.00000031,0
 .00000747,0.00000236,0.00000355,0.00000057,0.00000070,-0.00000067,-0.0
 0000432,0.00000219,-0.00001255,0.00000285,-0.00000671,0.00000152,-0.00
 000328,0.00000139,0.04958703,0.03203885,0.02978515,0.00993061,-0.02054
 743,0.00450757,-0.00163762,-0.00460509,-0.00313138,-0.00363842,-0.0006
 2535,-0.00108281,-0.00327809,0.00444831,-0.00410529,0.00222608,0.02734
 856,-0.00026163,-0.08925846,0.01100881,-0.00939204,-0.00249354,-0.0017
 6848,0.00040285,-0.00097201,0.00079494,-0.00046794,0.00072883,0.002838
 63,0.00019830,0.00011408,-0.00074801,0.00024162,0.00013984,-0.00199877
 ,0.00040169,-0.00004533,0.00002579,-0.00012416,-0.00002582,0.00003510,
 -0.00002667,0.00001370,-0.00001981,0.00000754,-0.00031353,-0.00001664,
 0.00001142,-0.00232058,0.00145389,-0.00024096,-0.00025613,0.00014565,-
 0.00014063,0.00011567,0.00003966,-0.00009571,-0.00001333,0.00001599,-0
 .00003993,-0.00003548,0.00001950,0.00003353,0.00001007,-0.00001756,-0.
 00000960,-0.00000476,-0.00001908,0.00002983,-0.00002135,0.00001289,0.0
 0000823,0.00002331,-0.00002347,0.00001499,-0.00000469,0.00001284,-0.00
 001912,-0.00110409,-0.00167820,-0.00031370,0.55042996,-0.00596414,-0.0
 1713193,-0.00112254,-0.00489836,-0.00221603,-0.00136071,-0.00123728,0.
 00380082,-0.00083769,0.00493092,-0.00048160,0.00239260,0.01143352,-0.0
 0968313,0.00526027,0.00757987,-0.22380087,0.01352892,0.00146606,0.0007
 6622,0.00033129,-0.00649158,0.00106502,-0.00275454,0.00660372,0.002411
 32,0.00270798,-0.00266691,0.00090636,-0.00147012,-0.00248083,-0.001683
 23,-0.00116022,0.00092026,0.00056306,0.00041553,-0.00014697,-0.0002253
 7,0.00003387,0.00000116,0.00014678,-0.00002679,-0.00008666,0.00007114,
 -0.00002902,-0.00033971,0.00083477,-0.00031282,-0.00018861,-0.00021364
 ,-0.00000670,0.00008400,-0.00026851,0.00011458,-0.00004459,-0.00003558
 ,-0.00003127,-0.00029350,-0.00008557,0.00001076,0.00002292,0.00000390,
 -0.00002061,0.00001929,0.00000779,0.00003199,-0.00002064,-0.00001482,0
 .00002731,-0.00008396,0.00000673,-0.00003770,0.00000549,-0.00003731,-0
 .00002722,0.00247320,0.00258476,0.00081348,-0.01218716,0.62450939,0.00
 358841,-0.00695239,0.00393049,-0.00308975,-0.00119936,0.00570563,-0.00
 104838,-0.00057977,-0.00126447,-0.00421167,0.00224007,0.00447177,0.000
 76218,0.01144081,-0.00213027,-0.00918931,0.01505650,-0.07241647,0.0001
 5252,-0.00098274,-0.00301815,0.00007224,0.00024080,-0.00016219,-0.0002
 7258,0.00127210,0.00038119,0.00036951,-0.00040020,0.00001297,0.0005040
 7,-0.00089474,-0.00050157,-0.00020175,-0.00002548,0.00008683,0.0000007
 8,0.00003125,0.00000977,-0.00000576,-0.00000548,0.00002211,0.00001090,
 -0.00003008,-0.00031853,-0.00001115,0.00043995,-0.00199232,-0.00016590
 ,0.00008157,0.00008947,-0.00001523,-0.00000934,0.00009311,-0.00002099,
 -0.00001324,-0.00002342,0.00007656,0.00002542,-0.00003220,0.00000715,-
 0.00003925,-0.00001304,0.00000236,0.00003056,-0.00002381,0.00001751,0.
 00001200,-0.00001558,0.00001150,-0.00000650,0.00000864,-0.00001171,-0.
 00001311,-0.00001433,-0.00060428,-0.00084879,-0.00019559,0.01787145,-0
 .01226166,0.51740447,-0.00075117,0.00098760,0.00014163,0.00025790,0.00
 040932,0.00043553,0.00041270,-0.00005350,0.00005717,-0.00004926,-0.000
 62930,0.00084608,-0.00090529,-0.00011959,-0.00036158,0.01049323,-0.000
 84069,-0.00155887,0.00024457,0.00028473,-0.00013347,0.00018238,0.00008
 697,0.00010101,-0.00016388,-0.00062924,-0.00006918,-0.00002616,0.00016
 248,-0.00004130,-0.00000342,0.00043977,0.00001033,0.00000924,-0.000011
 94,0.00001106,0.00000609,-0.00000690,0.00000575,-0.00000251,0.00000277
 ,-0.00000360,0.00007669,0.00001495,-0.00004478,0.00057644,-0.00018015,
 -0.00011342,0.00000515,-0.00002235,-0.00001126,-0.00002022,-0.00000451
 ,0.00000783,0.00000358,-0.00000201,0.00001074,0.00000418,-0.00000498,-
 0.00000512,-0.00000303,0.00000665,0.00000294,0.00000090,0.00000172,-0.
 00000486,0.00000355,-0.00000315,-0.00000135,-0.00000449,0.00000503,-0.
 00000286,0.00000154,-0.00000110,0.00000575,0.00015181,0.00012996,-0.00
 001496,-0.07246649,-0.00929522,-0.01725076,0.08194019,0.00479452,-0.00
 289793,0.00043140,0.00020471,-0.00051006,0.00232416,-0.00063360,-0.001
 25410,-0.00038085,-0.00196175,0.00205576,0.00011006,-0.00153771,-0.001
 43528,-0.00021686,-0.00705811,-0.02597964,-0.04190700,0.00026691,0.000
 10653,-0.00096126,0.00204904,-0.00025058,0.00088323,-0.00209904,-0.000
 92286,-0.00093467,0.00081243,-0.00023960,0.00048398,0.00070489,0.00065
 650,0.00045294,-0.00027237,-0.00018173,-0.00014930,0.00004819,0.000068
 99,-0.00001176,0.00000037,-0.00004771,0.00000445,0.00007159,-0.0000474
 7,-0.00004039,0.00029860,-0.00051603,-0.00077253,0.00006031,0.00007764
 ,-0.00006796,-0.00002556,0.00008628,-0.00005489,0.00001798,0.00001274,
 0.00001517,0.00008403,0.00002421,0.00000054,-0.00000891,0.00000542,0.0
 0000919,-0.00000682,-0.00000718,-0.00000737,0.00000429,0.00000285,-0.0
 0000669,0.00002583,-0.00000103,0.00001109,-0.00000004,0.00001447,0.000
 01176,-0.00091187,-0.00110375,-0.00013981,-0.00734419,-0.14424083,-0.0
 9284606,0.01572063,0.14222334,0.00200480,-0.00234197,0.00047877,-0.000
 19139,0.00023214,0.00048485,0.00030432,-0.00032903,0.00005813,-0.00061
 261,-0.00004509,0.00031738,-0.00208238,0.00042528,0.00093381,-0.003855
 02,-0.01306894,-0.01055303,0.00037402,0.00038875,-0.00038701,0.0010522
 1,-0.00008304,0.00059939,-0.00092917,-0.00101088,-0.00058782,0.0002538
 2,0.00005063,0.00022050,0.00016682,0.00070065,0.00046337,-0.00004957,-
 0.00007937,-0.00010045,0.00002360,0.00002001,-0.00000833,0.00000239,-0
 .00001979,-0.00000681,0.00012307,-0.00002490,-0.00004591,0.00083481,-0
 .00018318,-0.00089085,0.00007910,0.00001504,-0.00010142,-0.00000919,0.
 00004190,-0.00005778,0.00001879,0.00001168,0.00001701,0.00001240,0.000
 00265,0.00001255,-0.00000714,0.00001803,0.00001029,-0.00000419,-0.0000
 1522,0.00000469,-0.00000417,-0.00000369,0.00000308,0.00000696,0.000002
 98,0.00000143,0.00000521,0.00001121,0.00001141,-0.00036268,-0.00056265
 ,-0.00002701,-0.01449230,-0.09787948,-0.21022969,0.03026298,0.13411349
 ,0.33950533,-0.00252190,-0.00321372,-0.00073594,0.00019393,0.00002348,
 0.00002359,0.00043355,0.00027325,0.00013221,-0.00095530,-0.00079623,-0
 .00013688,0.00234783,0.00475520,-0.00000989,-0.01940725,0.00828006,-0.
 01209085,0.00151922,0.00008843,0.00073360,-0.00012838,0.00074317,-0.00
 006306,0.00072426,-0.00082014,0.00028564,-0.00047226,0.00041712,-0.000
 29464,-0.00038546,0.00055993,-0.00022792,0.00016258,0.00006991,0.00009
 016,-0.00001059,-0.00005096,0.00001346,-0.00000569,0.00002934,-0.00000
 988,0.00015266,0.00002138,0.00009130,0.00067587,-0.00040739,0.00033559
 ,-0.00016243,-0.00001154,-0.00003649,-0.00001772,-0.00005974,0.0000374
 8,0.00000039,-0.00001099,0.00001551,-0.00003377,-0.00002319,-0.0000092
 2,-0.00000205,0.00001336,0.00000374,0.00000478,0.00000538,-0.00000590,
 0.00000449,-0.00000890,0.00000149,-0.00002265,0.00001159,-0.00001240,0
 .00000412,-0.00000845,0.00000684,0.00060548,0.00051630,0.00018944,-0.2
 2341400,0.07614499,-0.06819337,-0.02081016,-0.00715542,-0.04379104,0.3
 4506555,0.00018554,-0.00253735,0.00024514,0.00143195,0.00160057,0.0004
 8333,0.00062424,-0.00072201,0.00031004,0.00078788,0.00037871,0.0002395
 0,-0.00305101,-0.00772848,-0.00059479,0.04047956,-0.01038517,0.0179394
 8,0.00114573,-0.00310457,0.00069670,0.00161666,-0.00103083,0.00071771,
 -0.00187731,-0.00042317,-0.00075389,0.00080130,-0.00033747,0.00044653,
 0.00066584,0.00028943,0.00030981,-0.00026914,-0.00015495,-0.00012350,0
 .00003843,0.00007118,-0.00001163,0.00000170,-0.00004408,0.00001013,0.0
 0004313,-0.00009198,0.00001116,-0.00027922,0.00021260,-0.00014017,0.00
 023534,0.00003867,0.00007204,-0.00001936,0.00008694,-0.00003514,0.0000
 1176,0.00001211,0.00000208,0.00008268,0.00002825,0.00000061,-0.0000042
 8,-0.00000653,0.00000284,-0.00000614,-0.00000288,-0.00000567,0.0000037
 2,0.00000650,-0.00000694,0.00002699,-0.00000521,0.00001281,-0.00000286
 ,0.00001084,0.00000351,-0.00065525,-0.00061299,-0.00021906,0.06399439,
 -0.11384852,0.02931217,-0.01567687,0.01591150,-0.01026179,-0.07890822,
 0.10659402,-0.00100646,-0.00113955,-0.00044659,-0.00008603,-0.00008233
 ,0.00012954,0.00012038,0.00016644,0.00009580,-0.00027887,-0.00039400,-
 0.00048610,0.00054048,0.00261442,0.00156908,-0.01423374,0.00465478,0.0
 0244324,0.00067847,0.00024743,-0.00004384,-0.00013717,0.00037459,-0.00
 012933,0.00043085,-0.00034727,0.00011670,-0.00026582,0.00020066,-0.000
 13277,-0.00024901,0.00024170,-0.00000857,0.00010067,0.00004011,0.00002
 792,-0.00000724,-0.00002555,0.00000362,-0.00000016,0.00001292,-0.00000
 824,0.00008924,0.00000943,-0.00003791,0.00031932,-0.00018584,0.0000735
 9,-0.00005557,-0.00001217,-0.00008556,0.00000192,-0.00002561,-0.000004
 58,0.00000266,-0.00000186,0.00000764,-0.00003008,-0.00001347,0.0000026
 0,-0.00000111,0.00001080,0.00000306,0.00000113,-0.00000321,0.00000274,
 -0.00000216,-0.00000514,0.00000379,-0.00001056,0.00000454,-0.00000605,
 0.00000321,-0.00000108,0.00000387,0.00027591,0.00025553,0.00013316,-0.
 06732828,0.03431715,-0.10042390,-0.05408267,-0.00150279,-0.04692171,0.
 11511978,-0.03445625,0.12819591,0.00107495,-0.00109913,0.00058709,0.00
 057897,0.00034030,-0.00055984,0.00037520,-0.00030837,0.00033755,0.0001
 1624,-0.00047265,-0.00091992,-0.00123408,0.00003032,-0.00185374,-0.004
 79959,-0.00948176,0.01175490,0.00007447,0.00055354,0.00053264,0.001027
 24,-0.00006558,0.00032836,-0.00091835,-0.00101495,-0.00027061,0.000283
 10,0.00009875,0.00005798,0.00035884,0.00069736,-0.00013283,-0.00011517
 ,-0.00007194,0.00002042,0.00002628,0.00001374,0.00000647,-0.00000677,-
 0.00000825,0.00000384,0.00006444,0.00000506,0.00013773,0.00021716,-0.0
 0014333,0.00118081,-0.00001079,0.00000547,0.00008152,-0.00004996,0.000
 00593,0.00004184,0.00000507,-0.00000555,0.00001425,0.00005763,0.000004
 54,-0.00001997,-0.00000507,-0.00000014,0.00000392,0.00000040,0.0000122
 2,-0.00001879,0.00001357,-0.00000159,-0.00000868,0.00000150,0.00000737
 ,-0.00000072,-0.00000076,-0.00000306,0.00000792,-0.00017890,-0.0003591
 3,-0.00006173,-0.16242842,-0.06525928,0.08084547,0.00083595,0.00385109
 ,0.03086556,-0.08354513,-0.01142719,0.02009091,0.24818195,0.00342941,-
 0.00245321,0.00317237,0.00166750,-0.00077541,-0.00138968,-0.00078207,-
 0.00117465,-0.00002570,-0.00123751,0.00193876,-0.00155087,-0.00121046,
 -0.00147031,-0.00052779,-0.03391611,-0.01982695,0.02701523,-0.00044797
 ,0.00019899,0.00078849,0.00193017,-0.00026811,0.00081260,-0.00201493,-
 0.00078185,-0.00076687,0.00081034,-0.00025120,0.00041269,0.00075418,0.
 00054557,0.00023387,-0.00029212,-0.00017216,-0.00010570,0.00004568,0.0
 0006609,-0.00000705,-0.00000290,-0.00004222,0.00000934,0.00002464,-0.0
 0003913,0.00005428,-0.00034625,-0.00042660,0.00066037,0.00000750,0.000
 08158,0.00004747,-0.00003406,0.00007406,-0.00001626,0.00001137,0.00000
 806,0.00001113,0.00009787,0.00002575,-0.00001009,-0.00000679,-0.000003
 60,0.00000569,-0.00000471,0.00000270,-0.00001492,0.00001031,0.00000432
 ,-0.00001098,0.00002407,-0.00000053,0.00001067,-0.00000264,0.00000869,
 0.00000883,-0.00076591,-0.00105185,-0.00037458,-0.06059573,-0.12371113
 ,0.05692499,0.00922890,0.01838953,-0.01012546,-0.00047800,0.01579486,-
 0.00495436,0.08409622,0.11530994,-0.00186843,0.00262296,-0.00182352,0.
 00005791,0.00018953,0.00039047,0.00011865,0.00032791,0.00000949,0.0006
 9146,-0.00061176,0.00024440,0.00010797,-0.00009303,0.00134409,0.016108
 73,0.01066596,-0.00155450,0.00009874,-0.00012860,-0.00026776,-0.000899
 32,0.00019038,-0.00026793,0.00085503,0.00021845,0.00017702,-0.00037218
 ,0.00013001,-0.00012499,-0.00039203,-0.00014622,0.00009596,0.00014510,
 0.00006953,0.00000043,-0.00002001,-0.00002782,-0.00000117,0.00000368,0
 .00001461,-0.00000991,-0.00002941,0.00003015,-0.00003060,0.00023201,-0
 .00001004,-0.00061200,0.00000783,-0.00004190,-0.00007680,0.00002192,-0
 .00001986,-0.00003043,-0.00000068,0.00000163,0.00000020,-0.00005806,-0
 .00001452,0.00001356,0.00000176,0.00001058,0.00000069,0.00000015,-0.00
 001045,0.00001394,-0.00001013,-0.00000372,0.00000822,-0.00000870,-0.00
 000066,-0.00000421,0.00000327,0.00000185,-0.00000034,0.00037507,0.0006
 2744,0.00023029,0.07754313,0.05935335,-0.13944092,0.04180124,0.0011487
 1,-0.07320417,0.00853767,-0.00420675,0.01592288,-0.14305236,-0.0702877
 1,0.19899760\\-0.00000562,-0.00001498,0.00000458,0.00000507,0.00001209
 ,0.00000508,0.00000387,0.00000023,0.00000578,0.00000420,-0.00001493,0.
 00000418,-0.00000282,0.00000613,-0.00000013,0.00000241,-0.00000195,-0.
 00000683,0.00000077,0.00000033,-0.00000042,-0.00001692,0.00000469,-0.0
 0001053,-0.00000220,0.00005827,0.00000533,0.00001564,-0.00002215,0.000
 00263,-0.00001181,-0.00003037,-0.00000874,0.00000211,-0.00000026,0.000
 00131,0.00001520,0.00000767,0.00000390,-0.00001005,-0.00000411,-0.0000
 0630,-0.00000254,0.00000019,0.00000319,0.00000180,-0.00000082,-0.00000
 159,0.00000222,-0.00000396,0.00000151,-0.00000146,-0.00000196,0.000004
 36,-0.00000030,0.00000112,-0.00000076,-0.00000046,0.00000192,-0.000001
 40,-0.00000463,-0.00000239,-0.00000224,0.00000079,0.00000195,0.0000023
 2,0.00000277,-0.00000054,-0.00000279,0.00000146,0.00000160,0.00000228,
 0.00000269,0.00000506,-0.00000080,-0.00000643,-0.00000584,0.00000159,-
 0.00001837,0.00000324,0.00000863,0.00000248,-0.00000147,-0.00001040,0.
 00001357,-0.00000274,0.00000326,0.00000657,0.00000397,-0.00000701\\\@


 THE ATTENTION SPAN OF A COMPUTER IS AS LONG
 AS ITS EXTENSION CORD.
 Job cpu time:       0 days  2 hours 57 minutes 30.8 seconds.
 File lengths (MBytes):  RWF=    568 Int=      0 D2E=      0 Chk=     19 Scr=      1
 Normal termination of Gaussian 09 at Sun Feb 24 15:04:37 2019.
WARNING: pbs_rusage is deprecated and values produced may not be accurate


=============================================================================
                                     Resource usage:
                                       CPU time:              13:49:58
   JobId:    6064438.r-man2            Elapsed time:          03:28:15
   Project:             q95            Requested time:        36:00:00
   Service Units:     13.88 
                                       Max physical memory:      675MB
                                       Max virtual memory:      1580MB
                                       Requested memory:           0MB

                                       Number of cpus:               4

                                       Max jobfs disk use:       0.6GB
                                       Requested jobfs:         16.0GB
=============================================================================

