 Entering Gaussian System, Link 0=/apps/gaussian/g09e01/g09/g09
 AtFile(1): /home/507/hio507/Basis/6-31pGd.gbs
 Initial command:
 /apps/gaussian/g09e01/g09/l1.exe "/jobfs/local/5880967.r-man2/Gau-32264.inp" -scrdir="/jobfs/local/5880967.r-man2/"
 Entering Link 1 = /apps/gaussian/g09e01/g09/l1.exe PID=     32265.
  
 Copyright (c) 1988,1990,1992,1993,1995,1998,2003,2009,2015,
            Gaussian, Inc.  All Rights Reserved.
  
 This is part of the Gaussian(R) 09 program.  It is based on
 the Gaussian(R) 03 system (copyright 2003, Gaussian, Inc.),
 the Gaussian(R) 98 system (copyright 1998, Gaussian, Inc.),
 the Gaussian(R) 94 system (copyright 1995, Gaussian, Inc.),
 the Gaussian 92(TM) system (copyright 1992, Gaussian, Inc.),
 the Gaussian 90(TM) system (copyright 1990, Gaussian, Inc.),
 the Gaussian 88(TM) system (copyright 1988, Gaussian, Inc.),
 the Gaussian 86(TM) system (copyright 1986, Carnegie Mellon
 University), and the Gaussian 82(TM) system (copyright 1983,
 Carnegie Mellon University). Gaussian is a federally registered
 trademark of Gaussian, Inc.
  
 This software contains proprietary and confidential information,
 including trade secrets, belonging to Gaussian, Inc.
  
 This software is provided under written license and may be
 used, copied, transmitted, or stored only in accord with that
 written license.
  
 The following legend is applicable only to US Government
 contracts under FAR:
  
                    RESTRICTED RIGHTS LEGEND
  
 Use, reproduction and disclosure by the US Government is
 subject to restrictions as set forth in subparagraphs (a)
 and (c) of the Commercial Computer Software - Restricted
 Rights clause in FAR 52.227-19.
  
 Gaussian, Inc.
 340 Quinnipiac St., Bldg. 40, Wallingford CT 06492
  
  
 ---------------------------------------------------------------
 Warning -- This program may not be used in any manner that
 competes with the business of Gaussian, Inc. or will provide
 assistance to any competitor of Gaussian, Inc.  The licensee
 of this program is prohibited from giving any competitor of
 Gaussian, Inc. access to this program.  By using this program,
 the user acknowledges that Gaussian, Inc. is engaged in the
 business of creating and licensing software in the field of
 computational chemistry and represents and warrants to the
 licensee that it is not a competitor of Gaussian, Inc. and that
 it will not use this program in any manner prohibited above.
 ---------------------------------------------------------------
  

 Cite this work as:
 Gaussian 09, Revision E.01,
 M. J. Frisch, G. W. Trucks, H. B. Schlegel, G. E. Scuseria, 
 M. A. Robb, J. R. Cheeseman, G. Scalmani, V. Barone, B. Mennucci, 
 G. A. Petersson, H. Nakatsuji, M. Caricato, X. Li, H. P. Hratchian, 
 A. F. Izmaylov, J. Bloino, G. Zheng, J. L. Sonnenberg, M. Hada, 
 M. Ehara, K. Toyota, R. Fukuda, J. Hasegawa, M. Ishida, T. Nakajima, 
 Y. Honda, O. Kitao, H. Nakai, T. Vreven, J. A. Montgomery, Jr., 
 J. E. Peralta, F. Ogliaro, M. Bearpark, J. J. Heyd, E. Brothers, 
 K. N. Kudin, V. N. Staroverov, T. Keith, R. Kobayashi, J. Normand, 
 K. Raghavachari, A. Rendell, J. C. Burant, S. S. Iyengar, J. Tomasi, 
 M. Cossi, N. Rega, J. M. Millam, M. Klene, J. E. Knox, J. B. Cross, 
 V. Bakken, C. Adamo, J. Jaramillo, R. Gomperts, R. E. Stratmann, 
 O. Yazyev, A. J. Austin, R. Cammi, C. Pomelli, J. W. Ochterski, 
 R. L. Martin, K. Morokuma, V. G. Zakrzewski, G. A. Voth, 
 P. Salvador, J. J. Dannenberg, S. Dapprich, A. D. Daniels, 
 O. Farkas, J. B. Foresman, J. V. Ortiz, J. Cioslowski, 
 and D. J. Fox, Gaussian, Inc., Wallingford CT, 2013.
 
 ******************************************
 Gaussian 09:  ES64L-G09RevE.01 30-Nov-2015
                19-Feb-2019 
 ******************************************
 %chk=NM3_C2_EtO.M062X_6-31pGd_opt_Pentadecane.chk
 %mem=196608000
 %nproc=8
 Will use up to    8 processors via shared memory.
 ----------------------------------------------------------------------
 # M062X/Gen 6D SCF=Tight INT(grid=ultrafine) OPT IOP(2/17=4) SCRF=(SMD
 ,Solvent=n-Pentadecane) maxdisk=2684354560
 ----------------------------------------------------------------------
 1/14=-1,18=20,19=15,26=4,38=1/1,3;
 2/9=110,12=2,17=4,18=5,40=1/2;
 3/5=7,8=2,11=2,16=1,25=1,30=1,70=32201,71=1,72=151,74=-55,75=-5/1,2,3;
 4//1;
 5/5=2,32=2,38=5,53=151/2;
 6/7=2,8=2,9=2,10=2,28=1/1;
 7//1,2,3,16;
 1/14=-1,18=20,19=15,26=4/3(2);
 2/9=110,17=4/2;
 99//99;
 2/9=110,17=4/2;
 3/5=7,6=1,8=2,11=2,16=1,25=1,30=1,70=32205,71=1,72=151,74=-55,75=-5,82=7/1,2,3;
 4/5=5,16=3,69=1/1;
 5/5=2,32=2,38=5,53=151/2;
 7//1,2,3,16;
 1/14=-1,18=20,19=15,26=4/3(-5);
 2/9=110,17=4/2;
 6/7=2,8=2,9=2,10=2,19=2,28=1/1;
 99/9=1/99;
 ----------------------------------------
 NM3_C2_EtO.M062X_6-31pGd_opt_Pentadecane
 ----------------------------------------
 Symbolic Z-matrix:
 Charge = -1 Multiplicity = 1
 C                    -4.03426   4.07717  -0.91114 
 C                    -2.78173   4.64799  -0.69577 
 C                    -1.72282   3.86383  -0.2348 
 C                    -1.88687   2.48883   0.02467 
 C                    -3.16868   1.92535  -0.20088 
 C                    -4.23884   2.71129  -0.66629 
 H                    -4.84048   4.70439  -1.26933 
 N                    -0.74068   1.74989   0.49842 
 C                     0.5145    2.23378   0.76847 
 N                     1.48598   1.38543   1.21466 
 O                     0.78503   3.41366   0.61391 
 C                     2.82965   1.8575    1.50761 
 C                     3.72755   0.71259   1.9884 
 C                     5.13794   1.20861   2.29376 
 H                    -0.76567   4.34165  -0.07874 
 H                    -3.38486   0.88695  -0.03432 
 H                    -0.89751   0.62823   0.66485 
 H                     1.24234   0.27917   1.36277 
 H                     2.77875   2.63785   2.29884 
 H                     3.2691    2.30263   0.58763 
 H                     3.78416  -0.07026   1.20091 
 H                     3.2967    0.26445   2.91014 
 H                     5.5999    1.64444   1.38228 
 H                     5.76477   0.35948   2.63865 
 H                     5.11157   1.97914   3.09358 
 Cl                   -2.53497   6.35766  -1.00517 
 C                    -5.5849    2.06594  -0.89303 
 F                    -5.45938   1.05681  -1.83056 
 F                    -6.52302   2.97571  -1.34997 
 F                    -6.04146   1.52378   0.29465 
 O                    -1.29953  -1.35785   1.11758 
 O                     0.7925   -1.69813   1.8027 
 C                    -0.32961  -2.15213   1.61755 
 C                    -0.6533   -3.58666   1.93935 
 C                     0.53915  -4.36101   2.50046 
 H                    -1.00311  -4.08881   1.01223 
 H                    -1.47573  -3.60595   2.68593 
 H                     1.36994  -4.37828   1.76303 
 H                     0.23469  -5.40674   2.7167 
 H                     0.89422  -3.89264   3.44334 
 
 Add virtual bond connecting atoms O31        and H17        Dist= 3.92D+00.
 Add virtual bond connecting atoms O32        and H18        Dist= 3.92D+00.

 GradGradGradGradGradGradGradGradGradGradGradGradGradGradGradGradGradGrad
 Berny optimization.
 Initialization pass.
                           ----------------------------
                           !    Initial Parameters    !
                           ! (Angstroms and Degrees)  !
 --------------------------                            --------------------------
 ! Name  Definition              Value          Derivative Info.                !
 --------------------------------------------------------------------------------
 ! R1    R(1,2)                  1.3932         estimate D2E/DX2                !
 ! R2    R(1,6)                  1.4027         estimate D2E/DX2                !
 ! R3    R(1,7)                  1.0824         estimate D2E/DX2                !
 ! R4    R(2,3)                  1.396          estimate D2E/DX2                !
 ! R5    R(2,26)                 1.7549         estimate D2E/DX2                !
 ! R6    R(3,4)                  1.4089         estimate D2E/DX2                !
 ! R7    R(3,15)                 1.0811         estimate D2E/DX2                !
 ! R8    R(4,5)                  1.4182         estimate D2E/DX2                !
 ! R9    R(4,8)                  1.4437         estimate D2E/DX2                !
 ! R10   R(5,6)                  1.407          estimate D2E/DX2                !
 ! R11   R(5,16)                 1.0737         estimate D2E/DX2                !
 ! R12   R(6,27)                 1.5099         estimate D2E/DX2                !
 ! R13   R(8,9)                  1.3721         estimate D2E/DX2                !
 ! R14   R(8,17)                 1.1447         estimate D2E/DX2                !
 ! R15   R(9,10)                 1.3648         estimate D2E/DX2                !
 ! R16   R(9,11)                 1.2203         estimate D2E/DX2                !
 ! R17   R(10,12)                1.454          estimate D2E/DX2                !
 ! R18   R(10,18)                1.1424         estimate D2E/DX2                !
 ! R19   R(12,13)                1.5324         estimate D2E/DX2                !
 ! R20   R(12,19)                1.1125         estimate D2E/DX2                !
 ! R21   R(12,20)                1.1125         estimate D2E/DX2                !
 ! R22   R(13,14)                1.5259         estimate D2E/DX2                !
 ! R23   R(13,21)                1.1118         estimate D2E/DX2                !
 ! R24   R(13,22)                1.1118         estimate D2E/DX2                !
 ! R25   R(14,23)                1.1109         estimate D2E/DX2                !
 ! R26   R(14,24)                1.1104         estimate D2E/DX2                !
 ! R27   R(14,25)                1.1109         estimate D2E/DX2                !
 ! R28   R(17,31)                2.0763         estimate D2E/DX2                !
 ! R29   R(18,32)                2.075          estimate D2E/DX2                !
 ! R30   R(27,28)                1.3831         estimate D2E/DX2                !
 ! R31   R(27,29)                1.3844         estimate D2E/DX2                !
 ! R32   R(27,30)                1.3831         estimate D2E/DX2                !
 ! R33   R(31,33)                1.3497         estimate D2E/DX2                !
 ! R34   R(32,33)                1.2246         estimate D2E/DX2                !
 ! R35   R(33,34)                1.5054         estimate D2E/DX2                !
 ! R36   R(34,35)                1.5285         estimate D2E/DX2                !
 ! R37   R(34,36)                1.1109         estimate D2E/DX2                !
 ! R38   R(34,37)                1.1109         estimate D2E/DX2                !
 ! R39   R(35,38)                1.111          estimate D2E/DX2                !
 ! R40   R(35,39)                1.1104         estimate D2E/DX2                !
 ! R41   R(35,40)                1.1111         estimate D2E/DX2                !
 ! A1    A(2,1,6)              120.2061         estimate D2E/DX2                !
 ! A2    A(2,1,7)              118.9042         estimate D2E/DX2                !
 ! A3    A(6,1,7)              120.8896         estimate D2E/DX2                !
 ! A4    A(1,2,3)              120.1889         estimate D2E/DX2                !
 ! A5    A(1,2,26)             119.8889         estimate D2E/DX2                !
 ! A6    A(3,2,26)             119.9222         estimate D2E/DX2                !
 ! A7    A(2,3,4)              121.3811         estimate D2E/DX2                !
 ! A8    A(2,3,15)             118.0976         estimate D2E/DX2                !
 ! A9    A(4,3,15)             120.5212         estimate D2E/DX2                !
 ! A10   A(3,4,5)              117.6269         estimate D2E/DX2                !
 ! A11   A(3,4,8)              117.8743         estimate D2E/DX2                !
 ! A12   A(5,4,8)              124.4986         estimate D2E/DX2                !
 ! A13   A(4,5,6)              121.2058         estimate D2E/DX2                !
 ! A14   A(4,5,16)             122.7903         estimate D2E/DX2                !
 ! A15   A(6,5,16)             116.0036         estimate D2E/DX2                !
 ! A16   A(1,6,5)              119.3911         estimate D2E/DX2                !
 ! A17   A(1,6,27)             121.3338         estimate D2E/DX2                !
 ! A18   A(5,6,27)             119.2751         estimate D2E/DX2                !
 ! A19   A(4,8,9)              127.6166         estimate D2E/DX2                !
 ! A20   A(4,8,17)             116.1336         estimate D2E/DX2                !
 ! A21   A(9,8,17)             116.2495         estimate D2E/DX2                !
 ! A22   A(8,9,10)             119.7566         estimate D2E/DX2                !
 ! A23   A(8,9,11)             121.2557         estimate D2E/DX2                !
 ! A24   A(10,9,11)            118.9873         estimate D2E/DX2                !
 ! A25   A(9,10,12)            121.4579         estimate D2E/DX2                !
 ! A26   A(9,10,18)            119.5061         estimate D2E/DX2                !
 ! A27   A(12,10,18)           119.036          estimate D2E/DX2                !
 ! A28   A(10,12,13)           111.2309         estimate D2E/DX2                !
 ! A29   A(10,12,19)           109.1935         estimate D2E/DX2                !
 ! A30   A(10,12,20)           109.1678         estimate D2E/DX2                !
 ! A31   A(13,12,19)           109.1321         estimate D2E/DX2                !
 ! A32   A(13,12,20)           109.0838         estimate D2E/DX2                !
 ! A33   A(19,12,20)           109.0002         estimate D2E/DX2                !
 ! A34   A(12,13,14)           111.1924         estimate D2E/DX2                !
 ! A35   A(12,13,21)           109.4919         estimate D2E/DX2                !
 ! A36   A(12,13,22)           109.5243         estimate D2E/DX2                !
 ! A37   A(14,13,21)           108.8777         estimate D2E/DX2                !
 ! A38   A(14,13,22)           108.8629         estimate D2E/DX2                !
 ! A39   A(21,13,22)           108.852          estimate D2E/DX2                !
 ! A40   A(13,14,23)           110.3458         estimate D2E/DX2                !
 ! A41   A(13,14,24)           109.5942         estimate D2E/DX2                !
 ! A42   A(13,14,25)           110.3404         estimate D2E/DX2                !
 ! A43   A(23,14,24)           108.6698         estimate D2E/DX2                !
 ! A44   A(23,14,25)           109.1762         estimate D2E/DX2                !
 ! A45   A(24,14,25)           108.6746         estimate D2E/DX2                !
 ! A46   A(6,27,28)            109.4344         estimate D2E/DX2                !
 ! A47   A(6,27,29)            111.8883         estimate D2E/DX2                !
 ! A48   A(6,27,30)            109.4432         estimate D2E/DX2                !
 ! A49   A(28,27,29)           108.4955         estimate D2E/DX2                !
 ! A50   A(28,27,30)           109.0274         estimate D2E/DX2                !
 ! A51   A(29,27,30)           108.5022         estimate D2E/DX2                !
 ! A52   A(17,31,33)           120.3017         estimate D2E/DX2                !
 ! A53   A(18,32,33)           121.3249         estimate D2E/DX2                !
 ! A54   A(31,33,32)           119.7583         estimate D2E/DX2                !
 ! A55   A(31,33,34)           119.0429         estimate D2E/DX2                !
 ! A56   A(32,33,34)           121.1987         estimate D2E/DX2                !
 ! A57   A(33,34,35)           113.1712         estimate D2E/DX2                !
 ! A58   A(33,34,36)           108.6661         estimate D2E/DX2                !
 ! A59   A(33,34,37)           108.6259         estimate D2E/DX2                !
 ! A60   A(35,34,36)           108.8461         estimate D2E/DX2                !
 ! A61   A(35,34,37)           108.7866         estimate D2E/DX2                !
 ! A62   A(36,34,37)           108.6567         estimate D2E/DX2                !
 ! A63   A(34,35,38)           110.3398         estimate D2E/DX2                !
 ! A64   A(34,35,39)           109.5528         estimate D2E/DX2                !
 ! A65   A(34,35,40)           110.3209         estimate D2E/DX2                !
 ! A66   A(38,35,39)           108.642          estimate D2E/DX2                !
 ! A67   A(38,35,40)           109.3209         estimate D2E/DX2                !
 ! A68   A(39,35,40)           108.6242         estimate D2E/DX2                !
 ! A69   L(8,17,31,13,-1)      181.9656         estimate D2E/DX2                !
 ! A70   L(10,18,32,5,-1)      181.0317         estimate D2E/DX2                !
 ! A71   L(8,17,31,13,-2)      174.88           estimate D2E/DX2                !
 ! A72   L(10,18,32,5,-2)      184.7745         estimate D2E/DX2                !
 ! D1    D(6,1,2,3)             -0.0074         estimate D2E/DX2                !
 ! D2    D(6,1,2,26)           179.9863         estimate D2E/DX2                !
 ! D3    D(7,1,2,3)           -179.9671         estimate D2E/DX2                !
 ! D4    D(7,1,2,26)             0.0265         estimate D2E/DX2                !
 ! D5    D(2,1,6,5)              0.0508         estimate D2E/DX2                !
 ! D6    D(2,1,6,27)          -179.9032         estimate D2E/DX2                !
 ! D7    D(7,1,6,5)           -179.9903         estimate D2E/DX2                !
 ! D8    D(7,1,6,27)             0.0557         estimate D2E/DX2                !
 ! D9    D(1,2,3,4)             -0.0634         estimate D2E/DX2                !
 ! D10   D(1,2,3,15)          -179.9636         estimate D2E/DX2                !
 ! D11   D(26,2,3,4)           179.9429         estimate D2E/DX2                !
 ! D12   D(26,2,3,15)            0.0428         estimate D2E/DX2                !
 ! D13   D(2,3,4,5)              0.0868         estimate D2E/DX2                !
 ! D14   D(2,3,4,8)            179.9608         estimate D2E/DX2                !
 ! D15   D(15,3,4,5)           179.9846         estimate D2E/DX2                !
 ! D16   D(15,3,4,8)            -0.1415         estimate D2E/DX2                !
 ! D17   D(3,4,5,6)             -0.0423         estimate D2E/DX2                !
 ! D18   D(3,4,5,16)           179.75           estimate D2E/DX2                !
 ! D19   D(8,4,5,6)           -179.9071         estimate D2E/DX2                !
 ! D20   D(8,4,5,16)            -0.1148         estimate D2E/DX2                !
 ! D21   D(3,4,8,9)              1.8441         estimate D2E/DX2                !
 ! D22   D(3,4,8,17)          -177.9469         estimate D2E/DX2                !
 ! D23   D(5,4,8,9)           -178.2914         estimate D2E/DX2                !
 ! D24   D(5,4,8,17)             1.9176         estimate D2E/DX2                !
 ! D25   D(4,5,6,1)             -0.0252         estimate D2E/DX2                !
 ! D26   D(4,5,6,27)           179.9297         estimate D2E/DX2                !
 ! D27   D(16,5,6,1)          -179.831          estimate D2E/DX2                !
 ! D28   D(16,5,6,27)            0.1239         estimate D2E/DX2                !
 ! D29   D(1,6,27,28)          120.2584         estimate D2E/DX2                !
 ! D30   D(1,6,27,29)           -0.0255         estimate D2E/DX2                !
 ! D31   D(1,6,27,30)         -120.3237         estimate D2E/DX2                !
 ! D32   D(5,6,27,28)          -59.6957         estimate D2E/DX2                !
 ! D33   D(5,6,27,29)         -179.9795         estimate D2E/DX2                !
 ! D34   D(5,6,27,30)           59.7223         estimate D2E/DX2                !
 ! D35   D(4,8,9,10)           179.9115         estimate D2E/DX2                !
 ! D36   D(4,8,9,11)            -0.3039         estimate D2E/DX2                !
 ! D37   D(17,8,9,10)           -0.2977         estimate D2E/DX2                !
 ! D38   D(17,8,9,11)          179.487          estimate D2E/DX2                !
 ! D39   D(4,8,31,33)         -177.3076         estimate D2E/DX2                !
 ! D40   D(9,8,31,33)           -0.3373         estimate D2E/DX2                !
 ! D41   D(8,9,10,12)          179.7798         estimate D2E/DX2                !
 ! D42   D(8,9,10,18)           -0.2277         estimate D2E/DX2                !
 ! D43   D(11,9,10,12)          -0.0097         estimate D2E/DX2                !
 ! D44   D(11,9,10,18)         179.9827         estimate D2E/DX2                !
 ! D45   D(9,10,12,13)        -179.898          estimate D2E/DX2                !
 ! D46   D(9,10,12,19)          59.6016         estimate D2E/DX2                !
 ! D47   D(9,10,12,20)         -59.4746         estimate D2E/DX2                !
 ! D48   D(18,10,12,13)          0.1095         estimate D2E/DX2                !
 ! D49   D(18,10,12,19)       -120.3909         estimate D2E/DX2                !
 ! D50   D(18,10,12,20)        120.5329         estimate D2E/DX2                !
 ! D51   D(9,10,32,33)           1.1501         estimate D2E/DX2                !
 ! D52   D(12,10,32,33)        177.7592         estimate D2E/DX2                !
 ! D53   D(10,12,13,14)        179.9225         estimate D2E/DX2                !
 ! D54   D(10,12,13,21)         59.5677         estimate D2E/DX2                !
 ! D55   D(10,12,13,22)        -59.7199         estimate D2E/DX2                !
 ! D56   D(19,12,13,14)        -59.5409         estimate D2E/DX2                !
 ! D57   D(19,12,13,21)       -179.8956         estimate D2E/DX2                !
 ! D58   D(19,12,13,22)         60.8167         estimate D2E/DX2                !
 ! D59   D(20,12,13,14)         59.4495         estimate D2E/DX2                !
 ! D60   D(20,12,13,21)        -60.9053         estimate D2E/DX2                !
 ! D61   D(20,12,13,22)        179.8071         estimate D2E/DX2                !
 ! D62   D(12,13,14,23)        -60.3424         estimate D2E/DX2                !
 ! D63   D(12,13,14,24)       -179.9726         estimate D2E/DX2                !
 ! D64   D(12,13,14,25)         60.3945         estimate D2E/DX2                !
 ! D65   D(21,13,14,23)         60.3747         estimate D2E/DX2                !
 ! D66   D(21,13,14,24)        -59.2556         estimate D2E/DX2                !
 ! D67   D(21,13,14,25)       -178.8884         estimate D2E/DX2                !
 ! D68   D(22,13,14,23)        178.91           estimate D2E/DX2                !
 ! D69   D(22,13,14,24)         59.2797         estimate D2E/DX2                !
 ! D70   D(22,13,14,25)        -60.3532         estimate D2E/DX2                !
 ! D71   D(17,31,33,32)         -0.0966         estimate D2E/DX2                !
 ! D72   D(17,31,33,34)        179.8306         estimate D2E/DX2                !
 ! D73   D(18,32,33,31)          0.0033         estimate D2E/DX2                !
 ! D74   D(18,32,33,34)       -179.9223         estimate D2E/DX2                !
 ! D75   D(31,33,34,35)       -179.8276         estimate D2E/DX2                !
 ! D76   D(31,33,34,36)         59.1436         estimate D2E/DX2                !
 ! D77   D(31,33,34,37)        -58.9024         estimate D2E/DX2                !
 ! D78   D(32,33,34,35)          0.0984         estimate D2E/DX2                !
 ! D79   D(32,33,34,36)       -120.9303         estimate D2E/DX2                !
 ! D80   D(32,33,34,37)        121.0236         estimate D2E/DX2                !
 ! D81   D(33,34,35,38)        -60.4879         estimate D2E/DX2                !
 ! D82   D(33,34,35,39)        179.9458         estimate D2E/DX2                !
 ! D83   D(33,34,35,40)         60.4133         estimate D2E/DX2                !
 ! D84   D(36,34,35,38)         60.4391         estimate D2E/DX2                !
 ! D85   D(36,34,35,39)        -59.1272         estimate D2E/DX2                !
 ! D86   D(36,34,35,40)       -178.6598         estimate D2E/DX2                !
 ! D87   D(37,34,35,38)        178.6779         estimate D2E/DX2                !
 ! D88   D(37,34,35,39)         59.1117         estimate D2E/DX2                !
 ! D89   D(37,34,35,40)        -60.4209         estimate D2E/DX2                !
 --------------------------------------------------------------------------------
 Trust Radius=3.00D-01 FncErr=1.00D-07 GrdErr=1.00D-06
 Number of steps in this run=    212 maximum allowed number of steps=    240.
 GradGradGradGradGradGradGradGradGradGradGradGradGradGradGradGradGradGrad

                          Input orientation:                          
 ---------------------------------------------------------------------
 Center     Atomic      Atomic             Coordinates (Angstroms)
 Number     Number       Type             X           Y           Z
 ---------------------------------------------------------------------
      1          6           0       -4.034260    4.077170   -0.911140
      2          6           0       -2.781730    4.647990   -0.695770
      3          6           0       -1.722820    3.863830   -0.234800
      4          6           0       -1.886870    2.488830    0.024670
      5          6           0       -3.168680    1.925350   -0.200880
      6          6           0       -4.238840    2.711290   -0.666290
      7          1           0       -4.840480    4.704390   -1.269330
      8          7           0       -0.740680    1.749890    0.498420
      9          6           0        0.514500    2.233780    0.768470
     10          7           0        1.485980    1.385430    1.214660
     11          8           0        0.785030    3.413660    0.613910
     12          6           0        2.829650    1.857500    1.507610
     13          6           0        3.727550    0.712590    1.988400
     14          6           0        5.137940    1.208610    2.293760
     15          1           0       -0.765670    4.341650   -0.078740
     16          1           0       -3.384860    0.886950   -0.034320
     17          1           0       -0.897510    0.628230    0.664850
     18          1           0        1.242340    0.279170    1.362770
     19          1           0        2.778750    2.637850    2.298840
     20          1           0        3.269100    2.302630    0.587630
     21          1           0        3.784160   -0.070260    1.200910
     22          1           0        3.296700    0.264450    2.910140
     23          1           0        5.599900    1.644440    1.382280
     24          1           0        5.764770    0.359480    2.638650
     25          1           0        5.111570    1.979140    3.093580
     26         17           0       -2.534970    6.357660   -1.005170
     27          6           0       -5.584900    2.065940   -0.893030
     28          9           0       -5.459380    1.056810   -1.830560
     29          9           0       -6.523020    2.975710   -1.349970
     30          9           0       -6.041460    1.523780    0.294650
     31          8           0       -1.299530   -1.357850    1.117580
     32          8           0        0.792500   -1.698130    1.802700
     33          6           0       -0.329610   -2.152130    1.617550
     34          6           0       -0.653300   -3.586660    1.939350
     35          6           0        0.539150   -4.361010    2.500460
     36          1           0       -1.003110   -4.088810    1.012230
     37          1           0       -1.475730   -3.605950    2.685930
     38          1           0        1.369940   -4.378280    1.763030
     39          1           0        0.234690   -5.406740    2.716700
     40          1           0        0.894220   -3.892640    3.443340
 ---------------------------------------------------------------------
                    Distance matrix (angstroms):
                    1          2          3          4          5
     1  C    0.000000
     2  C    1.393216   0.000000
     3  C    2.417789   1.395955   0.000000
     4  C    2.830168   2.445768   1.408851   0.000000
     5  C    2.425701   2.794175   2.418546   1.418245   0.000000
     6  C    1.402652   2.423808   2.800873   2.461438   1.406965
     7  H    1.082449   2.137897   3.390663   3.912410   3.414610
     8  N    4.272091   3.740449   2.443553   1.443684   2.532783
     9  C    5.187523   4.340224   2.944353   2.526829   3.821071
    10  N    6.499041   5.701525   4.305787   3.742951   4.895010
    11  O    5.098194   3.995073   2.685568   2.888177   4.302415
    12  C    7.608584   6.642989   5.271275   4.984300   6.237267
    13  C    8.942786   8.066156   6.676786   6.207494   7.336329
    14  C   10.130611   9.137166   7.779064   7.492375   8.702694
    15  H    3.383271   2.130509   1.081112   2.168116   3.409968
    16  H    3.371652   3.866097   3.415316   2.193963   1.073662
    17  H    4.921192   4.643279   3.458267   2.202384   2.755036
    18  H    6.887523   6.286280   4.918759   4.057717   4.961049
    19  H    7.667641   6.627767   5.309095   5.192501   6.490622
    20  H    7.663835   6.615162   5.294620   5.189954   6.496853
    21  H    9.098880   8.304829   6.918465   6.331908   7.368138
    22  H    9.103955   8.316569   6.931217   6.335866   7.364657
    23  H   10.197793   9.142829   7.820669   7.655575   8.914780
    24  H   11.065406  10.126813   8.752210   8.361496   9.503758
    25  H   10.202241   9.153476   7.831925   7.658731   8.911728
    26  Cl   2.730814   1.754876   2.733541   4.055669   4.549049
    27  C    2.539657   3.816236   4.310608   3.833593   2.517331
    28  F    3.463939   4.621053   4.938390   4.272632   2.942367
    29  F    2.756758   4.149910   5.007423   4.860100   3.698008
    30  F    3.464474   4.622495   4.940324   4.273737   2.942732
    31  O    6.413571   6.446338   5.410550   4.041827   4.001432
    32  O    8.001039   7.700046   6.435343   5.279304   5.730173
    33  C    7.676124   7.589860   6.447016   5.147896   5.290827
    34  C    8.848190   8.904130   7.834577   6.488395   6.425728
    35  C   10.186166  10.119595   8.958021   7.676941   7.782260
    36  H    8.920227   9.078129   8.081927   6.709818   6.506262
    37  H    8.860887   9.014935   8.024296   6.663159   6.464908
    38  H   10.385143  10.235019   9.027118   7.796532   8.011976
    39  H   11.014976  11.038176   9.924045   8.607443   8.593878
    40  H   10.332922  10.177780   8.974433   7.755316   7.977249
                    6          7          8          9         10
     6  C    0.000000
     7  H    2.167504   0.000000
     8  N    3.810244   5.353725   0.000000
     9  C    4.988065   6.239580   1.372062   0.000000
    10  N    6.170044   7.563716   2.367244   1.364755   0.000000
    11  O    5.231778   6.071156   2.260367   1.220325   2.228441
    12  C    7.444350   8.639854   3.711779   2.459234   1.454001
    13  C    8.631660   9.997920   4.822977   3.758449   2.464959
    14  C    9.947057  11.157283   6.170446   4.975307   3.812156
    15  H    3.881520   4.260653   2.655364   2.607626   3.934723
    16  H    2.111133   4.268129   2.831990   4.202789   5.053070
    17  H    4.156388   5.991923   1.144734   2.140631   2.560599
    18  H    6.330531   7.969393   2.615815   2.168742   1.142413
    19  H    7.618659   8.663434   4.051712   2.762632   2.101251
    20  H    7.622892   8.659217   4.048681   2.761388   2.100938
    21  H    8.694365  10.162863   4.927536   4.023218   2.720451
    22  H    8.692654  10.168320   4.931872   4.025624   2.722123
    23  H   10.106217  11.198029   6.402756   5.156101   4.125472
    24  H   10.794714  12.108752   6.988183   5.880128   4.624756
    25  H   10.104595  11.202913   6.405954   5.157910   4.126468
    26  Cl   4.039063   2.849291   5.168346   5.426919   6.768955
    27  C    1.509889   2.767161   5.049999   6.323878   7.409642
    28  F    2.362741   3.742039   5.307602   6.620231   7.590743
    29  F    2.398919   2.413665   6.193112   7.386808   8.558645
    30  F    2.362842   3.742281   5.309512   6.611295   7.584716
    31  O    5.327254   7.415283   3.217720   4.038860   3.910764
    32  O    7.131148   9.064221   3.992572   4.075148   3.214817
    33  C    6.644611   8.700224   4.080097   4.546390   3.996626
    34  C    7.701275   9.826984   5.528352   6.050805   5.461078
    35  C    9.103566  11.195232   6.556617   6.818479   5.964171
    36  H    7.715487   9.861607   5.867136   6.506743   6.016964
    37  H    7.666791   9.799356   5.831854   6.460659   5.987507
    38  H    9.360663  11.413125   6.603667   6.740939   5.790900
    39  H    9.867092  11.995030   7.555757   7.889958   7.067915
    40  H    9.319295  11.358035   6.571423   6.695681   5.759793
                   11         12         13         14         15
    11  O    0.000000
    12  C    2.720442   0.000000
    13  C    4.224148   1.532385   0.000000
    14  C    5.160617   2.523350   1.525936   0.000000
    15  H    1.935355   4.649068   6.134507   7.092059   0.000000
    16  H    4.918582   6.476083   7.396497   8.840902   4.335560
    17  H    3.254559   4.014109   4.811453   6.278284   3.789432
    18  H    3.254989   2.243136   2.599141   4.111727   4.755397
    19  H    2.723195   1.112467   2.168691   2.758356   4.595512
    20  H    2.721338   1.112484   2.168078   2.756868   4.569576
    21  H    4.634334   2.172881   1.111845   2.159294   6.465555
    22  H    4.636667   2.173254   1.111785   2.159057   6.485354
    23  H    5.186859   2.781256   2.177480   1.110923   7.066117
    24  H    6.182669   3.483998   2.167436   1.110354   8.117175
    25  H    5.188984   2.781592   2.177403   1.110911   7.084280
    26  Cl   4.723447   7.439399   8.946923   9.811687   2.837779
    27  C    6.683055   8.752781   9.841541  11.219177   5.391373
    28  F    7.107941   8.971761   9.955030  11.372610   5.990823
    29  F    7.579988   9.843200  11.015471  12.344124   6.052181
    30  F    7.090454   8.959868   9.947883  11.361107   5.992810
    31  O    5.231289   5.247926   5.506050   7.029306   5.848118
    32  O    5.248207   4.108475   3.802706   5.251012   6.515110
    33  C    5.764350   5.105893   4.980431   6.453366   6.725825
    34  C    7.268429   6.477362   6.138225   7.527196   8.181895
    35  C    8.004063   6.700896   6.014110   7.225805   9.170121
    36  H    7.722898   7.091830   6.810690   8.210814   8.504073
    37  H    7.660237   7.055071   6.797827   8.189897   8.444639
    38  H    7.897906   6.409442   5.614808   6.759648   9.164613
    39  H    9.084275   7.808002   7.083551   8.245216  10.190501
    40  H    7.835791   6.368442   5.599353   6.734497   9.108447
                   16         17         18         19         20
    16  H    0.000000
    17  H    2.596668   0.000000
    18  H    4.871574   2.277695   0.000000
    19  H    6.819045   4.497042   2.966505   0.000000
    20  H    6.831263   4.491126   2.966983   1.811368   0.000000
    21  H    7.337363   4.763747   2.570827   3.090333   2.504397
    22  H    7.328069   4.771275   2.571958   2.504993   3.090144
    23  H    9.127237   6.615416   4.566473   3.128232   2.548982
    24  H    9.546660   6.953710   4.699648   3.771307   3.769733
    25  H    9.119537   6.620629   4.566896   2.550992   3.127160
    26  Cl   5.620812   6.188426   7.538120   7.279360   7.257238
    27  C    2.639617   5.144475   7.408940   8.970271   8.980072
    28  F    2.749357   5.217414   7.464257   9.349782   9.142542
    29  F    3.992731   6.420010   8.656275   9.997544  10.004646
    30  F    2.751599   5.234432   7.466169   9.113399   9.347672
    31  O    3.273317   2.076318   3.033324   5.830383   5.878124
    32  O    5.244771   3.092376   2.074996   4.795004   4.859632
    33  C    4.615109   2.993418   2.906400   5.750649   5.818620
    34  C    5.600891   4.410135   4.344023   7.117073   7.203895
    35  C    7.025955   5.506902   4.829087   7.351224   7.450882
    36  H    5.614819   4.730993   4.923837   7.823413   7.699517
    37  H    5.588442   4.727302   4.922684   7.565413   7.863052
    38  H    7.318554   5.604683   4.676359   7.176205   7.044355
    39  H    7.764006   6.474012   5.931109   8.447620   8.554237
    40  H    7.297200   5.600765   4.674822   6.892651   7.223331
                   21         22         23         24         25
    21  H    0.000000
    22  H    1.808622   0.000000
    23  H    2.503997   3.089249   0.000000
    24  H    2.484872   2.484775   1.804652   0.000000
    25  H    3.089378   2.503511   1.810811   1.804697   0.000000
    26  Cl   9.279889   9.298668   9.700024  10.869281   9.718064
    27  C    9.835000   9.828138  11.421666  12.008321  11.415562
    28  F    9.793014   9.988544  11.531493  12.101308  11.697984
    29  F   11.046397  11.042027  12.498106  13.181181  12.494078
    30  F    9.995253   9.778954  11.692680  12.092849  11.507886
    31  O    5.244877   5.193309   7.529007   7.427463   7.492815
    32  O    3.458633   3.368852   5.870317   5.445736   5.817478
    33  C    4.629349   4.545412   7.044742   6.670255   6.989456
    34  C    5.709765   5.601427   8.171734   7.566549   8.095931
    35  C    5.534388   5.400630   7.932651   7.043382   7.839408
    36  H    6.253183   6.406348   8.752533   8.260552   8.862356
    37  H    6.509442   6.148687   8.906775   8.255405   8.645920
    38  H    4.970259   5.155891   7.369579   6.521320   7.495795
    39  H    6.585923   6.447924   8.960206   7.989817   8.858737
    40  H    5.290636   4.830902   7.553188   6.515390   7.237829
                   26         27         28         29         30
    26  Cl   0.000000
    27  C    5.266261   0.000000
    28  F    6.110029   1.383135   0.000000
    29  F    5.240326   1.384393   2.245991   0.000000
    30  F    6.111579   1.383101   2.252420   2.246058   0.000000
    31  O    8.097004   5.842028   5.641495   7.221731   5.609537
    32  O    9.157071   7.880762   7.737976   9.235851   7.704410
    33  C    9.173810   7.191189   6.964287   8.570837   6.920087
    34  C   10.540417   8.018413   7.672838   9.398826   7.606175
    35  C   11.688864   9.503970   9.170216  10.887034   9.099493
    36  H   10.749197   7.905932   7.376802   9.271291   7.576349
    37  H   10.678002   7.865403   7.616395   9.223984   7.271743
    38  H   11.754644   9.846442   9.438946  11.228123   9.587455
    39  H   12.646124  10.136011   9.740507  11.509558   9.658597
    40  H   11.688338   9.812634   9.627009  11.187739   9.346417
                   31         32         33         34         35
    31  O    0.000000
    32  O    2.227503   0.000000
    33  C    1.349665   1.224552   0.000000
    34  C    2.461811   2.382343   1.505393   0.000000
    35  C    3.783130   2.764414   2.532474   1.528528   0.000000
    36  H    2.749019   3.092638   2.137930   1.110888   2.160437
    37  H    2.746766   3.092691   2.137433   1.110921   2.159689
    38  H    4.082361   2.741936   2.804528   2.179736   1.110997
    39  H    4.615683   3.860095   3.481243   2.169214   1.110408
    40  H    4.080056   2.741883   2.803684   2.179548   1.111066
                   36         37         38         39         40
    36  H    0.000000
    37  H    1.804936   0.000000
    38  H    2.505765   3.089672   0.000000
    39  H    2.484815   2.483813   1.804441   0.000000
    40  H    3.090087   2.504501   1.812622   1.804296   0.000000
 Stoichiometry    C14H17ClF3N2O3(1-)
 Framework group  C1[X(C14H17ClF3N2O3)]
 Deg. of freedom   114
 Full point group                 C1      NOp   1
 Largest Abelian subgroup         C1      NOp   1
 Largest concise Abelian subgroup C1      NOp   1
                         Standard orientation:                         
 ---------------------------------------------------------------------
 Center     Atomic      Atomic             Coordinates (Angstroms)
 Number     Number       Type             X           Y           Z
 ---------------------------------------------------------------------
      1          6           0       -3.867561   -0.562850   -0.019297
      2          6           0       -3.121867   -1.739688   -0.025967
      3          6           0       -1.727092   -1.687054   -0.003148
      4          6           0       -1.039708   -0.457608    0.025613
      5          6           0       -1.815518    0.729612    0.032530
      6          6           0       -3.221498    0.681796    0.010539
      7          1           0       -4.947911   -0.627910   -0.036808
      8          7           0        0.403391   -0.491522    0.048811
      9          6           0        1.215834   -1.596553    0.011446
     10          7           0        2.571490   -1.441847    0.040068
     11          8           0        0.750208   -2.723223   -0.043323
     12          6           0        3.466774   -2.587050    0.006965
     13          6           0        4.933666   -2.146126    0.051884
     14          6           0        5.872401   -3.348697    0.019025
     15          1           0       -1.182141   -2.620750   -0.009782
     16          1           0       -1.378196    1.709848    0.057795
     17          1           0        0.930686    0.522770    0.108712
     18          1           0        3.016936   -0.391090    0.091029
     19          1           0        3.287970   -3.164186   -0.927125
     20          1           0        3.256434   -3.240551    0.882358
     21          1           0        5.119511   -1.570069    0.984525
     22          1           0        5.152879   -1.495024   -0.822231
     23          1           0        5.687375   -4.007161    0.894434
     24          1           0        6.925938   -2.999722    0.053127
     25          1           0        5.720785   -3.931525   -0.914488
     26         17           0       -3.938782   -3.292386   -0.062996
     27          6           0       -4.004419    1.972803    0.020593
     28          9           0       -3.697336    2.688360    1.163719
     29          9           0       -5.370275    1.748277   -0.003325
     30          9           0       -3.664000    2.726334   -1.088134
     31          8           0        1.822211    2.396463    0.034176
     32          8           0        3.862285    1.502337    0.014041
     33          6           0        3.166645    2.510010   -0.000434
     34          6           0        3.782924    3.882266   -0.058062
     35          6           0        5.310709    3.854315   -0.096657
     36          1           0        3.456975    4.456211    0.835480
     37          1           0        3.411470    4.400109   -0.968010
     38          1           0        5.711094    3.361954    0.815257
     39          1           0        5.700446    4.893206   -0.139292
     40          1           0        5.663991    3.305624   -0.995877
 ---------------------------------------------------------------------
 Rotational constants (GHZ):      0.2423274      0.1100595      0.0770002
 General basis read from cards:  (6D, 7F)
 There are   475 symmetry adapted cartesian basis functions of A   symmetry.
 There are   475 symmetry adapted basis functions of A   symmetry.
   475 basis functions,   828 primitive gaussians,   475 cartesian basis functions
    92 alpha electrons       92 beta electrons
       nuclear repulsion energy      2027.9755606053 Hartrees.
 NAtoms=   40 NActive=   40 NUniq=   40 SFac= 1.00D+00 NAtFMM=   60 NAOKFM=F Big=F
 Integral buffers will be    131072 words long.
 Raffenetti 2 integral format.
 Two-electron integral symmetry is turned on.
 ------------------------------------------------------------------------------
 Polarizable Continuum Model (PCM)
 =================================
 Model                : PCM (using non-symmetric T matrix).
 Atomic radii         : SMD-Coulomb.
 Polarization charges : Total charges.
 Charge compensation  : None.
 Solution method      : On-the-fly selection.
 Cavity type          : VdW (van der Waals Surface) (Alpha=1.000).
 Cavity algorithm     : GePol (No added spheres)
                        Default sphere list used, NSphG=   40.
                        Lebedev-Laikov grids with approx.  5.0 points / Ang**2.
                        Smoothing algorithm: York/Karplus (Gamma=1.0000).
                        Polarization charges: spherical gaussians, with
                                              point-specific exponents (IZeta= 3).
                        Self-potential: point-specific (ISelfS= 7).
                        Self-field    : sphere-specific E.n sum rule (ISelfD= 2).
 1st derivatives      : Analytical E(r).r(x)/FMM algorithm (CHGder, D1EAlg=3).
                        Cavity 1st derivative terms included.
 Solvent              : n-Pentadecane, Eps=   2.033300 Eps(inf)=   2.049192
 ------------------------------------------------------------------------------
 ------------------------------------------------------------------------------
 Atomic radii for non-electrostatic terms: SMD-CDS.
 ------------------------------------------------------------------------------
 Nuclear repulsion after PCM non-electrostatic terms =     2027.9660006864 Hartrees.
 One-electron integrals computed using PRISM.
 NBasis=   475 RedAO= T EigKep=  1.53D-06  NBF=   475
 NBsUse=   473 1.00D-06 EigRej=  6.69D-07 NBFU=   473
 ExpMin= 4.38D-02 ExpMax= 2.52D+04 ExpMxC= 3.78D+03 IAcc=3 IRadAn=         5 AccDes= 0.00D+00
 Harris functional with IExCor= 1009 and IRadAn=       5 diagonalized for initial guess.
 HarFok:  IExCor= 1009 AccDes= 0.00D+00 IRadAn=         5 IDoV= 1 UseB2=F ITyADJ=14
 ICtDFT=  3500011 ScaDFX=  1.000000  1.000000  1.000000  1.000000
 FoFCou: FMM=F IPFlag=           0 FMFlag=      100000 FMFlg1=           0
         NFxFlg=           0 DoJE=T BraDBF=F KetDBF=T FulRan=T
         wScrn=  0.000000 ICntrl=     500 IOpCl=  0 I1Cent=   200000004 NGrid=           0
         NMat0=    1 NMatS0=      1 NMatT0=    0 NMatD0=    1 NMtDS0=    0 NMtDT0=    0
 Petite list used in FoFCou.
 Requested convergence on RMS density matrix=1.00D-08 within 128 cycles.
 Requested convergence on MAX density matrix=1.00D-06.
 Requested convergence on             energy=1.00D-06.
 No special actions if energy rises.
 Inv3:  Mode=1 IEnd=    33868800.
 Iteration    1 A*A^-1 deviation from unit magnitude is 4.66D-15 for   3356.
 Iteration    1 A*A^-1 deviation from orthogonality  is 2.25D-15 for   1443   1366.
 Iteration    1 A^-1*A deviation from unit magnitude is 4.88D-15 for   3356.
 Iteration    1 A^-1*A deviation from orthogonality  is 2.13D-15 for   2030   1961.
 Error on total polarization charges =  0.02451
 SCF Done:  E(RM062X) =  -1638.32547255     A.U. after   15 cycles
            NFock= 15  Conv=0.64D-08     -V/T= 2.0074
 SMD-CDS (non-electrostatic) energy       (kcal/mol) =      -6.00
 (included in total energy above)

 **********************************************************************

            Population analysis using the SCF density.

 **********************************************************************

 Orbital symmetries:
       Occupied  (A) (A) (A) (A) (A) (A) (A) (A) (A) (A) (A) (A)
                 (A) (A) (A) (A) (A) (A) (A) (A) (A) (A) (A) (A)
                 (A) (A) (A) (A) (A) (A) (A) (A) (A) (A) (A) (A)
                 (A) (A) (A) (A) (A) (A) (A) (A) (A) (A) (A) (A)
                 (A) (A) (A) (A) (A) (A) (A) (A) (A) (A) (A) (A)
                 (A) (A) (A) (A) (A) (A) (A) (A) (A) (A) (A) (A)
                 (A) (A) (A) (A) (A) (A) (A) (A) (A) (A) (A) (A)
                 (A) (A) (A) (A) (A) (A) (A) (A)
       Virtual   (A) (A) (A) (A) (A) (A) (A) (A) (A) (A) (A) (A)
                 (A) (A) (A) (A) (A) (A) (A) (A) (A) (A) (A) (A)
                 (A) (A) (A) (A) (A) (A) (A) (A) (A) (A) (A) (A)
                 (A) (A) (A) (A) (A) (A) (A) (A) (A) (A) (A) (A)
                 (A) (A) (A) (A) (A) (A) (A) (A) (A) (A) (A) (A)
                 (A) (A) (A) (A) (A) (A) (A) (A) (A) (A) (A) (A)
                 (A) (A) (A) (A) (A) (A) (A) (A) (A) (A) (A) (A)
                 (A) (A) (A) (A) (A) (A) (A) (A) (A) (A) (A) (A)
                 (A) (A) (A) (A) (A) (A) (A) (A) (A) (A) (A) (A)
                 (A) (A) (A) (A) (A) (A) (A) (A) (A) (A) (A) (A)
                 (A) (A) (A) (A) (A) (A) (A) (A) (A) (A) (A) (A)
                 (A) (A) (A) (A) (A) (A) (A) (A) (A) (A) (A) (A)
                 (A) (A) (A) (A) (A) (A) (A) (A) (A) (A) (A) (A)
                 (A) (A) (A) (A) (A) (A) (A) (A) (A) (A) (A) (A)
                 (A) (A) (A) (A) (A) (A) (A) (A) (A) (A) (A) (A)
                 (A) (A) (A) (A) (A) (A) (A) (A) (A) (A) (A) (A)
                 (A) (A) (A) (A) (A) (A) (A) (A) (A) (A) (A) (A)
                 (A) (A) (A) (A) (A) (A) (A) (A) (A) (A) (A) (A)
                 (A) (A) (A) (A) (A) (A) (A) (A) (A) (A) (A) (A)
                 (A) (A) (A) (A) (A) (A) (A) (A) (A) (A) (A) (A)
                 (A) (A) (A) (A) (A) (A) (A) (A) (A) (A) (A) (A)
                 (A) (A) (A) (A) (A) (A) (A) (A) (A) (A) (A) (A)
                 (A) (A) (A) (A) (A) (A) (A) (A) (A) (A) (A) (A)
                 (A) (A) (A) (A) (A) (A) (A) (A) (A) (A) (A) (A)
                 (A) (A) (A) (A) (A) (A) (A) (A) (A) (A) (A) (A)
                 (A) (A) (A) (A) (A) (A) (A) (A) (A) (A) (A) (A)
                 (A) (A) (A) (A) (A) (A) (A) (A) (A) (A) (A) (A)
                 (A) (A) (A) (A) (A) (A) (A) (A) (A) (A) (A) (A)
                 (A) (A) (A) (A) (A) (A) (A) (A) (A) (A) (A) (A)
                 (A) (A) (A) (A) (A) (A) (A) (A) (A) (A) (A) (A)
                 (A) (A) (A) (A) (A) (A) (A) (A) (A) (A) (A) (A)
                 (A) (A) (A) (A) (A) (A) (A) (A) (A)
 The electronic state is 1-A.
 Alpha  occ. eigenvalues -- -102.63799 -25.27414 -25.26834 -25.26820 -19.54329
 Alpha  occ. eigenvalues --  -19.52241 -19.49751 -14.74317 -14.71934 -10.78836
 Alpha  occ. eigenvalues --  -10.61979 -10.58187 -10.57901 -10.56271 -10.55199
 Alpha  occ. eigenvalues --  -10.53217 -10.53104 -10.52918 -10.51532 -10.50065
 Alpha  occ. eigenvalues --  -10.50024 -10.48392 -10.48267  -9.78434  -7.50834
 Alpha  occ. eigenvalues --   -7.50181  -7.50166  -1.40980  -1.33360  -1.33049
 Alpha  occ. eigenvalues --   -1.11815  -1.07433  -0.98080  -0.95806  -0.94498
 Alpha  occ. eigenvalues --   -0.94151  -0.90586  -0.84129  -0.82531  -0.80103
 Alpha  occ. eigenvalues --   -0.79641  -0.76720  -0.72449  -0.68381  -0.66652
 Alpha  occ. eigenvalues --   -0.65908  -0.64525  -0.64127  -0.62289  -0.61204
 Alpha  occ. eigenvalues --   -0.57890  -0.55624  -0.54235  -0.53328  -0.53097
 Alpha  occ. eigenvalues --   -0.52152  -0.51112  -0.50265  -0.50140  -0.49833
 Alpha  occ. eigenvalues --   -0.48221  -0.48040  -0.47637  -0.46585  -0.46395
 Alpha  occ. eigenvalues --   -0.46100  -0.44955  -0.44492  -0.43295  -0.43206
 Alpha  occ. eigenvalues --   -0.41570  -0.40889  -0.40594  -0.39859  -0.38794
 Alpha  occ. eigenvalues --   -0.38138  -0.37478  -0.37251  -0.37087  -0.35114
 Alpha  occ. eigenvalues --   -0.34923  -0.34681  -0.34429  -0.33656  -0.32098
 Alpha  occ. eigenvalues --   -0.27763  -0.26961  -0.25384  -0.24382  -0.22789
 Alpha  occ. eigenvalues --   -0.22283  -0.21804
 Alpha virt. eigenvalues --    0.03811   0.05291   0.05341   0.06718   0.06770
 Alpha virt. eigenvalues --    0.07466   0.07953   0.08424   0.08553   0.08630
 Alpha virt. eigenvalues --    0.09285   0.09417   0.09832   0.10307   0.10903
 Alpha virt. eigenvalues --    0.10966   0.11252   0.11791   0.11890   0.12384
 Alpha virt. eigenvalues --    0.12504   0.13490   0.13910   0.14240   0.14496
 Alpha virt. eigenvalues --    0.14695   0.15083   0.15221   0.15530   0.15862
 Alpha virt. eigenvalues --    0.16128   0.16771   0.17011   0.17452   0.17573
 Alpha virt. eigenvalues --    0.17852   0.18034   0.18413   0.19104   0.19504
 Alpha virt. eigenvalues --    0.19655   0.19715   0.19848   0.20594   0.21334
 Alpha virt. eigenvalues --    0.22240   0.22360   0.22446   0.23101   0.23352
 Alpha virt. eigenvalues --    0.23585   0.23889   0.24659   0.25344   0.25540
 Alpha virt. eigenvalues --    0.25655   0.26130   0.26476   0.26769   0.27473
 Alpha virt. eigenvalues --    0.27961   0.28229   0.28686   0.28863   0.29155
 Alpha virt. eigenvalues --    0.29203   0.29665   0.29832   0.30328   0.30499
 Alpha virt. eigenvalues --    0.31058   0.31697   0.32208   0.32575   0.32850
 Alpha virt. eigenvalues --    0.33134   0.33399   0.33900   0.34306   0.34586
 Alpha virt. eigenvalues --    0.34648   0.34851   0.35352   0.35943   0.36303
 Alpha virt. eigenvalues --    0.36667   0.36993   0.37359   0.37424   0.37969
 Alpha virt. eigenvalues --    0.38325   0.38609   0.38681   0.39102   0.39323
 Alpha virt. eigenvalues --    0.39963   0.40558   0.40825   0.41246   0.41647
 Alpha virt. eigenvalues --    0.41963   0.42240   0.42758   0.43484   0.43636
 Alpha virt. eigenvalues --    0.44230   0.44434   0.44705   0.44989   0.45976
 Alpha virt. eigenvalues --    0.46309   0.47461   0.47981   0.48717   0.49275
 Alpha virt. eigenvalues --    0.49362   0.49542   0.50783   0.51779   0.52517
 Alpha virt. eigenvalues --    0.52816   0.54067   0.54800   0.56931   0.57890
 Alpha virt. eigenvalues --    0.58743   0.59194   0.60479   0.61336   0.61840
 Alpha virt. eigenvalues --    0.64404   0.65258   0.67026   0.67157   0.69029
 Alpha virt. eigenvalues --    0.73211   0.74207   0.74597   0.75241   0.75629
 Alpha virt. eigenvalues --    0.76154   0.76237   0.77765   0.78013   0.79358
 Alpha virt. eigenvalues --    0.80238   0.80583   0.80667   0.81431   0.81569
 Alpha virt. eigenvalues --    0.82333   0.83272   0.83986   0.84885   0.85732
 Alpha virt. eigenvalues --    0.86490   0.86916   0.87166   0.87970   0.89069
 Alpha virt. eigenvalues --    0.89549   0.91597   0.92111   0.93708   0.93905
 Alpha virt. eigenvalues --    0.94419   0.95224   0.95351   0.97308   0.97967
 Alpha virt. eigenvalues --    0.99357   1.00689   1.01646   1.02758   1.03257
 Alpha virt. eigenvalues --    1.04316   1.04354   1.05020   1.05135   1.05389
 Alpha virt. eigenvalues --    1.06615   1.08058   1.09712   1.11460   1.11550
 Alpha virt. eigenvalues --    1.11840   1.12353   1.13818   1.14158   1.16531
 Alpha virt. eigenvalues --    1.16768   1.18165   1.19193   1.20415   1.21000
 Alpha virt. eigenvalues --    1.21159   1.22142   1.24174   1.24295   1.25432
 Alpha virt. eigenvalues --    1.25586   1.26074   1.26660   1.27889   1.28518
 Alpha virt. eigenvalues --    1.29663   1.31903   1.33031   1.34733   1.35711
 Alpha virt. eigenvalues --    1.37533   1.37683   1.37984   1.39214   1.41775
 Alpha virt. eigenvalues --    1.41964   1.44788   1.45418   1.45960   1.46367
 Alpha virt. eigenvalues --    1.48136   1.50257   1.51432   1.51649   1.51937
 Alpha virt. eigenvalues --    1.53100   1.54309   1.55040   1.55724   1.56651
 Alpha virt. eigenvalues --    1.56962   1.59530   1.61178   1.61752   1.61941
 Alpha virt. eigenvalues --    1.62806   1.64689   1.65122   1.66807   1.68507
 Alpha virt. eigenvalues --    1.69030   1.69895   1.71843   1.72220   1.72979
 Alpha virt. eigenvalues --    1.73440   1.75796   1.77694   1.77822   1.78812
 Alpha virt. eigenvalues --    1.79079   1.79757   1.81165   1.82352   1.82704
 Alpha virt. eigenvalues --    1.84699   1.87561   1.89036   1.90853   1.91389
 Alpha virt. eigenvalues --    1.91414   1.91933   1.91947   1.93093   1.93225
 Alpha virt. eigenvalues --    1.94367   1.94581   1.94956   1.95004   1.95218
 Alpha virt. eigenvalues --    1.97233   1.97968   1.99564   2.00690   2.01217
 Alpha virt. eigenvalues --    2.02678   2.03311   2.04001   2.04149   2.04940
 Alpha virt. eigenvalues --    2.06545   2.07690   2.08497   2.08803   2.08999
 Alpha virt. eigenvalues --    2.10016   2.11078   2.11159   2.11801   2.12022
 Alpha virt. eigenvalues --    2.13011   2.13519   2.14809   2.17340   2.17843
 Alpha virt. eigenvalues --    2.17939   2.19400   2.21013   2.21935   2.22133
 Alpha virt. eigenvalues --    2.24259   2.24848   2.25995   2.26554   2.29299
 Alpha virt. eigenvalues --    2.31067   2.32415   2.32987   2.33235   2.35294
 Alpha virt. eigenvalues --    2.36452   2.37264   2.37790   2.41120   2.41985
 Alpha virt. eigenvalues --    2.43247   2.43373   2.43581   2.44916   2.45520
 Alpha virt. eigenvalues --    2.47440   2.51059   2.54191   2.55100   2.62711
 Alpha virt. eigenvalues --    2.62798   2.63708   2.65596   2.68241   2.69137
 Alpha virt. eigenvalues --    2.69306   2.71611   2.74878   2.77655   2.79402
 Alpha virt. eigenvalues --    2.79685   2.79905   2.80980   2.81029   2.85245
 Alpha virt. eigenvalues --    2.87092   2.88988   2.90547   2.95388   2.98082
 Alpha virt. eigenvalues --    3.03871   3.06996   3.11721   3.16503   3.17553
 Alpha virt. eigenvalues --    3.18061   3.24478   3.27280   3.29711   3.31659
 Alpha virt. eigenvalues --    3.34128   3.35332   3.46044   4.26171   4.29385
 Alpha virt. eigenvalues --    4.31934   4.34146   4.36170   4.39800   4.43096
 Alpha virt. eigenvalues --    4.45163   4.47400   4.49837   4.50783   4.54054
 Alpha virt. eigenvalues --    4.54902   4.59665   4.63882   4.65434   4.70543
 Alpha virt. eigenvalues --    4.77849   4.82086   4.84939   5.49811   6.02288
 Alpha virt. eigenvalues --    6.83224
          Condensed to atoms (all electrons):
               1          2          3          4          5          6
     1  C   17.402682  -1.858089  -4.541007  -3.291890  -0.633710  -2.268555
     2  C   -1.858089  10.396177   2.640041  -2.682730  -1.657237  -0.808281
     3  C   -4.541007   2.640041  13.927495  -0.175320  -4.304994  -1.393880
     4  C   -3.291890  -2.682730  -0.175320  17.183699   0.472730  -3.150689
     5  C   -0.633710  -1.657237  -4.304994   0.472730  12.588526   1.287386
     6  C   -2.268555  -0.808281  -1.393880  -3.150689   1.287386  14.387890
     7  H    0.165812   0.062514   0.075037   0.019900  -0.038255   0.043250
     8  N   -0.031131   0.143328  -0.010831  -0.095620   0.033585   0.028463
     9  C   -0.321189  -0.322180  -0.507542  -0.100319   0.207338  -0.349884
    10  N   -0.019872  -0.009207  -0.051256  -0.026227  -0.081500  -0.024296
    11  O   -0.036334   0.133561   0.485450  -0.463840  -0.129026   0.009017
    12  C   -0.006842  -0.032764  -0.164621  -0.202352  -0.013075  -0.047978
    13  C    0.001541  -0.004212  -0.036262   0.025516   0.024369   0.004751
    14  C   -0.000059  -0.000752  -0.007008  -0.002307   0.000172  -0.000414
    15  H    0.067915  -0.000803   0.292585  -0.079028   0.011736  -0.029543
    16  H    0.058411  -0.008799  -0.037002  -0.258180   0.307263   0.164978
    17  H   -0.005958   0.004608   0.034885  -0.028759  -0.018134   0.017570
    18  H    0.000068  -0.000782  -0.004047   0.004621   0.009272   0.001117
    19  H    0.000006  -0.000258  -0.003259  -0.000274   0.000315  -0.000041
    20  H    0.000045   0.000201  -0.000298  -0.001619   0.000218  -0.000015
    21  H    0.000002   0.000010  -0.000014  -0.000721   0.000062  -0.000006
    22  H    0.000002   0.000008  -0.000038  -0.000627   0.000062  -0.000006
    23  H    0.000000   0.000001  -0.000019   0.000004   0.000001  -0.000000
    24  H    0.000000   0.000000  -0.000001  -0.000036  -0.000001  -0.000000
    25  H    0.000000   0.000000  -0.000038   0.000014   0.000002  -0.000000
    26  Cl  -0.025695  -0.195478   0.014611  -0.026038   0.023486  -0.011094
    27  C    2.401674  -0.191907  -0.517545  -1.891382  -1.464900  -0.809679
    28  F   -0.087679   0.031343   0.020666   0.024704  -0.050837   0.038193
    29  F   -0.145117   0.136705   0.025635   0.019497   0.046585  -0.041556
    30  F   -0.089267   0.032346   0.019926   0.025986  -0.056742   0.046873
    31  O   -0.001251   0.000177  -0.012836  -0.191750   0.149178   0.045555
    32  O    0.000211  -0.000904  -0.009800  -0.021132   0.019978   0.002261
    33  C    0.001572  -0.001267  -0.005408   0.015357  -0.020676   0.000981
    34  C   -0.001419  -0.000629  -0.003639   0.008810  -0.005309  -0.002902
    35  C    0.000155  -0.000082  -0.001200  -0.004785   0.003330   0.000818
    36  H    0.000004  -0.000001  -0.000035  -0.000388   0.000353   0.000075
    37  H    0.000002  -0.000000  -0.000024  -0.000239   0.000236   0.000054
    38  H    0.000000   0.000000   0.000001  -0.000014   0.000022   0.000002
    39  H   -0.000000   0.000000   0.000000   0.000010  -0.000007  -0.000000
    40  H    0.000000  -0.000000  -0.000001  -0.000029   0.000034   0.000002
               7          8          9         10         11         12
     1  C    0.165812  -0.031131  -0.321189  -0.019872  -0.036334  -0.006842
     2  C    0.062514   0.143328  -0.322180  -0.009207   0.133561  -0.032764
     3  C    0.075037  -0.010831  -0.507542  -0.051256   0.485450  -0.164621
     4  C    0.019900  -0.095620  -0.100319  -0.026227  -0.463840  -0.202352
     5  C   -0.038255   0.033585   0.207338  -0.081500  -0.129026  -0.013075
     6  C    0.043250   0.028463  -0.349884  -0.024296   0.009017  -0.047978
     7  H    0.457109   0.000103   0.000805   0.000001   0.000017   0.000003
     8  N    0.000103   7.800479   0.254475  -0.333546  -0.051015  -0.186694
     9  C    0.000805   0.254475   6.444117   0.447546   0.602324  -0.885232
    10  N    0.000001  -0.333546   0.447546   7.679986  -0.186297   0.320435
    11  O    0.000017  -0.051015   0.602324  -0.186297   8.353725  -0.119331
    12  C    0.000003  -0.186694  -0.885232   0.320435  -0.119331   7.266027
    13  C    0.000000   0.019363   0.205335  -0.066453   0.027612  -0.551034
    14  C    0.000000  -0.004296  -0.052161  -0.009497  -0.000803   0.024815
    15  H   -0.000124  -0.019341   0.044099   0.001568  -0.010307   0.005713
    16  H   -0.000116  -0.003833  -0.026279  -0.000055   0.000032  -0.000795
    17  H   -0.000000   0.156728  -0.033523   0.029211   0.003023   0.009300
    18  H   -0.000000   0.028824   0.030087   0.180173   0.004700  -0.061217
    19  H    0.000000  -0.000931  -0.036813  -0.054776   0.000551   0.460302
    20  H   -0.000000   0.000579  -0.024015  -0.056658   0.000787   0.444311
    21  H    0.000000  -0.000167  -0.006335   0.005188  -0.000179  -0.070609
    22  H    0.000000  -0.000112  -0.004762   0.005297  -0.000158  -0.075825
    23  H    0.000000   0.000012   0.000479   0.000038  -0.000036  -0.010477
    24  H    0.000000   0.000007  -0.002278   0.000291   0.000005   0.028922
    25  H    0.000000   0.000007  -0.000222   0.000101  -0.000047  -0.007345
    26  Cl  -0.002767   0.000808   0.018959   0.001548  -0.002045   0.002635
    27  C   -0.031889  -0.032601  -0.172545  -0.005016   0.000646  -0.006454
    28  F   -0.000173   0.000347  -0.001330   0.000008   0.000001  -0.000010
    29  F    0.007251   0.000107  -0.000359   0.000001   0.000001  -0.000003
    30  F   -0.000177   0.000378  -0.000916   0.000010   0.000002  -0.000005
    31  O    0.000000  -0.014916  -0.001200   0.007065  -0.000554   0.015306
    32  O    0.000000   0.010900   0.007531  -0.016147   0.000168  -0.017222
    33  C   -0.000000  -0.008577  -0.003447  -0.005711  -0.000854   0.011366
    34  C   -0.000000  -0.016497  -0.024774  -0.012482  -0.000541   0.021906
    35  C   -0.000000   0.002651   0.003246   0.002681   0.000049  -0.005584
    36  H   -0.000000   0.000003  -0.000139   0.000016  -0.000000   0.000019
    37  H   -0.000000  -0.000034  -0.000101   0.000018  -0.000000   0.000014
    38  H    0.000000  -0.000001   0.000032  -0.000015  -0.000000  -0.000132
    39  H    0.000000  -0.000002   0.000010   0.000006   0.000000   0.000006
    40  H    0.000000   0.000004  -0.000002  -0.000018  -0.000000  -0.000109
              13         14         15         16         17         18
     1  C    0.001541  -0.000059   0.067915   0.058411  -0.005958   0.000068
     2  C   -0.004212  -0.000752  -0.000803  -0.008799   0.004608  -0.000782
     3  C   -0.036262  -0.007008   0.292585  -0.037002   0.034885  -0.004047
     4  C    0.025516  -0.002307  -0.079028  -0.258180  -0.028759   0.004621
     5  C    0.024369   0.000172   0.011736   0.307263  -0.018134   0.009272
     6  C    0.004751  -0.000414  -0.029543   0.164978   0.017570   0.001117
     7  H    0.000000   0.000000  -0.000124  -0.000116  -0.000000  -0.000000
     8  N    0.019363  -0.004296  -0.019341  -0.003833   0.156728   0.028824
     9  C    0.205335  -0.052161   0.044099  -0.026279  -0.033523   0.030087
    10  N   -0.066453  -0.009497   0.001568  -0.000055   0.029211   0.180173
    11  O    0.027612  -0.000803  -0.010307   0.000032   0.003023   0.004700
    12  C   -0.551034   0.024815   0.005713  -0.000795   0.009300  -0.061217
    13  C    6.377452  -0.178631  -0.000012   0.000018  -0.001221   0.001996
    14  C   -0.178631   5.807492   0.000037  -0.000002   0.000025  -0.001573
    15  H   -0.000012   0.000037   0.403590  -0.000081  -0.000090  -0.000000
    16  H    0.000018  -0.000002  -0.000081   0.430503   0.002663   0.000001
    17  H   -0.001221   0.000025  -0.000090   0.002663   0.256411   0.004380
    18  H    0.001996  -0.001573  -0.000000   0.000001   0.004380   0.259215
    19  H   -0.055297  -0.005025  -0.000003   0.000000   0.000005   0.001735
    20  H   -0.052140  -0.007065  -0.000003   0.000000   0.000003   0.001710
    21  H    0.417978  -0.031803  -0.000000  -0.000000   0.000002   0.000660
    22  H    0.421487  -0.030439  -0.000000  -0.000000   0.000002   0.000657
    23  H   -0.068928   0.422628  -0.000000  -0.000000  -0.000000   0.000000
    24  H   -0.125028   0.448915   0.000000  -0.000000  -0.000000  -0.000001
    25  H   -0.069074   0.420448  -0.000000  -0.000000  -0.000000  -0.000000
    26  Cl  -0.000075   0.000018   0.008695   0.000103   0.000002   0.000000
    27  C    0.000191  -0.000037   0.001231   0.097409   0.004677   0.000041
    28  F   -0.000000   0.000000   0.000001   0.001377   0.000009   0.000000
    29  F    0.000000  -0.000000  -0.000001   0.000400   0.000000  -0.000000
    30  F   -0.000000   0.000000   0.000001   0.001314   0.000009   0.000000
    31  O   -0.004626  -0.000388   0.000002  -0.001928   0.058547   0.002728
    32  O    0.012555   0.004181   0.000001  -0.000006  -0.001622   0.042365
    33  C   -0.010069  -0.003586  -0.000038   0.000248  -0.004144  -0.006985
    34  C   -0.003512   0.002212  -0.000003   0.000443   0.008611   0.006038
    35  C    0.003352   0.000336   0.000000  -0.000012  -0.001173  -0.001053
    36  H    0.000001   0.000001   0.000000  -0.000000  -0.000002  -0.000007
    37  H   -0.000001  -0.000001   0.000000  -0.000000  -0.000001  -0.000006
    38  H   -0.000021  -0.000019  -0.000000   0.000000   0.000000  -0.000002
    39  H   -0.000009  -0.000003   0.000000   0.000000   0.000000   0.000000
    40  H   -0.000033  -0.000004  -0.000000   0.000000   0.000000  -0.000002
              19         20         21         22         23         24
     1  C    0.000006   0.000045   0.000002   0.000002   0.000000   0.000000
     2  C   -0.000258   0.000201   0.000010   0.000008   0.000001   0.000000
     3  C   -0.003259  -0.000298  -0.000014  -0.000038  -0.000019  -0.000001
     4  C   -0.000274  -0.001619  -0.000721  -0.000627   0.000004  -0.000036
     5  C    0.000315   0.000218   0.000062   0.000062   0.000001  -0.000001
     6  C   -0.000041  -0.000015  -0.000006  -0.000006  -0.000000  -0.000000
     7  H    0.000000  -0.000000   0.000000   0.000000   0.000000   0.000000
     8  N   -0.000931   0.000579  -0.000167  -0.000112   0.000012   0.000007
     9  C   -0.036813  -0.024015  -0.006335  -0.004762   0.000479  -0.002278
    10  N   -0.054776  -0.056658   0.005188   0.005297   0.000038   0.000291
    11  O    0.000551   0.000787  -0.000179  -0.000158  -0.000036   0.000005
    12  C    0.460302   0.444311  -0.070609  -0.075825  -0.010477   0.028922
    13  C   -0.055297  -0.052140   0.417978   0.421487  -0.068928  -0.125028
    14  C   -0.005025  -0.007065  -0.031803  -0.030439   0.422628   0.448915
    15  H   -0.000003  -0.000003  -0.000000  -0.000000  -0.000000   0.000000
    16  H    0.000000   0.000000  -0.000000  -0.000000  -0.000000  -0.000000
    17  H    0.000005   0.000003   0.000002   0.000002  -0.000000  -0.000000
    18  H    0.001735   0.001710   0.000660   0.000657   0.000000  -0.000001
    19  H    0.519852  -0.042422   0.003988  -0.005343  -0.000332  -0.000065
    20  H   -0.042422   0.522048  -0.005452   0.003976   0.003031  -0.000065
    21  H    0.003988  -0.005452   0.490837  -0.028776  -0.004677  -0.003252
    22  H   -0.005343   0.003976  -0.028776   0.485870   0.003878  -0.003222
    23  H   -0.000332   0.003031  -0.004677   0.003878   0.503444  -0.025312
    24  H   -0.000065  -0.000065  -0.003252  -0.003222  -0.025312   0.498414
    25  H    0.002950  -0.000365   0.003913  -0.004631  -0.029808  -0.025166
    26  Cl  -0.000000  -0.000001  -0.000000  -0.000000  -0.000000   0.000000
    27  C   -0.000002   0.000001  -0.000000  -0.000000  -0.000000  -0.000000
    28  F    0.000000   0.000000   0.000000  -0.000000  -0.000000   0.000000
    29  F   -0.000000  -0.000000  -0.000000  -0.000000  -0.000000  -0.000000
    30  F   -0.000000   0.000000  -0.000000   0.000000   0.000000   0.000000
    31  O   -0.000005  -0.000002   0.000013   0.000009   0.000000  -0.000000
    32  O   -0.000040  -0.000021  -0.001027  -0.001261  -0.000007  -0.000023
    33  C    0.000460   0.000237  -0.000109  -0.000311  -0.000015  -0.000050
    34  C    0.000099   0.000024   0.000279   0.000042  -0.000004   0.000020
    35  C   -0.000008   0.000004  -0.000071  -0.000011   0.000001   0.000000
    36  H    0.000000  -0.000000  -0.000000   0.000000   0.000000  -0.000000
    37  H   -0.000000   0.000000   0.000000  -0.000000   0.000000  -0.000000
    38  H   -0.000000  -0.000000   0.000000  -0.000000  -0.000000   0.000000
    39  H    0.000000   0.000000  -0.000000  -0.000000   0.000000  -0.000000
    40  H    0.000000  -0.000000  -0.000000   0.000000  -0.000000   0.000000
              25         26         27         28         29         30
     1  C    0.000000  -0.025695   2.401674  -0.087679  -0.145117  -0.089267
     2  C    0.000000  -0.195478  -0.191907   0.031343   0.136705   0.032346
     3  C   -0.000038   0.014611  -0.517545   0.020666   0.025635   0.019926
     4  C    0.000014  -0.026038  -1.891382   0.024704   0.019497   0.025986
     5  C    0.000002   0.023486  -1.464900  -0.050837   0.046585  -0.056742
     6  C   -0.000000  -0.011094  -0.809679   0.038193  -0.041556   0.046873
     7  H    0.000000  -0.002767  -0.031889  -0.000173   0.007251  -0.000177
     8  N    0.000007   0.000808  -0.032601   0.000347   0.000107   0.000378
     9  C   -0.000222   0.018959  -0.172545  -0.001330  -0.000359  -0.000916
    10  N    0.000101   0.001548  -0.005016   0.000008   0.000001   0.000010
    11  O   -0.000047  -0.002045   0.000646   0.000001   0.000001   0.000002
    12  C   -0.007345   0.002635  -0.006454  -0.000010  -0.000003  -0.000005
    13  C   -0.069074  -0.000075   0.000191  -0.000000   0.000000  -0.000000
    14  C    0.420448   0.000018  -0.000037   0.000000  -0.000000   0.000000
    15  H   -0.000000   0.008695   0.001231   0.000001  -0.000001   0.000001
    16  H   -0.000000   0.000103   0.097409   0.001377   0.000400   0.001314
    17  H   -0.000000   0.000002   0.004677   0.000009   0.000000   0.000009
    18  H   -0.000000   0.000000   0.000041   0.000000  -0.000000   0.000000
    19  H    0.002950  -0.000000  -0.000002   0.000000  -0.000000  -0.000000
    20  H   -0.000365  -0.000001   0.000001   0.000000  -0.000000   0.000000
    21  H    0.003913  -0.000000  -0.000000   0.000000  -0.000000  -0.000000
    22  H   -0.004631  -0.000000  -0.000000  -0.000000  -0.000000   0.000000
    23  H   -0.029808  -0.000000  -0.000000  -0.000000  -0.000000   0.000000
    24  H   -0.025166   0.000000  -0.000000   0.000000  -0.000000   0.000000
    25  H    0.502700  -0.000000  -0.000000   0.000000  -0.000000  -0.000000
    26  Cl  -0.000000  17.045215  -0.024579  -0.000339  -0.001262  -0.000343
    27  C   -0.000000  -0.024579   7.094787   0.157172   0.067848   0.154381
    28  F    0.000000  -0.000339   0.157172   9.227345  -0.035497  -0.050844
    29  F   -0.000000  -0.001262   0.067848  -0.035497   9.292923  -0.035618
    30  F   -0.000000  -0.000343   0.154381  -0.050844  -0.035618   9.226737
    31  O    0.000000   0.000021   0.002256   0.000022   0.000001   0.000008
    32  O   -0.000004  -0.000000   0.000018   0.000000  -0.000000  -0.000000
    33  C    0.000001  -0.000025  -0.001186   0.000081   0.000005   0.000077
    34  C   -0.000000  -0.000007  -0.000413  -0.000018  -0.000001  -0.000015
    35  C    0.000000   0.000000  -0.000059  -0.000001  -0.000000  -0.000001
    36  H    0.000000   0.000000  -0.000002   0.000000  -0.000000  -0.000000
    37  H    0.000000  -0.000000  -0.000000  -0.000000   0.000000   0.000000
    38  H   -0.000000   0.000000   0.000000   0.000000   0.000000   0.000000
    39  H    0.000000   0.000000  -0.000000   0.000000  -0.000000   0.000000
    40  H   -0.000000   0.000000   0.000000   0.000000   0.000000   0.000000
              31         32         33         34         35         36
     1  C   -0.001251   0.000211   0.001572  -0.001419   0.000155   0.000004
     2  C    0.000177  -0.000904  -0.001267  -0.000629  -0.000082  -0.000001
     3  C   -0.012836  -0.009800  -0.005408  -0.003639  -0.001200  -0.000035
     4  C   -0.191750  -0.021132   0.015357   0.008810  -0.004785  -0.000388
     5  C    0.149178   0.019978  -0.020676  -0.005309   0.003330   0.000353
     6  C    0.045555   0.002261   0.000981  -0.002902   0.000818   0.000075
     7  H    0.000000   0.000000  -0.000000  -0.000000  -0.000000  -0.000000
     8  N   -0.014916   0.010900  -0.008577  -0.016497   0.002651   0.000003
     9  C   -0.001200   0.007531  -0.003447  -0.024774   0.003246  -0.000139
    10  N    0.007065  -0.016147  -0.005711  -0.012482   0.002681   0.000016
    11  O   -0.000554   0.000168  -0.000854  -0.000541   0.000049  -0.000000
    12  C    0.015306  -0.017222   0.011366   0.021906  -0.005584   0.000019
    13  C   -0.004626   0.012555  -0.010069  -0.003512   0.003352   0.000001
    14  C   -0.000388   0.004181  -0.003586   0.002212   0.000336   0.000001
    15  H    0.000002   0.000001  -0.000038  -0.000003   0.000000   0.000000
    16  H   -0.001928  -0.000006   0.000248   0.000443  -0.000012  -0.000000
    17  H    0.058547  -0.001622  -0.004144   0.008611  -0.001173  -0.000002
    18  H    0.002728   0.042365  -0.006985   0.006038  -0.001053  -0.000007
    19  H   -0.000005  -0.000040   0.000460   0.000099  -0.000008   0.000000
    20  H   -0.000002  -0.000021   0.000237   0.000024   0.000004  -0.000000
    21  H    0.000013  -0.001027  -0.000109   0.000279  -0.000071  -0.000000
    22  H    0.000009  -0.001261  -0.000311   0.000042  -0.000011   0.000000
    23  H    0.000000  -0.000007  -0.000015  -0.000004   0.000001   0.000000
    24  H   -0.000000  -0.000023  -0.000050   0.000020   0.000000  -0.000000
    25  H    0.000000  -0.000004   0.000001  -0.000000   0.000000   0.000000
    26  Cl   0.000021  -0.000000  -0.000025  -0.000007   0.000000   0.000000
    27  C    0.002256   0.000018  -0.001186  -0.000413  -0.000059  -0.000002
    28  F    0.000022   0.000000   0.000081  -0.000018  -0.000001   0.000000
    29  F    0.000001  -0.000000   0.000005  -0.000001  -0.000000  -0.000000
    30  F    0.000008  -0.000000   0.000077  -0.000015  -0.000001  -0.000000
    31  O    8.644536  -0.192966   0.453655  -0.238255   0.027015  -0.001639
    32  O   -0.192966   8.548295   0.343181  -0.161922   0.051302   0.000934
    33  C    0.453655   0.343181   5.459131  -0.680451  -0.023481  -0.060879
    34  C   -0.238255  -0.161922  -0.680451   7.123510  -0.224236   0.426158
    35  C    0.027015   0.051302  -0.023481  -0.224236   5.757916  -0.049897
    36  H   -0.001639   0.000934  -0.060879   0.426158  -0.049897   0.491610
    37  H   -0.001661   0.001058  -0.058728   0.423478  -0.049522  -0.023711
    38  H   -0.000040  -0.004744  -0.003217  -0.052908   0.409409  -0.003967
    39  H   -0.000173   0.002034   0.030802  -0.082813   0.390868  -0.002403
    40  H   -0.000023  -0.004772  -0.006381  -0.049339   0.409051   0.003647
              37         38         39         40
     1  C    0.000002   0.000000  -0.000000   0.000000
     2  C   -0.000000   0.000000   0.000000  -0.000000
     3  C   -0.000024   0.000001   0.000000  -0.000001
     4  C   -0.000239  -0.000014   0.000010  -0.000029
     5  C    0.000236   0.000022  -0.000007   0.000034
     6  C    0.000054   0.000002  -0.000000   0.000002
     7  H   -0.000000   0.000000   0.000000   0.000000
     8  N   -0.000034  -0.000001  -0.000002   0.000004
     9  C   -0.000101   0.000032   0.000010  -0.000002
    10  N    0.000018  -0.000015   0.000006  -0.000018
    11  O   -0.000000  -0.000000   0.000000  -0.000000
    12  C    0.000014  -0.000132   0.000006  -0.000109
    13  C   -0.000001  -0.000021  -0.000009  -0.000033
    14  C   -0.000001  -0.000019  -0.000003  -0.000004
    15  H    0.000000  -0.000000   0.000000  -0.000000
    16  H   -0.000000   0.000000   0.000000   0.000000
    17  H   -0.000001   0.000000   0.000000   0.000000
    18  H   -0.000006  -0.000002   0.000000  -0.000002
    19  H   -0.000000  -0.000000   0.000000   0.000000
    20  H    0.000000  -0.000000   0.000000  -0.000000
    21  H    0.000000   0.000000  -0.000000  -0.000000
    22  H   -0.000000  -0.000000  -0.000000   0.000000
    23  H    0.000000  -0.000000   0.000000  -0.000000
    24  H   -0.000000   0.000000  -0.000000   0.000000
    25  H    0.000000  -0.000000   0.000000  -0.000000
    26  Cl  -0.000000   0.000000   0.000000   0.000000
    27  C   -0.000000   0.000000  -0.000000   0.000000
    28  F   -0.000000   0.000000   0.000000   0.000000
    29  F    0.000000   0.000000  -0.000000   0.000000
    30  F    0.000000   0.000000   0.000000   0.000000
    31  O   -0.001661  -0.000040  -0.000173  -0.000023
    32  O    0.001058  -0.004744   0.002034  -0.004772
    33  C   -0.058728  -0.003217   0.030802  -0.006381
    34  C    0.423478  -0.052908  -0.082813  -0.049339
    35  C   -0.049522   0.409409   0.390868   0.409051
    36  H   -0.023711  -0.003967  -0.002403   0.003647
    37  H    0.491317   0.003652  -0.002430  -0.003986
    38  H    0.003652   0.492474  -0.028790  -0.024064
    39  H   -0.002430  -0.028790   0.538035  -0.028748
    40  H   -0.003986  -0.024064  -0.028748   0.492387
 Mulliken charges:
               1
     1  C   -0.735045
     2  C    0.195340
     3  C    0.251594
     4  C    0.895444
     5  C   -0.711838
     6  C   -1.140418
     7  H    0.241697
     8  N   -0.671009
     9  C    0.611162
    10  N   -0.722162
    11  O   -0.620306
    12  C   -0.145371
    13  C   -0.316880
    14  C   -0.795409
    15  H    0.302203
    16  H    0.271921
    17  H    0.503954
    18  H    0.495287
    19  H    0.214632
    20  H    0.212966
    21  H    0.230267
    22  H    0.234231
    23  H    0.206099
    24  H    0.207924
    25  H    0.206564
    26  Cl   0.173646
    27  C    1.167864
    28  F   -0.274541
    29  F   -0.337547
    30  F   -0.274120
    31  O   -0.741883
    32  O   -0.613354
    33  C    0.588438
    34  C   -0.459539
    35  C   -0.701009
    36  H    0.220248
    37  H    0.220617
    38  H    0.212340
    39  H    0.183606
    40  H    0.212388
 Sum of Mulliken charges =  -1.00000
 Mulliken charges with hydrogens summed into heavy atoms:
               1
     1  C   -0.493348
     2  C    0.195340
     3  C    0.553798
     4  C    0.895444
     5  C   -0.439917
     6  C   -1.140418
     8  N   -0.167055
     9  C    0.611162
    10  N   -0.226875
    11  O   -0.620306
    12  C    0.282227
    13  C    0.147618
    14  C   -0.174823
    26  Cl   0.173646
    27  C    1.167864
    28  F   -0.274541
    29  F   -0.337547
    30  F   -0.274120
    31  O   -0.741883
    32  O   -0.613354
    33  C    0.588438
    34  C   -0.018674
    35  C   -0.092675
 Electronic spatial extent (au):  <R**2>=          12963.0046
 Charge=             -1.0000 electrons
 Dipole moment (field-independent basis, Debye):
[...]
 ,0.00008126,0.00002669,-0.00003446,0.00002221,-0.00000211,-0.00000209,
 -0.00000757,0.00001029,0.00000516,-0.00002443,0.00000193,-0.00000097,0
 .00000730,-0.00000414,0.00000371,-0.00000542,0.00000190,-0.00003036,-0
 .00001151,-0.00000852,-0.00002228,-0.00000777,0.00004124,0.00007761,-0
 .00009107,0.00000158,-0.00000051,-0.00000022,-0.00000224,-0.00000787,0
 .00000706,0.00000078,0.00000289,-0.00000793,-0.00000332,0.00000521,0.0
 0001752,-0.00000673,-0.00000504,0.00000538,0.00000544,0.00000015,-0.00
 000168,0.00000010,-0.00000026,-0.00000231,0.00000204,0.00000787,0.0000
 0031,-0.00000142,-0.00012169,-0.00003555,-0.00000145,0.00006323,0.0000
 2781,-0.00000973,0.00002655,0.00000015,0.00000492,0.00002999,0.0000037
 9,0.00066820,0.00014227,0.00058051,0.00135391,-0.00044860,-0.00033888,
 -0.00028488,0.00426977,0.00448151,-0.05970392,-0.09360484,-0.25138506,
 -0.00312715,-0.00511495,-0.01220572,0.06749936,0.10004858,0.27447338,0
 .00001650,0.00000390,0.00000211,-0.00001621,-0.00000119,-0.00000433,0.
 00001772,-0.00002680,-0.00000105,-0.00006473,0.00005045,-0.00001511,0.
 00002170,-0.00000981,-0.00000682,0.00000887,0.00000051,-0.00000212,-0.
 00000060,0.00000103,0.00000243,0.00014873,0.00003755,0.00006175,-0.000
 34339,0.00013149,-0.00009439,0.00002330,-0.00041628,0.00010989,0.00006
 984,-0.00011180,0.00002517,0.00003475,0.00000322,0.00002452,-0.0000078
 7,0.00001679,0.00000925,0.00000751,-0.00000481,0.00000096,-0.00000855,
 0.00000573,0.00000135,0.00000452,-0.00000862,0.00002409,-0.00003562,-0
 .00012858,-0.00008024,0.00013665,0.00054921,-0.00017269,-0.00000785,-0
 .00002006,-0.00000600,-0.00001090,-0.00001009,0.00000327,0.00001731,0.
 00000014,-0.00003148,0.00000128,0.00001427,0.00002308,-0.00000574,-0.0
 0000257,0.00000276,0.00000317,0.00000254,0.00000347,-0.00000703,-0.000
 01154,-0.00000687,0.00000161,0.00000571,-0.00000136,-0.00001591,-0.000
 02687,0.00006743,0.00000470,-0.00000410,-0.00001671,-0.00000320,0.0000
 0866,-0.00001276,0.00001214,0.00001964,-0.00003703,0.00204837,0.000941
 23,-0.00186875,-0.00018452,-0.00400734,-0.00049402,-0.01240493,0.00277
 592,0.00621377,-0.23293599,0.01212404,0.12382606,-0.01739486,0.0011051
 3,0.01167368,0.00740293,-0.00016553,-0.00460186,0.25428078,0.00001954,
 -0.00000585,0.00000660,-0.00001447,0.00000938,-0.00000687,0.00001936,-
 0.00003321,0.00000634,-0.00009704,0.00006578,-0.00004832,0.00004451,0.
 00000195,0.00000579,0.00000056,-0.00000165,-0.00000706,-0.00000014,0.0
 0000005,0.00000147,0.00012309,0.00003241,0.00009804,-0.00028981,0.0001
 8058,-0.00008717,-0.00003700,-0.00050499,0.00020163,0.00004444,-0.0001
 6781,0.00002635,0.00010615,0.00000671,0.00003827,-0.00001440,0.0000007
 6,-0.00002155,0.00000492,-0.00000477,0.00000884,-0.00000759,0.00000550
 ,-0.00000074,-0.00003996,0.00001183,0.00001006,0.00001786,0.00003042,-
 0.00015137,0.00025338,0.00075262,-0.00034689,-0.00001951,-0.00001491,-
 0.00000905,-0.00002580,-0.00001423,0.00000357,0.00002030,-0.00000057,-
 0.00000638,0.00001357,0.00000204,0.00002320,-0.00000678,-0.00000392,0.
 00000017,-0.00001161,0.00000327,-0.00000454,-0.00000512,-0.00000340,-0
 .00000177,0.00000193,-0.00000348,0.00000074,-0.00002115,-0.00002801,0.
 00007268,0.00000526,-0.00000525,-0.00001734,-0.00000124,0.00000791,-0.
 00001210,0.00001009,0.00002354,-0.00004162,0.00192272,-0.00113114,-0.0
 0252980,-0.00218610,-0.00620883,-0.00284780,-0.02647636,0.00443058,0.0
 2052657,0.01110564,-0.04594451,-0.00366860,0.01707925,-0.00187002,-0.0
 1118068,0.01209279,-0.00082240,-0.00789821,-0.01497569,0.05222807,-0.0
 0003221,0.00000698,-0.00001082,0.00002637,-0.00000750,0.00001066,-0.00
 003704,0.00003945,-0.00001940,0.00016825,-0.00009759,0.00006918,-0.000
 06292,-0.00000460,-0.00001199,-0.00000065,-0.00000930,0.00000961,0.000
 00121,0.00000132,-0.00000136,-0.00012828,0.00010588,-0.00005947,0.0001
 6026,-0.00012333,0.00006339,-0.00002567,0.00020657,-0.00005133,-0.0000
 1801,0.00010798,-0.00002377,-0.00004313,-0.00000771,-0.00001477,0.0000
 0418,-0.00001295,0.00000466,-0.00000565,0.00000620,-0.00000351,0.00000
 866,-0.00000770,0.00000230,0.00005480,0.00001856,-0.00001439,-0.000030
 44,-0.00015501,0.00003285,-0.00007846,-0.00027965,0.00004907,0.0000062
 9,0.00000922,0.00000693,0.00000919,0.00000574,-0.00000464,-0.00001130,
 0.00000636,0.00000669,-0.00000550,-0.00000003,-0.00001272,0.00000465,0
 .00000182,-0.00000255,0.00000439,-0.00000266,0.00000205,0.00000346,0.0
 0000377,0.00000404,-0.00000500,-0.00000085,-0.00000055,0.00005938,0.00
 018100,-0.00008703,-0.00001385,-0.00006032,0.00000553,0.00000513,-0.00
 004021,0.00001966,-0.00003192,-0.00007808,0.00006468,-0.00163354,0.001
 53881,-0.00001911,-0.00002546,0.00086024,-0.00007613,0.00365303,-0.003
 78752,-0.00239839,0.12221975,-0.00554103,-0.12598289,-0.01508995,0.000
 91869,0.00958694,0.02482265,-0.00063704,-0.01670668,-0.13199305,0.0058
 1941,0.13485839,0.00000520,0.00001413,-0.00000331,-0.00000946,-0.00001
 665,0.00000053,0.00000275,0.00000299,-0.00000230,0.00000746,0.00001280
 ,0.00000772,-0.00000676,-0.00001583,-0.00001351,0.00001218,-0.00000254
 ,0.00000142,-0.00000091,0.00000156,0.00000164,0.00006583,0.00010774,-0
 .00002846,-0.00010751,0.00000300,-0.00001237,0.00004024,-0.00001391,-0
 .00001918,0.00003448,0.00002035,-0.00000535,-0.00001987,-0.00000272,0.
 00000502,-0.00000152,0.00001075,0.00001186,0.00000020,-0.00000264,-0.0
 0000276,-0.00000267,0.00000140,0.00000233,0.00000347,-0.00001636,0.000
 01971,-0.00004738,-0.00016557,0.00003419,-0.00001149,-0.00001159,0.000
 03093,0.00000339,-0.00000188,-0.00000034,0.00000593,0.00000581,-0.0000
 0228,0.00000455,0.00000004,0.00000083,0.00000174,-0.00000082,-0.000007
 86,0.00000266,0.00000362,-0.00000180,0.00000076,-0.00000112,0.00000310
 ,-0.00000157,-0.00000250,-0.00000174,0.00000042,0.00001627,-0.00000378
 ,0.00000266,-0.00005069,0.00006839,0.00000039,0.00000721,-0.00001578,-
 0.00001506,0.00001560,-0.00001651,0.00000800,0.00002730,-0.00003646,0.
 00079432,0.00047949,-0.00010047,0.00157233,-0.00033829,-0.00014926,-0.
 00204372,-0.00180768,-0.00003065,-0.01930334,0.00205466,0.01284264,-0.
 23632630,0.01409587,0.12627148,0.00051557,-0.00065541,-0.00010827,-0.0
 0208662,0.00279568,-0.00305522,0.25803697,-0.00001634,0.00000888,-0.00
 000442,0.00001252,-0.00001255,0.00000407,-0.00001678,0.00002562,-0.000
 00896,0.00008855,-0.00005120,0.00003019,-0.00003286,-0.00000387,0.0000
 0106,0.00000374,-0.00000731,0.00000052,0.00000024,0.00000062,-0.000000
 63,-0.00010628,0.00003419,-0.00003011,0.00016489,-0.00011392,0.0000656
 5,-0.00002178,0.00020016,-0.00003905,-0.00002586,0.00009153,-0.0000225
 5,-0.00000939,-0.00000652,-0.00000266,0.00000418,-0.00002582,-0.000027
 34,-0.00001275,0.00001347,0.00000195,0.00000614,-0.00000471,0.00000119
 ,0.00001750,-0.00000286,0.00000028,0.00000566,-0.00006212,0.00001552,-
 0.00008858,-0.00027791,0.00003537,-0.00000079,0.00001806,0.00000364,0.
 00000416,0.00000763,-0.00000680,-0.00002223,0.00000072,0.00004377,0.00
 000266,-0.00001487,-0.00002422,0.00000705,0.00000370,-0.00000455,-0.00
 000344,-0.00000493,-0.00000176,0.00000936,0.00001132,0.00000757,-0.000
 00268,0.00000589,-0.00000099,0.00003005,0.00004689,-0.00001739,-0.0000
 0646,-0.00001634,-0.00000107,-0.00000580,-0.00000896,0.00000252,-0.000
 01210,-0.00001978,0.00001693,-0.00092216,0.00017752,-0.00015459,-0.001
 38718,0.00027633,-0.00001771,0.00228158,0.00046326,-0.00032315,0.01621
 827,-0.00143321,-0.01153667,0.01271710,-0.04807209,-0.00907720,-0.0007
 6691,0.00072837,-0.00002578,0.00262356,-0.00210152,0.00220473,-0.01677
 761,0.04845263,-0.00000515,-0.00000033,-0.00000186,0.00000413,0.000001
 43,0.00000137,-0.00000380,0.00000689,-0.00000176,0.00001712,-0.0000120
 8,0.00000593,-0.00000474,-0.00000017,-0.00000358,-0.00000218,0.0000001
 0,0.00000135,0.00000010,0.00000018,-0.00000038,-0.00005807,-0.00001438
 ,-0.00000741,0.00008037,-0.00002730,0.00002581,-0.00003927,0.00004154,
 -0.00001645,-0.00002337,0.00001442,-0.00000761,0.00004689,-0.00000307,
 0.00001126,-0.00000918,-0.00000008,-0.00000568,-0.00000099,-0.00000585
 ,0.00000110,0.00000263,-0.00000107,0.00000030,-0.00000039,-0.00000296,
 0.00000165,0.00002134,0.00001621,-0.00000469,0.00000153,-0.00002854,-0
 .00000467,-0.00000745,0.00000956,-0.00000264,-0.00000663,0.00000769,-0
 .00000435,-0.00000167,-0.00001074,0.00004107,0.00001617,-0.00002602,-0
 .00002620,0.00000504,0.00000576,-0.00000557,-0.00001997,0.00000026,-0.
 00000671,0.00000256,0.00001039,0.00000498,-0.00000057,-0.00000189,0.00
 000024,0.00000582,0.00001222,-0.00000122,-0.00000113,-0.00000510,-0.00
 000251,-0.00000068,-0.00000292,0.00000068,-0.00000331,-0.00000327,0.00
 000324,-0.00015108,-0.00031090,-0.00018918,-0.00086518,0.00055804,-0.0
 0030088,0.00097079,0.00040009,0.00056613,-0.01479968,0.00076558,0.0097
 7520,0.12686193,-0.01058589,-0.13251474,0.00030685,-0.00076592,0.00092
 573,-0.00255241,0.00253908,-0.00060062,-0.13624925,0.00840969,0.141235
 86,-0.00000482,0.00000965,-0.00000282,-0.00000188,-0.00000292,0.000000
 35,-0.00000900,0.00000696,-0.00000421,0.00005218,-0.00000315,0.0000146
 2,-0.00002665,-0.00001973,-0.00000336,0.00000840,0.00000164,0.00000312
 ,0.00000019,0.00000186,-0.00000065,0.00011582,0.00024619,-0.00001683,-
 0.00019242,0.00005572,-0.00006596,0.00004192,-0.00008852,0.00002765,0.
 00005611,-0.00000103,0.00001623,-0.00002985,-0.00000600,-0.00000735,0.
 00001021,0.00001797,0.00000329,0.00000717,-0.00000806,0.00000273,-0.00
 000158,0.00000090,-0.00000105,0.00002572,-0.00000768,0.00000680,-0.000
 12903,-0.00034413,0.00002950,0.00002493,0.00009403,-0.00001283,0.00000
 644,-0.00000665,0.00000043,0.00000409,-0.00000488,0.00000552,0.0000075
 3,0.00000394,-0.00002727,-0.00000599,0.00001479,0.00001908,-0.00000612
 ,-0.00000355,0.00000458,0.00000824,0.00000270,0.00000196,-0.00000403,-
 0.00000641,-0.00000504,-0.00000096,0.00000655,-0.00000131,0.00001838,0
 .00002156,-0.00001030,-0.00000422,-0.00000695,-0.00000031,-0.00000383,
 -0.00000406,0.00000143,-0.00000772,-0.00000975,0.00000970,0.00033395,0
 .00254737,-0.00059441,0.00188146,-0.00090588,0.00076642,-0.00572791,-0
 .00082131,-0.00223947,0.00948646,0.02443411,-0.00355124,-0.08311882,-0
 .08880982,0.01485776,0.00078891,-0.00090644,0.00041563,0.00082938,-0.0
 0059244,0.00071445,-0.00878543,-0.02548685,0.00175852,0.08822805,0.000
 03757,-0.00006388,0.00002103,-0.00001202,0.00007402,-0.00001613,0.0000
 5083,-0.00007939,0.00002961,-0.00030524,0.00011226,-0.00010688,0.00012
 853,0.00005828,0.00002541,-0.00004354,0.00002679,-0.00001800,-0.000000
 16,-0.00000663,0.00000142,0.00003237,-0.00052611,0.00012113,0.00003970
 ,0.00023987,-0.00004829,-0.00007807,-0.00031060,0.00006590,-0.00007039
 ,-0.00026221,0.00004145,0.00010975,0.00002699,0.00002498,-0.00000695,0
 .00000758,-0.00001490,0.00000979,-0.00000521,0.00000761,-0.00000883,0.
 00000928,-0.00000406,-0.00007894,0.00004952,-0.00003291,0.00018547,0.0
 0084278,-0.00012648,0.00020096,0.00050645,-0.00008338,-0.00001855,-0.0
 0002112,-0.00001394,-0.00002549,-0.00001755,0.00001097,0.00002114,-0.0
 0000482,-0.00002290,0.00000935,0.00001028,0.00003382,-0.00001209,-0.00
 000783,0.00000652,-0.00000839,0.00000800,-0.00000517,-0.00000647,-0.00
 000961,-0.00000710,0.00000749,-0.00005876,0.00001170,-0.00014356,-0.00
 004065,-0.00002197,0.00003302,0.00002001,0.00001319,0.00006084,-0.0000
 0524,0.00001809,0.00004116,0.00002098,-0.00000991,0.00090679,-0.003391
 40,0.00124965,-0.00000940,-0.00097492,0.00047029,0.00265240,0.00265009
 ,0.00056228,-0.00868188,-0.01646982,0.00144836,-0.08823340,-0.27255198
 ,0.03454485,-0.00008178,0.00076297,0.00033998,0.00018391,0.00027102,-0
 .00060506,0.00065023,0.00315310,-0.00015395,0.09663565,0.29723084,-0.0
 0001315,0.00002510,-0.00000891,0.00000225,-0.00002623,0.00000537,-0.00
 001978,0.00002860,-0.00000979,0.00011847,-0.00003684,0.00003879,-0.000
 05245,-0.00002696,-0.00000973,0.00001880,-0.00000858,0.00000473,-0.000
 00010,0.00000298,0.00000004,0.00003715,0.00027030,-0.00004225,-0.00008
 869,-0.00005871,-0.00001399,0.00003976,0.00007543,0.00000765,0.0000457
 1,0.00008762,-0.00000759,-0.00004712,-0.00001060,-0.00000800,0.0000144
 7,-0.00000144,-0.00002497,-0.00000304,0.00000028,0.00000747,0.00000204
 ,-0.00000254,0.00000122,0.00003457,-0.00001941,0.00001773,-0.00011342,
 -0.00041787,0.00005254,-0.00005556,-0.00014023,0.00000508,0.00000739,0
 .00000873,0.00000372,0.00001099,0.00000160,-0.00000023,-0.00001029,0.0
 0000091,0.00000975,-0.00000368,0.00000478,0.00000126,-0.00000072,-0.00
 000038,-0.00000016,0.00000553,-0.00000239,-0.00000019,0.00000335,0.000
 00387,0.00000124,-0.00000264,0.00002254,-0.00000485,0.00004642,0.00002
 129,0.00002877,-0.00001026,-0.00001522,-0.00001303,-0.00002104,0.00000
 079,-0.00000953,-0.00001179,-0.00000502,-0.00000542,-0.00020960,0.0021
 2231,-0.00063174,0.00042320,0.00027452,0.00069357,-0.00323674,-0.00089
 540,-0.00041457,0.00704817,0.01466763,-0.00287451,0.01462252,0.0343045
 8,-0.05554826,0.00063808,-0.00028445,0.00008870,-0.00001071,-0.0006306
 9,0.00048394,0.00540095,0.01777914,-0.00290560,-0.01399248,-0.03994551
 ,0.05450097,-0.00000523,0.00001067,-0.00000160,-0.00000004,-0.00001091
 ,0.00000171,-0.00000580,0.00001319,-0.00000138,0.00004061,-0.00001330,
 0.00000665,-0.00002051,-0.00000942,0.00000700,0.00000596,-0.00000183,0
 .00000474,0.00000021,0.00000089,-0.00000180,-0.00002417,0.00007813,-0.
 00000643,0.00002630,-0.00004340,0.00000280,-0.00001065,0.00007191,-0.0
 0000291,-0.00000042,0.00004442,-0.00000463,0.00001454,-0.00000845,-0.0
 0000592,-0.00001162,0.00000385,0.00002172,-0.00000179,-0.00000253,-0.0
 0000700,0.00000246,-0.00000136,-0.00000157,0.00001295,-0.00001782,-0.0
 0000528,-0.00001749,-0.00012468,0.00001341,-0.00002264,-0.00009620,0.0
 0000586,0.00000103,0.00000853,0.00000125,-0.00000229,0.00000921,-0.000
 00480,-0.00000320,-0.00000096,0.00002141,0.00001355,-0.00002212,-0.000
 02564,0.00000600,0.00000657,-0.00000502,-0.00001104,-0.00000056,0.0000
 0074,0.00000232,0.00000511,0.00000379,-0.00000103,0.00000974,-0.000001
 14,0.00003142,-0.00002632,-0.00003602,-0.00000843,0.00002096,0.0000149
 1,-0.00001275,0.00000712,0.00000203,-0.00001032,-0.00000129,0.00001768
 ,0.00005681,0.00031648,0.00023690,0.00066972,0.00031735,0.00043168,-0.
 00025367,-0.00109239,0.00021366,-0.00615545,-0.00931191,-0.02177977,-0
 .06388674,-0.02650775,-0.05883281,-0.00270657,0.00332213,-0.00209901,0
 .00044278,-0.00085883,0.00040112,0.00764812,0.01152763,0.02470438,-0.0
 0387527,-0.00417182,-0.01061654,0.06807235,-0.00000979,0.00001102,-0.0
 0000483,0.00000593,-0.00001551,0.00000435,-0.00001239,0.00001927,-0.00
 000559,0.00006821,-0.00003383,0.00002582,-0.00002397,-0.00000761,-0.00
 000959,0.00000619,-0.00000667,0.00000409,0.00000004,0.00000078,-0.0000
 0027,-0.00004706,0.00006026,-0.00002680,0.00007092,-0.00008291,0.00003
 959,0.00001351,0.00014046,-0.00003410,-0.00000098,0.00007301,-0.000019
 10,-0.00003738,-0.00000449,-0.00000888,-0.00000257,-0.00000972,0.00002
 043,-0.00000578,0.00000877,-0.00000954,0.00000318,-0.00000311,0.000001
 66,0.00001279,-0.00000322,0.00000679,-0.00000965,-0.00009510,0.0000161
 8,-0.00007474,-0.00021852,0.00003221,0.00000549,0.00000575,0.00000547,
 0.00000779,0.00000661,-0.00000496,-0.00000652,0.00000319,0.00000329,-0
 .00000859,-0.00000031,-0.00001820,0.00000659,0.00000151,-0.00000048,0.
 00000731,-0.00000411,0.00000172,0.00000219,0.00000279,0.00000244,-0.00
 000164,0.00001016,-0.00000224,0.00002387,0.00002088,0.00000474,-0.0000
 0456,-0.00001034,-0.00000403,-0.00000883,-0.00000209,-0.00000249,-0.00
 000731,-0.00000749,0.00000263,-0.00029018,0.00025109,-0.00044927,-0.00
 010740,-0.00016669,-0.00009988,0.00040347,0.00040742,0.00101259,0.0048
 0877,0.00832869,0.01868078,-0.02695143,-0.08978858,-0.09675952,0.00278
 554,-0.00216211,0.00235593,-0.00067294,0.00080604,-0.00058458,-0.00044
 269,-0.00147939,-0.00083672,-0.00605536,-0.01127339,-0.02717454,0.0265
 4999,0.09521747,0.00001153,0.00000470,0.00000432,-0.00001320,-0.000003
 00,-0.00000305,0.00000959,-0.00001224,0.00000837,-0.00003875,0.0000342
 1,-0.00002793,0.00000656,-0.00000542,0.00001498,0.00000548,0.00000323,
 0.00000292,0.00000010,0.00000009,-0.00000168,0.00010644,0.00006946,0.0
 0003978,-0.00016750,0.00006178,-0.00008031,0.00003874,-0.00010194,0.00
 007332,0.00003863,-0.00003231,0.00003017,-0.00002713,0.00000060,-0.000
 01224,0.00002325,0.00000281,-0.00005006,0.00000138,-0.00000075,0.00001
 476,-0.00000395,0.00000274,-0.00000503,0.00000176,-0.00001221,-0.00000
 852,-0.00003991,-0.00009917,-0.00000960,0.00004646,0.00011702,-0.00005
 393,0.00000502,-0.00000036,0.00000068,0.00000340,-0.00001456,0.0000115
 5,0.00000089,0.00000537,-0.00001753,-0.00000858,0.00002551,0.00003840,
 -0.00001279,-0.00001093,0.00000885,0.00001423,-0.00000088,-0.00000326,
 -0.00000001,-0.00000062,-0.00000318,0.00000129,0.00000723,-0.00000003,
 0.00000334,-0.00007091,-0.00002643,-0.00000225,0.00003746,0.00001959,-
 0.00000708,0.00001597,0.00000064,0.00000139,0.00001559,0.00000380,0.00
 089751,0.00045970,0.00027915,0.00177591,0.00000170,0.00134511,-0.00266
 230,-0.00176656,-0.00070298,-0.00312297,-0.00515649,-0.01317275,-0.058
 86453,-0.09469315,-0.26279898,-0.00232384,0.00225956,0.00012557,-0.000
 06527,0.00012976,0.00082154,-0.00483580,-0.00729621,-0.01598762,0.0018
 7711,0.00218832,0.00658077,0.06732586,0.10383492,0.28354084\\0.0000012
 0,0.00000400,0.00000014,-0.00000001,-0.00000170,-0.00000254,0.00000290
 ,-0.00000279,-0.00000258,0.00000323,0.00000223,0.00000129,-0.00000287,
 0.00000055,-0.00000037,0.00000044,-0.00000112,0.00000184,0.00000074,0.
 00000084,-0.00000052,-0.00000084,-0.00000206,-0.00000356,0.00000466,0.
 00000165,-0.00000700,-0.00000039,0.00000024,0.00000486,-0.00000064,-0.
 00000322,-0.00000592,0.00000116,-0.00000236,-0.00000734,0.00000080,-0.
 00000168,-0.00000287,0.00000129,-0.00000244,-0.00000555,0.00000297,-0.
 00000044,-0.00000471,-0.00000126,0.00000122,0.00000322,-0.00000112,0.0
 0000166,0.00000396,-0.00000025,-0.00000089,0.00000078,0.00000350,-0.00
 000102,-0.00000574,0.00000079,-0.00000376,-0.00000602,0.,-0.00000297,-
 0.00000301,0.00000104,0.00000024,-0.00000280,0.00000103,-0.00000435,-0
 .00000691,0.00000132,-0.00000264,-0.00000521,0.00000306,-0.00000174,-0
 .00000706,0.00000318,0.00000033,-0.00000569,0.00000064,-0.00000085,-0.
 00000171,-0.00000275,0.00000291,0.00000734,-0.00000067,0.00000367,0.00
 000366,-0.00000107,0.00000337,0.00000966,-0.00000297,-0.00000055,0.000
 00012,-0.00000157,0.00000210,-0.00000319,0.00000352,-0.00000033,0.0000
 0225,-0.00000675,0.00000211,0.00000909,-0.00000176,-0.00000063,0.00000
 768,-0.00000364,0.00000101,0.00000724,-0.00000101,0.00000294,0.0000068
 9,-0.00000379,0.00000120,0.00000573,-0.00000311,0.00000246,0.00000881,
 -0.00000099,0.00000281,0.00000575\\\@


 IF AT FIRST YOU DON'T SUCCEED, TRY, TRY AGAIN.
 THEN GIVE UP;
 THERE'S NO USE BEING A DAMN FOOL ABOUT IT.

                                 -- W. C. FIELDS
 Job cpu time:       0 days  6 hours 59 minutes 27.0 seconds.
 File lengths (MBytes):  RWF=   1159 Int=      0 D2E=      0 Chk=     29 Scr=      1
 Normal termination of Gaussian 09 at Tue Feb 19 14:26:41 2019.
WARNING: pbs_rusage is deprecated and values produced may not be accurate


=============================================================================
                                     Resource usage:
                                       CPU time:              25:48:30
   JobId:    5880967.r-man2            Elapsed time:          03:15:47
   Project:             q95            Requested time:        46:00:00
   Service Units:     26.10 
                                       Max physical memory:     1569MB
                                       Max virtual memory:      3106MB
                                       Requested memory:           0MB

                                       Number of cpus:               8

                                       Max jobfs disk use:       1.1GB
                                       Requested jobfs:         20.0GB
=============================================================================

