 Entering Gaussian System, Link 0=/apps/gaussian/g09e01/g09/g09
 AtFile(1): /home/507/hio507/Basis/6-31pGd.gbs
 Initial command:
 /apps/gaussian/g09e01/g09/l1.exe "/jobfs/local/5880945.r-man2/Gau-16141.inp" -scrdir="/jobfs/local/5880945.r-man2/"
 Entering Link 1 = /apps/gaussian/g09e01/g09/l1.exe PID=     16148.
  
 Copyright (c) 1988,1990,1992,1993,1995,1998,2003,2009,2015,
            Gaussian, Inc.  All Rights Reserved.
  
 This is part of the Gaussian(R) 09 program.  It is based on
 the Gaussian(R) 03 system (copyright 2003, Gaussian, Inc.),
 the Gaussian(R) 98 system (copyright 1998, Gaussian, Inc.),
 the Gaussian(R) 94 system (copyright 1995, Gaussian, Inc.),
 the Gaussian 92(TM) system (copyright 1992, Gaussian, Inc.),
 the Gaussian 90(TM) system (copyright 1990, Gaussian, Inc.),
 the Gaussian 88(TM) system (copyright 1988, Gaussian, Inc.),
 the Gaussian 86(TM) system (copyright 1986, Carnegie Mellon
 University), and the Gaussian 82(TM) system (copyright 1983,
 Carnegie Mellon University). Gaussian is a federally registered
 trademark of Gaussian, Inc.
  
 This software contains proprietary and confidential information,
 including trade secrets, belonging to Gaussian, Inc.
  
 This software is provided under written license and may be
 used, copied, transmitted, or stored only in accord with that
 written license.
  
 The following legend is applicable only to US Government
 contracts under FAR:
  
                    RESTRICTED RIGHTS LEGEND
  
 Use, reproduction and disclosure by the US Government is
 subject to restrictions as set forth in subparagraphs (a)
 and (c) of the Commercial Computer Software - Restricted
 Rights clause in FAR 52.227-19.
  
 Gaussian, Inc.
 340 Quinnipiac St., Bldg. 40, Wallingford CT 06492
  
  
 ---------------------------------------------------------------
 Warning -- This program may not be used in any manner that
 competes with the business of Gaussian, Inc. or will provide
 assistance to any competitor of Gaussian, Inc.  The licensee
 of this program is prohibited from giving any competitor of
 Gaussian, Inc. access to this program.  By using this program,
 the user acknowledges that Gaussian, Inc. is engaged in the
 business of creating and licensing software in the field of
 computational chemistry and represents and warrants to the
 licensee that it is not a competitor of Gaussian, Inc. and that
 it will not use this program in any manner prohibited above.
 ---------------------------------------------------------------
  

 Cite this work as:
 Gaussian 09, Revision E.01,
 M. J. Frisch, G. W. Trucks, H. B. Schlegel, G. E. Scuseria, 
 M. A. Robb, J. R. Cheeseman, G. Scalmani, V. Barone, B. Mennucci, 
 G. A. Petersson, H. Nakatsuji, M. Caricato, X. Li, H. P. Hratchian, 
 A. F. Izmaylov, J. Bloino, G. Zheng, J. L. Sonnenberg, M. Hada, 
 M. Ehara, K. Toyota, R. Fukuda, J. Hasegawa, M. Ishida, T. Nakajima, 
 Y. Honda, O. Kitao, H. Nakai, T. Vreven, J. A. Montgomery, Jr., 
 J. E. Peralta, F. Ogliaro, M. Bearpark, J. J. Heyd, E. Brothers, 
 K. N. Kudin, V. N. Staroverov, T. Keith, R. Kobayashi, J. Normand, 
 K. Raghavachari, A. Rendell, J. C. Burant, S. S. Iyengar, J. Tomasi, 
 M. Cossi, N. Rega, J. M. Millam, M. Klene, J. E. Knox, J. B. Cross, 
 V. Bakken, C. Adamo, J. Jaramillo, R. Gomperts, R. E. Stratmann, 
 O. Yazyev, A. J. Austin, R. Cammi, C. Pomelli, J. W. Ochterski, 
 R. L. Martin, K. Morokuma, V. G. Zakrzewski, G. A. Voth, 
 P. Salvador, J. J. Dannenberg, S. Dapprich, A. D. Daniels, 
 O. Farkas, J. B. Foresman, J. V. Ortiz, J. Cioslowski, 
 and D. J. Fox, Gaussian, Inc., Wallingford CT, 2013.
 
 ******************************************
 Gaussian 09:  ES64L-G09RevE.01 30-Nov-2015
                19-Feb-2019 
 ******************************************
 %chk=NM3_C2_EtO.M062X_6-31pGd_opt_water.chk
 %mem=196608000
 %nproc=8
 Will use up to    8 processors via shared memory.
 ----------------------------------------------------------------------
 # M062X/Gen 6D SCF=Tight INT(grid=ultrafine) OPT IOP(2/17=4) SCRF=(SMD
 ,Solvent=h2o) maxdisk=2684354560
 ----------------------------------------------------------------------
 1/14=-1,18=20,19=15,26=4,38=1/1,3;
 2/9=110,12=2,17=4,18=5,40=1/2;
 3/5=7,8=2,11=2,16=1,25=1,30=1,70=32201,71=1,72=1,74=-55,75=-5/1,2,3;
 4//1;
 5/5=2,32=2,38=5,53=1/2;
 6/7=2,8=2,9=2,10=2,28=1/1;
 7//1,2,3,16;
 1/14=-1,18=20,19=15,26=4/3(2);
 2/9=110,17=4/2;
 99//99;
 2/9=110,17=4/2;
 3/5=7,6=1,8=2,11=2,16=1,25=1,30=1,70=32205,71=1,72=1,74=-55,75=-5,82=7/1,2,3;
 4/5=5,16=3,69=1/1;
 5/5=2,32=2,38=5,53=1/2;
 7//1,2,3,16;
 1/14=-1,18=20,19=15,26=4/3(-5);
 2/9=110,17=4/2;
 6/7=2,8=2,9=2,10=2,19=2,28=1/1;
 99/9=1/99;
 ----------------------------------
 NM3_C2_EtO.M062X_6-31pGd_opt_water
 ----------------------------------
 Symbolic Z-matrix:
 Charge = -1 Multiplicity = 1
 C                    -4.03426   4.07717  -0.91114 
 C                    -2.78173   4.64799  -0.69577 
 C                    -1.72282   3.86383  -0.2348 
 C                    -1.88687   2.48883   0.02467 
 C                    -3.16868   1.92535  -0.20088 
 C                    -4.23884   2.71129  -0.66629 
 H                    -4.84048   4.70439  -1.26933 
 N                    -0.74068   1.74989   0.49842 
 C                     0.5145    2.23378   0.76847 
 N                     1.48598   1.38543   1.21466 
 O                     0.78503   3.41366   0.61391 
 C                     2.82965   1.8575    1.50761 
 C                     3.72755   0.71259   1.9884 
 C                     5.13794   1.20861   2.29376 
 H                    -0.76567   4.34165  -0.07874 
 H                    -3.38486   0.88695  -0.03432 
 H                    -0.89751   0.62823   0.66485 
 H                     1.24234   0.27917   1.36277 
 H                     2.77875   2.63785   2.29884 
 H                     3.2691    2.30263   0.58763 
 H                     3.78416  -0.07026   1.20091 
 H                     3.2967    0.26445   2.91014 
 H                     5.5999    1.64444   1.38228 
 H                     5.76477   0.35948   2.63865 
 H                     5.11157   1.97914   3.09358 
 Cl                   -2.53497   6.35766  -1.00517 
 C                    -5.5849    2.06594  -0.89303 
 F                    -5.45938   1.05681  -1.83056 
 F                    -6.52302   2.97571  -1.34997 
 F                    -6.04146   1.52378   0.29465 
 O                    -1.29953  -1.35785   1.11758 
 O                     0.7925   -1.69813   1.8027 
 C                    -0.32961  -2.15213   1.61755 
 C                    -0.6533   -3.58666   1.93935 
 C                     0.53915  -4.36101   2.50046 
 H                    -1.00311  -4.08881   1.01223 
 H                    -1.47573  -3.60595   2.68593 
 H                     1.36994  -4.37828   1.76303 
 H                     0.23469  -5.40674   2.7167 
 H                     0.89422  -3.89264   3.44334 
 
 Add virtual bond connecting atoms O31        and H17        Dist= 3.92D+00.
 Add virtual bond connecting atoms O32        and H18        Dist= 3.92D+00.

 GradGradGradGradGradGradGradGradGradGradGradGradGradGradGradGradGradGrad
 Berny optimization.
 Initialization pass.
                           ----------------------------
                           !    Initial Parameters    !
                           ! (Angstroms and Degrees)  !
 --------------------------                            --------------------------
 ! Name  Definition              Value          Derivative Info.                !
 --------------------------------------------------------------------------------
 ! R1    R(1,2)                  1.3932         estimate D2E/DX2                !
 ! R2    R(1,6)                  1.4027         estimate D2E/DX2                !
 ! R3    R(1,7)                  1.0824         estimate D2E/DX2                !
 ! R4    R(2,3)                  1.396          estimate D2E/DX2                !
 ! R5    R(2,26)                 1.7549         estimate D2E/DX2                !
 ! R6    R(3,4)                  1.4089         estimate D2E/DX2                !
 ! R7    R(3,15)                 1.0811         estimate D2E/DX2                !
 ! R8    R(4,5)                  1.4182         estimate D2E/DX2                !
 ! R9    R(4,8)                  1.4437         estimate D2E/DX2                !
 ! R10   R(5,6)                  1.407          estimate D2E/DX2                !
 ! R11   R(5,16)                 1.0737         estimate D2E/DX2                !
 ! R12   R(6,27)                 1.5099         estimate D2E/DX2                !
 ! R13   R(8,9)                  1.3721         estimate D2E/DX2                !
 ! R14   R(8,17)                 1.1447         estimate D2E/DX2                !
 ! R15   R(9,10)                 1.3648         estimate D2E/DX2                !
 ! R16   R(9,11)                 1.2203         estimate D2E/DX2                !
 ! R17   R(10,12)                1.454          estimate D2E/DX2                !
 ! R18   R(10,18)                1.1424         estimate D2E/DX2                !
 ! R19   R(12,13)                1.5324         estimate D2E/DX2                !
 ! R20   R(12,19)                1.1125         estimate D2E/DX2                !
 ! R21   R(12,20)                1.1125         estimate D2E/DX2                !
 ! R22   R(13,14)                1.5259         estimate D2E/DX2                !
 ! R23   R(13,21)                1.1118         estimate D2E/DX2                !
 ! R24   R(13,22)                1.1118         estimate D2E/DX2                !
 ! R25   R(14,23)                1.1109         estimate D2E/DX2                !
 ! R26   R(14,24)                1.1104         estimate D2E/DX2                !
 ! R27   R(14,25)                1.1109         estimate D2E/DX2                !
 ! R28   R(17,31)                2.0763         estimate D2E/DX2                !
 ! R29   R(18,32)                2.075          estimate D2E/DX2                !
 ! R30   R(27,28)                1.3831         estimate D2E/DX2                !
 ! R31   R(27,29)                1.3844         estimate D2E/DX2                !
 ! R32   R(27,30)                1.3831         estimate D2E/DX2                !
 ! R33   R(31,33)                1.3497         estimate D2E/DX2                !
 ! R34   R(32,33)                1.2246         estimate D2E/DX2                !
 ! R35   R(33,34)                1.5054         estimate D2E/DX2                !
 ! R36   R(34,35)                1.5285         estimate D2E/DX2                !
 ! R37   R(34,36)                1.1109         estimate D2E/DX2                !
 ! R38   R(34,37)                1.1109         estimate D2E/DX2                !
 ! R39   R(35,38)                1.111          estimate D2E/DX2                !
 ! R40   R(35,39)                1.1104         estimate D2E/DX2                !
 ! R41   R(35,40)                1.1111         estimate D2E/DX2                !
 ! A1    A(2,1,6)              120.2061         estimate D2E/DX2                !
 ! A2    A(2,1,7)              118.9042         estimate D2E/DX2                !
 ! A3    A(6,1,7)              120.8896         estimate D2E/DX2                !
 ! A4    A(1,2,3)              120.1889         estimate D2E/DX2                !
 ! A5    A(1,2,26)             119.8889         estimate D2E/DX2                !
 ! A6    A(3,2,26)             119.9222         estimate D2E/DX2                !
 ! A7    A(2,3,4)              121.3811         estimate D2E/DX2                !
 ! A8    A(2,3,15)             118.0976         estimate D2E/DX2                !
 ! A9    A(4,3,15)             120.5212         estimate D2E/DX2                !
 ! A10   A(3,4,5)              117.6269         estimate D2E/DX2                !
 ! A11   A(3,4,8)              117.8743         estimate D2E/DX2                !
 ! A12   A(5,4,8)              124.4986         estimate D2E/DX2                !
 ! A13   A(4,5,6)              121.2058         estimate D2E/DX2                !
 ! A14   A(4,5,16)             122.7903         estimate D2E/DX2                !
 ! A15   A(6,5,16)             116.0036         estimate D2E/DX2                !
 ! A16   A(1,6,5)              119.3911         estimate D2E/DX2                !
 ! A17   A(1,6,27)             121.3338         estimate D2E/DX2                !
 ! A18   A(5,6,27)             119.2751         estimate D2E/DX2                !
 ! A19   A(4,8,9)              127.6166         estimate D2E/DX2                !
 ! A20   A(4,8,17)             116.1336         estimate D2E/DX2                !
 ! A21   A(9,8,17)             116.2495         estimate D2E/DX2                !
 ! A22   A(8,9,10)             119.7566         estimate D2E/DX2                !
 ! A23   A(8,9,11)             121.2557         estimate D2E/DX2                !
 ! A24   A(10,9,11)            118.9873         estimate D2E/DX2                !
 ! A25   A(9,10,12)            121.4579         estimate D2E/DX2                !
 ! A26   A(9,10,18)            119.5061         estimate D2E/DX2                !
 ! A27   A(12,10,18)           119.036          estimate D2E/DX2                !
 ! A28   A(10,12,13)           111.2309         estimate D2E/DX2                !
 ! A29   A(10,12,19)           109.1935         estimate D2E/DX2                !
 ! A30   A(10,12,20)           109.1678         estimate D2E/DX2                !
 ! A31   A(13,12,19)           109.1321         estimate D2E/DX2                !
 ! A32   A(13,12,20)           109.0838         estimate D2E/DX2                !
 ! A33   A(19,12,20)           109.0002         estimate D2E/DX2                !
 ! A34   A(12,13,14)           111.1924         estimate D2E/DX2                !
 ! A35   A(12,13,21)           109.4919         estimate D2E/DX2                !
 ! A36   A(12,13,22)           109.5243         estimate D2E/DX2                !
 ! A37   A(14,13,21)           108.8777         estimate D2E/DX2                !
 ! A38   A(14,13,22)           108.8629         estimate D2E/DX2                !
 ! A39   A(21,13,22)           108.852          estimate D2E/DX2                !
 ! A40   A(13,14,23)           110.3458         estimate D2E/DX2                !
 ! A41   A(13,14,24)           109.5942         estimate D2E/DX2                !
 ! A42   A(13,14,25)           110.3404         estimate D2E/DX2                !
 ! A43   A(23,14,24)           108.6698         estimate D2E/DX2                !
 ! A44   A(23,14,25)           109.1762         estimate D2E/DX2                !
 ! A45   A(24,14,25)           108.6746         estimate D2E/DX2                !
 ! A46   A(6,27,28)            109.4344         estimate D2E/DX2                !
 ! A47   A(6,27,29)            111.8883         estimate D2E/DX2                !
 ! A48   A(6,27,30)            109.4432         estimate D2E/DX2                !
 ! A49   A(28,27,29)           108.4955         estimate D2E/DX2                !
 ! A50   A(28,27,30)           109.0274         estimate D2E/DX2                !
 ! A51   A(29,27,30)           108.5022         estimate D2E/DX2                !
 ! A52   A(17,31,33)           120.3017         estimate D2E/DX2                !
 ! A53   A(18,32,33)           121.3249         estimate D2E/DX2                !
 ! A54   A(31,33,32)           119.7583         estimate D2E/DX2                !
 ! A55   A(31,33,34)           119.0429         estimate D2E/DX2                !
 ! A56   A(32,33,34)           121.1987         estimate D2E/DX2                !
 ! A57   A(33,34,35)           113.1712         estimate D2E/DX2                !
 ! A58   A(33,34,36)           108.6661         estimate D2E/DX2                !
 ! A59   A(33,34,37)           108.6259         estimate D2E/DX2                !
 ! A60   A(35,34,36)           108.8461         estimate D2E/DX2                !
 ! A61   A(35,34,37)           108.7866         estimate D2E/DX2                !
 ! A62   A(36,34,37)           108.6567         estimate D2E/DX2                !
 ! A63   A(34,35,38)           110.3398         estimate D2E/DX2                !
 ! A64   A(34,35,39)           109.5528         estimate D2E/DX2                !
 ! A65   A(34,35,40)           110.3209         estimate D2E/DX2                !
 ! A66   A(38,35,39)           108.642          estimate D2E/DX2                !
 ! A67   A(38,35,40)           109.3209         estimate D2E/DX2                !
 ! A68   A(39,35,40)           108.6242         estimate D2E/DX2                !
 ! A69   L(8,17,31,13,-1)      181.9656         estimate D2E/DX2                !
 ! A70   L(10,18,32,5,-1)      181.0317         estimate D2E/DX2                !
 ! A71   L(8,17,31,13,-2)      174.88           estimate D2E/DX2                !
 ! A72   L(10,18,32,5,-2)      184.7745         estimate D2E/DX2                !
 ! D1    D(6,1,2,3)             -0.0074         estimate D2E/DX2                !
 ! D2    D(6,1,2,26)           179.9863         estimate D2E/DX2                !
 ! D3    D(7,1,2,3)           -179.9671         estimate D2E/DX2                !
 ! D4    D(7,1,2,26)             0.0265         estimate D2E/DX2                !
 ! D5    D(2,1,6,5)              0.0508         estimate D2E/DX2                !
 ! D6    D(2,1,6,27)          -179.9032         estimate D2E/DX2                !
 ! D7    D(7,1,6,5)           -179.9903         estimate D2E/DX2                !
 ! D8    D(7,1,6,27)             0.0557         estimate D2E/DX2                !
 ! D9    D(1,2,3,4)             -0.0634         estimate D2E/DX2                !
 ! D10   D(1,2,3,15)          -179.9636         estimate D2E/DX2                !
 ! D11   D(26,2,3,4)           179.9429         estimate D2E/DX2                !
 ! D12   D(26,2,3,15)            0.0428         estimate D2E/DX2                !
 ! D13   D(2,3,4,5)              0.0868         estimate D2E/DX2                !
 ! D14   D(2,3,4,8)            179.9608         estimate D2E/DX2                !
 ! D15   D(15,3,4,5)           179.9846         estimate D2E/DX2                !
 ! D16   D(15,3,4,8)            -0.1415         estimate D2E/DX2                !
 ! D17   D(3,4,5,6)             -0.0423         estimate D2E/DX2                !
 ! D18   D(3,4,5,16)           179.75           estimate D2E/DX2                !
 ! D19   D(8,4,5,6)           -179.9071         estimate D2E/DX2                !
 ! D20   D(8,4,5,16)            -0.1148         estimate D2E/DX2                !
 ! D21   D(3,4,8,9)              1.8441         estimate D2E/DX2                !
 ! D22   D(3,4,8,17)          -177.9469         estimate D2E/DX2                !
 ! D23   D(5,4,8,9)           -178.2914         estimate D2E/DX2                !
 ! D24   D(5,4,8,17)             1.9176         estimate D2E/DX2                !
 ! D25   D(4,5,6,1)             -0.0252         estimate D2E/DX2                !
 ! D26   D(4,5,6,27)           179.9297         estimate D2E/DX2                !
 ! D27   D(16,5,6,1)          -179.831          estimate D2E/DX2                !
 ! D28   D(16,5,6,27)            0.1239         estimate D2E/DX2                !
 ! D29   D(1,6,27,28)          120.2584         estimate D2E/DX2                !
 ! D30   D(1,6,27,29)           -0.0255         estimate D2E/DX2                !
 ! D31   D(1,6,27,30)         -120.3237         estimate D2E/DX2                !
 ! D32   D(5,6,27,28)          -59.6957         estimate D2E/DX2                !
 ! D33   D(5,6,27,29)         -179.9795         estimate D2E/DX2                !
 ! D34   D(5,6,27,30)           59.7223         estimate D2E/DX2                !
 ! D35   D(4,8,9,10)           179.9115         estimate D2E/DX2                !
 ! D36   D(4,8,9,11)            -0.3039         estimate D2E/DX2                !
 ! D37   D(17,8,9,10)           -0.2977         estimate D2E/DX2                !
 ! D38   D(17,8,9,11)          179.487          estimate D2E/DX2                !
 ! D39   D(4,8,31,33)         -177.3076         estimate D2E/DX2                !
 ! D40   D(9,8,31,33)           -0.3373         estimate D2E/DX2                !
 ! D41   D(8,9,10,12)          179.7798         estimate D2E/DX2                !
 ! D42   D(8,9,10,18)           -0.2277         estimate D2E/DX2                !
 ! D43   D(11,9,10,12)          -0.0097         estimate D2E/DX2                !
 ! D44   D(11,9,10,18)         179.9827         estimate D2E/DX2                !
 ! D45   D(9,10,12,13)        -179.898          estimate D2E/DX2                !
 ! D46   D(9,10,12,19)          59.6016         estimate D2E/DX2                !
 ! D47   D(9,10,12,20)         -59.4746         estimate D2E/DX2                !
 ! D48   D(18,10,12,13)          0.1095         estimate D2E/DX2                !
 ! D49   D(18,10,12,19)       -120.3909         estimate D2E/DX2                !
 ! D50   D(18,10,12,20)        120.5329         estimate D2E/DX2                !
 ! D51   D(9,10,32,33)           1.1501         estimate D2E/DX2                !
 ! D52   D(12,10,32,33)        177.7592         estimate D2E/DX2                !
 ! D53   D(10,12,13,14)        179.9225         estimate D2E/DX2                !
 ! D54   D(10,12,13,21)         59.5677         estimate D2E/DX2                !
 ! D55   D(10,12,13,22)        -59.7199         estimate D2E/DX2                !
 ! D56   D(19,12,13,14)        -59.5409         estimate D2E/DX2                !
 ! D57   D(19,12,13,21)       -179.8956         estimate D2E/DX2                !
 ! D58   D(19,12,13,22)         60.8167         estimate D2E/DX2                !
 ! D59   D(20,12,13,14)         59.4495         estimate D2E/DX2                !
 ! D60   D(20,12,13,21)        -60.9053         estimate D2E/DX2                !
 ! D61   D(20,12,13,22)        179.8071         estimate D2E/DX2                !
 ! D62   D(12,13,14,23)        -60.3424         estimate D2E/DX2                !
 ! D63   D(12,13,14,24)       -179.9726         estimate D2E/DX2                !
 ! D64   D(12,13,14,25)         60.3945         estimate D2E/DX2                !
 ! D65   D(21,13,14,23)         60.3747         estimate D2E/DX2                !
 ! D66   D(21,13,14,24)        -59.2556         estimate D2E/DX2                !
 ! D67   D(21,13,14,25)       -178.8884         estimate D2E/DX2                !
 ! D68   D(22,13,14,23)        178.91           estimate D2E/DX2                !
 ! D69   D(22,13,14,24)         59.2797         estimate D2E/DX2                !
 ! D70   D(22,13,14,25)        -60.3532         estimate D2E/DX2                !
 ! D71   D(17,31,33,32)         -0.0966         estimate D2E/DX2                !
 ! D72   D(17,31,33,34)        179.8306         estimate D2E/DX2                !
 ! D73   D(18,32,33,31)          0.0033         estimate D2E/DX2                !
 ! D74   D(18,32,33,34)       -179.9223         estimate D2E/DX2                !
 ! D75   D(31,33,34,35)       -179.8276         estimate D2E/DX2                !
 ! D76   D(31,33,34,36)         59.1436         estimate D2E/DX2                !
 ! D77   D(31,33,34,37)        -58.9024         estimate D2E/DX2                !
 ! D78   D(32,33,34,35)          0.0984         estimate D2E/DX2                !
 ! D79   D(32,33,34,36)       -120.9303         estimate D2E/DX2                !
 ! D80   D(32,33,34,37)        121.0236         estimate D2E/DX2                !
 ! D81   D(33,34,35,38)        -60.4879         estimate D2E/DX2                !
 ! D82   D(33,34,35,39)        179.9458         estimate D2E/DX2                !
 ! D83   D(33,34,35,40)         60.4133         estimate D2E/DX2                !
 ! D84   D(36,34,35,38)         60.4391         estimate D2E/DX2                !
 ! D85   D(36,34,35,39)        -59.1272         estimate D2E/DX2                !
 ! D86   D(36,34,35,40)       -178.6598         estimate D2E/DX2                !
 ! D87   D(37,34,35,38)        178.6779         estimate D2E/DX2                !
 ! D88   D(37,34,35,39)         59.1117         estimate D2E/DX2                !
 ! D89   D(37,34,35,40)        -60.4209         estimate D2E/DX2                !
 --------------------------------------------------------------------------------
 Trust Radius=3.00D-01 FncErr=1.00D-07 GrdErr=1.00D-06
 Number of steps in this run=    212 maximum allowed number of steps=    240.
 GradGradGradGradGradGradGradGradGradGradGradGradGradGradGradGradGradGrad

                          Input orientation:                          
 ---------------------------------------------------------------------
 Center     Atomic      Atomic             Coordinates (Angstroms)
 Number     Number       Type             X           Y           Z
 ---------------------------------------------------------------------
      1          6           0       -4.034260    4.077170   -0.911140
      2          6           0       -2.781730    4.647990   -0.695770
      3          6           0       -1.722820    3.863830   -0.234800
      4          6           0       -1.886870    2.488830    0.024670
      5          6           0       -3.168680    1.925350   -0.200880
      6          6           0       -4.238840    2.711290   -0.666290
      7          1           0       -4.840480    4.704390   -1.269330
      8          7           0       -0.740680    1.749890    0.498420
      9          6           0        0.514500    2.233780    0.768470
     10          7           0        1.485980    1.385430    1.214660
     11          8           0        0.785030    3.413660    0.613910
     12          6           0        2.829650    1.857500    1.507610
     13          6           0        3.727550    0.712590    1.988400
     14          6           0        5.137940    1.208610    2.293760
     15          1           0       -0.765670    4.341650   -0.078740
     16          1           0       -3.384860    0.886950   -0.034320
     17          1           0       -0.897510    0.628230    0.664850
     18          1           0        1.242340    0.279170    1.362770
     19          1           0        2.778750    2.637850    2.298840
     20          1           0        3.269100    2.302630    0.587630
     21          1           0        3.784160   -0.070260    1.200910
     22          1           0        3.296700    0.264450    2.910140
     23          1           0        5.599900    1.644440    1.382280
     24          1           0        5.764770    0.359480    2.638650
     25          1           0        5.111570    1.979140    3.093580
     26         17           0       -2.534970    6.357660   -1.005170
     27          6           0       -5.584900    2.065940   -0.893030
     28          9           0       -5.459380    1.056810   -1.830560
     29          9           0       -6.523020    2.975710   -1.349970
     30          9           0       -6.041460    1.523780    0.294650
     31          8           0       -1.299530   -1.357850    1.117580
     32          8           0        0.792500   -1.698130    1.802700
     33          6           0       -0.329610   -2.152130    1.617550
     34          6           0       -0.653300   -3.586660    1.939350
     35          6           0        0.539150   -4.361010    2.500460
     36          1           0       -1.003110   -4.088810    1.012230
     37          1           0       -1.475730   -3.605950    2.685930
     38          1           0        1.369940   -4.378280    1.763030
     39          1           0        0.234690   -5.406740    2.716700
     40          1           0        0.894220   -3.892640    3.443340
 ---------------------------------------------------------------------
                    Distance matrix (angstroms):
                    1          2          3          4          5
     1  C    0.000000
     2  C    1.393216   0.000000
     3  C    2.417789   1.395955   0.000000
     4  C    2.830168   2.445768   1.408851   0.000000
     5  C    2.425701   2.794175   2.418546   1.418245   0.000000
     6  C    1.402652   2.423808   2.800873   2.461438   1.406965
     7  H    1.082449   2.137897   3.390663   3.912410   3.414610
     8  N    4.272091   3.740449   2.443553   1.443684   2.532783
     9  C    5.187523   4.340224   2.944353   2.526829   3.821071
    10  N    6.499041   5.701525   4.305787   3.742951   4.895010
    11  O    5.098194   3.995073   2.685568   2.888177   4.302415
    12  C    7.608584   6.642989   5.271275   4.984300   6.237267
    13  C    8.942786   8.066156   6.676786   6.207494   7.336329
    14  C   10.130611   9.137166   7.779064   7.492375   8.702694
    15  H    3.383271   2.130509   1.081112   2.168116   3.409968
    16  H    3.371652   3.866097   3.415316   2.193963   1.073662
    17  H    4.921192   4.643279   3.458267   2.202384   2.755036
    18  H    6.887523   6.286280   4.918759   4.057717   4.961049
    19  H    7.667641   6.627767   5.309095   5.192501   6.490622
    20  H    7.663835   6.615162   5.294620   5.189954   6.496853
    21  H    9.098880   8.304829   6.918465   6.331908   7.368138
    22  H    9.103955   8.316569   6.931217   6.335866   7.364657
    23  H   10.197793   9.142829   7.820669   7.655575   8.914780
    24  H   11.065406  10.126813   8.752210   8.361496   9.503758
    25  H   10.202241   9.153476   7.831925   7.658731   8.911728
    26  Cl   2.730814   1.754876   2.733541   4.055669   4.549049
    27  C    2.539657   3.816236   4.310608   3.833593   2.517331
    28  F    3.463939   4.621053   4.938390   4.272632   2.942367
    29  F    2.756758   4.149910   5.007423   4.860100   3.698008
    30  F    3.464474   4.622495   4.940324   4.273737   2.942732
    31  O    6.413571   6.446338   5.410550   4.041827   4.001432
    32  O    8.001039   7.700046   6.435343   5.279304   5.730173
    33  C    7.676124   7.589860   6.447016   5.147896   5.290827
    34  C    8.848190   8.904130   7.834577   6.488395   6.425728
    35  C   10.186166  10.119595   8.958021   7.676941   7.782260
    36  H    8.920227   9.078129   8.081927   6.709818   6.506262
    37  H    8.860887   9.014935   8.024296   6.663159   6.464908
    38  H   10.385143  10.235019   9.027118   7.796532   8.011976
    39  H   11.014976  11.038176   9.924045   8.607443   8.593878
    40  H   10.332922  10.177780   8.974433   7.755316   7.977249
                    6          7          8          9         10
     6  C    0.000000
     7  H    2.167504   0.000000
     8  N    3.810244   5.353725   0.000000
     9  C    4.988065   6.239580   1.372062   0.000000
    10  N    6.170044   7.563716   2.367244   1.364755   0.000000
    11  O    5.231778   6.071156   2.260367   1.220325   2.228441
    12  C    7.444350   8.639854   3.711779   2.459234   1.454001
    13  C    8.631660   9.997920   4.822977   3.758449   2.464959
    14  C    9.947057  11.157283   6.170446   4.975307   3.812156
    15  H    3.881520   4.260653   2.655364   2.607626   3.934723
    16  H    2.111133   4.268129   2.831990   4.202789   5.053070
    17  H    4.156388   5.991923   1.144734   2.140631   2.560599
    18  H    6.330531   7.969393   2.615815   2.168742   1.142413
    19  H    7.618659   8.663434   4.051712   2.762632   2.101251
    20  H    7.622892   8.659217   4.048681   2.761388   2.100938
    21  H    8.694365  10.162863   4.927536   4.023218   2.720451
    22  H    8.692654  10.168320   4.931872   4.025624   2.722123
    23  H   10.106217  11.198029   6.402756   5.156101   4.125472
    24  H   10.794714  12.108752   6.988183   5.880128   4.624756
    25  H   10.104595  11.202913   6.405954   5.157910   4.126468
    26  Cl   4.039063   2.849291   5.168346   5.426919   6.768955
    27  C    1.509889   2.767161   5.049999   6.323878   7.409642
    28  F    2.362741   3.742039   5.307602   6.620231   7.590743
    29  F    2.398919   2.413665   6.193112   7.386808   8.558645
    30  F    2.362842   3.742281   5.309512   6.611295   7.584716
    31  O    5.327254   7.415283   3.217720   4.038860   3.910764
    32  O    7.131148   9.064221   3.992572   4.075148   3.214817
    33  C    6.644611   8.700224   4.080097   4.546390   3.996626
    34  C    7.701275   9.826984   5.528352   6.050805   5.461078
    35  C    9.103566  11.195232   6.556617   6.818479   5.964171
    36  H    7.715487   9.861607   5.867136   6.506743   6.016964
    37  H    7.666791   9.799356   5.831854   6.460659   5.987507
    38  H    9.360663  11.413125   6.603667   6.740939   5.790900
    39  H    9.867092  11.995030   7.555757   7.889958   7.067915
    40  H    9.319295  11.358035   6.571423   6.695681   5.759793
                   11         12         13         14         15
    11  O    0.000000
    12  C    2.720442   0.000000
    13  C    4.224148   1.532385   0.000000
    14  C    5.160617   2.523350   1.525936   0.000000
    15  H    1.935355   4.649068   6.134507   7.092059   0.000000
    16  H    4.918582   6.476083   7.396497   8.840902   4.335560
    17  H    3.254559   4.014109   4.811453   6.278284   3.789432
    18  H    3.254989   2.243136   2.599141   4.111727   4.755397
    19  H    2.723195   1.112467   2.168691   2.758356   4.595512
    20  H    2.721338   1.112484   2.168078   2.756868   4.569576
    21  H    4.634334   2.172881   1.111845   2.159294   6.465555
    22  H    4.636667   2.173254   1.111785   2.159057   6.485354
    23  H    5.186859   2.781256   2.177480   1.110923   7.066117
    24  H    6.182669   3.483998   2.167436   1.110354   8.117175
    25  H    5.188984   2.781592   2.177403   1.110911   7.084280
    26  Cl   4.723447   7.439399   8.946923   9.811687   2.837779
    27  C    6.683055   8.752781   9.841541  11.219177   5.391373
    28  F    7.107941   8.971761   9.955030  11.372610   5.990823
    29  F    7.579988   9.843200  11.015471  12.344124   6.052181
    30  F    7.090454   8.959868   9.947883  11.361107   5.992810
    31  O    5.231289   5.247926   5.506050   7.029306   5.848118
    32  O    5.248207   4.108475   3.802706   5.251012   6.515110
    33  C    5.764350   5.105893   4.980431   6.453366   6.725825
    34  C    7.268429   6.477362   6.138225   7.527196   8.181895
    35  C    8.004063   6.700896   6.014110   7.225805   9.170121
    36  H    7.722898   7.091830   6.810690   8.210814   8.504073
    37  H    7.660237   7.055071   6.797827   8.189897   8.444639
    38  H    7.897906   6.409442   5.614808   6.759648   9.164613
    39  H    9.084275   7.808002   7.083551   8.245216  10.190501
    40  H    7.835791   6.368442   5.599353   6.734497   9.108447
                   16         17         18         19         20
    16  H    0.000000
    17  H    2.596668   0.000000
    18  H    4.871574   2.277695   0.000000
    19  H    6.819045   4.497042   2.966505   0.000000
    20  H    6.831263   4.491126   2.966983   1.811368   0.000000
    21  H    7.337363   4.763747   2.570827   3.090333   2.504397
    22  H    7.328069   4.771275   2.571958   2.504993   3.090144
    23  H    9.127237   6.615416   4.566473   3.128232   2.548982
    24  H    9.546660   6.953710   4.699648   3.771307   3.769733
    25  H    9.119537   6.620629   4.566896   2.550992   3.127160
    26  Cl   5.620812   6.188426   7.538120   7.279360   7.257238
    27  C    2.639617   5.144475   7.408940   8.970271   8.980072
    28  F    2.749357   5.217414   7.464257   9.349782   9.142542
    29  F    3.992731   6.420010   8.656275   9.997544  10.004646
    30  F    2.751599   5.234432   7.466169   9.113399   9.347672
    31  O    3.273317   2.076318   3.033324   5.830383   5.878124
    32  O    5.244771   3.092376   2.074996   4.795004   4.859632
    33  C    4.615109   2.993418   2.906400   5.750649   5.818620
    34  C    5.600891   4.410135   4.344023   7.117073   7.203895
    35  C    7.025955   5.506902   4.829087   7.351224   7.450882
    36  H    5.614819   4.730993   4.923837   7.823413   7.699517
    37  H    5.588442   4.727302   4.922684   7.565413   7.863052
    38  H    7.318554   5.604683   4.676359   7.176205   7.044355
    39  H    7.764006   6.474012   5.931109   8.447620   8.554237
    40  H    7.297200   5.600765   4.674822   6.892651   7.223331
                   21         22         23         24         25
    21  H    0.000000
    22  H    1.808622   0.000000
    23  H    2.503997   3.089249   0.000000
    24  H    2.484872   2.484775   1.804652   0.000000
    25  H    3.089378   2.503511   1.810811   1.804697   0.000000
    26  Cl   9.279889   9.298668   9.700024  10.869281   9.718064
    27  C    9.835000   9.828138  11.421666  12.008321  11.415562
    28  F    9.793014   9.988544  11.531493  12.101308  11.697984
    29  F   11.046397  11.042027  12.498106  13.181181  12.494078
    30  F    9.995253   9.778954  11.692680  12.092849  11.507886
    31  O    5.244877   5.193309   7.529007   7.427463   7.492815
    32  O    3.458633   3.368852   5.870317   5.445736   5.817478
    33  C    4.629349   4.545412   7.044742   6.670255   6.989456
    34  C    5.709765   5.601427   8.171734   7.566549   8.095931
    35  C    5.534388   5.400630   7.932651   7.043382   7.839408
    36  H    6.253183   6.406348   8.752533   8.260552   8.862356
    37  H    6.509442   6.148687   8.906775   8.255405   8.645920
    38  H    4.970259   5.155891   7.369579   6.521320   7.495795
    39  H    6.585923   6.447924   8.960206   7.989817   8.858737
    40  H    5.290636   4.830902   7.553188   6.515390   7.237829
                   26         27         28         29         30
    26  Cl   0.000000
    27  C    5.266261   0.000000
    28  F    6.110029   1.383135   0.000000
    29  F    5.240326   1.384393   2.245991   0.000000
    30  F    6.111579   1.383101   2.252420   2.246058   0.000000
    31  O    8.097004   5.842028   5.641495   7.221731   5.609537
    32  O    9.157071   7.880762   7.737976   9.235851   7.704410
    33  C    9.173810   7.191189   6.964287   8.570837   6.920087
    34  C   10.540417   8.018413   7.672838   9.398826   7.606175
    35  C   11.688864   9.503970   9.170216  10.887034   9.099493
    36  H   10.749197   7.905932   7.376802   9.271291   7.576349
    37  H   10.678002   7.865403   7.616395   9.223984   7.271743
    38  H   11.754644   9.846442   9.438946  11.228123   9.587455
    39  H   12.646124  10.136011   9.740507  11.509558   9.658597
    40  H   11.688338   9.812634   9.627009  11.187739   9.346417
                   31         32         33         34         35
    31  O    0.000000
    32  O    2.227503   0.000000
    33  C    1.349665   1.224552   0.000000
    34  C    2.461811   2.382343   1.505393   0.000000
    35  C    3.783130   2.764414   2.532474   1.528528   0.000000
    36  H    2.749019   3.092638   2.137930   1.110888   2.160437
    37  H    2.746766   3.092691   2.137433   1.110921   2.159689
    38  H    4.082361   2.741936   2.804528   2.179736   1.110997
    39  H    4.615683   3.860095   3.481243   2.169214   1.110408
    40  H    4.080056   2.741883   2.803684   2.179548   1.111066
                   36         37         38         39         40
    36  H    0.000000
    37  H    1.804936   0.000000
    38  H    2.505765   3.089672   0.000000
    39  H    2.484815   2.483813   1.804441   0.000000
    40  H    3.090087   2.504501   1.812622   1.804296   0.000000
 Stoichiometry    C14H17ClF3N2O3(1-)
 Framework group  C1[X(C14H17ClF3N2O3)]
 Deg. of freedom   114
 Full point group                 C1      NOp   1
 Largest Abelian subgroup         C1      NOp   1
 Largest concise Abelian subgroup C1      NOp   1
                         Standard orientation:                         
 ---------------------------------------------------------------------
 Center     Atomic      Atomic             Coordinates (Angstroms)
 Number     Number       Type             X           Y           Z
 ---------------------------------------------------------------------
      1          6           0       -3.867561   -0.562850   -0.019297
      2          6           0       -3.121867   -1.739688   -0.025967
      3          6           0       -1.727092   -1.687054   -0.003148
      4          6           0       -1.039708   -0.457608    0.025613
      5          6           0       -1.815518    0.729612    0.032530
      6          6           0       -3.221498    0.681796    0.010539
      7          1           0       -4.947911   -0.627910   -0.036808
      8          7           0        0.403391   -0.491522    0.048811
      9          6           0        1.215834   -1.596553    0.011446
     10          7           0        2.571490   -1.441847    0.040068
     11          8           0        0.750208   -2.723223   -0.043323
     12          6           0        3.466774   -2.587050    0.006965
     13          6           0        4.933666   -2.146126    0.051884
     14          6           0        5.872401   -3.348697    0.019025
     15          1           0       -1.182141   -2.620750   -0.009782
     16          1           0       -1.378196    1.709848    0.057795
     17          1           0        0.930686    0.522770    0.108712
     18          1           0        3.016936   -0.391090    0.091029
     19          1           0        3.287970   -3.164186   -0.927125
     20          1           0        3.256434   -3.240551    0.882358
     21          1           0        5.119511   -1.570069    0.984525
     22          1           0        5.152879   -1.495024   -0.822231
     23          1           0        5.687375   -4.007161    0.894434
     24          1           0        6.925938   -2.999722    0.053127
     25          1           0        5.720785   -3.931525   -0.914488
     26         17           0       -3.938782   -3.292386   -0.062996
     27          6           0       -4.004419    1.972803    0.020593
     28          9           0       -3.697336    2.688360    1.163719
     29          9           0       -5.370275    1.748277   -0.003325
     30          9           0       -3.664000    2.726334   -1.088134
     31          8           0        1.822211    2.396463    0.034176
     32          8           0        3.862285    1.502337    0.014041
     33          6           0        3.166645    2.510010   -0.000434
     34          6           0        3.782924    3.882266   -0.058062
     35          6           0        5.310709    3.854315   -0.096657
     36          1           0        3.456975    4.456211    0.835480
     37          1           0        3.411470    4.400109   -0.968010
     38          1           0        5.711094    3.361954    0.815257
     39          1           0        5.700446    4.893206   -0.139292
     40          1           0        5.663991    3.305624   -0.995877
 ---------------------------------------------------------------------
 Rotational constants (GHZ):      0.2423274      0.1100595      0.0770002
 General basis read from cards:  (6D, 7F)
 There are   475 symmetry adapted cartesian basis functions of A   symmetry.
 There are   475 symmetry adapted basis functions of A   symmetry.
   475 basis functions,   828 primitive gaussians,   475 cartesian basis functions
    92 alpha electrons       92 beta electrons
       nuclear repulsion energy      2027.9755606053 Hartrees.
 NAtoms=   40 NActive=   40 NUniq=   40 SFac= 1.00D+00 NAtFMM=   60 NAOKFM=F Big=F
 Integral buffers will be    131072 words long.
 Raffenetti 2 integral format.
 Two-electron integral symmetry is turned on.
 ------------------------------------------------------------------------------
 Polarizable Continuum Model (PCM)
 =================================
 Model                : PCM (using non-symmetric T matrix).
 Atomic radii         : SMD-Coulomb.
 Polarization charges : Total charges.
 Charge compensation  : None.
 Solution method      : On-the-fly selection.
 Cavity type          : VdW (van der Waals Surface) (Alpha=1.000).
 Cavity algorithm     : GePol (No added spheres)
                        Default sphere list used, NSphG=   40.
                        Lebedev-Laikov grids with approx.  5.0 points / Ang**2.
                        Smoothing algorithm: York/Karplus (Gamma=1.0000).
                        Polarization charges: spherical gaussians, with
                                              point-specific exponents (IZeta= 3).
                        Self-potential: point-specific (ISelfS= 7).
                        Self-field    : sphere-specific E.n sum rule (ISelfD= 2).
 1st derivatives      : Analytical E(r).r(x)/FMM algorithm (CHGder, D1EAlg=3).
                        Cavity 1st derivative terms included.
 Solvent              : Water, Eps=  78.355300 Eps(inf)=   1.777849
 ------------------------------------------------------------------------------
 ------------------------------------------------------------------------------
 Atomic radii for non-electrostatic terms: SMD-CDS.
 ------------------------------------------------------------------------------
 Nuclear repulsion after PCM non-electrostatic terms =     2027.9907694070 Hartrees.
 One-electron integrals computed using PRISM.
 NBasis=   475 RedAO= T EigKep=  1.53D-06  NBF=   475
 NBsUse=   473 1.00D-06 EigRej=  6.69D-07 NBFU=   473
 ExpMin= 4.38D-02 ExpMax= 2.52D+04 ExpMxC= 3.78D+03 IAcc=3 IRadAn=         5 AccDes= 0.00D+00
 Harris functional with IExCor= 1009 and IRadAn=       5 diagonalized for initial guess.
 HarFok:  IExCor= 1009 AccDes= 0.00D+00 IRadAn=         5 IDoV= 1 UseB2=F ITyADJ=14
 ICtDFT=  3500011 ScaDFX=  1.000000  1.000000  1.000000  1.000000
 FoFCou: FMM=F IPFlag=           0 FMFlag=      100000 FMFlg1=           0
         NFxFlg=           0 DoJE=T BraDBF=F KetDBF=T FulRan=T
         wScrn=  0.000000 ICntrl=     500 IOpCl=  0 I1Cent=   200000004 NGrid=           0
         NMat0=    1 NMatS0=      1 NMatT0=    0 NMatD0=    1 NMtDS0=    0 NMtDT0=    0
 Petite list used in FoFCou.
 Requested convergence on RMS density matrix=1.00D-08 within 128 cycles.
 Requested convergence on MAX density matrix=1.00D-06.
 Requested convergence on             energy=1.00D-06.
 No special actions if energy rises.
 Inv3:  Mode=1 IEnd=    31492800.
 Iteration    1 A*A^-1 deviation from unit magnitude is 6.44D-15 for    397.
 Iteration    1 A*A^-1 deviation from orthogonality  is 3.80D-15 for   2979   2656.
 Iteration    1 A^-1*A deviation from unit magnitude is 7.99D-15 for    384.
 Iteration    1 A^-1*A deviation from orthogonality  is 1.78D-12 for   1633   1620.
 Error on total polarization charges =  0.06067
 SCF Done:  E(RM062X) =  -1638.36375447     A.U. after   15 cycles
            NFock= 15  Conv=0.38D-08     -V/T= 2.0074
 SMD-CDS (non-electrostatic) energy       (kcal/mol) =       9.54
 (included in total energy above)

 **********************************************************************

            Population analysis using the SCF density.

 **********************************************************************

 Orbital symmetries:
       Occupied  (A) (A) (A) (A) (A) (A) (A) (A) (A) (A) (A) (A)
                 (A) (A) (A) (A) (A) (A) (A) (A) (A) (A) (A) (A)
                 (A) (A) (A) (A) (A) (A) (A) (A) (A) (A) (A) (A)
                 (A) (A) (A) (A) (A) (A) (A) (A) (A) (A) (A) (A)
                 (A) (A) (A) (A) (A) (A) (A) (A) (A) (A) (A) (A)
                 (A) (A) (A) (A) (A) (A) (A) (A) (A) (A) (A) (A)
                 (A) (A) (A) (A) (A) (A) (A) (A) (A) (A) (A) (A)
                 (A) (A) (A) (A) (A) (A) (A) (A)
       Virtual   (A) (A) (A) (A) (A) (A) (A) (A) (A) (A) (A) (A)
                 (A) (A) (A) (A) (A) (A) (A) (A) (A) (A) (A) (A)
                 (A) (A) (A) (A) (A) (A) (A) (A) (A) (A) (A) (A)
                 (A) (A) (A) (A) (A) (A) (A) (A) (A) (A) (A) (A)
                 (A) (A) (A) (A) (A) (A) (A) (A) (A) (A) (A) (A)
                 (A) (A) (A) (A) (A) (A) (A) (A) (A) (A) (A) (A)
                 (A) (A) (A) (A) (A) (A) (A) (A) (A) (A) (A) (A)
                 (A) (A) (A) (A) (A) (A) (A) (A) (A) (A) (A) (A)
                 (A) (A) (A) (A) (A) (A) (A) (A) (A) (A) (A) (A)
                 (A) (A) (A) (A) (A) (A) (A) (A) (A) (A) (A) (A)
                 (A) (A) (A) (A) (A) (A) (A) (A) (A) (A) (A) (A)
                 (A) (A) (A) (A) (A) (A) (A) (A) (A) (A) (A) (A)
                 (A) (A) (A) (A) (A) (A) (A) (A) (A) (A) (A) (A)
                 (A) (A) (A) (A) (A) (A) (A) (A) (A) (A) (A) (A)
                 (A) (A) (A) (A) (A) (A) (A) (A) (A) (A) (A) (A)
                 (A) (A) (A) (A) (A) (A) (A) (A) (A) (A) (A) (A)
                 (A) (A) (A) (A) (A) (A) (A) (A) (A) (A) (A) (A)
                 (A) (A) (A) (A) (A) (A) (A) (A) (A) (A) (A) (A)
                 (A) (A) (A) (A) (A) (A) (A) (A) (A) (A) (A) (A)
                 (A) (A) (A) (A) (A) (A) (A) (A) (A) (A) (A) (A)
                 (A) (A) (A) (A) (A) (A) (A) (A) (A) (A) (A) (A)
                 (A) (A) (A) (A) (A) (A) (A) (A) (A) (A) (A) (A)
                 (A) (A) (A) (A) (A) (A) (A) (A) (A) (A) (A) (A)
                 (A) (A) (A) (A) (A) (A) (A) (A) (A) (A) (A) (A)
                 (A) (A) (A) (A) (A) (A) (A) (A) (A) (A) (A) (A)
                 (A) (A) (A) (A) (A) (A) (A) (A) (A) (A) (A) (A)
                 (A) (A) (A) (A) (A) (A) (A) (A) (A) (A) (A) (A)
                 (A) (A) (A) (A) (A) (A) (A) (A) (A) (A) (A) (A)
                 (A) (A) (A) (A) (A) (A) (A) (A) (A) (A) (A) (A)
                 (A) (A) (A) (A) (A) (A) (A) (A) (A) (A) (A) (A)
                 (A) (A) (A) (A) (A) (A) (A) (A) (A) (A) (A) (A)
                 (A) (A) (A) (A) (A) (A) (A) (A) (A)
 The electronic state is 1-A.
 Alpha  occ. eigenvalues -- -102.68203 -25.31464 -25.31226 -25.31222 -19.61336
 Alpha  occ. eigenvalues --  -19.61325 -19.59351 -14.80500 -14.78144 -10.83210
 Alpha  occ. eigenvalues --  -10.68590 -10.65206 -10.63045 -10.62884 -10.59868
 Alpha  occ. eigenvalues --  -10.58005 -10.57692 -10.57691 -10.56617 -10.54318
 Alpha  occ. eigenvalues --  -10.54286 -10.53292 -10.53235  -9.82830  -7.55233
 Alpha  occ. eigenvalues --   -7.54575  -7.54556  -1.45241  -1.37515  -1.37447
 Alpha  occ. eigenvalues --   -1.18694  -1.16691  -1.04133  -1.03864  -1.01401
 Alpha  occ. eigenvalues --   -0.99631  -0.95247  -0.88910  -0.86856  -0.85994
 Alpha  occ. eigenvalues --   -0.84362  -0.81312  -0.77091  -0.73047  -0.71915
 Alpha  occ. eigenvalues --   -0.71312  -0.68880  -0.68549  -0.66930  -0.66175
 Alpha  occ. eigenvalues --   -0.63436  -0.61252  -0.59186  -0.58830  -0.57900
 Alpha  occ. eigenvalues --   -0.57590  -0.56973  -0.55252  -0.55030  -0.54184
 Alpha  occ. eigenvalues --   -0.53258  -0.53045  -0.52918  -0.52457  -0.52331
 Alpha  occ. eigenvalues --   -0.51885  -0.50987  -0.50225  -0.49576  -0.48442
 Alpha  occ. eigenvalues --   -0.47962  -0.45818  -0.45517  -0.45375  -0.44897
 Alpha  occ. eigenvalues --   -0.43617  -0.43577  -0.41992  -0.41382  -0.40920
 Alpha  occ. eigenvalues --   -0.39770  -0.39167  -0.38963  -0.38845  -0.37576
 Alpha  occ. eigenvalues --   -0.34716  -0.33087  -0.32910  -0.32247  -0.31682
 Alpha  occ. eigenvalues --   -0.31196  -0.27821
 Alpha virt. eigenvalues --   -0.01035   0.00432   0.01358   0.02508   0.02965
 Alpha virt. eigenvalues --    0.03622   0.03820   0.03895   0.04503   0.04802
 Alpha virt. eigenvalues --    0.05340   0.05463   0.05658   0.05970   0.06410
 Alpha virt. eigenvalues --    0.07121   0.07425   0.07517   0.07809   0.07829
 Alpha virt. eigenvalues --    0.08257   0.08413   0.09411   0.09621   0.10166
 Alpha virt. eigenvalues --    0.10280   0.10396   0.10440   0.10830   0.10915
 Alpha virt. eigenvalues --    0.11970   0.12290   0.12598   0.12855   0.13103
 Alpha virt. eigenvalues --    0.13481   0.13751   0.14003   0.14377   0.14907
 Alpha virt. eigenvalues --    0.15035   0.15278   0.15491   0.15734   0.16749
 Alpha virt. eigenvalues --    0.17340   0.17642   0.17735   0.18269   0.18820
 Alpha virt. eigenvalues --    0.18988   0.19532   0.19838   0.20449   0.20672
 Alpha virt. eigenvalues --    0.20964   0.21259   0.22050   0.22077   0.23076
 Alpha virt. eigenvalues --    0.23556   0.23703   0.23872   0.24116   0.24346
 Alpha virt. eigenvalues --    0.24462   0.24832   0.25019   0.25428   0.25714
 Alpha virt. eigenvalues --    0.26129   0.27316   0.27378   0.27497   0.27798
 Alpha virt. eigenvalues --    0.28052   0.28379   0.29055   0.29104   0.29517
 Alpha virt. eigenvalues --    0.29736   0.30187   0.30863   0.30919   0.31218
 Alpha virt. eigenvalues --    0.31502   0.31993   0.32120   0.32466   0.32749
 Alpha virt. eigenvalues --    0.32888   0.33386   0.33428   0.33774   0.33974
 Alpha virt. eigenvalues --    0.34359   0.34774   0.35464   0.36211   0.36665
 Alpha virt. eigenvalues --    0.37240   0.37314   0.37944   0.38598   0.39161
 Alpha virt. eigenvalues --    0.39258   0.39514   0.39694   0.39863   0.40397
 Alpha virt. eigenvalues --    0.41100   0.41833   0.42696   0.43412   0.43929
 Alpha virt. eigenvalues --    0.44334   0.44686   0.44905   0.45739   0.46823
 Alpha virt. eigenvalues --    0.47730   0.47792   0.48914   0.51278   0.52048
 Alpha virt. eigenvalues --    0.53054   0.53869   0.54431   0.54944   0.55656
 Alpha virt. eigenvalues --    0.58803   0.59450   0.60416   0.61651   0.64783
 Alpha virt. eigenvalues --    0.68356   0.69952   0.70214   0.70564   0.70998
 Alpha virt. eigenvalues --    0.71364   0.71678   0.73034   0.73487   0.74303
 Alpha virt. eigenvalues --    0.74867   0.75350   0.75640   0.76102   0.76886
 Alpha virt. eigenvalues --    0.77272   0.78754   0.79465   0.79782   0.80437
 Alpha virt. eigenvalues --    0.81313   0.81792   0.82575   0.82849   0.84107
 Alpha virt. eigenvalues --    0.84904   0.85910   0.86887   0.87734   0.88735
 Alpha virt. eigenvalues --    0.89531   0.90373   0.90605   0.91879   0.93568
 Alpha virt. eigenvalues --    0.93747   0.95117   0.95983   0.97624   0.98051
 Alpha virt. eigenvalues --    0.98730   0.99861   1.00011   1.00125   1.01093
 Alpha virt. eigenvalues --    1.01866   1.03221   1.05735   1.06095   1.06276
 Alpha virt. eigenvalues --    1.06576   1.07077   1.08410   1.08836   1.11575
 Alpha virt. eigenvalues --    1.12137   1.12273   1.14547   1.15355   1.15617
 Alpha virt. eigenvalues --    1.16486   1.17629   1.18350   1.18770   1.20253
 Alpha virt. eigenvalues --    1.20999   1.21093   1.21356   1.23288   1.23680
 Alpha virt. eigenvalues --    1.24645   1.25816   1.27992   1.29013   1.29636
 Alpha virt. eigenvalues --    1.30419   1.31624   1.31850   1.33007   1.34650
 Alpha virt. eigenvalues --    1.34699   1.37256   1.38063   1.39697   1.40317
 Alpha virt. eigenvalues --    1.42339   1.42993   1.45049   1.45506   1.46428
 Alpha virt. eigenvalues --    1.46594   1.48123   1.48794   1.50853   1.51180
 Alpha virt. eigenvalues --    1.51756   1.52442   1.53751   1.53983   1.56797
 Alpha virt. eigenvalues --    1.57362   1.58510   1.58750   1.61089   1.62397
 Alpha virt. eigenvalues --    1.64168   1.64723   1.66605   1.67362   1.67462
 Alpha virt. eigenvalues --    1.67926   1.70926   1.71555   1.73341   1.73477
 Alpha virt. eigenvalues --    1.74419   1.74980   1.75725   1.76215   1.78025
 Alpha virt. eigenvalues --    1.79319   1.82293   1.83025   1.84187   1.86038
 Alpha virt. eigenvalues --    1.86242   1.86481   1.87090   1.87154   1.87793
 Alpha virt. eigenvalues --    1.88796   1.89375   1.89787   1.90323   1.90565
 Alpha virt. eigenvalues --    1.91088   1.91592   1.92241   1.92551   1.94939
 Alpha virt. eigenvalues --    1.95888   1.96905   1.97289   1.98143   1.99635
 Alpha virt. eigenvalues --    2.01733   2.02178   2.03348   2.03694   2.04263
 Alpha virt. eigenvalues --    2.04634   2.05098   2.06454   2.06619   2.07235
 Alpha virt. eigenvalues --    2.07452   2.08058   2.08893   2.10385   2.11450
 Alpha virt. eigenvalues --    2.12559   2.13192   2.13890   2.16182   2.16912
 Alpha virt. eigenvalues --    2.18970   2.19839   2.21123   2.21736   2.24675
 Alpha virt. eigenvalues --    2.26215   2.27192   2.28257   2.28485   2.29228
 Alpha virt. eigenvalues --    2.30687   2.31171   2.31590   2.35673   2.37126
 Alpha virt. eigenvalues --    2.38101   2.38339   2.38537   2.39238   2.41041
 Alpha virt. eigenvalues --    2.42536   2.46545   2.49691   2.50038   2.55090
 Alpha virt. eigenvalues --    2.55285   2.56932   2.60814   2.62004   2.64246
 Alpha virt. eigenvalues --    2.64288   2.67180   2.69933   2.70560   2.72695
 Alpha virt. eigenvalues --    2.73256   2.74590   2.76311   2.76558   2.79950
 Alpha virt. eigenvalues --    2.81798   2.84080   2.85604   2.87515   2.93058
 Alpha virt. eigenvalues --    2.98909   3.01241   3.02574   3.11250   3.11772
 Alpha virt. eigenvalues --    3.13217   3.15439   3.18245   3.25348   3.27221
 Alpha virt. eigenvalues --    3.27548   3.29500   3.40751   4.20484   4.22717
 Alpha virt. eigenvalues --    4.27512   4.29521   4.31227   4.32344   4.38160
 Alpha virt. eigenvalues --    4.39958   4.42827   4.43268   4.46064   4.49075
 Alpha virt. eigenvalues --    4.49502   4.53508   4.56849   4.59939   4.64321
 Alpha virt. eigenvalues --    4.70298   4.76391   4.78960   5.45446   5.98392
 Alpha virt. eigenvalues --    6.78900
          Condensed to atoms (all electrons):
               1          2          3          4          5          6
     1  C   16.408424  -1.538787  -4.211210  -3.241936  -0.680372  -1.976847
     2  C   -1.538787   9.595698   2.373412  -2.201691  -1.432883  -0.678084
     3  C   -4.211210   2.373412  13.078389   0.139269  -3.864875  -1.260623
     4  C   -3.241936  -2.201691   0.139269  16.016805   0.267991  -2.857122
     5  C   -0.680372  -1.432883  -3.864875   0.267991  11.944671   1.376521
     6  C   -1.976847  -0.678084  -1.260623  -2.857122   1.376521  13.466736
     7  H    0.216320   0.038617   0.061379   0.016554  -0.030722   0.026391
     8  N   -0.034747   0.129205  -0.004871  -0.099240   0.031347   0.022445
     9  C   -0.287892  -0.334989  -0.524779  -0.051671   0.216313  -0.342671
    10  N   -0.015714  -0.012193  -0.077074   0.012264  -0.066174  -0.021798
    11  O   -0.030412   0.127227   0.426125  -0.398586  -0.126953   0.002066
    12  C   -0.007197  -0.037385  -0.177800  -0.178409   0.002741  -0.041462
    13  C    0.001316  -0.001645  -0.019459   0.013554   0.015485   0.002895
    14  C   -0.000019  -0.000431  -0.005189  -0.002598  -0.000415  -0.000507
    15  H    0.068969  -0.009498   0.283416  -0.061444   0.015363  -0.025887
    16  H    0.055645  -0.008653  -0.037640  -0.269046   0.314809   0.172999
    17  H   -0.005406   0.005657   0.039093   0.005407  -0.042317   0.006360
    18  H   -0.000019  -0.000284   0.002781   0.002292   0.004145   0.000626
    19  H    0.000003   0.000041   0.000285  -0.003614  -0.000052  -0.000055
    20  H    0.000022   0.000096  -0.000239  -0.002467   0.000220  -0.000013
    21  H    0.000002   0.000013   0.000169  -0.000781   0.000024  -0.000006
    22  H    0.000002   0.000003  -0.000052  -0.000725   0.000062  -0.000007
    23  H    0.000000   0.000000  -0.000018   0.000005   0.000001  -0.000000
    24  H    0.000000   0.000000  -0.000002  -0.000036  -0.000001  -0.000000
    25  H    0.000000   0.000000  -0.000029   0.000018   0.000002  -0.000000
    26  Cl  -0.076028  -0.141397   0.005713   0.000164   0.023197  -0.009536
    27  C    2.407007  -0.268789  -0.539196  -1.786760  -1.330728  -0.847265
    28  F   -0.078672   0.032151   0.019778   0.021750  -0.052358   0.036631
    29  F   -0.143398   0.130387   0.024312   0.020544   0.050451  -0.034310
    30  F   -0.082158   0.033355   0.019174   0.023816  -0.056860   0.047474
    31  O   -0.000543  -0.000180  -0.015241  -0.155692   0.125711   0.031788
    32  O    0.000087  -0.000351  -0.004074  -0.008010   0.009204   0.000225
    33  C    0.000639  -0.001021  -0.005243   0.016022  -0.017341  -0.001934
    34  C   -0.001199  -0.000525  -0.004333   0.006196  -0.004999  -0.001373
    35  C    0.000099  -0.000000  -0.000317  -0.002029   0.001292   0.000204
    36  H    0.000004  -0.000001  -0.000025  -0.000435   0.000404   0.000090
    37  H    0.000003  -0.000001  -0.000037  -0.000447   0.000429   0.000102
    38  H    0.000000   0.000000  -0.000000  -0.000017   0.000023   0.000002
    39  H   -0.000000   0.000000   0.000000   0.000007  -0.000006  -0.000000
    40  H    0.000000   0.000000  -0.000001  -0.000029   0.000030   0.000002
               7          8          9         10         11         12
     1  C    0.216320  -0.034747  -0.287892  -0.015714  -0.030412  -0.007197
     2  C    0.038617   0.129205  -0.334989  -0.012193   0.127227  -0.037385
     3  C    0.061379  -0.004871  -0.524779  -0.077074   0.426125  -0.177800
     4  C    0.016554  -0.099240  -0.051671   0.012264  -0.398586  -0.178409
     5  C   -0.030722   0.031347   0.216313  -0.066174  -0.126953   0.002741
     6  C    0.026391   0.022445  -0.342671  -0.021798   0.002066  -0.041462
     7  H    0.420158   0.000065   0.000528   0.000001   0.000016   0.000002
     8  N    0.000065   7.700547   0.296934  -0.288642  -0.065516  -0.158877
     9  C    0.000528   0.296934   6.243425   0.479486   0.559329  -0.818433
    10  N    0.000001  -0.288642   0.479486   7.582906  -0.187148   0.273667
    11  O    0.000016  -0.065516   0.559329  -0.187148   8.497969  -0.102157
    12  C    0.000002  -0.158877  -0.818433   0.273667  -0.102157   7.124970
    13  C    0.000000   0.012352   0.167522  -0.053812   0.022379  -0.435507
    14  C    0.000000  -0.003124  -0.041320  -0.009592  -0.001271   0.016277
    15  H   -0.000118  -0.018243   0.037291   0.000579  -0.015246   0.005780
    16  H   -0.000105  -0.002594  -0.020781  -0.000004   0.000019  -0.000657
    17  H   -0.000000   0.179196  -0.038023   0.026508   0.003805   0.005757
    18  H   -0.000000   0.028070   0.026388   0.192452   0.005515  -0.058802
    19  H    0.000000  -0.000186  -0.039000  -0.051378   0.002376   0.447458
    20  H   -0.000000  -0.000149  -0.037280  -0.050539   0.002192   0.444633
    21  H   -0.000000   0.000115  -0.001805   0.006308  -0.000120  -0.085020
    22  H    0.000000   0.000041  -0.004593   0.007067  -0.000118  -0.082333
    23  H    0.000000   0.000018   0.001070   0.000403  -0.000033  -0.011946
    24  H    0.000000   0.000007  -0.002324   0.000377   0.000005   0.026642
    25  H   -0.000000   0.000014   0.000905   0.000436  -0.000042  -0.010293
    26  Cl  -0.000956   0.000997   0.017735   0.001385  -0.002075   0.002513
    27  C   -0.030502  -0.032679  -0.164512  -0.004795   0.000250  -0.005894
    28  F   -0.000147   0.000395  -0.001370   0.000009   0.000001  -0.000010
    29  F    0.007334   0.000100  -0.000347   0.000001   0.000001  -0.000003
    30  F   -0.000148   0.000419  -0.000903   0.000010   0.000002  -0.000005
    31  O    0.000000  -0.011068  -0.000951   0.007381  -0.000558   0.013239
    32  O    0.000000   0.009654  -0.000539  -0.011675   0.000008  -0.008371
    33  C   -0.000000  -0.012370  -0.000746  -0.008185  -0.000549   0.008717
    34  C   -0.000000  -0.011540  -0.017394  -0.009086  -0.000328   0.014104
    35  C   -0.000000   0.001558   0.001268   0.002491   0.000047  -0.002085
    36  H   -0.000000   0.000033  -0.000082   0.000016  -0.000000  -0.000009
    37  H   -0.000000  -0.000006  -0.000090   0.000029  -0.000000   0.000004
    38  H    0.000000  -0.000001   0.000027   0.000024   0.000000  -0.000074
    39  H    0.000000  -0.000002   0.000012   0.000002   0.000000  -0.000002
    40  H    0.000000   0.000006   0.000010   0.000001   0.000000  -0.000095
              13         14         15         16         17         18
     1  C    0.001316  -0.000019   0.068969   0.055645  -0.005406  -0.000019
     2  C   -0.001645  -0.000431  -0.009498  -0.008653   0.005657  -0.000284
     3  C   -0.019459  -0.005189   0.283416  -0.037640   0.039093   0.002781
     4  C    0.013554  -0.002598  -0.061444  -0.269046   0.005407   0.002292
     5  C    0.015485  -0.000415   0.015363   0.314809  -0.042317   0.004145
     6  C    0.002895  -0.000507  -0.025887   0.172999   0.006360   0.000626
     7  H    0.000000   0.000000  -0.000118  -0.000105  -0.000000  -0.000000
     8  N    0.012352  -0.003124  -0.018243  -0.002594   0.179196   0.028070
     9  C    0.167522  -0.041320   0.037291  -0.020781  -0.038023   0.026388
    10  N   -0.053812  -0.009592   0.000579  -0.000004   0.026508   0.192452
    11  O    0.022379  -0.001271  -0.015246   0.000019   0.003805   0.005515
    12  C   -0.435507   0.016277   0.005780  -0.000657   0.005757  -0.058802
    13  C    6.240990  -0.141245   0.000056   0.000018  -0.000117   0.002620
    14  C   -0.141245   5.790685   0.000030  -0.000001   0.000074  -0.002337
    15  H    0.000056   0.000030   0.408361  -0.000080  -0.000096   0.000002
    16  H    0.000018  -0.000001  -0.000080   0.421199   0.002545   0.000001
    17  H   -0.000117   0.000074  -0.000096   0.002545   0.256227   0.003473
    18  H    0.002620  -0.002337   0.000002   0.000001   0.003473   0.263191
    19  H   -0.047385  -0.001531  -0.000001   0.000000   0.000005   0.001763
    20  H   -0.044522  -0.004280  -0.000003   0.000000   0.000003   0.001661
    21  H    0.417919  -0.021933  -0.000000  -0.000000   0.000002   0.000739
    22  H    0.421508  -0.025947  -0.000000  -0.000000   0.000001   0.000622
    23  H   -0.067805   0.422237  -0.000000  -0.000000  -0.000000  -0.000000
    24  H   -0.110113   0.436593   0.000000  -0.000000  -0.000000  -0.000002
    25  H   -0.069172   0.422150  -0.000000  -0.000000  -0.000000   0.000000
    26  Cl  -0.000056   0.000017   0.006980   0.000092  -0.000002   0.000001
    27  C    0.000155  -0.000037   0.001468   0.089199   0.003672   0.000047
    28  F   -0.000000   0.000000   0.000001   0.001383   0.000005   0.000000
    29  F    0.000000  -0.000000  -0.000001   0.000340   0.000000  -0.000000
    30  F   -0.000000   0.000000   0.000001   0.001346   0.000006   0.000000
    31  O   -0.002343   0.000051   0.000001  -0.001430   0.045169   0.003147
    32  O    0.004931   0.001884   0.000001  -0.000002   0.000315   0.035493
    33  C   -0.007047  -0.001904  -0.000035  -0.000102  -0.004398  -0.006931
    34  C   -0.000941   0.001649  -0.000003   0.000349   0.004539   0.001376
    35  C    0.000385  -0.000038   0.000000  -0.000019  -0.000347  -0.000243
    36  H    0.000018   0.000001   0.000000   0.000000  -0.000002  -0.000005
    37  H    0.000002  -0.000000   0.000000   0.000000  -0.000001  -0.000005
    38  H   -0.000072  -0.000030   0.000000   0.000000   0.000000  -0.000001
    39  H    0.000005  -0.000001  -0.000000   0.000000   0.000000   0.000000
    40  H   -0.000025   0.000002   0.000000   0.000000   0.000000  -0.000000
              19         20         21         22         23         24
     1  C    0.000003   0.000022   0.000002   0.000002   0.000000   0.000000
     2  C    0.000041   0.000096   0.000013   0.000003   0.000000   0.000000
     3  C    0.000285  -0.000239   0.000169  -0.000052  -0.000018  -0.000002
     4  C   -0.003614  -0.002467  -0.000781  -0.000725   0.000005  -0.000036
     5  C   -0.000052   0.000220   0.000024   0.000062   0.000001  -0.000001
     6  C   -0.000055  -0.000013  -0.000006  -0.000007  -0.000000  -0.000000
     7  H    0.000000  -0.000000  -0.000000   0.000000   0.000000   0.000000
     8  N   -0.000186  -0.000149   0.000115   0.000041   0.000018   0.000007
     9  C   -0.039000  -0.037280  -0.001805  -0.004593   0.001070  -0.002324
    10  N   -0.051378  -0.050539   0.006308   0.007067   0.000403   0.000377
    11  O    0.002376   0.002192  -0.000120  -0.000118  -0.000033   0.000005
    12  C    0.447458   0.444633  -0.085020  -0.082333  -0.011946   0.026642
    13  C   -0.047385  -0.044522   0.417919   0.421508  -0.067805  -0.110113
    14  C   -0.001531  -0.004280  -0.021933  -0.025947   0.422237   0.436593
    15  H   -0.000001  -0.000003  -0.000000  -0.000000  -0.000000   0.000000
    16  H    0.000000   0.000000  -0.000000  -0.000000  -0.000000  -0.000000
    17  H    0.000005   0.000003   0.000002   0.000001  -0.000000  -0.000000
    18  H    0.001763   0.001661   0.000739   0.000622  -0.000000  -0.000002
    19  H    0.498275  -0.040841   0.003813  -0.005311  -0.000300  -0.000054
    20  H   -0.040841   0.498348  -0.005268   0.003805   0.002802  -0.000053
    21  H    0.003813  -0.005268   0.489092  -0.031343  -0.004633  -0.003141
    22  H   -0.005311   0.003805  -0.031343   0.489354   0.003776  -0.003121
    23  H   -0.000300   0.002802  -0.004633   0.003776   0.487772  -0.023930
    24  H   -0.000054  -0.000053  -0.003141  -0.003121  -0.023930   0.481829
    25  H    0.002750  -0.000316   0.003779  -0.004628  -0.028570  -0.023890
    26  Cl   0.000001  -0.000000  -0.000000  -0.000000  -0.000000   0.000000
    27  C   -0.000001   0.000000  -0.000000  -0.000000  -0.000000  -0.000000
    28  F    0.000000   0.000000   0.000000  -0.000000  -0.000000   0.000000
    29  F   -0.000000  -0.000000  -0.000000  -0.000000  -0.000000  -0.000000
    30  F    0.000000   0.000000  -0.000000   0.000000   0.000000   0.000000
    31  O   -0.000003  -0.000001   0.000021   0.000024   0.000000  -0.000000
    32  O   -0.000013   0.000029  -0.000487  -0.000281  -0.000001  -0.000028
    33  C    0.000321   0.000185  -0.000525  -0.000451  -0.000019  -0.000038
    34  C    0.000083   0.000025   0.000133  -0.000103  -0.000005   0.000018
    35  C   -0.000007   0.000002  -0.000139  -0.000122   0.000000   0.000003
    36  H    0.000000  -0.000000  -0.000000  -0.000000   0.000000  -0.000000
    37  H   -0.000000   0.000000  -0.000000   0.000000   0.000000   0.000000
    38  H    0.000000   0.000000   0.000000   0.000000  -0.000000   0.000000
    39  H    0.000000   0.000000  -0.000000  -0.000000   0.000000  -0.000000
    40  H    0.000000  -0.000000   0.000000   0.000000  -0.000000   0.000000
              25         26         27         28         29         30
     1  C    0.000000  -0.076028   2.407007  -0.078672  -0.143398  -0.082158
     2  C    0.000000  -0.141397  -0.268789   0.032151   0.130387   0.033355
     3  C   -0.000029   0.005713  -0.539196   0.019778   0.024312   0.019174
     4  C    0.000018   0.000164  -1.786760   0.021750   0.020544   0.023816
     5  C    0.000002   0.023197  -1.330728  -0.052358   0.050451  -0.056860
     6  C   -0.000000  -0.009536  -0.847265   0.036631  -0.034310   0.047474
     7  H   -0.000000  -0.000956  -0.030502  -0.000147   0.007334  -0.000148
     8  N    0.000014   0.000997  -0.032679   0.000395   0.000100   0.000419
     9  C    0.000905   0.017735  -0.164512  -0.001370  -0.000347  -0.000903
    10  N    0.000436   0.001385  -0.004795   0.000009   0.000001   0.000010
    11  O   -0.000042  -0.002075   0.000250   0.000001   0.000001   0.000002
    12  C   -0.010293   0.002513  -0.005894  -0.000010  -0.000003  -0.000005
    13  C   -0.069172  -0.000056   0.000155  -0.000000   0.000000  -0.000000
    14  C    0.422150   0.000017  -0.000037   0.000000  -0.000000   0.000000
    15  H   -0.000000   0.006980   0.001468   0.000001  -0.000001   0.000001
    16  H   -0.000000   0.000092   0.089199   0.001383   0.000340   0.001346
    17  H   -0.000000  -0.000002   0.003672   0.000005   0.000000   0.000006
    18  H    0.000000   0.000001   0.000047   0.000000  -0.000000   0.000000
    19  H    0.002750   0.000001  -0.000001   0.000000  -0.000000   0.000000
    20  H   -0.000316  -0.000000   0.000000   0.000000  -0.000000   0.000000
    21  H    0.003779  -0.000000  -0.000000   0.000000  -0.000000  -0.000000
    22  H   -0.004628  -0.000000  -0.000000  -0.000000  -0.000000   0.000000
    23  H   -0.028570  -0.000000  -0.000000  -0.000000  -0.000000   0.000000
    24  H   -0.023890   0.000000  -0.000000   0.000000  -0.000000   0.000000
    25  H    0.487723  -0.000000  -0.000000   0.000000  -0.000000  -0.000000
    26  Cl  -0.000000  16.999195  -0.020954  -0.000340  -0.001122  -0.000343
    27  C   -0.000000  -0.020954   6.957092   0.154606   0.068453   0.148644
    28  F    0.000000  -0.000340   0.154606   9.230430  -0.035001  -0.049442
    29  F   -0.000000  -0.001122   0.068453  -0.035001   9.281131  -0.035089
    30  F   -0.000000  -0.000343   0.148644  -0.049442  -0.035089   9.230655
    31  O    0.000000   0.000018   0.001039   0.000024   0.000002   0.000011
    32  O   -0.000000   0.000000  -0.000005   0.000000  -0.000000   0.000000
    33  C   -0.000008  -0.000020  -0.001470   0.000086   0.000005   0.000084
    34  C   -0.000001  -0.000005  -0.000459  -0.000024  -0.000001  -0.000020
    35  C   -0.000001   0.000000  -0.000052  -0.000001  -0.000000  -0.000001
    36  H   -0.000000   0.000000   0.000002   0.000000   0.000000  -0.000000
    37  H    0.000000   0.000000   0.000003  -0.000000   0.000000   0.000000
    38  H   -0.000000   0.000000   0.000000  -0.000000   0.000000   0.000000
    39  H    0.000000   0.000000  -0.000000   0.000000  -0.000000   0.000000
    40  H   -0.000000   0.000000   0.000000   0.000000   0.000000  -0.000000
              31         32         33         34         35         36
     1  C   -0.000543   0.000087   0.000639  -0.001199   0.000099   0.000004
     2  C   -0.000180  -0.000351  -0.001021  -0.000525  -0.000000  -0.000001
     3  C   -0.015241  -0.004074  -0.005243  -0.004333  -0.000317  -0.000025
     4  C   -0.155692  -0.008010   0.016022   0.006196  -0.002029  -0.000435
     5  C    0.125711   0.009204  -0.017341  -0.004999   0.001292   0.000404
     6  C    0.031788   0.000225  -0.001934  -0.001373   0.000204   0.000090
     7  H    0.000000   0.000000  -0.000000  -0.000000  -0.000000  -0.000000
     8  N   -0.011068   0.009654  -0.012370  -0.011540   0.001558   0.000033
     9  C   -0.000951  -0.000539  -0.000746  -0.017394   0.001268  -0.000082
    10  N    0.007381  -0.011675  -0.008185  -0.009086   0.002491   0.000016
    11  O   -0.000558   0.000008  -0.000549  -0.000328   0.000047  -0.000000
    12  C    0.013239  -0.008371   0.008717   0.014104  -0.002085  -0.000009
    13  C   -0.002343   0.004931  -0.007047  -0.000941   0.000385   0.000018
    14  C    0.000051   0.001884  -0.001904   0.001649  -0.000038   0.000001
    15  H    0.000001   0.000001  -0.000035  -0.000003   0.000000   0.000000
    16  H   -0.001430  -0.000002  -0.000102   0.000349  -0.000019   0.000000
    17  H    0.045169   0.000315  -0.004398   0.004539  -0.000347  -0.000002
    18  H    0.003147   0.035493  -0.006931   0.001376  -0.000243  -0.000005
    19  H   -0.000003  -0.000013   0.000321   0.000083  -0.000007   0.000000
    20  H   -0.000001   0.000029   0.000185   0.000025   0.000002  -0.000000
    21  H    0.000021  -0.000487  -0.000525   0.000133  -0.000139  -0.000000
    22  H    0.000024  -0.000281  -0.000451  -0.000103  -0.000122  -0.000000
    23  H    0.000000  -0.000001  -0.000019  -0.000005   0.000000   0.000000
    24  H   -0.000000  -0.000028  -0.000038   0.000018   0.000003  -0.000000
    25  H    0.000000  -0.000000  -0.000008  -0.000001  -0.000001  -0.000000
    26  Cl   0.000018   0.000000  -0.000020  -0.000005   0.000000   0.000000
    27  C    0.001039  -0.000005  -0.001470  -0.000459  -0.000052   0.000002
    28  F    0.000024   0.000000   0.000086  -0.000024  -0.000001   0.000000
    29  F    0.000002  -0.000000   0.000005  -0.000001  -0.000000   0.000000
    30  F    0.000011   0.000000   0.000084  -0.000020  -0.000001  -0.000000
    31  O    8.819901  -0.176400   0.360303  -0.195562   0.022933  -0.000625
    32  O   -0.176400   8.595146   0.319279  -0.107752   0.032559   0.001753
    33  C    0.360303   0.319279   5.219005  -0.371062  -0.086902  -0.056980
    34  C   -0.195562  -0.107752  -0.371062   6.602854  -0.058992   0.413484
    35  C    0.022933   0.032559  -0.086902  -0.058992   5.686339  -0.042636
    36  H   -0.000625   0.001753  -0.056980   0.413484  -0.042636   0.459194
    37  H   -0.000642   0.001839  -0.062553   0.418999  -0.042695  -0.021718
    38  H    0.000011  -0.000654  -0.008330  -0.052817   0.408276  -0.003899
    39  H   -0.000282   0.001014   0.029081  -0.073942   0.391110  -0.002309
    40  H    0.000020  -0.000745  -0.012072  -0.048704   0.407920   0.003422
              37         38         39         40
     1  C    0.000003   0.000000  -0.000000   0.000000
     2  C   -0.000001   0.000000   0.000000   0.000000
     3  C   -0.000037  -0.000000   0.000000  -0.000001
     4  C   -0.000447  -0.000017   0.000007  -0.000029
     5  C    0.000429   0.000023  -0.000006   0.000030
     6  C    0.000102   0.000002  -0.000000   0.000002
     7  H   -0.000000   0.000000   0.000000   0.000000
     8  N   -0.000006  -0.000001  -0.000002   0.000006
     9  C   -0.000090   0.000027   0.000012   0.000010
    10  N    0.000029   0.000024   0.000002   0.000001
    11  O   -0.000000   0.000000   0.000000   0.000000
    12  C    0.000004  -0.000074  -0.000002  -0.000095
    13  C    0.000002  -0.000072   0.000005  -0.000025
    14  C   -0.000000  -0.000030  -0.000001   0.000002
    15  H    0.000000   0.000000  -0.000000   0.000000
    16  H    0.000000   0.000000   0.000000   0.000000
    17  H   -0.000001   0.000000   0.000000   0.000000
    18  H   -0.000005  -0.000001   0.000000  -0.000000
    19  H   -0.000000   0.000000   0.000000   0.000000
    20  H    0.000000   0.000000   0.000000  -0.000000
    21  H   -0.000000   0.000000  -0.000000   0.000000
    22  H    0.000000   0.000000  -0.000000   0.000000
    23  H    0.000000  -0.000000   0.000000  -0.000000
    24  H    0.000000   0.000000  -0.000000   0.000000
    25  H    0.000000  -0.000000   0.000000  -0.000000
    26  Cl   0.000000   0.000000   0.000000   0.000000
    27  C    0.000003   0.000000  -0.000000   0.000000
    28  F   -0.000000  -0.000000   0.000000   0.000000
    29  F    0.000000   0.000000  -0.000000   0.000000
    30  F    0.000000   0.000000   0.000000  -0.000000
    31  O   -0.000642   0.000011  -0.000282   0.000020
    32  O    0.001839  -0.000654   0.001014  -0.000745
    33  C   -0.062553  -0.008330   0.029081  -0.012072
    34  C    0.418999  -0.052817  -0.073942  -0.048704
    35  C   -0.042695   0.408276   0.391110   0.407920
    36  H   -0.021718  -0.003899  -0.002309   0.003422
    37  H    0.459441   0.003428  -0.002337  -0.003924
    38  H    0.003428   0.485436  -0.024733  -0.026911
    39  H   -0.002337  -0.024733   0.489039  -0.024726
    40  H   -0.003924  -0.026911  -0.024726   0.485600
 Mulliken charges:
               1
     1  C   -0.745986
     2  C    0.202925
     3  C    0.279028
     4  C    0.760123
     5  C   -0.693378
     6  C   -1.094057
     7  H    0.275332
     8  N   -0.669662
     9  C    0.684252
    10  N   -0.725994
    11  O   -0.718221
    12  C   -0.163677
    13  C   -0.322844
    14  C   -0.827900
    15  H    0.302356
    16  H    0.281168
    17  H    0.502891
    18  H    0.492221
    19  H    0.232556
    20  H    0.231946
    21  H    0.233073
    22  H    0.232871
    23  H    0.219176
    24  H    0.221259
    25  H    0.219172
    26  Cl   0.194827
    27  C    1.202458
    28  F   -0.279885
    29  F   -0.333790
    30  F   -0.280026
    31  O   -0.869272
    32  O   -0.694033
    33  C    0.714511
    34  C   -0.502641
    35  C   -0.719860
    36  H    0.250304
    37  H    0.250176
    38  H    0.220311
    39  H    0.218069
    40  H    0.220219
 Sum of Mulliken charges =  -1.00000
 Mulliken charges with hydrogens summed into heavy atoms:
               1
     1  C   -0.470654
     2  C    0.202925
     3  C    0.581385
     4  C    0.760123
     5  C   -0.412210
     6  C   -1.094057
     8  N   -0.166771
     9  C    0.684252
    10  N   -0.233773
    11  O   -0.718221
    12  C    0.300825
    13  C    0.143100
    14  C   -0.168293
    26  Cl   0.194827
    27  C    1.202458
    28  F   -0.279885
    29  F   -0.333790
    30  F   -0.280026
    31  O   -0.869272
    32  O   -0.694033
    33  C    0.714511
    34  C   -0.002161
    35  C   -0.061261
 Electronic spatial extent (au):  <R**2>=          12946.9975
 Charge=             -1.0000 electrons
 Dipole moment (field-independent basis, Debye):
[...]
 43,-0.00000011,0.00000313,0.00000089,0.00000037,0.00000140,0.00000013,
 -0.00000004,-0.00000020,0.00000219,-0.00002631,0.00001410,-0.00001873,
 0.00000547,-0.00000270,-0.00000847,-0.00001350,0.00001944,0.00000218,-
 0.00000906,-0.00000005,0.00000447,-0.00000117,0.00000065,0.00000034,-0
 .00000096,-0.00000362,0.00000079,0.00000002,0.00000150,-0.00000009,0.0
 0000028,-0.00000057,0.00000324,-0.00000530,-0.00000079,0.00000286,-0.0
 0001172,-0.00000659,0.00001023,-0.00000109,-0.00004155,-0.00000144,-0.
 00000077,0.00000007,-0.00000183,-0.00000141,0.00000069,0.00000037,0.00
 000067,-0.00000047,-0.00000164,-0.00000031,0.00000125,-0.00000083,-0.0
 0000053,0.00000055,-0.00000001,0.00000017,-0.00000017,-0.00000004,-0.0
 0000009,-0.00000020,0.00000028,0.00000052,-0.00000012,0.00000104,-0.00
 000900,-0.00000068,0.00000060,0.00000318,0.00000133,-0.00000133,0.0000
 0213,-0.00000043,0.00000019,0.00000207,-0.00000028,0.00035672,0.000111
 44,0.00047926,0.00112776,-0.00014328,-0.00101534,0.00139404,0.00330829
 ,0.00496136,-0.09162639,-0.07573318,-0.24269207,-0.00290396,-0.0020785
 2,-0.00717318,0.10155420,0.08062866,0.26267691,0.00000009,0.00000020,0
 .00000110,0.00000100,0.00000041,-0.00000079,-0.00000253,-0.00000096,-0
 .00000214,0.00001121,0.00000785,-0.00000257,0.00000054,-0.00000606,0.0
 0000501,0.00000118,-0.00000029,-0.00000128,0.00000005,0.00000029,0.000
 00022,0.00003319,0.00005977,0.00003362,-0.00014591,0.00005236,-0.00004
 942,-0.00000474,-0.00022990,0.00005769,0.00002902,-0.00005097,0.000013
 45,0.00003516,-0.00000585,0.00001773,-0.00000515,-0.00000111,0.0000007
 6,0.00000197,0.00000034,0.00000014,-0.00000026,0.00000084,0.00000010,0
 .00000828,-0.00000281,0.00000184,-0.00001870,-0.00014333,-0.00003538,0
 .00006013,0.00032346,-0.00007814,-0.00000731,-0.00000571,-0.00000341,-
 0.00000925,-0.00000475,-0.00000046,0.00000212,0.00000152,-0.00000388,-
 0.00000376,0.00000193,0.00000286,-0.00000116,-0.00000078,0.00000026,-0
 .00000145,0.00000016,-0.00000020,-0.00000121,-0.00000165,-0.00000106,-
 0.00000034,0.00000092,-0.00000036,0.00000151,0.00000229,0.00000204,0.0
 0000038,-0.00000208,-0.00000058,-0.00000050,-0.00000024,-0.00000043,0.
 00000025,-0.00000110,-0.00000025,0.00115037,0.00174255,-0.00208227,-0.
 00057987,-0.00362999,-0.00061540,-0.01025891,0.00073580,0.00772372,-0.
 19260744,0.00308744,0.13628647,-0.01699672,0.00072092,0.01539710,0.010
 03970,0.00043996,-0.00874701,0.21024980,0.00000433,-0.00000254,0.00000
 240,-0.00000249,0.00000338,-0.00000288,0.00000652,-0.00001055,0.000003
 04,-0.00003230,0.00002244,-0.00002093,0.00001464,-0.00000227,0.0000051
 5,-0.00000194,-0.00000004,-0.00000128,0.00000008,0.00000001,0.00000014
 ,0.00004770,0.00000619,0.00005204,-0.00016633,0.00011078,-0.00005955,-
 0.00000535,-0.00037412,0.00012738,0.00002184,-0.00012028,0.00001979,0.
 00006596,-0.00000374,0.00002666,-0.00000910,-0.00000779,-0.00000979,0.
 00000233,0.00000097,0.00000353,-0.00000017,0.00000172,-0.00000055,-0.0
 0001257,0.00000759,-0.00000173,0.00000287,0.00007954,-0.00008876,0.000
 13520,0.00060072,-0.00019577,-0.00001292,-0.00000807,-0.00000583,-0.00
 001684,-0.00000883,0.00000020,0.00000499,0.00000416,-0.00000341,-0.000
 00684,0.00000157,0.00000669,-0.00000275,-0.00000168,0.00000047,-0.0000
 0355,0.00000029,-0.00000126,-0.00000157,-0.00000152,-0.00000111,0.0000
 0045,-0.00000233,0.00000132,-0.00000564,-0.00000527,0.00000614,0.00000
 102,0.00000155,-0.00000122,0.00000144,0.00000086,-0.00000079,0.0000015
 6,0.00000332,-0.00000413,0.00088078,-0.00068629,-0.00266480,-0.0031077
 7,-0.00620407,-0.00312890,-0.02199920,0.00290114,0.02516682,0.00258670
 ,-0.04644648,0.00145584,0.01598356,-0.00115551,-0.01475269,0.00885309,
 -0.00007716,-0.00780158,-0.00513710,0.05225133,-0.00000332,0.00000139,
 -0.00000181,0.00000241,-0.00000099,0.00000228,-0.00000659,0.00000623,-
 0.00000512,0.00002830,-0.00001163,0.00001424,-0.00000932,-0.00000198,-
 0.00000176,0.00000027,0.00000016,0.00000126,-0.00000008,0.00000012,-0.
 00000008,-0.00000538,0.00005169,-0.00002519,0.00003265,-0.00003581,0.0
 0001588,0.00000280,0.00008762,-0.00001674,0.00000215,0.00004370,-0.000
 00656,-0.00001917,0.00000218,-0.00000812,0.00000342,0.00000204,-0.0000
 0146,-0.00000191,-0.00000041,0.00000008,0.00000027,-0.00000106,0.00000
 016,0.00000821,-0.00000153,-0.00000132,-0.00001983,-0.00009198,0.00003
 685,-0.00003673,-0.00014745,0.00001241,0.00000446,0.00000339,0.0000021
 9,0.00000557,0.00000336,0.00000029,-0.00000084,-0.00000015,0.00000201,
 0.00000181,-0.00000038,-0.00000272,0.00000100,0.00000047,-0.00000030,0
 .00000123,-0.00000035,0.00000050,0.00000071,0.00000084,0.00000075,-0.0
 0000059,0.00000148,-0.00000066,0.00000448,0.00001093,-0.00000559,-0.00
 000084,-0.00000378,0.00000028,-0.00000026,-0.00000228,0.00000110,-0.00
 000205,-0.00000414,0.00000361,-0.00093558,0.00115912,0.00077351,0.0003
 0597,0.00083727,-0.00014986,0.00161416,-0.00333866,-0.00270306,0.13500
 674,0.00011650,-0.16801763,-0.00943831,-0.00001502,0.00824181,0.020717
 52,0.00061966,-0.01906551,-0.14605258,0.00019459,0.17937699,-0.0000010
 3,0.00000162,-0.00000190,0.00000035,-0.00000133,0.00000107,-0.00000326
 ,0.00000332,-0.00000371,0.00001746,-0.00000065,0.00000841,-0.00000498,
 -0.00000642,-0.00000331,0.00000099,-0.00000033,0.00000194,-0.00000006,
 0.00000035,0.00000010,0.00001141,0.00005771,-0.00001487,-0.00001845,-0
 .00000565,-0.00000299,0.00000396,0.00001625,-0.00000558,0.00000882,0.0
 0001443,-0.00000087,-0.00000610,-0.00000160,0.00000065,0.00000311,0.00
 000296,-0.00000206,-0.00000176,0.00000114,-0.00000035,-0.00000016,0.00
 000010,0.00000050,0.00000461,-0.00000130,0.00000211,-0.00001778,-0.000
 09349,0.00001920,-0.00000128,-0.00002897,0.00000638,0.00000090,0.00000
 054,0.00000078,0.00000186,0.00000095,-0.00000050,0.00000040,0.00000131
 ,0.00000089,0.00000040,-0.00000041,-0.00000117,0.00000083,0.00000020,-
 0.00000055,0.00000095,-0.00000104,0.00000066,0.00000019,0.,0.00000039,
 -0.00000017,0.00000211,-0.00000084,0.00000230,-0.00000085,0.00000459,-
 0.00000042,-0.00000083,-0.00000130,-0.00000166,0.00000066,-0.00000117,
 0.00000004,0.00000079,-0.00000193,0.00033335,0.00063720,-0.00023851,0.
 00144421,-0.00038565,-0.00009956,-0.00106757,-0.00197421,0.00018185,-0
 .01801185,0.00102301,0.01673149,-0.19266615,0.00810910,0.13604568,0.00
 082425,-0.00073588,-0.00004135,-0.00273487,0.00349188,-0.00216889,0.20
 942766,-0.00000053,0.00000013,0.00000009,0.00000033,-0.00000028,0.0000
 0072,0.00000003,0.00000064,0.00000037,0.00000065,-0.00000358,0.0000005
 1,0.00000054,0.00000073,-0.00000014,-0.00000035,-0.00000035,-0.0000002
 4,0.00000004,-0.00000012,-0.00000005,-0.00000855,-0.00001303,-0.000001
 07,0.00002390,-0.00001129,0.00000952,-0.00000381,0.00003059,-0.0000040
 9,-0.00000460,0.00000961,-0.00000235,-0.00000282,0.00000015,-0.0000012
 0,0.00000153,-0.00000394,-0.00000927,-0.00000117,0.00000138,0.00000125
 ,0.00000022,-0.00000030,-0.00000003,-0.00000044,0.00000009,-0.00000051
 ,-0.00000086,0.00001759,0.00000269,-0.00001262,-0.00005133,0.00000453,
 -0.00000023,0.00000235,0.00000047,0.00000123,0.00000074,-0.00000076,-0
 .00000175,0.00000243,0.00000417,0.00000033,-0.00000017,0.00000044,0.00
 000038,-0.00000014,-0.00000024,-0.00000051,0.,-0.00000044,0.00000071,0
 .00000093,0.00000090,-0.00000014,-0.00000020,0.,0.00000087,0.00000173,
 -0.00000218,-0.00000026,-0.00000031,0.00000061,0.00000005,-0.00000035,
 0.00000042,-0.00000034,-0.00000100,0.00000130,-0.00017982,-0.00005010,
 0.00025691,-0.00002386,-0.00021323,-0.00004110,0.00012324,0.00059926,-
 0.00084018,0.01525416,-0.00116299,-0.01496989,0.00678688,-0.04775947,-
 0.00695106,-0.00085800,0.00076072,0.00004071,0.00302422,-0.00229176,0.
 00154855,-0.01064320,0.04856163,-0.00000024,-0.00000035,-0.00000045,0.
 00000022,0.00000045,0.00000048,-0.00000006,0.00000018,0.00000009,-0.00
 000014,-0.00000172,-0.00000087,0.00000018,0.00000118,-0.00000051,-0.00
 000048,0.00000062,0.00000049,0.00000001,-0.00000006,-0.00000002,-0.000
 00973,-0.00000976,0.00000246,0.00001583,-0.00000557,0.00000599,0.00000
 005,0.00001710,-0.00000399,-0.00000402,0.00000420,-0.00000142,0.000000
 52,0.00000147,-0.00000076,-0.00000032,-0.00000229,-0.00000400,0.000001
 19,-0.00000058,0.00000095,0.00000007,-0.00000017,-0.00000008,-0.000000
 62,0.00000008,-0.00000029,0.00000868,0.00001238,-0.00000627,-0.0000108
 1,-0.00002481,-0.00000296,-0.00000007,0.00000159,0.00000006,0.00000041
 ,0.00000066,0.00000023,-0.00000075,-0.00000047,0.00000405,0.00000069,-
 0.00000049,-0.00000158,-0.00000011,0.00000007,0.00000016,-0.00000163,0
 .00000092,-0.00000110,0.00000030,0.00000101,0.00000047,0.00000002,-0.0
 0000043,0.,-0.00000009,0.00000134,-0.00000067,0.00000011,-0.00000050,-
 0.00000011,0.00000023,-0.00000037,0.00000020,-0.00000009,-0.00000035,0
 .00000044,-0.00015729,-0.00028647,-0.00013489,-0.00067647,0.00072943,-
 0.00004977,0.00110027,0.00019116,0.00042200,-0.00924388,0.00009588,0.0
 0833381,0.13707649,-0.00859163,-0.17722830,0.00040541,-0.00066754,0.00
 083169,-0.00177509,0.00184662,0.00055129,-0.14854823,0.00653717,0.1879
 9463,-0.00000544,0.00000539,-0.00000288,0.00000317,-0.00000397,0.00000
 153,-0.00001395,0.00001289,-0.00000728,0.00006425,-0.00001010,0.000017
 32,-0.00002063,-0.00001301,0.00000042,0.00000410,-0.00000137,0.0000011
 3,0.00000008,0.00000056,-0.00000014,0.00005156,0.00020132,-0.00004716,
 -0.00007502,-0.00001026,-0.00002480,0.00001264,0.00001694,-0.00000243,
 0.00003129,0.00004088,0.00000281,-0.00001385,-0.00000544,-0.00000313,0
 .00000304,0.00000390,0.00000119,0.,-0.00000134,0.00000003,-0.00000015,
 -0.00000062,0.00000040,0.00001495,-0.00000110,0.00000194,-0.00008194,-
 0.00030599,0.00007842,-0.00001070,-0.00003904,0.00000911,0.00000291,0.
 00000067,0.00000141,0.00000309,0.00000063,0.00000029,0.00000073,0.0000
 0013,-0.00000161,0.00000043,0.00000124,0.00000100,-0.00000005,-0.00000
 004,0.00000013,0.00000125,0.,0.00000043,-0.00000009,-0.00000019,-0.000
 00017,-0.00000085,0.00000548,-0.00000210,0.00000847,0.00000522,-0.0000
 0009,-0.00000164,-0.00000249,-0.00000111,-0.00000373,-0.00000010,-0.00
 000071,-0.00000210,-0.00000160,0.00000168,-0.00025816,0.00312782,-0.00
 065235,0.00133203,-0.00048774,0.00036267,-0.00510776,-0.00050732,-0.00
 121145,0.00980390,0.02581753,-0.00354522,-0.08417922,-0.09331473,0.013
 38758,0.00093328,-0.00090142,0.00027558,0.00100335,-0.00077365,0.00050
 980,-0.00814958,-0.02158653,0.00120276,0.08976773,0.00000790,-0.000007
 74,0.00000426,-0.00000474,0.00000640,-0.00000301,0.00001969,-0.0000189
 0,0.00001071,-0.00008864,0.00001804,-0.00002674,0.00002797,0.00001630,
 -0.00000004,-0.00000550,0.00000408,-0.00000179,-0.00000003,-0.00000078
 ,0.00000021,-0.00003521,-0.00022925,0.00006128,0.00004176,0.00005578,0
 .00000519,-0.00002097,-0.00011693,0.00001242,-0.00003221,-0.00008797,0
 .00000744,0.00003275,0.00000162,0.00000937,-0.00000487,-0.00000677,0.0
 0000036,0.00000167,0.00000160,0.00000027,-0.00000007,0.00000136,-0.000
 00059,-0.00002039,0.00000378,-0.00000288,0.00008542,0.00039789,-0.0001
 0381,0.00007131,0.00022482,-0.00002407,-0.00000824,-0.00000468,-0.0000
 0302,-0.00000880,-0.00000405,-0.00000009,0.00000122,0.00000009,-0.0000
 0191,-0.00000028,0.00000117,0.00000259,-0.00000175,-0.00000091,0.00000
 078,-0.00000222,0.00000101,-0.00000097,-0.00000102,-0.00000126,-0.0000
 0109,0.00000116,-0.00000806,0.00000337,-0.00001369,-0.00000682,-0.0000
 0064,0.00000298,0.00000337,0.00000130,0.00000612,-0.00000016,0.0000013
 0,0.00000341,0.00000233,-0.00000188,0.00081016,-0.00337291,0.00080403,
 -0.00029687,-0.00100230,0.00020036,0.00341973,0.00272927,0.00045355,-0
 .00870563,-0.01780242,0.00192987,-0.09161620,-0.27987956,0.03226783,-0
 .00020666,0.00083515,0.00018418,-0.00014822,0.00061047,-0.00056518,0.0
 0067093,0.00279004,0.00010221,0.09907904,0.30311086,-0.00000290,0.0000
 0272,-0.00000218,0.00000184,-0.00000228,0.00000123,-0.00000775,0.00000
 727,-0.00000396,0.00003455,-0.00000632,0.00001025,-0.00001109,-0.00000
 640,0.00000087,0.00000202,-0.00000110,0.00000084,0.00000002,0.00000032
 ,-0.00000004,0.00001886,0.00009672,-0.00002370,-0.00002607,-0.00001556
 ,-0.00000736,0.00000616,0.00003312,0.00000510,0.00001451,0.00002904,-0
 .00000155,-0.00001075,-0.00000143,-0.00000335,0.00000275,0.00000166,-0
 .00000326,-0.00000054,-0.00000045,0.00000047,-0.00000003,-0.00000040,0
 .00000033,0.00000798,-0.00000104,0.00000169,-0.00003726,-0.00015864,0.
 00004249,-0.00001953,-0.00006247,0.00000492,0.00000261,0.00000162,0.00
 000074,0.00000298,0.00000083,0.00000027,-0.00000048,0.00000021,0.00000
 084,-0.00000003,0.00000057,0.00000075,0.00000005,-0.00000003,-0.000000
 05,0.00000093,-0.00000026,0.00000020,0.00000038,0.00000041,0.00000030,
 -0.00000041,0.00000302,-0.00000140,0.00000472,0.00000317,0.00000126,-0
 .00000094,-0.00000180,-0.00000098,-0.00000215,-0.00000006,-0.00000060,
 -0.00000112,-0.00000079,0.00000025,-0.00027913,0.00146862,-0.00025868,
 0.00024045,0.00027587,0.00021634,-0.00194695,-0.00050189,0.00045790,0.
 00444815,0.00933052,-0.00229071,0.01296438,0.03183980,-0.05346400,0.00
 056755,-0.00020501,0.00011136,-0.00008366,-0.00044717,0.00027924,0.007
 09099,0.02137160,-0.00255186,-0.01297511,-0.03648770,0.05203205,-0.000
 00137,0.00000206,0.00000001,0.00000057,-0.00000141,0.00000076,-0.00000
 348,0.00000389,-0.00000179,0.00001562,-0.00000292,0.00000358,-0.000005
 13,-0.00000241,0.00000256,0.00000119,-0.00000112,-0.00000130,0.0000000
 1,0.00000016,-0.00000023,0.00000421,0.00004305,-0.00001185,-0.00000431
 ,-0.00001079,-0.00000059,0.00000192,0.00003087,-0.00000278,0.00000464,
 0.00001723,-0.00000127,-0.00000560,-0.00000116,-0.00000314,0.00000095,
 0.00000258,0.00000144,-0.00000114,0.00000085,-0.00000063,0.00000007,-0
 .00000030,-0.00000021,0.00000416,-0.00000173,0.00000001,-0.00001203,-0
 .00006831,0.00002271,-0.00001121,-0.00005318,0.00000434,0.00000177,0.0
 0000168,0.00000090,0.00000153,0.00000125,-0.00000037,-0.00000049,0.000
 00021,0.00000192,0.00000254,0.00000139,-0.00000305,0.00000067,0.000000
 15,-0.00000040,0.00000026,-0.00000061,0.00000015,0.00000039,0.00000066
 ,0.00000069,-0.00000021,0.00000179,-0.00000063,0.00000361,-0.00000202,
 -0.00000226,-0.00000073,0.00000115,0.00000101,-0.00000166,0.00000074,0
 .,-0.00000082,-0.00000017,0.00000137,0.00008806,0.00050493,0.00010415,
 0.00088986,0.00022858,0.00039486,-0.00042344,-0.00174313,0.00039748,-0
 .01006323,-0.00783871,-0.02195048,-0.08905130,-0.03309781,-0.09104213,
 -0.00299219,0.00376146,-0.00138074,0.00075081,-0.00080885,0.00044832,0
 .01059908,0.00811108,0.02061665,-0.00511743,-0.00306101,-0.01000599,0.
 09532384,-0.00000003,-0.00000010,-0.00000210,0.00000009,0.,0.00000208,
 0.00000003,-0.00000008,-0.00000286,0.00000305,-0.00000145,0.00000614,0
 .00000028,-0.00000266,-0.00000431,-0.00000075,0.00000053,0.00000312,0.
 ,0.00000001,0.00000008,-0.00000345,0.00000567,-0.00000188,0.00001344,-
 0.00000980,0.00000787,-0.00000164,0.00002556,-0.00000612,-0.00000071,0
 .00000979,-0.00000342,-0.00000301,-0.00000051,-0.00000138,-0.00000193,
 0.00000051,0.00000842,-0.00000074,0.00000127,-0.00000267,0.00000005,-0
 .00000015,0.00000036,0.00000033,0.00000046,-0.00000011,-0.00000446,-0.
 00000760,-0.00000344,-0.00000730,-0.00004139,-0.00000268,0.00000044,0.
 00000063,0.00000068,0.00000083,0.00000136,-0.00000089,-0.00000009,-0.0
 0000042,0.00000021,0.00000129,0.00000201,-0.00000552,0.00000108,0.0000
 0040,-0.00000044,0.00000024,-0.00000053,0.00000039,0.00000020,0.000000
 04,0.00000049,-0.00000013,0.00000024,-0.00000032,0.00000058,0.00000181
 ,0.00000132,-0.00000009,-0.00000110,-0.00000054,-0.00000020,-0.0000002
 5,-0.00000028,-0.00000010,-0.00000040,-0.00000047,0.00011624,-0.000003
 50,-0.00031231,0.00030407,-0.00031298,0.00036069,-0.00067364,0.0007377
 4,0.00052746,0.00837338,0.00673661,0.01961543,-0.03392685,-0.07390132,
 -0.07545831,0.00316625,-0.00239129,0.00154860,-0.00083036,0.00080227,-
 0.00046852,-0.00015474,-0.00121679,0.00004786,-0.01035158,-0.00826399,
 -0.02656628,0.03397991,0.07782940,-0.00000035,0.00000125,0.00000056,0.
 00000006,-0.00000111,-0.00000059,-0.00000210,0.00000229,0.00000029,0.0
 0000900,0.00000002,-0.00000162,-0.00000305,-0.00000176,0.00000378,0.00
 000097,-0.00000079,-0.00000056,0.00000002,0.00000012,-0.00000024,0.000
 01399,0.00003734,-0.00000517,-0.00002775,0.00000484,-0.00001075,0.0000
 0496,-0.00001286,0.00000006,0.00000714,0.00000172,0.00000473,-0.000002
 64,-0.00000192,-0.00000219,0.00000378,0.00000330,-0.00000345,-0.000001
 74,0.00000070,-0.00000057,-0.00000001,-0.00000007,-0.00000048,0.000003
 05,-0.00000131,-0.00000012,-0.00001247,-0.00005440,0.00001487,0.000009
 96,0.00001683,-0.00000567,0.00000027,-0.00000042,0.00000041,0.00000090
 ,-0.00000122,0.00000129,-0.00000044,-0.00000025,-0.00000195,0.,0.00000
 401,0.00000396,-0.00000075,-0.00000096,0.00000061,0.00000249,-0.000001
 50,0.00000085,0.,0.00000003,0.00000027,-0.00000010,0.00000141,-0.00000
 031,0.00000209,-0.00000353,-0.00000183,-0.00000043,0.00000182,0.000001
 08,-0.00000114,0.00000094,-0.00000001,-0.00000050,0.00000045,0.0000007
 2,0.00025989,0.00052759,-0.00002999,0.00091085,-0.00027038,0.00057493,
 -0.00120962,-0.00122235,0.00003852,-0.00291344,-0.00219385,-0.00760684
 ,-0.09157580,-0.07349845,-0.25383763,-0.00153832,0.00146911,0.00090353
 ,-0.00000776,0.00027532,0.00069678,-0.00895802,-0.00695814,-0.01815959
 ,0.00262011,0.00116255,0.00544400,0.10240690,0.08071365,0.27197833\\-0
 .00000013,0.00000234,-0.00000147,0.00000149,-0.00000047,0.00000165,-0.
 00000082,0.00000322,0.00000127,0.00000481,-0.00000289,0.00000078,0.000
 00050,0.00000184,-0.00000108,0.00000222,0.00000099,0.00000145,0.000001
 40,0.00000165,0.00000079,-0.00000129,0.00000375,0.00000372,0.00000211,
 -0.00000556,-0.00000168,-0.00000166,0.00000085,0.00000402,0.00000016,0
 .00000343,0.00000203,-0.00000064,-0.00000007,0.00000114,0.00000023,-0.
 00000146,0.00000055,-0.00000162,-0.00000141,0.00000142,0.00000075,0.00
 000084,0.00000204,-0.00000066,0.00000052,-0.00000041,0.00000367,-0.000
 00204,-0.00000581,0.00000123,-0.00000122,-0.00000605,-0.00000007,-0.00
 000133,0.00000163,0.00000026,-0.00000032,0.00000157,-0.00000030,-0.000
 00055,0.00000049,-0.00000075,-0.00000186,0.00000093,0.00000009,-0.0000
 0110,0.00000191,-0.00000058,-0.00000184,0.00000122,-0.00000039,-0.0000
 0201,0.00000195,0.00000185,0.00000235,0.00000208,0.00000102,0.00000183
 ,0.00000162,-0.00000042,0.00000171,-0.00000228,-0.00000077,0.00000132,
 -0.00000087,0.00000031,0.00000019,-0.00000331,-0.00000599,0.00000038,0
 .00000882,-0.00000907,0.00000260,0.00000800,0.00001021,0.00000225,-0.0
 0000861,-0.00000022,-0.00000709,-0.00000708,-0.00000347,0.00000128,-0.
 00000241,-0.00000092,0.00000101,-0.00000159,-0.00000045,0.00000041,-0.
 00000134,-0.00000031,-0.00000064,-0.00000214,-0.00000061,-0.00000130,-
 0.00000300,-0.00000117,-0.00000162,-0.00000197\\\@


 It takes a long time to grow an old friend.
                            -- John Leonard
 Job cpu time:       0 days  6 hours 44 minutes 53.7 seconds.
 File lengths (MBytes):  RWF=   1158 Int=      0 D2E=      0 Chk=     29 Scr=      1
 Normal termination of Gaussian 09 at Tue Feb 19 14:10:20 2019.
WARNING: pbs_rusage is deprecated and values produced may not be accurate


=============================================================================
                                     Resource usage:
                                       CPU time:              23:50:04
   JobId:    5880945.r-man2            Elapsed time:          02:59:44
   Project:             q95            Requested time:        46:00:00
   Service Units:     23.96 
                                       Max physical memory:     1568MB
                                       Max virtual memory:      3005MB
                                       Requested memory:           0MB

                                       Number of cpus:               8

                                       Max jobfs disk use:       1.1GB
                                       Requested jobfs:         20.0GB
=============================================================================

