 Entering Gaussian System, Link 0=/apps/gaussian/g09e01/g09/g09
 AtFile(1): /home/507/hio507/Basis/6-31pGd.gbs
 Initial command:
 /apps/gaussian/g09e01/g09/l1.exe "/jobfs/local/8440160.r-man2/Gau-54868.inp" -scrdir="/jobfs/local/8440160.r-man2/"
 Entering Link 1 = /apps/gaussian/g09e01/g09/l1.exe PID=     54869.
  
 Copyright (c) 1988,1990,1992,1993,1995,1998,2003,2009,2015,
            Gaussian, Inc.  All Rights Reserved.
  
 This is part of the Gaussian(R) 09 program.  It is based on
 the Gaussian(R) 03 system (copyright 2003, Gaussian, Inc.),
 the Gaussian(R) 98 system (copyright 1998, Gaussian, Inc.),
 the Gaussian(R) 94 system (copyright 1995, Gaussian, Inc.),
 the Gaussian 92(TM) system (copyright 1992, Gaussian, Inc.),
 the Gaussian 90(TM) system (copyright 1990, Gaussian, Inc.),
 the Gaussian 88(TM) system (copyright 1988, Gaussian, Inc.),
 the Gaussian 86(TM) system (copyright 1986, Carnegie Mellon
 University), and the Gaussian 82(TM) system (copyright 1983,
 Carnegie Mellon University). Gaussian is a federally registered
 trademark of Gaussian, Inc.
  
 This software contains proprietary and confidential information,
 including trade secrets, belonging to Gaussian, Inc.
  
 This software is provided under written license and may be
 used, copied, transmitted, or stored only in accord with that
 written license.
  
 The following legend is applicable only to US Government
 contracts under FAR:
  
                    RESTRICTED RIGHTS LEGEND
  
 Use, reproduction and disclosure by the US Government is
 subject to restrictions as set forth in subparagraphs (a)
 and (c) of the Commercial Computer Software - Restricted
 Rights clause in FAR 52.227-19.
  
 Gaussian, Inc.
 340 Quinnipiac St., Bldg. 40, Wallingford CT 06492
  
  
 ---------------------------------------------------------------
 Warning -- This program may not be used in any manner that
 competes with the business of Gaussian, Inc. or will provide
 assistance to any competitor of Gaussian, Inc.  The licensee
 of this program is prohibited from giving any competitor of
 Gaussian, Inc. access to this program.  By using this program,
 the user acknowledges that Gaussian, Inc. is engaged in the
 business of creating and licensing software in the field of
 computational chemistry and represents and warrants to the
 licensee that it is not a competitor of Gaussian, Inc. and that
 it will not use this program in any manner prohibited above.
 ---------------------------------------------------------------
  

 Cite this work as:
 Gaussian 09, Revision E.01,
 M. J. Frisch, G. W. Trucks, H. B. Schlegel, G. E. Scuseria, 
 M. A. Robb, J. R. Cheeseman, G. Scalmani, V. Barone, B. Mennucci, 
 G. A. Petersson, H. Nakatsuji, M. Caricato, X. Li, H. P. Hratchian, 
 A. F. Izmaylov, J. Bloino, G. Zheng, J. L. Sonnenberg, M. Hada, 
 M. Ehara, K. Toyota, R. Fukuda, J. Hasegawa, M. Ishida, T. Nakajima, 
 Y. Honda, O. Kitao, H. Nakai, T. Vreven, J. A. Montgomery, Jr., 
 J. E. Peralta, F. Ogliaro, M. Bearpark, J. J. Heyd, E. Brothers, 
 K. N. Kudin, V. N. Staroverov, T. Keith, R. Kobayashi, J. Normand, 
 K. Raghavachari, A. Rendell, J. C. Burant, S. S. Iyengar, J. Tomasi, 
 M. Cossi, N. Rega, J. M. Millam, M. Klene, J. E. Knox, J. B. Cross, 
 V. Bakken, C. Adamo, J. Jaramillo, R. Gomperts, R. E. Stratmann, 
 O. Yazyev, A. J. Austin, R. Cammi, C. Pomelli, J. W. Ochterski, 
 R. L. Martin, K. Morokuma, V. G. Zakrzewski, G. A. Voth, 
 P. Salvador, J. J. Dannenberg, S. Dapprich, A. D. Daniels, 
 O. Farkas, J. B. Foresman, J. V. Ortiz, J. Cioslowski, 
 and D. J. Fox, Gaussian, Inc., Wallingford CT, 2013.
 
 ******************************************
 Gaussian 09:  ES64L-G09RevE.01 30-Nov-2015
                16-Jul-2018 
 ******************************************
 %chk=aryl_urea_nitro.M062X.SMD.h2o.opt.chk
 %mem=196608000
 %nproc=4
 Will use up to    4 processors via shared memory.
 ----------------------------------------------------------------------
 # M062X/Gen 6D SCF=Tight INT(grid=ultrafine) OPT IOP(2/17=4) Freq=Nora
 man SCRF=(SMD,Solvent=h2o) maxdisk=2147483648
 ----------------------------------------------------------------------
 1/14=-1,18=20,19=15,26=4,38=1/1,3;
 2/9=110,12=2,17=4,18=5,40=1/2;
 3/5=7,8=2,11=2,16=1,25=1,30=1,70=32201,71=1,72=1,74=-55,75=-5/1,2,3;
 4//1;
 5/5=2,32=2,38=5,53=1/2;
 6/7=2,8=2,9=2,10=2,28=1/1;
 7//1,2,3,16;
 1/14=-1,18=20,19=15,26=4/3(2);
 2/9=110,17=4/2;
 99//99;
 2/9=110,17=4/2;
 3/5=7,6=1,8=2,11=2,16=1,25=1,30=1,70=32205,71=1,72=1,74=-55,75=-5,82=7/1,2,3;
 4/5=5,16=3,69=1/1;
 5/5=2,32=2,38=5,53=1/2;
 7//1,2,3,16;
 1/14=-1,18=20,19=15,26=4/3(-5);
 2/9=110,17=4/2;
 6/7=2,8=2,9=2,10=2,19=2,28=1/1;
 99/9=1/99;
 ---------------------------------
 aryl_urea_nitro.M062X.SMD.h2o.opt
 ---------------------------------
 Symbolic Z-matrix:
 Charge =  0 Multiplicity = 1
 C                    -4.19013   3.57156  -1.19717 
 C                    -4.23443   2.21214  -0.85569 
 C                    -3.11047   1.57725  -0.32277 
 C                    -1.90579   2.27441  -0.11236 
 C                    -1.86843   3.64613  -0.45881 
 C                    -2.99593   4.27939  -0.99243 
 N                    -0.79686   1.5409    0.43971 
 C                     0.29876   2.03695   1.09397 
 N                     1.25552   1.17743   1.54589 
 O                     0.43762   3.23527   1.28047 
 C                     2.43989   1.64662   2.24415 
 C                     3.34768   0.47482   2.6353 
 C                     4.5948    0.96221   3.36711 
 H                    -3.18266   0.52618  -0.07156 
 H                    -0.99844   4.26435  -0.33681 
 H                    -0.83346   0.51573   0.32583 
 H                     1.13624   0.16455   1.3864 
 H                     2.13132   2.1932    3.16267 
 H                     3.00414   2.34028   1.58225 
 H                     3.65865  -0.0744    1.71993 
 H                     2.78936  -0.22167   3.29814 
 H                     5.18171   1.64546   2.71686 
 H                     5.23173   0.09342   3.63632 
 H                     4.31161   1.49788   4.29818 
 H                    -5.13874   1.63501  -0.99995 
 H                    -2.92989   5.3299   -1.24586 
 N                    -5.3359    4.22139  -1.74187 
 O                    -5.19977   5.30326  -2.5214 
 O                    -6.56783   3.76033  -1.4841 
 

 GradGradGradGradGradGradGradGradGradGradGradGradGradGradGradGradGradGrad
 Berny optimization.
 Initialization pass.
                           ----------------------------
                           !    Initial Parameters    !
                           ! (Angstroms and Degrees)  !
 --------------------------                            --------------------------
 ! Name  Definition              Value          Derivative Info.                !
 --------------------------------------------------------------------------------
 ! R1    R(1,2)                  1.4024         estimate D2E/DX2                !
 ! R2    R(1,6)                  1.4032         estimate D2E/DX2                !
 ! R3    R(1,27)                 1.4254         estimate D2E/DX2                !
 ! R4    R(2,3)                  1.3966         estimate D2E/DX2                !
 ! R5    R(2,25)                 1.0824         estimate D2E/DX2                !
 ! R6    R(3,4)                  1.4077         estimate D2E/DX2                !
 ! R7    R(3,14)                 1.0831         estimate D2E/DX2                !
 ! R8    R(4,5)                  1.4153         estimate D2E/DX2                !
 ! R9    R(4,7)                  1.4396         estimate D2E/DX2                !
 ! R10   R(5,6)                  1.3989         estimate D2E/DX2                !
 ! R11   R(5,15)                 1.0742         estimate D2E/DX2                !
 ! R12   R(6,26)                 1.0827         estimate D2E/DX2                !
 ! R13   R(7,8)                  1.3691         estimate D2E/DX2                !
 ! R14   R(7,16)                 1.0321         estimate D2E/DX2                !
 ! R15   R(8,9)                  1.3632         estimate D2E/DX2                !
 ! R16   R(8,10)                 1.2207         estimate D2E/DX2                !
 ! R17   R(9,11)                 1.4527         estimate D2E/DX2                !
 ! R18   R(9,17)                 1.0323         estimate D2E/DX2                !
 ! R19   R(11,12)                1.533          estimate D2E/DX2                !
 ! R20   R(11,18)                1.1125         estimate D2E/DX2                !
 ! R21   R(11,19)                1.1125         estimate D2E/DX2                !
 ! R22   R(12,13)                1.5259         estimate D2E/DX2                !
 ! R23   R(12,20)                1.1119         estimate D2E/DX2                !
 ! R24   R(12,21)                1.1118         estimate D2E/DX2                !
 ! R25   R(13,22)                1.1109         estimate D2E/DX2                !
 ! R26   R(13,23)                1.1104         estimate D2E/DX2                !
 ! R27   R(13,24)                1.1109         estimate D2E/DX2                !
 ! R28   R(27,28)                1.3404         estimate D2E/DX2                !
 ! R29   R(27,29)                1.3404         estimate D2E/DX2                !
 ! A1    A(2,1,6)              118.7077         estimate D2E/DX2                !
 ! A2    A(2,1,27)             120.6369         estimate D2E/DX2                !
 ! A3    A(6,1,27)             120.6554         estimate D2E/DX2                !
 ! A4    A(1,2,3)              120.5433         estimate D2E/DX2                !
 ! A5    A(1,2,25)             120.7166         estimate D2E/DX2                !
 ! A6    A(3,2,25)             118.7401         estimate D2E/DX2                !
 ! A7    A(2,3,4)              121.375          estimate D2E/DX2                !
 ! A8    A(2,3,14)             118.427          estimate D2E/DX2                !
 ! A9    A(4,3,14)             120.198          estimate D2E/DX2                !
 ! A10   A(3,4,5)              117.7756         estimate D2E/DX2                !
 ! A11   A(3,4,7)              117.6576         estimate D2E/DX2                !
 ! A12   A(5,4,7)              124.5667         estimate D2E/DX2                !
 ! A13   A(4,5,6)              120.7196         estimate D2E/DX2                !
 ! A14   A(4,5,15)             123.4606         estimate D2E/DX2                !
 ! A15   A(6,5,15)             115.8198         estimate D2E/DX2                !
 ! A16   A(1,6,5)              120.8788         estimate D2E/DX2                !
 ! A17   A(1,6,26)             120.4779         estimate D2E/DX2                !
 ! A18   A(5,6,26)             118.6433         estimate D2E/DX2                !
 ! A19   A(4,7,8)              127.9562         estimate D2E/DX2                !
 ! A20   A(4,7,16)             115.8777         estimate D2E/DX2                !
 ! A21   A(8,7,16)             116.166          estimate D2E/DX2                !
 ! A22   A(7,8,9)              119.4463         estimate D2E/DX2                !
 ! A23   A(7,8,10)             121.3135         estimate D2E/DX2                !
 ! A24   A(9,8,10)             119.2401         estimate D2E/DX2                !
 ! A25   A(8,9,11)             121.8629         estimate D2E/DX2                !
 ! A26   A(8,9,17)             119.1003         estimate D2E/DX2                !
 ! A27   A(11,9,17)            119.0367         estimate D2E/DX2                !
 ! A28   A(9,11,12)            111.0101         estimate D2E/DX2                !
 ! A29   A(9,11,18)            109.232          estimate D2E/DX2                !
 ! A30   A(9,11,19)            109.2022         estimate D2E/DX2                !
 ! A31   A(12,11,18)           109.2157         estimate D2E/DX2                !
 ! A32   A(12,11,19)           109.1513         estimate D2E/DX2                !
 ! A33   A(18,11,19)           109.0            estimate D2E/DX2                !
 ! A34   A(11,12,13)           111.2344         estimate D2E/DX2                !
 ! A35   A(11,12,20)           109.4587         estimate D2E/DX2                !
 ! A36   A(11,12,21)           109.4862         estimate D2E/DX2                !
 ! A37   A(13,12,20)           108.9065         estimate D2E/DX2                !
 ! A38   A(13,12,21)           108.9406         estimate D2E/DX2                !
 ! A39   A(20,12,21)           108.7731         estimate D2E/DX2                !
 ! A40   A(12,13,22)           110.3357         estimate D2E/DX2                !
 ! A41   A(12,13,23)           109.5831         estimate D2E/DX2                !
 ! A42   A(12,13,24)           110.3428         estimate D2E/DX2                !
 ! A43   A(22,13,23)           108.668          estimate D2E/DX2                !
 ! A44   A(22,13,24)           109.1898         estimate D2E/DX2                !
 ! A45   A(23,13,24)           108.6819         estimate D2E/DX2                !
 ! A46   A(1,27,28)            120.5686         estimate D2E/DX2                !
 ! A47   A(1,27,29)            120.5621         estimate D2E/DX2                !
 ! A48   A(28,27,29)           118.8693         estimate D2E/DX2                !
 ! D1    D(6,1,2,3)             -0.02           estimate D2E/DX2                !
 ! D2    D(6,1,2,25)           179.9993         estimate D2E/DX2                !
 ! D3    D(27,1,2,3)           179.9676         estimate D2E/DX2                !
 ! D4    D(27,1,2,25)           -0.0132         estimate D2E/DX2                !
 ! D5    D(2,1,6,5)              0.0213         estimate D2E/DX2                !
 ! D6    D(2,1,6,26)          -179.9964         estimate D2E/DX2                !
 ! D7    D(27,1,6,5)          -179.9662         estimate D2E/DX2                !
 ! D8    D(27,1,6,26)            0.0161         estimate D2E/DX2                !
 ! D9    D(2,1,27,28)         -154.3949         estimate D2E/DX2                !
 ! D10   D(2,1,27,29)           25.5526         estimate D2E/DX2                !
 ! D11   D(6,1,27,28)           25.5924         estimate D2E/DX2                !
 ! D12   D(6,1,27,29)         -154.4602         estimate D2E/DX2                !
 ! D13   D(1,2,3,4)             -0.0034         estimate D2E/DX2                !
 ! D14   D(1,2,3,14)          -179.9758         estimate D2E/DX2                !
 ! D15   D(25,2,3,4)           179.9776         estimate D2E/DX2                !
 ! D16   D(25,2,3,14)            0.0053         estimate D2E/DX2                !
 ! D17   D(2,3,4,5)              0.0251         estimate D2E/DX2                !
 ! D18   D(2,3,4,7)           -179.9265         estimate D2E/DX2                !
 ! D19   D(14,3,4,5)           179.9969         estimate D2E/DX2                !
 ! D20   D(14,3,4,7)             0.0454         estimate D2E/DX2                !
 ! D21   D(3,4,5,6)             -0.0236         estimate D2E/DX2                !
 ! D22   D(3,4,5,15)           179.9972         estimate D2E/DX2                !
 ! D23   D(7,4,5,6)            179.9242         estimate D2E/DX2                !
 ! D24   D(7,4,5,15)            -0.0549         estimate D2E/DX2                !
 ! D25   D(3,4,7,8)           -158.5907         estimate D2E/DX2                !
 ! D26   D(3,4,7,16)            21.5232         estimate D2E/DX2                !
 ! D27   D(5,4,7,8)             21.4614         estimate D2E/DX2                !
 ! D28   D(5,4,7,16)          -158.4247         estimate D2E/DX2                !
 ! D29   D(4,5,6,1)              0.0007         estimate D2E/DX2                !
 ! D30   D(4,5,6,26)          -179.9819         estimate D2E/DX2                !
 ! D31   D(15,5,6,1)           179.9814         estimate D2E/DX2                !
 ! D32   D(15,5,6,26)           -0.0012         estimate D2E/DX2                !
 ! D33   D(4,7,8,9)           -179.8239         estimate D2E/DX2                !
 ! D34   D(4,7,8,10)             0.1132         estimate D2E/DX2                !
 ! D35   D(16,7,8,9)             0.062          estimate D2E/DX2                !
 ! D36   D(16,7,8,10)          179.9991         estimate D2E/DX2                !
 ! D37   D(7,8,9,11)           179.8865         estimate D2E/DX2                !
 ! D38   D(7,8,9,17)            -0.0177         estimate D2E/DX2                !
 ! D39   D(10,8,9,11)           -0.0519         estimate D2E/DX2                !
 ! D40   D(10,8,9,17)         -179.9561         estimate D2E/DX2                !
 ! D41   D(8,9,11,12)         -179.8122         estimate D2E/DX2                !
 ! D42   D(8,9,11,18)           59.6976         estimate D2E/DX2                !
 ! D43   D(8,9,11,19)          -59.4215         estimate D2E/DX2                !
 ! D44   D(17,9,11,12)           0.092          estimate D2E/DX2                !
 ! D45   D(17,9,11,18)        -120.3981         estimate D2E/DX2                !
 ! D46   D(17,9,11,19)         120.4828         estimate D2E/DX2                !
 ! D47   D(9,11,12,13)         179.9009         estimate D2E/DX2                !
 ! D48   D(9,11,12,20)          59.5053         estimate D2E/DX2                !
 ! D49   D(9,11,12,21)         -59.6429         estimate D2E/DX2                !
 ! D50   D(18,11,12,13)        -59.5992         estimate D2E/DX2                !
 ! D51   D(18,11,12,20)       -179.9948         estimate D2E/DX2                !
 ! D52   D(18,11,12,21)         60.857          estimate D2E/DX2                !
 ! D53   D(19,11,12,13)         59.4801         estimate D2E/DX2                !
 ! D54   D(19,11,12,20)        -60.9156         estimate D2E/DX2                !
 ! D55   D(19,11,12,21)        179.9363         estimate D2E/DX2                !
 ! D56   D(11,12,13,22)        -60.3418         estimate D2E/DX2                !
 ! D57   D(11,12,13,23)       -179.9566         estimate D2E/DX2                !
 ! D58   D(11,12,13,24)         60.4071         estimate D2E/DX2                !
 ! D59   D(20,12,13,22)         60.3791         estimate D2E/DX2                !
 ! D60   D(20,12,13,23)        -59.2356         estimate D2E/DX2                !
 ! D61   D(20,12,13,24)       -178.8719         estimate D2E/DX2                !
 ! D62   D(21,12,13,22)        178.8807         estimate D2E/DX2                !
 ! D63   D(21,12,13,23)         59.266          estimate D2E/DX2                !
 ! D64   D(21,12,13,24)        -60.3704         estimate D2E/DX2                !
 --------------------------------------------------------------------------------
 Trust Radius=3.00D-01 FncErr=1.00D-07 GrdErr=1.00D-06
 Number of steps in this run=    151 maximum allowed number of steps=    174.
 GradGradGradGradGradGradGradGradGradGradGradGradGradGradGradGradGradGrad

                          Input orientation:                          
 ---------------------------------------------------------------------
 Center     Atomic      Atomic             Coordinates (Angstroms)
 Number     Number       Type             X           Y           Z
 ---------------------------------------------------------------------
      1          6           0       -4.190130    3.571560   -1.197170
      2          6           0       -4.234430    2.212140   -0.855690
      3          6           0       -3.110470    1.577250   -0.322770
      4          6           0       -1.905790    2.274410   -0.112360
      5          6           0       -1.868430    3.646130   -0.458810
      6          6           0       -2.995930    4.279390   -0.992430
      7          7           0       -0.796860    1.540900    0.439710
      8          6           0        0.298760    2.036950    1.093970
      9          7           0        1.255520    1.177430    1.545890
     10          8           0        0.437620    3.235270    1.280470
     11          6           0        2.439890    1.646620    2.244150
     12          6           0        3.347680    0.474820    2.635300
     13          6           0        4.594800    0.962210    3.367110
     14          1           0       -3.182660    0.526180   -0.071560
     15          1           0       -0.998440    4.264350   -0.336810
     16          1           0       -0.833460    0.515730    0.325830
     17          1           0        1.136240    0.164550    1.386400
     18          1           0        2.131320    2.193200    3.162670
     19          1           0        3.004140    2.340280    1.582250
     20          1           0        3.658650   -0.074400    1.719930
     21          1           0        2.789360   -0.221670    3.298140
     22          1           0        5.181710    1.645460    2.716860
     23          1           0        5.231730    0.093420    3.636320
     24          1           0        4.311610    1.497880    4.298180
     25          1           0       -5.138740    1.635010   -0.999950
     26          1           0       -2.929890    5.329900   -1.245860
     27          7           0       -5.335900    4.221390   -1.741870
     28          8           0       -5.199770    5.303260   -2.521400
     29          8           0       -6.567830    3.760330   -1.484100
 ---------------------------------------------------------------------
                    Distance matrix (angstroms):
                    1          2          3          4          5
     1  C    0.000000
     2  C    1.402353   0.000000
     3  C    2.430538   1.396558   0.000000
     4  C    2.842115   2.445196   1.407678   0.000000
     5  C    2.437422   2.794959   2.416906   1.415288   0.000000
     6  C    1.403230   2.413732   2.786238   2.445991   1.398937
     7  N    4.279864   3.734369   2.436286   1.439633   2.527369
     8  C    5.268252   4.937781   3.720393   2.524215   3.114049
     9  N    6.550675   6.080934   4.765880   3.734573   4.457843
    10  O    5.260025   5.238132   4.231826   2.890467   2.917493
    11  C    7.713964   7.380743   6.115586   4.983191   5.464948
    12  C    9.005343   8.526059   7.188410   6.195733   6.843868
    13  C   10.237986   9.866593   8.565318   7.489075   7.975866
    14  H    3.399461   2.136245   1.083082   2.165264   3.407529
    15  H    3.377434   3.866838   3.417803   2.198527   1.074226
    16  H    4.787991   3.979999   2.594664   2.105910   3.389134
    17  H    6.830283   6.169578   4.790775   3.993963   4.955224
    18  H    7.801847   7.527971   6.324875   5.199103   5.587855
    19  H    7.810169   7.639167   6.449788   5.194560   5.441793
    20  H    9.132680   8.611782   7.260961   6.311671   7.009841
    21  H    9.127414   8.515360   7.152279   6.317148   7.125276
    22  H   10.337353  10.087018   8.832002   7.657201   7.986992
    23  H   11.145920  10.689963   9.352457   8.351857   8.933315
    24  H   10.333373  10.005366   8.743383   7.662371   8.089303
    25  H    2.165406   1.082435   2.139109   3.413007   3.877159
    26  H    2.163870   3.402129   3.868732   3.416083   2.140380
    27  N    1.425400   2.456753   3.736022   4.267516   3.741726
    28  O    2.402445   3.641633   4.804404   5.082097   4.254196
    29  O    2.402378   2.869938   4.250631   5.081756   4.811301
                    6          7          8          9         10
     6  C    0.000000
     7  N    3.792923   0.000000
     8  C    4.498509   1.369126   0.000000
     9  N    5.842949   2.359663   1.363230   0.000000
    10  O    4.248003   2.258696   1.220670   2.230272   0.000000
    11  C    6.852377   3.707254   2.461648   1.452735   2.731588
    12  C    8.238724   4.809818   3.756576   2.461221   4.233686
    13  C    9.361007   6.162349   4.977770   3.809718   5.177163
    14  H    3.869038   2.642555   3.970034   4.768408   4.719489
    15  H    2.102387   2.839154   2.948079   4.260748   2.395176
    16  H    4.536433   1.032125   2.045989   2.508033   3.150060
    17  H    6.298061   2.554885   2.071900   1.032275   3.150970
    18  H    6.921397   4.051450   2.768070   2.100665   2.738103
    19  H    6.811018   4.048704   2.765774   2.100289   2.734795
    20  H    8.402132   4.909147   4.017273   2.715217   4.639189
    21  H    8.493416   4.913069   4.020301   2.716712   4.642425
    22  H    9.357896   6.398410   5.160449   4.123735   5.205488
    23  H   10.326764   6.975486   5.880055   4.621171   6.197156
    24  H    9.440736   6.402039   5.163383   4.125224   5.208925
    25  H    3.403592   4.575303   5.840588   6.897626   6.233533
    26  H    1.082663   4.663420   5.171316   6.523383   4.702121
    27  N    2.457740   5.705016   6.675564   7.970061   6.590941
    28  O    2.871057   6.504548   7.346667   8.673874   7.107107
    29  O    3.642751   6.475416   7.534357   8.778213   7.549494
                   11         12         13         14         15
    11  C    0.000000
    12  C    1.533035   0.000000
    13  C    2.524499   1.525911   0.000000
    14  H    6.183120   7.069305   8.514896   0.000000
    15  H    5.033486   6.487121   7.477131   4.337636   0.000000
    16  H    3.959000   4.776741   6.238168   2.382597   3.810310
    17  H    2.152155   2.558610   4.064617   4.572671   4.933018
    18  H    1.112495   2.170364   2.761497   6.440309   5.131415
    19  H    1.112499   2.169533   2.759529   6.656015   4.837921
    20  H    2.173038   1.111867   2.159662   7.097440   6.689052
    21  H    2.173369   1.111835   2.160079   6.897766   6.905408
    22  H    2.782271   2.177319   1.110909   8.887675   7.374126
    23  H    3.484959   2.167291   1.110383   9.205304   8.485130
    24  H    2.782894   2.177380   1.110869   8.729428   7.571864
    25  H    8.243783   9.304859  10.689512   2.432624   4.949269
    26  H    7.387913   8.834200   9.847699   4.951626   2.385847
    27  N    9.109375  10.421179  11.633690   4.591400   4.559561
    28  O    9.718327  11.088926  12.225092   5.735063   4.847983
    29  O    9.975301  11.228596  12.488716   4.890232   5.708626
                   16         17         18         19         20
    16  H    0.000000
    17  H    2.264477   0.000000
    18  H    4.433000   2.874150   0.000000
    19  H    4.431111   2.874232   1.811401   0.000000
    20  H    4.740340   2.555561   3.091318   2.505597   0.000000
    21  H    4.743755   2.556701   2.506585   3.090954   1.807789
    22  H    6.570813   4.508774   3.131077   2.551848   2.504296
    23  H    6.922732   4.673354   3.774382   3.772233   2.485014
    24  H    6.573882   4.509901   2.554705   3.129759   3.089627
    25  H    4.641758   6.872575   8.395996   8.571561   9.365570
    26  H    5.481009   7.081176   7.408770   7.221409   9.022817
    27  N    6.187024   8.254249   9.161192   9.173037  10.551768
    28  O    7.077558   9.045566   9.783967   9.639675  11.197308
    29  O    6.832736   8.973411   9.986169  10.150944  11.382085
                   21         22         23         24         25
    21  H    0.000000
    22  H    3.089887   0.000000
    23  H    2.485723   1.804643   0.000000
    24  H    2.504831   1.810919   1.804768   0.000000
    25  H    9.207367  10.969342  11.463775  10.835040   0.000000
    26  H    9.174840   9.750708  10.856724   9.892425   4.311810
    27  N   10.543355  11.710500  12.555472  11.703596   2.697903
    28  O   11.323343  12.189914  13.186210  12.306662   3.971724
    29  O   11.237578  12.655925  13.375147  12.526598   2.606470
                   26         27         28         29
    26  H    0.000000
    27  N    2.695126   0.000000
    28  O    2.603856   1.340388   0.000000
    29  O    3.969246   1.340400   2.308292   0.000000
 Stoichiometry    C10H13N3O3
 Framework group  C1[X(C10H13N3O3)]
 Deg. of freedom    81
 Full point group                 C1      NOp   1
 Largest Abelian subgroup         C1      NOp   1
 Largest concise Abelian subgroup C1      NOp   1
                         Standard orientation:                         
 ---------------------------------------------------------------------
 Center     Atomic      Atomic             Coordinates (Angstroms)
 Number     Number       Type             X           Y           Z
 ---------------------------------------------------------------------
      1          6           0        3.372952   -0.006146   -0.006214
      2          6           0        2.859865    1.298925    0.004893
      3          6           0        1.484136    1.521450   -0.085805
      4          6           0        0.574163    0.452558   -0.190582
      5          6           0        1.098956   -0.861797   -0.200713
      6          6           0        2.477519   -1.081576   -0.109684
      7          7           0       -0.826295    0.773607   -0.281070
      8          6           0       -1.895220   -0.031801    0.007411
      9          7           0       -3.160127    0.453281   -0.144584
     10          8           0       -1.738990   -1.177838    0.397575
     11          6           0       -4.331616   -0.355970    0.143801
     12          6           0       -5.621085    0.431419   -0.115978
     13          6           0       -6.855123   -0.414824    0.183066
     14          1           0        1.125274    2.543289   -0.074431
     15          1           0        0.488778   -1.742613   -0.276922
     16          1           0       -1.049697    1.727839   -0.604821
     17          1           0       -3.289754    1.422510   -0.475313
     18          1           0       -4.304638   -0.672968    1.209835
     19          1           0       -4.319745   -1.260684   -0.503505
     20          1           0       -5.652252    0.750251   -1.180694
     21          1           0       -5.639249    1.336668    0.529290
     22          1           0       -6.870671   -1.317191   -0.464707
     23          1           0       -7.771403    0.180414   -0.014599
     24          1           0       -6.858418   -0.729930    1.248302
     25          1           0        3.521076    2.152324    0.083480
     26          1           0        2.842411   -2.100834   -0.120863
     27          7           0        4.776777   -0.235539    0.085553
     28          8           0        5.319095   -1.353563   -0.416994
     29          8           0        5.577211    0.663659    0.674978
 ---------------------------------------------------------------------
 Rotational constants (GHZ):      2.4986738      0.1513420      0.1444899
 General basis read from cards:  (6D, 7F)
 There are   330 symmetry adapted cartesian basis functions of A   symmetry.
 There are   330 symmetry adapted basis functions of A   symmetry.
   330 basis functions,   564 primitive gaussians,   330 cartesian basis functions
    59 alpha electrons       59 beta electrons
       nuclear repulsion energy      1009.9975599384 Hartrees.
 NAtoms=   29 NActive=   29 NUniq=   29 SFac= 1.00D+00 NAtFMM=   60 NAOKFM=F Big=F
 Integral buffers will be    131072 words long.
 Raffenetti 2 integral format.
 Two-electron integral symmetry is turned on.
 ------------------------------------------------------------------------------
 Polarizable Continuum Model (PCM)
 =================================
 Model                : PCM (using non-symmetric T matrix).
 Atomic radii         : SMD-Coulomb.
 Polarization charges : Total charges.
 Charge compensation  : None.
 Solution method      : On-the-fly selection.
 Cavity type          : VdW (van der Waals Surface) (Alpha=1.000).
 Cavity algorithm     : GePol (No added spheres)
                        Default sphere list used, NSphG=   29.
                        Lebedev-Laikov grids with approx.  5.0 points / Ang**2.
                        Smoothing algorithm: York/Karplus (Gamma=1.0000).
                        Polarization charges: spherical gaussians, with
                                              point-specific exponents (IZeta= 3).
                        Self-potential: point-specific (ISelfS= 7).
                        Self-field    : sphere-specific E.n sum rule (ISelfD= 2).
 1st derivatives      : Analytical E(r).r(x)/FMM algorithm (CHGder, D1EAlg=3).
                        Cavity 1st derivative terms included.
 Solvent              : Water, Eps=  78.355300 Eps(inf)=   1.777849
 ------------------------------------------------------------------------------
 ------------------------------------------------------------------------------
 Atomic radii for non-electrostatic terms: SMD-CDS.
 ------------------------------------------------------------------------------
 Nuclear repulsion after PCM non-electrostatic terms =     1010.0097903973 Hartrees.
 One-electron integrals computed using PRISM.
 NBasis=   330 RedAO= T EigKep=  2.30D-06  NBF=   330
 NBsUse=   330 1.00D-06 EigRej= -1.00D+00 NBFU=   330
 ExpMin= 4.38D-02 ExpMax= 5.48D+03 ExpMxC= 8.25D+02 IAcc=3 IRadAn=         5 AccDes= 0.00D+00
 Harris functional with IExCor= 1009 and IRadAn=       5 diagonalized for initial guess.
 HarFok:  IExCor= 1009 AccDes= 0.00D+00 IRadAn=         5 IDoV= 1 UseB2=F ITyADJ=14
 ICtDFT=  3500011 ScaDFX=  1.000000  1.000000  1.000000  1.000000
 FoFCou: FMM=F IPFlag=           0 FMFlag=      100000 FMFlg1=           0
         NFxFlg=           0 DoJE=T BraDBF=F KetDBF=T FulRan=T
         wScrn=  0.000000 ICntrl=     500 IOpCl=  0 I1Cent=   200000004 NGrid=           0
         NMat0=    1 NMatS0=      1 NMatT0=    0 NMatD0=    1 NMtDS0=    0 NMtDT0=    0
 Petite list used in FoFCou.
 Requested convergence on RMS density matrix=1.00D-08 within 128 cycles.
 Requested convergence on MAX density matrix=1.00D-06.
 Requested convergence on             energy=1.00D-06.
 No special actions if energy rises.
 Inv3:  Mode=1 IEnd=    15174003.
 Iteration    1 A*A^-1 deviation from unit magnitude is 6.33D-15 for    548.
 Iteration    1 A*A^-1 deviation from orthogonality  is 4.49D-15 for   2215   1915.
 Iteration    1 A^-1*A deviation from unit magnitude is 4.88D-15 for    549.
 Iteration    1 A^-1*A deviation from orthogonality  is 4.56D-10 for   2223   1292.
 Iteration    2 A*A^-1 deviation from unit magnitude is 5.55D-15 for   1108.
 Iteration    2 A*A^-1 deviation from orthogonality  is 8.24D-15 for   2229      6.
 Iteration    2 A^-1*A deviation from unit magnitude is 8.88D-16 for     11.
 Iteration    2 A^-1*A deviation from orthogonality  is 6.38D-16 for   2242   1507.
 Error on total polarization charges =  0.06499
 SCF Done:  E(RM062X) =  -778.434730368     A.U. after   17 cycles
            NFock= 17  Conv=0.64D-08     -V/T= 2.0099
 SMD-CDS (non-electrostatic) energy       (kcal/mol) =       7.67
 (included in total energy above)

 **********************************************************************

            Population analysis using the SCF density.

 **********************************************************************

 Orbital symmetries:
       Occupied  (A) (A) (A) (A) (A) (A) (A) (A) (A) (A) (A) (A)
                 (A) (A) (A) (A) (A) (A) (A) (A) (A) (A) (A) (A)
                 (A) (A) (A) (A) (A) (A) (A) (A) (A) (A) (A) (A)
                 (A) (A) (A) (A) (A) (A) (A) (A) (A) (A) (A) (A)
                 (A) (A) (A) (A) (A) (A) (A) (A) (A) (A) (A)
       Virtual   (A) (A) (A) (A) (A) (A) (A) (A) (A) (A) (A) (A)
                 (A) (A) (A) (A) (A) (A) (A) (A) (A) (A) (A) (A)
                 (A) (A) (A) (A) (A) (A) (A) (A) (A) (A) (A) (A)
                 (A) (A) (A) (A) (A) (A) (A) (A) (A) (A) (A) (A)
                 (A) (A) (A) (A) (A) (A) (A) (A) (A) (A) (A) (A)
                 (A) (A) (A) (A) (A) (A) (A) (A) (A) (A) (A) (A)
                 (A) (A) (A) (A) (A) (A) (A) (A) (A) (A) (A) (A)
                 (A) (A) (A) (A) (A) (A) (A) (A) (A) (A) (A) (A)
                 (A) (A) (A) (A) (A) (A) (A) (A) (A) (A) (A) (A)
                 (A) (A) (A) (A) (A) (A) (A) (A) (A) (A) (A) (A)
                 (A) (A) (A) (A) (A) (A) (A) (A) (A) (A) (A) (A)
                 (A) (A) (A) (A) (A) (A) (A) (A) (A) (A) (A) (A)
                 (A) (A) (A) (A) (A) (A) (A) (A) (A) (A) (A) (A)
                 (A) (A) (A) (A) (A) (A) (A) (A) (A) (A) (A) (A)
                 (A) (A) (A) (A) (A) (A) (A) (A) (A) (A) (A) (A)
                 (A) (A) (A) (A) (A) (A) (A) (A) (A) (A) (A) (A)
                 (A) (A) (A) (A) (A) (A) (A) (A) (A) (A) (A) (A)
                 (A) (A) (A) (A) (A) (A) (A) (A) (A) (A) (A) (A)
                 (A) (A) (A) (A) (A) (A) (A) (A) (A) (A) (A) (A)
                 (A) (A) (A) (A) (A) (A) (A) (A) (A) (A) (A) (A)
                 (A) (A) (A) (A) (A) (A) (A) (A) (A) (A) (A) (A)
                 (A) (A) (A) (A) (A) (A) (A) (A) (A) (A) (A) (A)
                 (A) (A) (A) (A) (A) (A) (A)
 The electronic state is 1-A.
 Alpha  occ. eigenvalues --  -19.70797 -19.70790 -19.62187 -15.02902 -14.81730
 Alpha  occ. eigenvalues --  -14.78973 -10.69560 -10.64407 -10.63141 -10.59368
 Alpha  occ. eigenvalues --  -10.59302 -10.58197 -10.57963 -10.57808 -10.54617
 Alpha  occ. eigenvalues --  -10.53479  -1.29599  -1.19475  -1.13039  -1.06153
 Alpha  occ. eigenvalues --   -1.02995  -0.99858  -0.92341  -0.87594  -0.87273
 Alpha  occ. eigenvalues --   -0.82091  -0.77032  -0.73147  -0.70566  -0.67678
 Alpha  occ. eigenvalues --   -0.67300  -0.64556  -0.63978  -0.61541  -0.60067
 Alpha  occ. eigenvalues --   -0.59045  -0.55957  -0.54578  -0.53787  -0.53445
 Alpha  occ. eigenvalues --   -0.52316  -0.51557  -0.50304  -0.48406  -0.47241
 Alpha  occ. eigenvalues --   -0.46218  -0.45305  -0.43334  -0.41743  -0.41655
 Alpha  occ. eigenvalues --   -0.39916  -0.39524  -0.39136  -0.38659  -0.38379
 Alpha  occ. eigenvalues --   -0.36264  -0.33281  -0.32742  -0.29639
 Alpha virt. eigenvalues --   -0.10294  -0.00117   0.01314   0.01642   0.02751
 Alpha virt. eigenvalues --    0.03585   0.04104   0.04299   0.04532   0.05227
 Alpha virt. eigenvalues --    0.05804   0.06437   0.06757   0.07718   0.08119
 Alpha virt. eigenvalues --    0.08297   0.08830   0.09162   0.09532   0.09694
 Alpha virt. eigenvalues --    0.10474   0.10887   0.11194   0.11771   0.12874
 Alpha virt. eigenvalues --    0.13632   0.13691   0.14170   0.14664   0.15290
 Alpha virt. eigenvalues --    0.15435   0.15600   0.16326   0.16955   0.17453
 Alpha virt. eigenvalues --    0.17992   0.18658   0.18774   0.19550   0.19915
 Alpha virt. eigenvalues --    0.20430   0.20840   0.21596   0.21783   0.22151
 Alpha virt. eigenvalues --    0.22291   0.23068   0.23209   0.23565   0.23859
 Alpha virt. eigenvalues --    0.24363   0.24844   0.24882   0.25638   0.25977
 Alpha virt. eigenvalues --    0.26093   0.26794   0.27162   0.27514   0.28062
 Alpha virt. eigenvalues --    0.28295   0.29105   0.29262   0.29661   0.30359
 Alpha virt. eigenvalues --    0.30961   0.31191   0.31600   0.31934   0.32312
 Alpha virt. eigenvalues --    0.32523   0.33108   0.33319   0.33740   0.34260
 Alpha virt. eigenvalues --    0.34783   0.34842   0.35385   0.36096   0.37160
 Alpha virt. eigenvalues --    0.37950   0.38514   0.38911   0.39488   0.40171
 Alpha virt. eigenvalues --    0.40952   0.41337   0.43315   0.44012   0.45236
 Alpha virt. eigenvalues --    0.46671   0.48521   0.50359   0.51806   0.54760
 Alpha virt. eigenvalues --    0.57658   0.62326   0.65964   0.68836   0.69585
 Alpha virt. eigenvalues --    0.70440   0.71109   0.72648   0.74222   0.74995
 Alpha virt. eigenvalues --    0.75613   0.76476   0.77538   0.79011   0.79430
 Alpha virt. eigenvalues --    0.80268   0.80468   0.80581   0.82315   0.84415
 Alpha virt. eigenvalues --    0.84858   0.86270   0.87256   0.89232   0.89992
 Alpha virt. eigenvalues --    0.92254   0.92841   0.96936   0.97899   0.99279
 Alpha virt. eigenvalues --    1.00204   1.00541   1.01875   1.02345   1.03377
 Alpha virt. eigenvalues --    1.04346   1.04863   1.06147   1.07250   1.08755
 Alpha virt. eigenvalues --    1.09240   1.11138   1.11752   1.12089   1.12425
 Alpha virt. eigenvalues --    1.12953   1.14241   1.14785   1.16290   1.17565
 Alpha virt. eigenvalues --    1.18526   1.18778   1.21310   1.22135   1.23809
 Alpha virt. eigenvalues --    1.25473   1.26545   1.28701   1.29729   1.30741
 Alpha virt. eigenvalues --    1.31682   1.33007   1.34171   1.36312   1.36863
 Alpha virt. eigenvalues --    1.37156   1.37471   1.38562   1.39237   1.40060
 Alpha virt. eigenvalues --    1.43485   1.44829   1.46010   1.47035   1.47271
 Alpha virt. eigenvalues --    1.48829   1.49936   1.50723   1.51488   1.53865
 Alpha virt. eigenvalues --    1.54372   1.56819   1.57768   1.60290   1.62970
 Alpha virt. eigenvalues --    1.68433   1.73725   1.75809   1.78529   1.79978
 Alpha virt. eigenvalues --    1.81159   1.83440   1.84515   1.85279   1.86907
 Alpha virt. eigenvalues --    1.87231   1.88179   1.88903   1.89713   1.91125
 Alpha virt. eigenvalues --    1.91680   1.94590   1.95785   1.95885   1.97816
 Alpha virt. eigenvalues --    1.99743   2.01822   2.03254   2.04852   2.06041
 Alpha virt. eigenvalues --    2.06419   2.06574   2.06962   2.09208   2.11175
 Alpha virt. eigenvalues --    2.12499   2.14877   2.16870   2.19044   2.20449
 Alpha virt. eigenvalues --    2.20779   2.21282   2.22553   2.27277   2.28911
 Alpha virt. eigenvalues --    2.31203   2.35317   2.36091   2.37308   2.38425
 Alpha virt. eigenvalues --    2.40433   2.41721   2.42330   2.47651   2.49230
 Alpha virt. eigenvalues --    2.52103   2.54767   2.57044   2.60346   2.63644
 Alpha virt. eigenvalues --    2.65757   2.66711   2.69668   2.71235   2.72855
 Alpha virt. eigenvalues --    2.75458   2.77909   2.78716   2.83028   2.84719
 Alpha virt. eigenvalues --    2.90090   2.93063   2.97558   2.98936   2.99979
 Alpha virt. eigenvalues --    3.10547   3.16673   3.25985   3.31186   3.41226
 Alpha virt. eigenvalues --    4.09796   4.15474   4.24542   4.25384   4.26300
 Alpha virt. eigenvalues --    4.30147   4.35119   4.39240   4.41514   4.42055
 Alpha virt. eigenvalues --    4.46227   4.49069   4.57696   4.60458   4.64521
 Alpha virt. eigenvalues --    4.77159
          Condensed to atoms (all electrons):
               1          2          3          4          5          6
     1  C   10.242550  -0.199603  -0.114845  -1.692519  -1.482638   0.181235
     2  C   -0.199603  10.037453  -1.542974  -0.155279  -0.133423  -2.560478
     3  C   -0.114845  -1.542974  11.702992   0.160804  -2.187476  -0.756281
     4  C   -1.692519  -0.155279   0.160804   8.921567  -0.101855  -0.650340
     5  C   -1.482638  -0.133423  -2.187476  -0.101855  12.474252  -3.526047
     6  C    0.181235  -2.560478  -0.756281  -0.650340  -3.526047  13.403621
     7  N    0.000014   0.057433   0.141799   0.087658  -0.164309  -0.018704
     8  C   -0.282579   0.174094  -0.646075  -0.568534   0.352483  -0.236320
     9  N   -0.008337   0.011361  -0.051166  -0.031208  -0.045783   0.001504
    10  O   -0.020772   0.012182  -0.122114  -0.176761   0.186019   0.054867
    11  C   -0.019284   0.020153  -0.038697  -0.220317  -0.052107  -0.037786
    12  C   -0.000455   0.000108  -0.001612  -0.000895  -0.000310   0.002656
    13  C   -0.000098   0.000139  -0.000735  -0.004951  -0.000919  -0.000455
    14  H    0.010804  -0.012725   0.312136  -0.003632   0.034401  -0.023785
    15  H    0.001361  -0.010526   0.029068   0.016527   0.223479   0.048296
    16  H   -0.003443   0.015899  -0.058013   0.005321   0.015787   0.009626
    17  H    0.000016  -0.000177  -0.001238   0.010833   0.002771   0.000288
    18  H   -0.000059   0.000072  -0.001552  -0.008002   0.004676   0.000649
    19  H    0.000041  -0.000064   0.000343   0.002744  -0.002116  -0.000182
    20  H   -0.000000  -0.000003  -0.000074  -0.000539   0.000483   0.000053
    21  H   -0.000001   0.000005   0.000210  -0.000149  -0.000578  -0.000048
    22  H   -0.000000   0.000000   0.000007   0.000032  -0.000046  -0.000003
    23  H   -0.000000  -0.000000  -0.000001  -0.000023   0.000003   0.000000
    24  H    0.000000  -0.000000  -0.000001   0.000029   0.000002   0.000001
    25  H   -0.004374   0.351846  -0.053411   0.023417  -0.019645   0.016899
    26  H    0.010828   0.020379  -0.021510   0.010054  -0.055034   0.353284
    27  N   -0.410503  -0.048365   0.140296  -0.033425   0.091827   0.028169
    28  O   -0.015710   0.045731  -0.014243   0.000235   0.047323  -0.119559
    29  O    0.007878  -0.137788   0.015735   0.004559  -0.008632   0.052856
               7          8          9         10         11         12
     1  C    0.000014  -0.282579  -0.008337  -0.020772  -0.019284  -0.000455
     2  C    0.057433   0.174094   0.011361   0.012182   0.020153   0.000108
     3  C    0.141799  -0.646075  -0.051166  -0.122114  -0.038697  -0.001612
     4  C    0.087658  -0.568534  -0.031208  -0.176761  -0.220317  -0.000895
     5  C   -0.164309   0.352483  -0.045783   0.186019  -0.052107  -0.000310
     6  C   -0.018704  -0.236320   0.001504   0.054867  -0.037786   0.002656
     7  N    7.624443   0.181685  -0.304521  -0.143687  -0.076225   0.000642
     8  C    0.181685   5.794506   0.389017   0.630607  -0.521815   0.095178
     9  N   -0.304521   0.389017   7.524848  -0.197090   0.292179  -0.074076
    10  O   -0.143687   0.630607  -0.197090   8.547497  -0.049837   0.014828
    11  C   -0.076225  -0.521815   0.292179  -0.049837   6.550985  -0.297078
    12  C    0.000642   0.095178  -0.074076   0.014828  -0.297078   6.094859
    13  C   -0.002394  -0.047013   0.001377  -0.003169   0.006185  -0.035549
    14  H   -0.005886  -0.003403   0.000152  -0.000022  -0.000379   0.000022
    15  H   -0.006520   0.008333  -0.000545  -0.003581   0.002420   0.000085
    16  H    0.245111  -0.010337   0.013351   0.007283   0.002262   0.000685
    17  H    0.017737   0.014210   0.251663   0.008312  -0.052443  -0.001880
    18  H    0.001518  -0.023546  -0.053533   0.004411   0.420701  -0.037459
    19  H   -0.002393  -0.023337  -0.053302   0.003919   0.426732  -0.046016
    20  H    0.000577   0.006179   0.006585  -0.000139  -0.090606   0.435298
    21  H   -0.000471  -0.013335   0.005890  -0.000203  -0.063880   0.420015
    22  H    0.000023   0.000350   0.000519  -0.000049  -0.010128  -0.060925
    23  H    0.000009  -0.001320   0.000499   0.000006   0.027503  -0.086268
    24  H    0.000022   0.001665   0.000567  -0.000044  -0.008861  -0.061525
    25  H    0.000274   0.001826   0.000002  -0.000002   0.000010   0.000000
    26  H   -0.000614  -0.000904  -0.000008   0.000120  -0.000015   0.000001
    27  N    0.000720   0.004264  -0.000019   0.000139   0.000123   0.000002
    28  O   -0.000287  -0.000847  -0.000006   0.000001  -0.000014   0.000000
    29  O    0.000057   0.001641  -0.000002  -0.000006   0.000011  -0.000000
              13         14         15         16         17         18
     1  C   -0.000098   0.010804   0.001361  -0.003443   0.000016  -0.000059
     2  C    0.000139  -0.012725  -0.010526   0.015899  -0.000177   0.000072
     3  C   -0.000735   0.312136   0.029068  -0.058013  -0.001238  -0.001552
     4  C   -0.004951  -0.003632   0.016527   0.005321   0.010833  -0.008002
     5  C   -0.000919   0.034401   0.223479   0.015787   0.002771   0.004676
     6  C   -0.000455  -0.023785   0.048296   0.009626   0.000288   0.000649
     7  N   -0.002394  -0.005886  -0.006520   0.245111   0.017737   0.001518
     8  C   -0.047013  -0.003403   0.008333  -0.010337   0.014210  -0.023546
     9  N    0.001377   0.000152  -0.000545   0.013351   0.251663  -0.053533
    10  O   -0.003169  -0.000022  -0.003581   0.007283   0.008312   0.004411
    11  C    0.006185  -0.000379   0.002420   0.002262  -0.052443   0.420701
    12  C   -0.035549   0.000022   0.000085   0.000685  -0.001880  -0.037459
    13  C    5.651032  -0.000001   0.000008  -0.000006  -0.003122   0.002560
    14  H   -0.000001   0.413122  -0.000081   0.003024   0.000003   0.000000
    15  H    0.000008  -0.000081   0.413128  -0.000096   0.000001   0.000000
    16  H   -0.000006   0.003024  -0.000096   0.249923   0.001964   0.000010
    17  H   -0.003122   0.000003   0.000001   0.001964   0.263743   0.002072
    18  H    0.002560   0.000000   0.000000   0.000010   0.002072   0.490234
    19  H    0.003635  -0.000000  -0.000001  -0.000001   0.002010  -0.037807
    20  H   -0.042514  -0.000000  -0.000000   0.000001   0.000701   0.003610
    21  H   -0.032318  -0.000000  -0.000000   0.000001   0.000508  -0.005226
    22  H    0.414149   0.000000   0.000000   0.000000   0.000001  -0.000322
    23  H    0.410704  -0.000000  -0.000000  -0.000000  -0.000003  -0.000056
    24  H    0.412169  -0.000000  -0.000000  -0.000000   0.000001   0.002614
    25  H    0.000000  -0.003190   0.000010  -0.000008   0.000000  -0.000000
    26  H   -0.000000   0.000010  -0.003794   0.000001   0.000000  -0.000000
    27  N    0.000000  -0.000276  -0.000126   0.000008   0.000000   0.000000
    28  O   -0.000000   0.000016  -0.000038  -0.000000   0.000000  -0.000000
    29  O    0.000000  -0.000035   0.000025   0.000000   0.000000  -0.000000
              19         20         21         22         23         24
     1  C    0.000041  -0.000000  -0.000001  -0.000000  -0.000000   0.000000
     2  C   -0.000064  -0.000003   0.000005   0.000000  -0.000000  -0.000000
     3  C    0.000343  -0.000074   0.000210   0.000007  -0.000001  -0.000001
     4  C    0.002744  -0.000539  -0.000149   0.000032  -0.000023   0.000029
     5  C   -0.002116   0.000483  -0.000578  -0.000046   0.000003   0.000002
     6  C   -0.000182   0.000053  -0.000048  -0.000003   0.000000   0.000001
     7  N   -0.002393   0.000577  -0.000471   0.000023   0.000009   0.000022
     8  C   -0.023337   0.006179  -0.013335   0.000350  -0.001320   0.001665
     9  N   -0.053302   0.006585   0.005890   0.000519   0.000499   0.000567
    10  O    0.003919  -0.000139  -0.000203  -0.000049   0.000006  -0.000044
    11  C    0.426732  -0.090606  -0.063880  -0.010128   0.027503  -0.008861
    12  C   -0.046016   0.435298   0.420015  -0.060925  -0.086268  -0.061525
    13  C    0.003635  -0.042514  -0.032318   0.414149   0.410704   0.412169
    14  H   -0.000000  -0.000000  -0.000000   0.000000  -0.000000  -0.000000
    15  H   -0.000001  -0.000000  -0.000000   0.000000  -0.000000  -0.000000
    16  H   -0.000001   0.000001   0.000001   0.000000  -0.000000  -0.000000
    17  H    0.002010   0.000701   0.000508   0.000001  -0.000003   0.000001
    18  H   -0.037807   0.003610  -0.005226  -0.000322  -0.000056   0.002614
    19  H    0.491988  -0.005292   0.003648   0.002604  -0.000053  -0.000336
    20  H   -0.005292   0.488302  -0.030485  -0.004563  -0.003004   0.003763
    21  H    0.003648  -0.030485   0.488778   0.003760  -0.002980  -0.004565
    22  H    0.002604  -0.004563   0.003760   0.486637  -0.023776  -0.028320
    23  H   -0.000053  -0.003004  -0.002980  -0.023776   0.480536  -0.023768
    24  H   -0.000336   0.003763  -0.004565  -0.028320  -0.023768   0.486470
    25  H    0.000000  -0.000000   0.000000   0.000000  -0.000000   0.000000
    26  H    0.000000  -0.000000   0.000000   0.000000  -0.000000   0.000000
    27  N    0.000000  -0.000000   0.000000   0.000000   0.000000  -0.000000
    28  O   -0.000000  -0.000000   0.000000   0.000000  -0.000000  -0.000000
    29  O   -0.000000   0.000000  -0.000000  -0.000000   0.000000   0.000000
              25         26         27         28         29
     1  C   -0.004374   0.010828  -0.410503  -0.015710   0.007878
     2  C    0.351846   0.020379  -0.048365   0.045731  -0.137788
     3  C   -0.053411  -0.021510   0.140296  -0.014243   0.015735
     4  C    0.023417   0.010054  -0.033425   0.000235   0.004559
     5  C   -0.019645  -0.055034   0.091827   0.047323  -0.008632
     6  C    0.016899   0.353284   0.028169  -0.119559   0.052856
     7  N    0.000274  -0.000614   0.000720  -0.000287   0.000057
     8  C    0.001826  -0.000904   0.004264  -0.000847   0.001641
     9  N    0.000002  -0.000008  -0.000019  -0.000006  -0.000002
    10  O   -0.000002   0.000120   0.000139   0.000001  -0.000006
    11  C    0.000010  -0.000015   0.000123  -0.000014   0.000011
    12  C    0.000000   0.000001   0.000002   0.000000  -0.000000
    13  C    0.000000  -0.000000   0.000000  -0.000000   0.000000
    14  H   -0.003190   0.000010  -0.000276   0.000016  -0.000035
    15  H    0.000010  -0.003794  -0.000126  -0.000038   0.000025
    16  H   -0.000008   0.000001   0.000008  -0.000000   0.000000
    17  H    0.000000   0.000000   0.000000   0.000000   0.000000
    18  H   -0.000000  -0.000000   0.000000  -0.000000  -0.000000
    19  H    0.000000   0.000000   0.000000  -0.000000  -0.000000
    20  H   -0.000000  -0.000000  -0.000000  -0.000000   0.000000
    21  H    0.000000   0.000000   0.000000   0.000000  -0.000000
    22  H    0.000000   0.000000   0.000000   0.000000  -0.000000
    23  H   -0.000000  -0.000000   0.000000  -0.000000   0.000000
    24  H    0.000000   0.000000  -0.000000  -0.000000   0.000000
    25  H    0.403751  -0.000089  -0.014950  -0.000873   0.007387
    26  H   -0.000089   0.404956  -0.014147   0.007060  -0.000930
    27  N   -0.014950  -0.014147   6.769912   0.377765   0.381048
    28  O   -0.000873   0.007060   0.377765   7.897096  -0.067048
    29  O    0.007387  -0.000930   0.381048  -0.067048   7.884407
 Mulliken charges:
               1
     1  C   -0.199507
     2  C    0.054551
     3  C   -0.891371
     4  C    0.404646
     5  C    0.347414
     6  C   -0.224015
     7  N   -0.633709
     8  C    0.723328
     9  N   -0.679919
    10  O   -0.752719
    11  C   -0.209792
    12  C   -0.360330
    13  C   -0.728714
    14  H    0.279725
    15  H    0.282568
    16  H    0.501649
    17  H    0.482029
    18  H    0.234435
    19  H    0.233239
    20  H    0.231666
    21  H    0.231425
    22  H    0.220049
    23  H    0.221993
    24  H    0.220116
    25  H    0.291119
    26  H    0.290352
    27  N   -0.272461
    28  O   -0.156601
    29  O   -0.141164
 Sum of Mulliken charges =  -0.00000
 Mulliken charges with hydrogens summed into heavy atoms:
               1
     1  C   -0.199507
     2  C    0.345670
     3  C   -0.611646
     4  C    0.404646
     5  C    0.629981
     6  C    0.066337
     7  N   -0.132060
     8  C    0.723328
     9  N   -0.197890
    10  O   -0.752719
    11  C    0.257881
    12  C    0.102761
    13  C   -0.066557
    27  N   -0.272461
    28  O   -0.156601
    29  O   -0.141164
 Electronic spatial extent (au):  <R**2>=           7112.0943
 Charge=             -0.0000 electrons
 Dipole moment (field-independent basis, Debye):
    X=            -11.9609    Y=              7.3639    Z=             -2.6198  Tot=             14.2882
 Quadrupole moment (field-independent basis, Debye-Ang):
   XX=           -136.5297   YY=            -86.7818   ZZ=            -98.4055
   XY=             -4.8391   XZ=              1.6099   YZ=             -2.5070
 Traceless Quadrupole moment (field-independent basis, Debye-Ang):
   XX=            -29.2907   YY=             20.4572   ZZ=              8.8335
   XY=             -4.8391   XZ=              1.6099   YZ=             -2.5070
 Octapole moment (field-independent basis, Debye-Ang**2):
  XXX=           -489.1328  YYY=             28.5896  ZZZ=              1.4912  XYY=              0.2835
  XXY=             60.4509  XXZ=            -23.3767  XZZ=             -6.2976  YZZ=              0.0869
  YYZ=             -7.4644  XYZ=             -9.7697
 Hexadecapole moment (field-independent basis, Debye-Ang**3):
 XXXX=         -10632.9939 YYYY=           -505.9780 ZZZZ=           -164.6666 XXXY=             51.9961
 XXXZ=            -53.4733 YYYX=            -15.9961 YYYZ=             -3.5392 ZZZX=              1.9814
 ZZZY=             -2.0159 XXYY=          -1583.4291 XXZZ=          -1503.8180 YYZZ=           -127.9871
 XXYZ=            -59.5606 YYXZ=             23.1135 ZZXY=             -8.5786
 N-N= 1.010009790397D+03 E-N=-3.831765093591D+03  KE= 7.708414928508D+02
 D1PCM: PCM CHGder 1st derivatives, ID1Alg=3 FixD1E=F DoIter=F DoCFld=F I1PDM=0.
 Calling FoFJK, ICntrl=      2127 FMM=F ISym2X=0 I1Cent= 0 IOpClX= 0 NMat=1 NMatS=1 NMatT=0.
 ***** Axes restored to original set *****
 -------------------------------------------------------------------
 Center     Atomic                   Forces (Hartrees/Bohr)
 Number     Number              X              Y              Z
 -------------------------------------------------------------------
      1        6           0.005412638   -0.001833036    0.002415289
      2        6           0.002327936   -0.005860793    0.005612324
      3        6          -0.007067592    0.005730392   -0.006101261
      4        6           0.019214384   -0.004559525    0.011094407
      5        6          -0.012248633    0.001312873   -0.002820262
      6        6           0.005217136   -0.003908682   -0.001632914
      7        7          -0.027570471   -0.013761101   -0.019535042
      8        6           0.019004934   -0.005850051    0.006495717
      9        7          -0.020829948   -0.024958119   -0.013753254
     10        8          -0.000401299    0.034794295    0.004270282
     11        6           0.006588541    0.005930349    0.004171832
     12        6          -0.004490067   -0.004907152   -0.002943357
     13        6           0.004471319    0.001065328    0.002595242
     14        1           0.000995448   -0.001730529    0.000546716
     15        1           0.007189957   -0.001849253    0.003006395
     16        1          -0.004927970    0.012250294    0.001798271
     17        1           0.003093952    0.013753130    0.003102903
     18        1           0.003869057   -0.002766505   -0.009474672
     19        1          -0.005726878   -0.004293198    0.007787633
     20        1          -0.005194434    0.003199088    0.008029772
     21        1           0.003674294    0.004719904   -0.008084034
     22        1          -0.004124522   -0.005559437    0.007632865
     23        1          -0.004493751    0.009837099   -0.001556190
     24        1           0.004634818   -0.004075457   -0.008233000
     25        1          -0.002108121    0.000107736   -0.001052679
     26        1          -0.000945291    0.001564418   -0.000467529
     27        7          -0.084729109    0.047933434   -0.040214157
     28        8          -0.005298808   -0.088600188    0.067151913
     29        8           0.104462479    0.032314686   -0.019843210
 -------------------------------------------------------------------
 Cartesian Forces:  Max     0.104462479 RMS     0.022081838

 GradGradGradGradGradGradGradGradGradGradGradGradGradGradGradGradGradGrad
 Berny optimization.
 FormGI is forming the generalized inverse of G from B-inverse, IUseBI=4.
 GSVD:  received Info=                   1 from GESDD.
 Internal  Forces:  Max     0.111104865 RMS     0.015123980
 Search for a local minimum.
 Step number   1 out of a maximum of  151
 All quantities printed in internal units (Hartrees-Bohrs-Radians)
 Mixed Optimization -- RFO/linear search
 Second derivative matrix not updated -- first step.
 ITU=  0
     Eigenvalues ---    0.00329   0.00423   0.00994   0.01168   0.01356
     Eigenvalues ---    0.01356   0.01468   0.01635   0.01694   0.01836
     Eigenvalues ---    0.01955   0.01989   0.02050   0.02065   0.02071
     Eigenvalues ---    0.02083   0.02099   0.02100   0.02138   0.02178
     Eigenvalues ---    0.03755   0.04435   0.04933   0.05553   0.05673
     Eigenvalues ---    0.05783   0.08033   0.09179   0.11975   0.12669
     Eigenvalues ---    0.16000   0.16000   0.16000   0.16000   0.16000
     Eigenvalues ---    0.16000   0.16000   0.16000   0.16000   0.21964
     Eigenvalues ---    0.22000   0.22000   0.22000   0.22004   0.22959
     Eigenvalues ---    0.24000   0.25000   0.25000   0.25000   0.25000
     Eigenvalues ---    0.25000   0.25000   0.29145   0.29804   0.32337
     Eigenvalues ---    0.32337   0.32403   0.32407   0.32504   0.32508
     Eigenvalues ---    0.32560   0.35625   0.35674   0.35702   0.36701
     Eigenvalues ---    0.37889   0.39636   0.40687   0.41193   0.41657
     Eigenvalues ---    0.42436   0.42459   0.44150   0.44727   0.45373
     Eigenvalues ---    0.46024   0.51145   0.52300   0.57115   0.57118
     Eigenvalues ---    0.95087
 RFO step:  Lambda=-5.77893938D-02 EMin= 3.28957998D-03
 Linear search not attempted -- first point.
 Maximum step size (   0.300) exceeded in Quadratic search.
    -- Step size scaled by   0.902
 Iteration  1 RMS(Cart)=  0.07812403 RMS(Int)=  0.00071343
 Iteration  2 RMS(Cart)=  0.00167198 RMS(Int)=  0.00003081
 Iteration  3 RMS(Cart)=  0.00000130 RMS(Int)=  0.00003079
 Iteration  4 RMS(Cart)=  0.00000000 RMS(Int)=  0.00003079
 Variable       Old X    -DE/DX   Delta X   Delta X   Delta X     New X
                                 (Linear)    (Quad)   (Total)
    R1        2.65006  -0.00425   0.00000  -0.00731  -0.00730   2.64277
    R2        2.65172  -0.00462   0.00000  -0.00809  -0.00809   2.64363
    R3        2.69362  -0.01812   0.00000  -0.03446  -0.03446   2.65916
    R4        2.63911  -0.01706   0.00000  -0.02952  -0.02950   2.60961
    R5        2.04551   0.00184   0.00000   0.00401   0.00401   2.04952
    R6        2.66013  -0.00260   0.00000  -0.00478  -0.00477   2.65535
    R7        2.04673   0.00174   0.00000   0.00379   0.00379   2.05052
    R8        2.67451  -0.00971   0.00000  -0.01810  -0.01811   2.65639
    R9        2.72051  -0.04163   0.00000  -0.08270  -0.08270   2.63781
   R10        2.64361  -0.01541   0.00000  -0.02704  -0.02705   2.61656
   R11        2.02999   0.00510   0.00000   0.01083   0.01083   2.04082
   R12        2.04594   0.00157   0.00000   0.00342   0.00342   2.04935
   R13        2.58727   0.00765   0.00000   0.01212   0.01212   2.59939
   R14        1.95043  -0.01219   0.00000  -0.02280  -0.02280   1.92763
   R15        2.57613  -0.01148   0.00000  -0.01783  -0.01783   2.55830
   R16        2.30673   0.03476   0.00000   0.03109   0.03109   2.33782
   R17        2.74527   0.00034   0.00000   0.00069   0.00069   2.74597
   R18        1.95072  -0.01433   0.00000  -0.02681  -0.02681   1.92390
   R19        2.89702  -0.00719   0.00000  -0.01858  -0.01858   2.87843
   R20        2.10231  -0.01025   0.00000  -0.02427  -0.02427   2.07804
   R21        2.10232  -0.01022   0.00000  -0.02418  -0.02418   2.07814
   R22        2.88355   0.00101   0.00000   0.00257   0.00257   2.88612
   R23        2.10112  -0.00964   0.00000  -0.02278  -0.02278   2.07834
   R24        2.10106  -0.00962   0.00000  -0.02273  -0.02273   2.07833
   R25        2.09931  -0.01007   0.00000  -0.02372  -0.02372   2.07559
   R26        2.09832  -0.01065   0.00000  -0.02506  -0.02506   2.07326
   R27        2.09924  -0.01005   0.00000  -0.02367  -0.02367   2.07557
   R28        2.53297  -0.11110   0.00000  -0.15935  -0.15935   2.37362
   R29        2.53299  -0.11094   0.00000  -0.15912  -0.15912   2.37387
    A1        2.07184   0.01343   0.00000   0.04113   0.04114   2.11297
    A2        2.10551  -0.00686   0.00000  -0.02100  -0.02100   2.08451
    A3        2.10583  -0.00657   0.00000  -0.02013  -0.02014   2.08570
    A4        2.10388  -0.00872   0.00000  -0.02638  -0.02636   2.07752
    A5        2.10690   0.00289   0.00000   0.00710   0.00709   2.11399
    A6        2.07241   0.00583   0.00000   0.01928   0.01926   2.09167
    A7        2.11839  -0.00433   0.00000  -0.01272  -0.01270   2.10569
    A8        2.06694   0.00329   0.00000   0.01103   0.01102   2.07796
    A9        2.09785   0.00104   0.00000   0.00169   0.00168   2.09953
   A10        2.05557   0.01166   0.00000   0.03485   0.03483   2.09041
   A11        2.05351  -0.00443   0.00000  -0.01333  -0.01334   2.04017
   A12        2.17410  -0.00722   0.00000  -0.02152  -0.02153   2.15257
   A13        2.10695  -0.00545   0.00000  -0.01688  -0.01691   2.09005
   A14        2.15479  -0.00354   0.00000  -0.01751  -0.01750   2.13729
   A15        2.02144   0.00899   0.00000   0.03439   0.03440   2.05584
   A16        2.10973  -0.00659   0.00000  -0.01999  -0.02002   2.08971
   A17        2.10274   0.00225   0.00000   0.00567   0.00568   2.10841
   A18        2.07072   0.00434   0.00000   0.01433   0.01433   2.08505
   A19        2.23326  -0.00811   0.00000  -0.02632  -0.02633   2.20693
   A20        2.02245  -0.00031   0.00000  -0.00492  -0.00493   2.01752
   A21        2.02748   0.00842   0.00000   0.03125   0.03124   2.05872
   A22        2.08473  -0.02576   0.00000  -0.07550  -0.07551   2.00922
   A23        2.11732   0.00783   0.00000   0.02295   0.02293   2.14025
   A24        2.08113   0.01793   0.00000   0.05256   0.05255   2.13368
   A25        2.12691  -0.00373   0.00000  -0.01211  -0.01211   2.11480
   A26        2.07869   0.00354   0.00000   0.01299   0.01299   2.09168
   A27        2.07758   0.00019   0.00000  -0.00087  -0.00087   2.07671
   A28        1.93749  -0.00418   0.00000  -0.01211  -0.01208   1.92541
   A29        1.90646   0.00142   0.00000   0.00497   0.00499   1.91145
   A30        1.90594   0.00139   0.00000   0.00507   0.00510   1.91103
   A31        1.90617   0.00176   0.00000   0.00680   0.00681   1.91298
   A32        1.90505   0.00188   0.00000   0.00757   0.00758   1.91263
   A33        1.90241  -0.00227   0.00000  -0.01243  -0.01245   1.88996
   A34        1.94141  -0.00200   0.00000  -0.00484  -0.00483   1.93658
   A35        1.91041  -0.00008   0.00000  -0.00258  -0.00258   1.90784
   A36        1.91089  -0.00009   0.00000  -0.00271  -0.00270   1.90819
   A37        1.90078   0.00191   0.00000   0.01045   0.01043   1.91121
   A38        1.90137   0.00189   0.00000   0.01023   0.01022   1.91159
   A39        1.89845  -0.00162   0.00000  -0.01063  -0.01069   1.88776
   A40        1.92572   0.00204   0.00000   0.00815   0.00811   1.93383
   A41        1.91259   0.00280   0.00000   0.01224   0.01217   1.92476
   A42        1.92585   0.00207   0.00000   0.00828   0.00824   1.93408
   A43        1.89661  -0.00225   0.00000  -0.00873  -0.00879   1.88783
   A44        1.90572  -0.00255   0.00000  -0.01176  -0.01178   1.89395
   A45        1.89686  -0.00227   0.00000  -0.00877  -0.00883   1.88803
   A46        2.10432  -0.00523   0.00000  -0.01533  -0.01533   2.08899
   A47        2.10421  -0.00510   0.00000  -0.01495  -0.01495   2.08926
   A48        2.07466   0.01033   0.00000   0.03028   0.03028   2.10494
    D1       -0.00035   0.00000   0.00000   0.00008   0.00007  -0.00028
    D2        3.14158   0.00033   0.00000   0.00389   0.00387  -3.13773
    D3        3.14103  -0.00005   0.00000  -0.00058  -0.00061   3.14042
    D4       -0.00023   0.00028   0.00000   0.00323   0.00320   0.00297
    D5        0.00037  -0.00037   0.00000  -0.00427  -0.00431  -0.00394
    D6       -3.14153   0.00005   0.00000   0.00054   0.00048  -3.14105
    D7       -3.14100  -0.00031   0.00000  -0.00361  -0.00364   3.13855
    D8        0.00028   0.00011   0.00000   0.00120   0.00116   0.00144
    D9       -2.69470  -0.00257   0.00000  -0.03248  -0.03248  -2.72718
   D10        0.44598  -0.00255   0.00000  -0.03222  -0.03222   0.41375
   D11        0.44667  -0.00262   0.00000  -0.03314  -0.03314   0.41353
   D12       -2.69584  -0.00260   0.00000  -0.03288  -0.03288  -2.72872
   D13       -0.00006   0.00036   0.00000   0.00419   0.00419   0.00413
   D14       -3.14117   0.00035   0.00000   0.00405   0.00404  -3.13713
   D15        3.14120   0.00004   0.00000   0.00046   0.00044  -3.14155
   D16        0.00009   0.00003   0.00000   0.00031   0.00028   0.00037
   D17        0.00044  -0.00035   0.00000  -0.00416  -0.00424  -0.00380
   D18       -3.14031   0.00031   0.00000   0.00374   0.00376  -3.13655
   D19        3.14154  -0.00034   0.00000  -0.00401  -0.00408   3.13746
   D20        0.00079   0.00032   0.00000   0.00389   0.00392   0.00471
   D21       -0.00041  -0.00002   0.00000  -0.00005  -0.00005  -0.00047
   D22        3.14154   0.00019   0.00000   0.00231   0.00227  -3.13938
   D23        3.14027  -0.00072   0.00000  -0.00854  -0.00859   3.13169
   D24       -0.00096  -0.00051   0.00000  -0.00618  -0.00627  -0.00722
   D25       -2.76793  -0.00156   0.00000  -0.02031  -0.02026  -2.78819
   D26        0.37565  -0.00225   0.00000  -0.02864  -0.02852   0.34713
   D27        0.37457  -0.00087   0.00000  -0.01185  -0.01198   0.36259
   D28       -2.76503  -0.00155   0.00000  -0.02018  -0.02024  -2.78527
   D29        0.00001   0.00038   0.00000   0.00428   0.00424   0.00425
   D30       -3.14128  -0.00004   0.00000  -0.00045  -0.00049   3.14142
   D31        3.14127   0.00018   0.00000   0.00209   0.00202  -3.13990
   D32       -0.00002  -0.00023   0.00000  -0.00264  -0.00271  -0.00273
   D33       -3.13852  -0.00037   0.00000  -0.00447  -0.00447   3.14020
   D34        0.00198   0.00042   0.00000   0.00456   0.00448   0.00646
   D35        0.00108   0.00031   0.00000   0.00385   0.00392   0.00501
   D36        3.14158   0.00110   0.00000   0.01287   0.01287  -3.12874
   D37        3.13961   0.00044   0.00000   0.00513   0.00517  -3.13841
   D38       -0.00031   0.00036   0.00000   0.00403   0.00407   0.00376
   D39       -0.00091  -0.00033   0.00000  -0.00369  -0.00372  -0.00463
   D40       -3.14083  -0.00041   0.00000  -0.00478  -0.00482   3.13753
   D41       -3.13831  -0.00010   0.00000  -0.00099  -0.00098  -3.13930
   D42        1.04192  -0.00057   0.00000  -0.00504  -0.00503   1.03689
   D43       -1.03710   0.00052   0.00000   0.00410   0.00410  -1.03300
   D44        0.00161  -0.00001   0.00000   0.00012   0.00012   0.00173
   D45       -2.10134  -0.00048   0.00000  -0.00393  -0.00393  -2.10527
   D46        2.10282   0.00061   0.00000   0.00520   0.00520   2.10802
   D47        3.13986   0.00004   0.00000   0.00046   0.00046   3.14033
   D48        1.03856  -0.00102   0.00000  -0.00779  -0.00778   1.03078
   D49       -1.04096   0.00106   0.00000   0.00836   0.00835  -1.03261
   D50       -1.04020   0.00031   0.00000   0.00343   0.00342  -1.03678
   D51       -3.14150  -0.00075   0.00000  -0.00482  -0.00482   3.13686
   D52        1.06215   0.00133   0.00000   0.01133   0.01131   1.07347
   D53        1.03812  -0.00029   0.00000  -0.00314  -0.00313   1.03499
   D54       -1.06318  -0.00135   0.00000  -0.01139  -0.01138  -1.07455
   D55        3.14048   0.00073   0.00000   0.00475   0.00475  -3.13795
   D56       -1.05316   0.00025   0.00000   0.00196   0.00197  -1.05119
   D57       -3.14083  -0.00000   0.00000  -0.00002  -0.00002  -3.14085
   D58        1.05430  -0.00026   0.00000  -0.00203  -0.00204   1.05226
   D59        1.05381   0.00014   0.00000   0.00255   0.00254   1.05636
   D60       -1.03386  -0.00011   0.00000   0.00057   0.00055  -1.03330
   D61       -3.12190  -0.00036   0.00000  -0.00144  -0.00147  -3.12337
   D62        3.12206   0.00038   0.00000   0.00167   0.00170   3.12375
   D63        1.03439   0.00013   0.00000  -0.00031  -0.00029   1.03409
   D64       -1.05366  -0.00013   0.00000  -0.00232  -0.00231  -1.05598
         Item               Value     Threshold  Converged?
 Maximum Force            0.111105     0.000450     NO 
 RMS     Force            0.015124     0.000300     NO 
 Maximum Displacement     0.318387     0.001800     NO 
 RMS     Displacement     0.078724     0.001200     NO 
 Predicted change in Energy=-3.142463D-02
 GradGradGradGradGradGradGradGradGradGradGradGradGradGradGradGradGradGrad

                          Input orientation:                          
 ---------------------------------------------------------------------
 Center     Atomic      Atomic             Coordinates (Angstroms)
 Number     Number       Type             X           Y           Z
 ---------------------------------------------------------------------
      1          6           0       -4.123727    3.523895   -1.167484
      2          6           0       -4.185937    2.167702   -0.831849
      3          6           0       -3.068265    1.557591   -0.297440
      4          6           0       -1.885501    2.286683   -0.087804
      5          6           0       -1.835871    3.649463   -0.428929
      6          6           0       -2.952880    4.263519   -0.969671
      7          7           0       -0.801827    1.590772    0.450542
      8          6           0        0.285753    2.139470    1.089456
      9          7           0        1.206567    1.247797    1.525094
     10          8           0        0.412774    3.357749    1.263047
     11          6           0        2.405437    1.683907    2.220815
     12          6           0        3.266012    0.484005    2.594701
     13          6           0        4.531927    0.926255    3.325750
     14          1           0       -3.114773    0.504324   -0.040767
     15          1           0       -0.949520    4.250228   -0.288316
     16          1           0       -0.839230    0.575756    0.356375
     17          1           0        1.063249    0.252574    1.365443
     18          1           0        2.122961    2.233208    3.130601
     19          1           0        2.979722    2.361816    1.572751
     20          1           0        3.541611   -0.064403    1.682080
     21          1           0        2.686595   -0.192794    3.239520
     22          1           0        5.136337    1.589736    2.692607
     23          1           0        5.143393    0.054180    3.588937
     24          1           0        4.281213    1.460968    4.251807
     25          1           0       -5.092046    1.592534   -0.988102
     26          1           0       -2.909497    5.315137   -1.231003
     27          7           0       -5.257225    4.153722   -1.713936
     28          8           0       -5.117606    5.185837   -2.416037
     29          8           0       -6.399347    3.678320   -1.495789
 ---------------------------------------------------------------------
                    Distance matrix (angstroms):
                    1          2          3          4          5
     1  C    0.000000
     2  C    1.398492   0.000000
     3  C    2.395271   1.380948   0.000000
     4  C    2.775979   2.420696   1.405153   0.000000
     5  C    2.407388   2.807272   2.431463   1.405703   0.000000
     6  C    1.398948   2.435544   2.790565   2.413477   1.384622
     7  N    4.170131   3.664639   2.386906   1.395872   2.465953
     8  C    5.143338   4.867055   3.675800   2.474259   3.014442
     9  N    6.390824   5.956552   4.657445   3.638902   4.340810
    10  O    5.149264   5.191622   4.218213   2.872986   2.829184
    11  C    7.582619   7.280043   6.026523   4.909705   5.373383
    12  C    8.831943   8.373030   7.045576   6.081411   6.722475
    13  C   10.092434   9.737965   8.443282   7.395031   7.877964
    14  H    3.377171   2.130734   1.085088   2.165670   3.417332
    15  H    3.372846   3.886739   3.426289   2.184440   1.079958
    16  H    4.669217   3.891865   2.521918   2.054080   3.325307
    17  H    6.634907   6.004146   4.640869   3.865831   4.812850
    18  H    7.691588   7.450336   6.257536   5.140891   5.508937
    19  H    7.701838   7.560850   6.381422   5.141350   5.371657
    20  H    8.930471   8.427167   7.088006   6.173624   6.867785
    21  H    8.922777   8.329447   6.977991   6.174379   6.976615
    22  H   10.217146   9.983017   8.732521   7.584367   7.911899
    23  H   10.979161  10.537871   9.208447   8.240621   8.819264
    24  H   10.211141   9.901296   8.644063   7.585670   8.007341
    25  H    2.167942   1.084558   2.138673   3.402104   3.891826
    26  H    2.164934   3.419791   3.875035   3.395144   2.137864
    27  N    1.407164   2.422811   3.679389   4.183141   3.689335
    28  O    2.304069   3.533667   4.674657   4.926690   4.132654
    29  O    2.304360   2.760791   4.126697   4.928882   4.686612
                    6          7          8          9         10
     6  C    0.000000
     7  N    3.713167   0.000000
     8  C    4.386380   1.375540   0.000000
     9  N    5.711343   2.303463   1.353795   0.000000
    10  O    4.139212   2.292952   1.237122   2.269510   0.000000
    11  C    6.748716   3.664571   2.445520   1.453103   2.773044
    12  C    8.103339   4.729658   3.726697   2.443103   4.262942
    13  C    9.252584   6.095681   4.950040   3.795229   5.209062
    14  H    3.875644   2.602206   3.938868   4.656035   4.720757
    15  H    2.116099   2.764133   2.807037   4.117251   2.249242
    16  H    4.452584   1.020060   2.061115   2.450068   3.182617
    17  H    6.137567   2.471098   2.059380   1.018085   3.174227
    18  H    6.833635   4.018685   2.747798   2.094866   2.770757
    19  H    6.728756   4.019201   2.745994   2.094609   2.770744
    20  H    8.242640   4.808507   3.976037   2.683085   4.655785
    21  H    8.329447   4.809220   3.978225   2.684221   4.656508
    22  H    9.273448   6.347334   5.138139   4.113770   5.242286
    23  H   10.200445   6.896106   5.847435   4.602474   6.221100
    24  H    9.351483   6.348525   5.140480   4.115076   5.243595
    25  H    3.422065   4.525006   5.791036   6.790252   6.203764
    26  H    1.084471   4.597908   5.067446   6.409470   4.592290
    27  N    2.424045   5.577119   6.529995   7.792069   6.453286
    28  O    2.762007   6.306165   7.124965   8.428277   6.889315
    29  O    3.535164   6.283175   7.330901   8.537160   7.356556
                   11         12         13         14         15
    11  C    0.000000
    12  C    1.523202   0.000000
    13  C    2.513340   1.527271   0.000000
    14  H    6.081027   6.903661   8.365613   0.000000
    15  H    4.912991   6.345623   7.359112   4.333751   0.000000
    16  H    3.902819   4.676702   6.147306   2.311043   3.732229
    17  H    2.140524   2.533140   4.040838   4.415504   4.771519
    18  H    1.099652   2.157189   2.747603   6.362427   5.019712
    19  H    1.099705   2.156969   2.746485   6.572412   4.740107
    20  H    2.153536   1.099811   2.159579   6.899211   6.532133
    21  H    2.153791   1.099806   2.159851   6.700906   6.738501
    22  H    2.772954   2.174935   1.098357   8.759582   7.280232
    23  H    3.467588   2.167444   1.097120   9.031871   8.352454
    24  H    2.773656   2.175107   1.098343   8.604765   7.466810
    25  H    8.155841   9.160920  10.567596   2.447703   4.971273
    26  H    7.304067   8.724262   9.767347   4.960112   2.421611
    27  N    8.960951  10.231166  11.473556   4.550572   4.538506
    28  O    9.505792  10.839731  12.009398   5.618702   4.772369
    29  O    9.762942  10.970639  12.260254   4.793721   5.611210
                   16         17         18         19         20
    16  H    0.000000
    17  H    2.177635   0.000000
    18  H    4.383840   2.856866   0.000000
    19  H    4.387936   2.857402   1.782548   0.000000
    20  H    4.621588   2.518534   3.064278   2.492832   0.000000
    21  H    4.618944   2.519081   2.492996   3.064323   1.781336
    22  H    6.495656   4.487695   3.112286   2.549740   2.510078
    23  H    6.820065   4.650898   3.752497   3.751221   2.493165
    24  H    6.494377   4.488497   2.551766   3.111712   3.078517
    25  H    4.574701   6.724755   8.332497   8.503129   9.187782
    26  H    5.409944   6.939293   7.338086   7.160031   8.890573
    27  N    6.050348   8.040519   9.034660   9.047682  10.331749
    28  O    6.873399   8.765823   9.586920   9.457920  10.924360
    29  O    6.631086   8.695558   9.804161   9.955705  11.087356
                   21         22         23         24         25
    21  H    0.000000
    22  H    3.078597   0.000000
    23  H    2.493781   1.778029   0.000000
    24  H    2.510470   1.782954   1.778146   0.000000
    25  H    9.031469  10.870485  11.317244  10.739271   0.000000
    26  H    9.035437   9.695812  10.759113   9.829656   4.322070
    27  N   10.321493  11.576606  12.373341  11.568182   2.667171
    28  O   11.037235  12.007229  12.949197  12.110847   3.866714
    29  O   10.952763  12.448970  13.123401  12.329877   2.513421
                   26         27         28         29
    26  H    0.000000
    27  N    2.663445   0.000000
    28  O    2.509337   1.256065   0.000000
    29  O    3.863720   1.256199   2.182275   0.000000
 Stoichiometry    C10H13N3O3
 Framework group  C1[X(C10H13N3O3)]
 Deg. of freedom    81
[...]
 0057789,0.00050250,0.00035581,0.00066841,0.00038339,0.00010483,0.00597
 548,-0.01039787,0.00322239,-0.11654920,0.24417346,-0.00003699,0.000019
 19,-0.00002110,0.00000990,-0.00002078,0.00000954,-0.00004480,0.0000075
 2,-0.00002155,0.00008901,-0.00009615,0.00003931,-0.00002124,0.00003521
 ,-0.00001563,0.00002082,-0.00000160,0.00001070,-0.00026504,0.00010754,
 -0.00016495,0.00009635,-0.00056435,0.00018644,-0.00090744,0.00106652,-
 0.00012822,-0.00002900,0.00023037,-0.00002226,-0.00170480,-0.00187143,
 -0.00009504,-0.00464775,0.00995277,-0.00520984,-0.04461057,0.07489441,
 -0.07940016,0.00000137,-0.00000010,0.00000038,0.00000153,-0.00000460,0
 .00000076,0.00000802,0.00001610,0.00000886,0.00003504,0.00004506,0.000
 01982,-0.00005345,0.00033452,0.00011912,0.00000576,-0.00038268,0.00010
 815,0.00057638,0.00026222,0.00011789,0.00028596,-0.00031761,0.00044977
 ,-0.01217042,0.01832240,-0.00748287,0.05078513,-0.08186637,0.08142029,
 -0.00000381,0.00000186,-0.00000355,0.00000107,-0.00000132,0.00000198,-
 0.00000436,-0.00000079,-0.00000021,0.00001747,-0.00000697,0.00000156,-
 0.00000284,0.00000495,-0.00000075,0.00000168,-0.00000060,0.00000227,-0
 .00000833,-0.00001499,-0.00001786,0.00006885,0.00001178,0.00015233,-0.
 00003502,-0.00003622,0.00026253,-0.00001324,0.00006499,-0.00002477,0.0
 0128578,-0.00117722,-0.00036132,0.00304275,-0.02007635,-0.02452927,-0.
 05102333,0.01977567,0.02382370,0.00000036,0.00000018,-0.00000021,0.000
 00081,-0.00000113,-0.00000046,0.00000146,0.00000072,-0.00000038,0.0001
 2937,0.00006823,0.00000027,-0.00007787,0.00035582,0.00032761,-0.000000
 23,0.00014031,-0.00002511,-0.00530837,-0.00132846,-0.00267677,0.001459
 63,0.00031945,0.00067743,-0.00233637,0.01261888,0.01235346,-0.00218271
 ,0.00879675,0.01256133,0.05498529,-0.00001082,0.00000607,-0.00000417,0
 .00000270,-0.00000583,0.00000269,-0.00001227,0.00000184,-0.00000494,0.
 00002329,-0.00002524,0.00000498,-0.00000511,0.00000971,-0.00000477,0.0
 0000430,-0.00000092,0.00000288,-0.00006804,0.00002575,-0.00004112,0.00
 004345,-0.00007751,0.00003823,-0.00001433,0.00023123,0.00019500,-0.000
 05990,0.00006312,-0.00003001,0.00045126,0.00042324,0.00068882,0.000804
 15,-0.00621948,-0.00617711,0.01890359,-0.16084377,-0.13136396,0.000000
 60,-0.00000018,-0.00000029,0.00000083,-0.00000184,-0.00000028,0.000002
 84,0.00000305,0.00000351,0.00009047,-0.00003567,0.00003670,-0.00010424
 ,0.00040091,-0.00014519,-0.00011319,-0.00004329,-0.00001188,-0.0019736
 7,0.00056449,-0.00047098,0.00022683,0.00001688,0.00024074,-0.00091759,
 0.01064688,0.01137929,0.00223533,-0.01579699,-0.02016017,-0.01951455,0
 .17065940,-0.00000814,0.00000411,-0.00000551,0.00000214,-0.00000397,0.
 00000247,-0.00000976,0.00000149,-0.00000340,0.00002404,-0.00002119,0.0
 0000588,-0.00000421,0.00000748,-0.00000706,0.00000301,0.00000019,0.000
 00519,-0.00004911,0.00001471,-0.00002826,0.00004561,-0.00007973,0.0000
 6587,-0.00008689,0.00026859,0.00014261,-0.00002628,0.00008012,-0.00001
 742,0.00057130,-0.00047310,0.00013763,0.00115755,-0.00689223,-0.009103
 72,0.02259157,-0.13143843,-0.20365547,0.00000068,-0.00000014,-0.000000
 34,0.00000063,-0.00000151,-0.00000059,0.00000236,0.00000149,0.00000130
 ,0.00011016,-0.00000113,0.00003974,-0.00029368,0.00030383,-0.00017945,
 -0.00004335,0.00002474,-0.00003490,-0.00260619,-0.00051121,0.00043529,
 -0.00014021,0.00037722,0.00072451,0.00194703,-0.01512496,-0.01652568,-
 0.00066685,0.00764457,0.01006303,-0.02252466,0.14582064,0.21793681,0.0
 0537887,0.00018099,0.00031643,-0.23877418,-0.13650775,-0.06507226,-0.0
 1259723,-0.01363313,-0.00573048,-0.00011375,0.00182141,-0.00423915,-0.
 00028252,0.00073333,0.00028291,0.00163594,0.00085409,-0.00160771,-0.00
 091330,-0.00076297,-0.00025179,0.00011855,0.00043843,0.00023412,-0.000
 17195,-0.00002434,-0.00009228,-0.00003081,-0.00015266,-0.00002442,0.00
 003594,0.00004265,-0.00000462,-0.00001111,-0.00001721,-0.00000379,-0.0
 0000111,0.00000876,-0.00000145,0.00027771,0.00019282,0.00240295,-0.000
 11413,-0.00003219,0.00026546,0.00002777,-0.00007319,-0.00003635,0.0000
 0295,-0.00001762,0.00000505,-0.00000910,-0.00000279,-0.00000508,-0.000
 00668,-0.00000373,0.00000062,0.00000034,0.00000136,0.00000099,0.000000
 78,0.00000090,-0.00000080,-0.00000055,-0.00000040,0.00000028,-0.000003
 53,-0.00000028,-0.00000140,0.00000009,-0.00000039,-0.00000028,0.249090
 60,-0.02352982,-0.01082442,-0.00787814,-0.13600978,-0.15638102,-0.0403
 5565,0.01214720,0.01247398,0.00420776,0.00221888,-0.00092572,0.0027139
 9,0.00062004,0.00001802,0.00006262,0.00167409,-0.00484558,0.00251716,0
 .00052338,0.00076697,0.00011194,0.00008377,-0.00026771,-0.00003347,0.0
 0010105,0.00004664,0.00004839,0.00000029,0.00006152,0.00000201,-0.0000
 1354,-0.00003214,0.00000653,0.00000810,0.00000908,0.00000301,0.0000013
 4,-0.00000507,0.00000102,-0.00003708,0.00058376,-0.00104628,-0.0000340
 8,0.00008635,-0.00015234,-0.00004749,0.00001541,0.00000567,-0.00000368
 ,0.00000882,-0.00000248,0.00000294,0.00000189,0.00000188,0.00000186,0.
 00000219,-0.00000093,-0.00000028,-0.00000042,-0.00000033,-0.00000029,-
 0.00000033,0.00000012,0.00000007,0.00000017,-0.00000005,0.00000196,0.0
 0000040,0.00000076,-0.00000005,0.00000011,-0.00000004,0.14422053,0.158
 54919,0.00463095,0.00280615,0.00621078,-0.06515762,-0.04058012,-0.0623
 7562,-0.01044051,-0.00736880,0.00219090,-0.00436411,0.00259224,0.00608
 609,0.00034928,0.00002632,-0.00106241,-0.00177561,0.00214024,0.0036688
 2,-0.00039230,-0.00053054,-0.00028204,0.00023011,0.00021010,-0.0003082
 7,-0.00009509,-0.00001710,-0.00003761,-0.00002627,-0.00007949,0.000041
 85,0.00000113,0.00002586,0.00003332,-0.00000727,-0.00000742,0.00000046
 ,-0.00000020,0.00000405,-0.00000146,0.00244628,-0.00094168,-0.00382170
 ,0.00027062,-0.00015694,-0.00054138,-0.00003071,-0.00002148,0.00009041
 ,0.00000225,-0.00000650,-0.00000228,0.00000325,-0.00000319,-0.00000038
 ,-0.00000879,-0.00000096,-0.00000409,-0.00000008,0.00000031,0.00000028
 ,0.00000080,0.00000058,-0.00000024,0.00000023,-0.00000004,0.00000014,-
 0.00000158,-0.00000019,-0.00000098,-0.00000023,-0.00000039,-0.00000035
 ,0.07448631,0.04124788,0.05285257,0.00609839,-0.02328257,0.00477317,-0
 .00349188,-0.00215238,-0.00339881,-0.00079473,0.00028910,0.00015366,-0
 .00251261,0.00102797,-0.00502435,0.00406086,0.02437416,-0.00529144,-0.
 05458951,0.00004467,-0.00664080,0.00043135,0.00129242,0.00005556,0.000
 30304,0.00011407,0.00009826,-0.00010302,-0.00000146,-0.00003869,-0.000
 02097,-0.00012514,-0.00002727,0.00002409,0.00002139,0.00000345,-0.0000
 0590,-0.00000874,-0.00000139,-0.00000054,0.00000475,-0.00000104,0.0000
 4325,0.00005094,0.00025499,0.00025209,-0.00006717,0.00242437,-0.000347
 29,0.00012163,-0.00003186,0.00000552,-0.00001901,0.00001212,-0.0000042
 8,-0.00000387,-0.00000333,-0.00000555,-0.00000176,-0.00000077,0.000000
 13,0.00000064,0.00000025,0.00000019,0.00000055,-0.00000025,-0.00000035
 ,-0.00000025,0.00000023,-0.00000178,-0.00000029,-0.00000072,0.,-0.0000
 0018,-0.00000016,0.00040631,-0.00122070,0.00005056,0.05146802,0.000586
 85,-0.01177685,0.00334454,-0.00296011,0.00043888,-0.00050397,0.0003362
 3,0.00056555,-0.00017506,0.00037327,0.00117536,0.00147173,-0.00104355,
 -0.00515586,0.00152247,-0.00052420,-0.34813998,0.05675135,0.00002810,-
 0.00028985,0.00002755,-0.00022437,-0.00010921,-0.00007050,0.00007280,-
 0.00001889,0.00003513,0.00002375,0.00007996,0.00001665,-0.00001600,-0.
 00001298,-0.00000736,0.00000379,0.00000635,0.00000068,0.00000007,-0.00
 000339,0.00000082,0.00006813,-0.00007252,-0.00005621,0.00019663,0.0006
 7038,-0.00097679,0.00009585,0.00001343,-0.00001784,0.00000009,0.000010
 13,-0.00000518,0.00000423,0.00000182,0.00000287,0.00000561,0.00000101,
 0.00000116,-0.00000012,-0.00000061,-0.00000036,-0.00000044,-0.00000042
 ,0.00000025,0.00000040,0.00000028,-0.00000025,0.00000143,0.00000003,0.
 00000063,0.,0.00000037,0.00000028,0.00015017,-0.00041187,0.00028050,-0
 .00142974,0.36423656,0.00019232,-0.00748959,0.00651667,-0.00320868,-0.
 00013475,0.00344672,0.00010961,-0.00022696,-0.00113097,-0.00485749,0.0
 0160588,0.00581013,-0.00066392,0.01312148,0.00292563,-0.00634044,0.057
 00493,-0.05382160,0.00017273,0.00068404,-0.00023487,0.00015636,0.00010
 190,0.00018887,-0.00006446,0.00001276,-0.00005735,-0.00010180,-0.00004
 503,0.00001934,0.00001119,0.00001443,0.00002069,-0.00000421,-0.0000064
 4,-0.00000001,-0.00000035,0.00000369,-0.00000093,0.00025276,-0.0000560
 4,-0.00040928,0.00244290,-0.00109524,-0.00380913,-0.00000866,-0.000004
 48,-0.00037546,0.00001281,-0.00001196,-0.00001687,-0.00000259,0.000000
 71,-0.00000153,-0.00000689,-0.00000377,-0.00000117,-0.00000002,0.00000
 042,0.,0.00000053,0.00000058,-0.00000018,-0.00000006,-0.00000002,0.,-0
 .00000139,-0.00000023,-0.00000068,-0.00000018,-0.00000034,-0.00000037,
 -0.00019076,-0.00033737,0.00073245,0.01181150,-0.06311159,0.04352980,-
 0.11791157,0.00209899,-0.01917207,-0.01392404,0.03885524,-0.01012148,0
 .02325507,0.00048390,0.00705741,-0.02152466,0.01002865,-0.01059308,0.0
 0828067,-0.02214393,0.00333256,-0.05445180,0.00820093,-0.02303478,0.02
 527410,-0.00720909,0.01329820,-0.01649367,-0.00872934,-0.00651820,0.00
 503172,-0.00232929,0.00298428,0.00287804,0.00532451,0.00090939,-0.0010
 7631,-0.00049094,-0.00065269,0.00020204,0.00047621,0.00002472,0.000029
 42,-0.00021770,0.00004695,0.00093043,-0.00096199,-0.00002957,-0.000049
 72,0.00067097,-0.00080765,0.00094107,0.00161414,-0.00010361,0.00009915
 ,0.00072211,-0.00015119,0.00036827,0.00003079,0.00021468,0.00050063,0.
 00002668,0.00017361,-0.00000909,-0.00004443,-0.00001940,-0.00002852,-0
 .00003702,0.00001536,0.00001293,0.00000774,-0.00000260,0.00010091,0.00
 000720,0.00004473,0.00000456,0.00001199,0.00000925,-0.00296523,-0.0020
 3164,0.00078077,-0.00038958,0.00085044,0.00171040,0.65151606,0.0007131
 1,-0.11972556,0.00811637,0.03815789,-0.02099064,0.01993383,-0.01107917
 ,-0.00871661,-0.00216004,0.00871251,-0.01061437,0.00548235,-0.01151136
 ,0.00739272,-0.00464091,0.01035583,0.02154008,-0.00058157,-0.01308983,
 0.00412687,-0.00692646,0.00867466,0.00443943,0.00344740,-0.00269561,0.
 00129127,-0.00160862,-0.00172020,-0.00258362,-0.00062829,0.00059165,0.
 00026954,0.00034997,-0.00010857,-0.00025383,-0.00001248,-0.00001497,0.
 00011661,-0.00002464,0.00122863,0.00007996,0.00079223,-0.00093975,0.00
 082851,-0.00028616,-0.00059670,-0.00082847,0.00000075,-0.00005509,-0.0
 0038024,0.00007542,-0.00019847,-0.00001746,-0.00011673,-0.00026828,-0.
 00001890,-0.00008845,0.00000569,0.00002370,0.00000905,0.00001440,0.000
 01971,-0.00000674,-0.00000812,-0.00000396,0.00000228,-0.00005377,-0.00
 000460,-0.00002367,-0.00000247,-0.00000648,-0.00000628,-0.00127663,-0.
 00093398,-0.00107223,0.00016962,-0.00400676,-0.00004008,0.12942126,0.8
 6361647,-0.01892151,0.00892379,-0.08641518,-0.00985657,0.02005374,-0.0
 1522406,0.00851745,0.00340389,0.01211492,-0.01069085,0.00620892,-0.007
 27305,0.00184899,-0.00979094,0.01151512,-0.02344542,-0.00161316,-0.017
 68811,0.01435337,-0.00413293,0.00609527,-0.00882219,-0.00477330,-0.003
 98163,0.00267114,-0.00125013,0.00180928,0.00174397,0.00281952,0.000497
 34,-0.00063149,-0.00025534,-0.00026516,0.00010995,0.00026513,0.0000180
 1,0.00002108,-0.00012360,0.00001722,-0.00041720,-0.00018717,0.00121257
 ,-0.00054308,0.00042936,0.00109912,0.00052153,0.00086993,-0.00000420,0
 .00003796,0.00039982,-0.00006314,0.00023379,-0.00000498,0.00012320,0.0
 0025527,0.00003033,0.00006876,-0.00000808,-0.00002373,-0.00001126,-0.0
 0001264,-0.00002260,0.00001048,0.00000715,0.00000504,-0.00000227,0.000
 05576,0.00000407,0.00002401,0.00000251,0.00000618,0.00000512,0.0006954
 0,-0.00145593,-0.00347883,0.00173972,0.00030739,-0.00348333,0.16289010
 ,-0.05372737,0.32369287,0.00489045,0.03866302,-0.01331495,-0.00297203,
 -0.00476440,-0.00260501,-0.00310575,0.00190966,-0.00131997,0.00339784,
 0.00005696,0.00134122,0.00024690,0.00227250,0.00018740,-0.00353290,0.0
 0194769,-0.00241598,-0.00385114,0.00104897,-0.00198511,0.00262514,0.00
 132582,0.00103775,-0.00084995,0.00039225,-0.00048748,-0.00059965,-0.00
 080314,-0.00024111,0.00018405,0.00010287,0.00011020,-0.00003419,-0.000
 07696,-0.00000546,-0.00000509,0.00003631,-0.00000809,-0.00070257,0.000
 30518,-0.00008253,-0.00004796,-0.00001035,0.00001288,-0.00015534,-0.00
 023559,0.00000047,-0.00001506,-0.00011369,0.00002328,-0.00005704,-0.00
 000869,-0.00003378,-0.00007843,-0.00000777,-0.00002548,0.00000099,0.00
 000718,0.00000284,0.00000447,0.00000597,-0.00000221,-0.00000206,-0.000
 00126,0.00000056,-0.00001673,-0.00000101,-0.00000754,-0.00000069,-0.00
 000209,-0.00000162,0.00048102,0.00022184,0.00014217,-0.00147160,0.0033
 4365,-0.00160755,-0.11877688,0.01094877,-0.01974853,0.11734675,0.03344
 840,-0.05181382,0.02780513,0.00015016,0.01212342,-0.00128413,0.0088205
 9,0.00021178,0.00397821,-0.00965307,0.00412332,-0.00491951,0.00388179,
 -0.00637434,0.00249914,-0.01465901,-0.00462924,-0.00550277,0.01109268,
 -0.00289009,0.00556464,-0.00711160,-0.00380748,-0.00285124,0.00218456,
 -0.00097510,0.00132071,0.00136209,0.00228297,0.00045442,-0.00047076,-0
 .00021251,-0.00027633,0.00009162,0.00021083,0.00001262,0.00001288,-0.0
 0009818,0.00001962,0.00064673,-0.00038321,0.00024288,0.00009142,0.0000
 0695,0.00001925,0.00034203,0.00074114,-0.00006492,0.00003525,0.0003149
 0,-0.00006663,0.00016825,0.00000861,0.00009620,0.00021825,0.00001221,0
 .00007315,-0.00000464,-0.00001933,-0.00000790,-0.00001216,-0.00001634,
 0.00000594,0.00000662,0.00000349,-0.00000189,0.00004464,0.00000384,0.0
 0001958,0.00000212,0.00000545,0.00000514,-0.00001339,0.00081604,-0.000
 17421,0.00050094,0.00205267,0.00001389,0.02073908,-0.49970553,0.085046
 42,0.02348077,0.65709515,-0.01234239,0.03018581,0.00788583,-0.00353184
 ,-0.00345355,0.00377572,-0.00245016,0.00062173,-0.00239157,0.00311256,
 -0.00065783,0.00180809,-0.00017921,0.00201393,-0.00129630,0.00056400,0
 .00195672,0.00104517,-0.00378743,0.00098334,-0.00179676,0.00245003,0.0
 0128970,0.00102491,-0.00075786,0.00034859,-0.00050219,-0.00052829,-0.0
 0076716,-0.00018514,0.00017133,0.00008341,0.00009398,-0.00003282,-0.00
 007278,-0.00000332,-0.00000467,0.00003394,-0.00000648,-0.00014273,0.00
 008532,-0.00072798,-0.00001874,-0.00001540,-0.00003667,-0.00013151,-0.
 00023540,0.00001052,-0.00001394,-0.00011108,0.00002330,-0.00006019,-0.
 00000232,-0.00003344,-0.00007240,-0.00000802,-0.00002114,0.00000258,0.
 00000631,0.00000306,0.00000322,0.00000643,-0.00000331,-0.00000234,-0.0
 0000143,0.00000083,-0.00001563,-0.00000115,-0.00000680,-0.00000068,-0.
 00000190,-0.00000156,0.00018612,-0.00003451,0.00019089,-0.00110262,0.0
 0124762,-0.00002887,-0.02150542,0.08063563,-0.10367706,0.03578620,-0.1
 0249450,0.06337781,-0.06405818,-0.01808193,-0.03433966,0.00199595,-0.0
 1009531,0.00218894,-0.00666863,-0.00163406,-0.00249058,0.00761427,-0.0
 0705977,0.00445899,-0.00627057,0.00646330,-0.00328425,0.00925509,0.009
 18518,0.00040632,-0.01049789,0.00331091,-0.00543996,0.00702632,0.00349
 976,0.00286195,-0.00221127,0.00106828,-0.00132947,-0.00148150,-0.00205
 346,-0.00057090,0.00048360,0.00022587,0.00028328,-0.00009035,-0.000211
 91,-0.00001030,-0.00001364,0.00009777,-0.00002133,-0.00017801,0.000342
 51,-0.00012287,-0.00050681,0.00051716,-0.00000111,-0.00045093,-0.00067
 511,0.00001256,-0.00004505,-0.00031681,0.00006409,-0.00016365,-0.00001
 359,-0.00009334,-0.00021758,-0.00001444,-0.00007462,0.00000334,0.00002
 057,0.00000860,0.00001232,0.00001714,-0.00000773,-0.00000547,-0.000003
 46,0.00000097,-0.00004543,-0.00000291,-0.00002017,-0.00000201,-0.00000
 528,-0.00000392,-0.00146168,0.00110110,-0.00109431,0.00064639,0.000057
 03,0.00018633,-0.37182399,-0.16537506,-0.10260756,0.00709744,-0.075396
 27,0.00440485,0.43205790,-0.01199164,0.01967180,-0.00551128,0.00570472
 ,-0.00987358,0.00459695,-0.00286357,0.00094357,-0.00170542,0.00347744,
 -0.00111999,0.00177060,-0.00023858,0.00310548,-0.00085118,0.00411285,-
 0.00024110,0.00278025,-0.00305084,0.00115300,-0.00153455,0.00197074,0.
 00099015,0.00083465,-0.00054497,0.00026731,-0.00035064,-0.00032516,-0.
 00061870,-0.00009026,0.00011851,0.00002926,0.00006373,-0.00002175,-0.0
 0005815,-0.00000286,-0.00000429,0.00002630,-0.00000405,-0.00000075,0.0
 0000813,-0.00000742,0.00013457,-0.00013228,-0.00003931,-0.00013551,-0.
 00021731,-0.00000055,-0.00000929,-0.00009205,0.00001660,-0.00004977,0.
 00000329,-0.00002593,-0.00005974,0.00000022,-0.00002282,0.00000095,0.0
 0000594,0.00000293,0.00000358,0.00000502,-0.00000268,-0.00000126,-0.00
 000100,0.,-0.00001222,-0.00000077,-0.00000527,-0.00000058,-0.00000129,
 -0.00000068,0.00387326,0.00118774,0.00162704,0.00030043,0.00074640,-0.
 00000084,-0.17537543,-0.23495384,-0.05141235,-0.08004447,-0.10908762,-
 0.01164145,0.25503279,0.32825407,-0.03548300,-0.00829199,0.00451391,-0
 .00066135,-0.00256083,0.00138111,-0.00208245,-0.00108211,-0.00173657,0
 .00271039,-0.00295963,0.00204138,-0.00227651,0.00217776,-0.00258842,0.
 00134101,0.00507919,0.00446152,-0.00428901,0.00130904,-0.00203118,0.00
 278711,0.00140558,0.00121268,-0.00088001,0.00042494,-0.00058196,-0.000
 65637,-0.00079735,-0.00022729,0.00020747,0.00009269,0.00009542,-0.0000
 3565,-0.00008718,-0.00000775,-0.00000711,0.00004075,-0.00000555,-0.000
 06387,0.00014549,-0.00009170,0.00006510,0.00013269,-0.00065999,-0.0001
 6602,-0.00027017,-0.00002598,-0.00001185,-0.00012786,0.00001712,-0.000
 07355,0.00000055,-0.00003942,-0.00008256,-0.00001180,-0.00002231,0.000
 00236,0.00000800,0.00000372,0.00000369,0.00000776,-0.00000383,-0.00000
 232,-0.00000171,0.00000073,-0.00001849,-0.00000122,-0.00000798,-0.0000
 0058,-0.00000215,-0.00000136,-0.00161401,0.00036674,-0.00018133,0.0001
 8566,-0.00008652,0.00018228,-0.10078067,-0.04689455,-0.11673601,0.0052
 4742,-0.00953291,0.03147848,0.13663520,0.06151680,0.07956028\\0.000018
 48,-0.00001863,0.00001066,-0.00001910,0.00000485,0.00000319,0.00000681
 ,-0.00000256,0.00001875,-0.00001816,0.00000263,-0.00000635,0.00000856,
 -0.00000901,-0.00000288,-0.00000713,0.00000548,-0.00001420,0.00001848,
 0.00000659,0.00001251,-0.00001912,-0.00001116,-0.00000680,0.00001009,0
 .00000699,0.00000869,0.00000846,0.00000262,-0.00001290,-0.00000312,0.0
 0000054,-0.00000793,0.00000306,0.00000623,0.00000250,0.00000197,0.0000
 0449,-0.00000361,-0.00000876,0.00000125,0.00001900,0.00000197,-0.00000
 276,-0.00001646,-0.00000390,-0.00000172,0.00001190,-0.00000400,-0.0000
 0034,0.00000969,0.00000681,0.00000981,-0.00000676,0.00000438,-0.000004
 58,-0.00001205,-0.00000213,-0.00000342,0.00000562,0.00000059,0.0000118
 3,0.00001081,0.00000347,-0.00000198,-0.00001180,0.00000306,0.00000364,
 0.00000090,0.00000702,0.00001211,-0.00000743,-0.00000638,-0.00000192,0
 .00001837,0.00000400,-0.00000716,-0.00001641,-0.00001946,0.00000336,-0
 .00000453,0.00000388,-0.00001233,-0.00000893,0.00000018,-0.00000485,0.
 00000644\\\@


 REFRAIN FROM ILLUSIONS, INSIST ON WORK AND NOT WORDS,
 PATIENTLY SEEK DIVINE AND SCIENTIFIC TRUTH.
 LAST WORDS OF MARIA MENDELEEVA TO HER SON DMITRI, C. 1850
 Job cpu time:       0 days  2 hours 20 minutes 25.8 seconds.
 File lengths (MBytes):  RWF=    423 Int=      0 D2E=      0 Chk=     17 Scr=      1
 Normal termination of Gaussian 09 at Mon Jul 16 13:14:55 2018.
WARNING: pbs_rusage is deprecated and values produced may not be accurate


=============================================================================
                                     Resource usage:
                                       CPU time:              10:25:17
   JobId:    8440160.r-man2            Elapsed time:          02:37:55
   Project:             q95            Requested time:        32:00:00
   Service Units:     10.53 
                                       Max physical memory:      562MB
                                       Max virtual memory:      1127MB
                                       Requested memory:           0MB

                                       Number of cpus:               4

                                       Max jobfs disk use:       0.4GB
                                       Requested jobfs:         16.0GB
=============================================================================

