 Entering Gaussian System, Link 0=/apps/gaussian/g09e01/g09/g09
 AtFile(1): /home/507/hio507/Basis/6-31pGd.gbs
 Initial command:
 /apps/gaussian/g09e01/g09/l1.exe "/jobfs/local/8296020.r-man2/Gau-27161.inp" -scrdir="/jobfs/local/8296020.r-man2/"
 Entering Link 1 = /apps/gaussian/g09e01/g09/l1.exe PID=     27162.
  
 Copyright (c) 1988,1990,1992,1993,1995,1998,2003,2009,2015,
            Gaussian, Inc.  All Rights Reserved.
  
 This is part of the Gaussian(R) 09 program.  It is based on
 the Gaussian(R) 03 system (copyright 2003, Gaussian, Inc.),
 the Gaussian(R) 98 system (copyright 1998, Gaussian, Inc.),
 the Gaussian(R) 94 system (copyright 1995, Gaussian, Inc.),
 the Gaussian 92(TM) system (copyright 1992, Gaussian, Inc.),
 the Gaussian 90(TM) system (copyright 1990, Gaussian, Inc.),
 the Gaussian 88(TM) system (copyright 1988, Gaussian, Inc.),
 the Gaussian 86(TM) system (copyright 1986, Carnegie Mellon
 University), and the Gaussian 82(TM) system (copyright 1983,
 Carnegie Mellon University). Gaussian is a federally registered
 trademark of Gaussian, Inc.
  
 This software contains proprietary and confidential information,
 including trade secrets, belonging to Gaussian, Inc.
  
 This software is provided under written license and may be
 used, copied, transmitted, or stored only in accord with that
 written license.
  
 The following legend is applicable only to US Government
 contracts under FAR:
  
                    RESTRICTED RIGHTS LEGEND
  
 Use, reproduction and disclosure by the US Government is
 subject to restrictions as set forth in subparagraphs (a)
 and (c) of the Commercial Computer Software - Restricted
 Rights clause in FAR 52.227-19.
  
 Gaussian, Inc.
 340 Quinnipiac St., Bldg. 40, Wallingford CT 06492
  
  
 ---------------------------------------------------------------
 Warning -- This program may not be used in any manner that
 competes with the business of Gaussian, Inc. or will provide
 assistance to any competitor of Gaussian, Inc.  The licensee
 of this program is prohibited from giving any competitor of
 Gaussian, Inc. access to this program.  By using this program,
 the user acknowledges that Gaussian, Inc. is engaged in the
 business of creating and licensing software in the field of
 computational chemistry and represents and warrants to the
 licensee that it is not a competitor of Gaussian, Inc. and that
 it will not use this program in any manner prohibited above.
 ---------------------------------------------------------------
  

 Cite this work as:
 Gaussian 09, Revision E.01,
 M. J. Frisch, G. W. Trucks, H. B. Schlegel, G. E. Scuseria, 
 M. A. Robb, J. R. Cheeseman, G. Scalmani, V. Barone, B. Mennucci, 
 G. A. Petersson, H. Nakatsuji, M. Caricato, X. Li, H. P. Hratchian, 
 A. F. Izmaylov, J. Bloino, G. Zheng, J. L. Sonnenberg, M. Hada, 
 M. Ehara, K. Toyota, R. Fukuda, J. Hasegawa, M. Ishida, T. Nakajima, 
 Y. Honda, O. Kitao, H. Nakai, T. Vreven, J. A. Montgomery, Jr., 
 J. E. Peralta, F. Ogliaro, M. Bearpark, J. J. Heyd, E. Brothers, 
 K. N. Kudin, V. N. Staroverov, T. Keith, R. Kobayashi, J. Normand, 
 K. Raghavachari, A. Rendell, J. C. Burant, S. S. Iyengar, J. Tomasi, 
 M. Cossi, N. Rega, J. M. Millam, M. Klene, J. E. Knox, J. B. Cross, 
 V. Bakken, C. Adamo, J. Jaramillo, R. Gomperts, R. E. Stratmann, 
 O. Yazyev, A. J. Austin, R. Cammi, C. Pomelli, J. W. Ochterski, 
 R. L. Martin, K. Morokuma, V. G. Zakrzewski, G. A. Voth, 
 P. Salvador, J. J. Dannenberg, S. Dapprich, A. D. Daniels, 
 O. Farkas, J. B. Foresman, J. V. Ortiz, J. Cioslowski, 
 and D. J. Fox, Gaussian, Inc., Wallingford CT, 2013.
 
 ******************************************
 Gaussian 09:  ES64L-G09RevE.01 30-Nov-2015
                10-Jul-2018 
 ******************************************
 %chk=aryl_urea_nitro_a1.M062X.SMD.h2o.opt.chk
 %mem=196608000
 %nproc=4
 Will use up to    4 processors via shared memory.
 ----------------------------------------------------------------------
 # M062X/Gen 6D SCF=Tight INT(grid=ultrafine) OPT IOP(2/17=4) Freq=Nora
 man SCRF=(SMD,Solvent=h2o) maxdisk=2147483648
 ----------------------------------------------------------------------
 1/14=-1,18=20,19=15,26=4,38=1/1,3;
 2/9=110,12=2,17=4,18=5,40=1/2;
 3/5=7,8=2,11=2,16=1,25=1,30=1,70=32201,71=1,72=1,74=-55,75=-5/1,2,3;
 4//1;
 5/5=2,32=2,38=5,53=1/2;
 6/7=2,8=2,9=2,10=2,28=1/1;
 7//1,2,3,16;
 1/14=-1,18=20,19=15,26=4/3(2);
 2/9=110,17=4/2;
 99//99;
 2/9=110,17=4/2;
 3/5=7,6=1,8=2,11=2,16=1,25=1,30=1,70=32205,71=1,72=1,74=-55,75=-5,82=7/1,2,3;
 4/5=5,16=3,69=1/1;
 5/5=2,32=2,38=5,53=1/2;
 7//1,2,3,16;
 1/14=-1,18=20,19=15,26=4/3(-5);
 2/9=110,17=4/2;
 6/7=2,8=2,9=2,10=2,19=2,28=1/1;
 99/9=1/99;
 ------------------------------------
 aryl_urea_nitro_a1.M062X.SMD.h2o.opt
 ------------------------------------
 Symbolic Z-matrix:
 Charge = -1 Multiplicity = 1
 C                    -4.19013   3.57156  -1.19717 
 C                    -4.23443   2.21214  -0.85569 
 C                    -3.11047   1.57725  -0.32277 
 C                    -1.90579   2.27441  -0.11236 
 C                    -1.86843   3.64613  -0.45881 
 C                    -2.99593   4.27939  -0.99243 
 N                    -0.79686   1.5409    0.43971 
 C                     0.45983   2.00307   0.72542 
 N                     1.38581   1.14871   1.24602 
 O                     0.76941   3.16623   0.52227 
 C                     2.73483   1.58233   1.5663 
 C                     3.56519   0.42373   2.13052 
 C                     4.9842    0.87308   2.4665 
 H                    -3.18266   0.52618  -0.07156 
 H                    -0.99844   4.26435  -0.33681 
 H                     1.1219    0.16538   1.41631 
 H                     2.68789   2.39988   2.31932 
 H                     3.22417   1.9669    0.64418 
 H                     3.61481  -0.39588   1.38084 
 H                     3.08147   0.03573   3.05337 
 H                     5.49681   1.2471    1.55466 
 H                     5.56043   0.01456   2.87129 
 H                     4.96329   1.6794    3.23034 
 H                    -5.13874   1.63501  -0.99995 
 H                    -2.92989   5.3299   -1.24586 
 N                    -5.3359    4.22139  -1.74187 
 O                    -5.29185   5.52066  -2.06836 
 O                    -6.47548   3.54328  -1.9373 
 

 GradGradGradGradGradGradGradGradGradGradGradGradGradGradGradGradGradGrad
 Berny optimization.
 Initialization pass.
                           ----------------------------
                           !    Initial Parameters    !
                           ! (Angstroms and Degrees)  !
 --------------------------                            --------------------------
 ! Name  Definition              Value          Derivative Info.                !
 --------------------------------------------------------------------------------
 ! R1    R(1,2)                  1.4024         estimate D2E/DX2                !
 ! R2    R(1,6)                  1.4032         estimate D2E/DX2                !
 ! R3    R(1,26)                 1.4254         estimate D2E/DX2                !
 ! R4    R(2,3)                  1.3966         estimate D2E/DX2                !
 ! R5    R(2,24)                 1.0824         estimate D2E/DX2                !
 ! R6    R(3,4)                  1.4077         estimate D2E/DX2                !
 ! R7    R(3,14)                 1.0831         estimate D2E/DX2                !
 ! R8    R(4,5)                  1.4153         estimate D2E/DX2                !
 ! R9    R(4,7)                  1.4396         estimate D2E/DX2                !
 ! R10   R(5,6)                  1.3989         estimate D2E/DX2                !
 ! R11   R(5,15)                 1.0742         estimate D2E/DX2                !
 ! R12   R(6,25)                 1.0827         estimate D2E/DX2                !
 ! R13   R(7,8)                  1.3691         estimate D2E/DX2                !
 ! R14   R(8,9)                  1.3632         estimate D2E/DX2                !
 ! R15   R(8,10)                 1.2207         estimate D2E/DX2                !
 ! R16   R(9,11)                 1.4527         estimate D2E/DX2                !
 ! R17   R(9,16)                 1.0323         estimate D2E/DX2                !
 ! R18   R(11,12)                1.533          estimate D2E/DX2                !
 ! R19   R(11,17)                1.1125         estimate D2E/DX2                !
 ! R20   R(11,18)                1.1125         estimate D2E/DX2                !
 ! R21   R(12,13)                1.5259         estimate D2E/DX2                !
 ! R22   R(12,19)                1.1119         estimate D2E/DX2                !
 ! R23   R(12,20)                1.1118         estimate D2E/DX2                !
 ! R24   R(13,21)                1.1109         estimate D2E/DX2                !
 ! R25   R(13,22)                1.1104         estimate D2E/DX2                !
 ! R26   R(13,23)                1.1109         estimate D2E/DX2                !
 ! R27   R(26,27)                1.3404         estimate D2E/DX2                !
 ! R28   R(26,28)                1.3404         estimate D2E/DX2                !
 ! A1    A(2,1,6)              118.7077         estimate D2E/DX2                !
 ! A2    A(2,1,26)             120.6369         estimate D2E/DX2                !
 ! A3    A(6,1,26)             120.6554         estimate D2E/DX2                !
 ! A4    A(1,2,3)              120.5433         estimate D2E/DX2                !
 ! A5    A(1,2,24)             120.7166         estimate D2E/DX2                !
 ! A6    A(3,2,24)             118.7401         estimate D2E/DX2                !
 ! A7    A(2,3,4)              121.375          estimate D2E/DX2                !
 ! A8    A(2,3,14)             118.427          estimate D2E/DX2                !
 ! A9    A(4,3,14)             120.198          estimate D2E/DX2                !
 ! A10   A(3,4,5)              117.7756         estimate D2E/DX2                !
 ! A11   A(3,4,7)              117.6576         estimate D2E/DX2                !
 ! A12   A(5,4,7)              124.5667         estimate D2E/DX2                !
 ! A13   A(4,5,6)              120.7196         estimate D2E/DX2                !
 ! A14   A(4,5,15)             123.4606         estimate D2E/DX2                !
 ! A15   A(6,5,15)             115.8198         estimate D2E/DX2                !
 ! A16   A(1,6,5)              120.8788         estimate D2E/DX2                !
 ! A17   A(1,6,25)             120.4779         estimate D2E/DX2                !
 ! A18   A(5,6,25)             118.6433         estimate D2E/DX2                !
 ! A19   A(4,7,8)              127.9563         estimate D2E/DX2                !
 ! A20   A(7,8,9)              119.4463         estimate D2E/DX2                !
 ! A21   A(7,8,10)             121.3133         estimate D2E/DX2                !
 ! A22   A(9,8,10)             119.2404         estimate D2E/DX2                !
 ! A23   A(8,9,11)             121.8627         estimate D2E/DX2                !
 ! A24   A(8,9,16)             119.1006         estimate D2E/DX2                !
 ! A25   A(11,9,16)            119.0366         estimate D2E/DX2                !
 ! A26   A(9,11,12)            111.0101         estimate D2E/DX2                !
 ! A27   A(9,11,17)            109.2323         estimate D2E/DX2                !
 ! A28   A(9,11,18)            109.2017         estimate D2E/DX2                !
 ! A29   A(12,11,17)           109.2158         estimate D2E/DX2                !
 ! A30   A(12,11,18)           109.1513         estimate D2E/DX2                !
 ! A31   A(17,11,18)           109.0001         estimate D2E/DX2                !
 ! A32   A(11,12,13)           111.2342         estimate D2E/DX2                !
 ! A33   A(11,12,19)           109.4585         estimate D2E/DX2                !
 ! A34   A(11,12,20)           109.4856         estimate D2E/DX2                !
 ! A35   A(13,12,19)           108.9071         estimate D2E/DX2                !
 ! A36   A(13,12,20)           108.941          estimate D2E/DX2                !
 ! A37   A(19,12,20)           108.7729         estimate D2E/DX2                !
 ! A38   A(12,13,21)           110.3361         estimate D2E/DX2                !
 ! A39   A(12,13,22)           109.5832         estimate D2E/DX2                !
 ! A40   A(12,13,23)           110.3431         estimate D2E/DX2                !
 ! A41   A(21,13,22)           108.6676         estimate D2E/DX2                !
 ! A42   A(21,13,23)           109.1898         estimate D2E/DX2                !
 ! A43   A(22,13,23)           108.6814         estimate D2E/DX2                !
 ! A44   A(1,26,27)            120.5688         estimate D2E/DX2                !
 ! A45   A(1,26,28)            120.5622         estimate D2E/DX2                !
 ! A46   A(27,26,28)           118.869          estimate D2E/DX2                !
 ! D1    D(6,1,2,3)             -0.02           estimate D2E/DX2                !
 ! D2    D(6,1,2,24)           179.9993         estimate D2E/DX2                !
 ! D3    D(26,1,2,3)           179.9676         estimate D2E/DX2                !
 ! D4    D(26,1,2,24)           -0.0132         estimate D2E/DX2                !
 ! D5    D(2,1,6,5)              0.0213         estimate D2E/DX2                !
 ! D6    D(2,1,6,25)          -179.9964         estimate D2E/DX2                !
 ! D7    D(26,1,6,5)          -179.9662         estimate D2E/DX2                !
 ! D8    D(26,1,6,25)            0.0161         estimate D2E/DX2                !
 ! D9    D(2,1,26,27)         -179.9689         estimate D2E/DX2                !
 ! D10   D(2,1,26,28)           -0.0216         estimate D2E/DX2                !
 ! D11   D(6,1,26,27)            0.0183         estimate D2E/DX2                !
 ! D12   D(6,1,26,28)          179.9657         estimate D2E/DX2                !
 ! D13   D(1,2,3,4)             -0.0034         estimate D2E/DX2                !
 ! D14   D(1,2,3,14)          -179.9758         estimate D2E/DX2                !
 ! D15   D(24,2,3,4)           179.9776         estimate D2E/DX2                !
 ! D16   D(24,2,3,14)            0.0053         estimate D2E/DX2                !
 ! D17   D(2,3,4,5)              0.0251         estimate D2E/DX2                !
 ! D18   D(2,3,4,7)           -179.9265         estimate D2E/DX2                !
 ! D19   D(14,3,4,5)           179.9969         estimate D2E/DX2                !
 ! D20   D(14,3,4,7)             0.0454         estimate D2E/DX2                !
 ! D21   D(3,4,5,6)             -0.0236         estimate D2E/DX2                !
 ! D22   D(3,4,5,15)           179.9972         estimate D2E/DX2                !
 ! D23   D(7,4,5,6)            179.9242         estimate D2E/DX2                !
 ! D24   D(7,4,5,15)            -0.0549         estimate D2E/DX2                !
 ! D25   D(3,4,7,8)            179.8597         estimate D2E/DX2                !
 ! D26   D(5,4,7,8)             -0.0882         estimate D2E/DX2                !
 ! D27   D(4,5,6,1)              0.0007         estimate D2E/DX2                !
 ! D28   D(4,5,6,25)          -179.9819         estimate D2E/DX2                !
 ! D29   D(15,5,6,1)           179.9814         estimate D2E/DX2                !
 ! D30   D(15,5,6,25)           -0.0012         estimate D2E/DX2                !
 ! D31   D(4,7,8,9)           -179.8239         estimate D2E/DX2                !
 ! D32   D(4,7,8,10)             0.1132         estimate D2E/DX2                !
 ! D33   D(7,8,9,11)           179.8867         estimate D2E/DX2                !
 ! D34   D(7,8,9,16)            -0.0178         estimate D2E/DX2                !
 ! D35   D(10,8,9,11)           -0.0518         estimate D2E/DX2                !
 ! D36   D(10,8,9,16)         -179.9562         estimate D2E/DX2                !
 ! D37   D(8,9,11,12)         -179.812          estimate D2E/DX2                !
 ! D38   D(8,9,11,17)           59.6976         estimate D2E/DX2                !
 ! D39   D(8,9,11,18)          -59.4216         estimate D2E/DX2                !
 ! D40   D(16,9,11,12)           0.0925         estimate D2E/DX2                !
 ! D41   D(16,9,11,17)        -120.3979         estimate D2E/DX2                !
 ! D42   D(16,9,11,18)         120.4829         estimate D2E/DX2                !
 ! D43   D(9,11,12,13)         179.9009         estimate D2E/DX2                !
 ! D44   D(9,11,12,19)          59.5048         estimate D2E/DX2                !
 ! D45   D(9,11,12,20)         -59.6428         estimate D2E/DX2                !
 ! D46   D(17,11,12,13)        -59.5989         estimate D2E/DX2                !
 ! D47   D(17,11,12,19)       -179.995          estimate D2E/DX2                !
 ! D48   D(17,11,12,20)         60.8574         estimate D2E/DX2                !
 ! D49   D(18,11,12,13)         59.4807         estimate D2E/DX2                !
 ! D50   D(18,11,12,19)        -60.9155         estimate D2E/DX2                !
 ! D51   D(18,11,12,20)        179.9369         estimate D2E/DX2                !
 ! D52   D(11,12,13,21)        -60.3424         estimate D2E/DX2                !
 ! D53   D(11,12,13,22)       -179.9571         estimate D2E/DX2                !
 ! D54   D(11,12,13,23)         60.4069         estimate D2E/DX2                !
 ! D55   D(19,12,13,21)         60.3786         estimate D2E/DX2                !
 ! D56   D(19,12,13,22)        -59.236          estimate D2E/DX2                !
 ! D57   D(19,12,13,23)       -178.8721         estimate D2E/DX2                !
 ! D58   D(20,12,13,21)        178.8805         estimate D2E/DX2                !
 ! D59   D(20,12,13,22)         59.2659         estimate D2E/DX2                !
 ! D60   D(20,12,13,23)        -60.3701         estimate D2E/DX2                !
 --------------------------------------------------------------------------------
 Trust Radius=3.00D-01 FncErr=1.00D-07 GrdErr=1.00D-06
 Number of steps in this run=    144 maximum allowed number of steps=    168.
 GradGradGradGradGradGradGradGradGradGradGradGradGradGradGradGradGradGrad

                          Input orientation:                          
 ---------------------------------------------------------------------
 Center     Atomic      Atomic             Coordinates (Angstroms)
 Number     Number       Type             X           Y           Z
 ---------------------------------------------------------------------
      1          6           0       -4.190130    3.571560   -1.197170
      2          6           0       -4.234430    2.212140   -0.855690
      3          6           0       -3.110470    1.577250   -0.322770
      4          6           0       -1.905790    2.274410   -0.112360
      5          6           0       -1.868430    3.646130   -0.458810
      6          6           0       -2.995930    4.279390   -0.992430
      7          7           0       -0.796860    1.540900    0.439710
      8          6           0        0.459830    2.003070    0.725420
      9          7           0        1.385810    1.148710    1.246020
     10          8           0        0.769410    3.166230    0.522270
     11          6           0        2.734830    1.582330    1.566300
     12          6           0        3.565190    0.423730    2.130520
     13          6           0        4.984200    0.873080    2.466500
     14          1           0       -3.182660    0.526180   -0.071560
     15          1           0       -0.998440    4.264350   -0.336810
     16          1           0        1.121900    0.165380    1.416310
     17          1           0        2.687890    2.399880    2.319320
     18          1           0        3.224170    1.966900    0.644180
     19          1           0        3.614810   -0.395880    1.380840
     20          1           0        3.081470    0.035730    3.053370
     21          1           0        5.496810    1.247100    1.554660
     22          1           0        5.560430    0.014560    2.871290
     23          1           0        4.963290    1.679400    3.230340
     24          1           0       -5.138740    1.635010   -0.999950
     25          1           0       -2.929890    5.329900   -1.245860
     26          7           0       -5.335900    4.221390   -1.741870
     27          8           0       -5.291850    5.520660   -2.068360
     28          8           0       -6.475480    3.543280   -1.937300
 ---------------------------------------------------------------------
                    Distance matrix (angstroms):
                    1          2          3          4          5
     1  C    0.000000
     2  C    1.402353   0.000000
     3  C    2.430538   1.396558   0.000000
     4  C    2.842115   2.445196   1.407678   0.000000
     5  C    2.437422   2.794959   2.416906   1.415288   0.000000
     6  C    1.403230   2.413732   2.786238   2.445991   1.398937
     7  N    4.279864   3.734369   2.436286   1.439633   2.527369
     8  C    5.270545   4.957791   3.745273   2.524214   3.085910
     9  N    6.552136   6.093863   4.781347   3.734572   4.442255
    10  O    5.264770   5.277071   4.276964   2.890466   2.854999
    11  C    7.716792   7.404950   6.142975   4.983195   5.436023
    12  C    9.007072   8.541073   7.205115   6.195736   6.827351
    13  C   10.240733   9.890054   8.590667   7.489072   7.950206
    14  H    3.399461   2.136245   1.083082   2.165264   3.407529
    15  H    3.377434   3.866838   3.417803   2.198527   1.074226
    16  H    6.830081   6.167778   4.788604   3.993964   4.957194
    17  H    7.813174   7.618034   6.424822   5.199106   5.480073
    18  H    7.806238   7.611864   6.419851   5.194555   5.474575
    19  H    9.127092   8.568221   7.212830   6.311665   7.056067
    20  H    9.134843   8.575541   7.219053   6.317143   7.062004
    21  H   10.335013  10.071649   8.815839   7.657206   8.003510
    22  H   11.148006  10.707895   9.371687   8.351858   8.914361
    23  H   10.342544  10.078567   8.821600   7.662372   8.009385
    24  H    2.165406   1.082435   2.139109   3.413007   3.877159
    25  H    2.163870   3.402129   3.868732   3.416083   2.140380
    26  N    1.425400   2.456753   3.736022   4.267516   3.741726
    27  O    2.402447   3.678996   4.832803   5.082271   4.221886
    28  O    2.402377   2.822077   4.218444   5.081585   4.839568
                    6          7          8          9         10
     6  C    0.000000
     7  N    3.792923   0.000000
     8  C    4.480504   1.369124   0.000000
     9  N    5.831935   2.359660   1.363229   0.000000
    10  O    4.208471   2.258698   1.220676   2.230280   0.000000
    11  C    6.831021   3.707257   2.461651   1.452742   2.731595
    12  C    8.226009   4.809822   3.756578   2.461226   4.233693
    13  C    9.340750   6.162347   4.977767   3.809718   5.177164
    14  H    3.869038   2.642555   4.010501   4.795256   4.789713
    15  H    2.102387   2.839154   2.892796   4.230510   2.251484
    16  H    6.299494   2.554886   2.071900   1.032272   3.150977
    17  H    6.841495   4.051452   2.768073   2.100669   2.738110
    18  H    6.834892   4.048699   2.765770   2.100289   2.734795
    19  H    8.437561   4.909142   4.017267   2.715212   4.639189
    20  H    8.444640   4.913064   4.020295   2.716708   4.642426
    21  H    9.370650   6.398415   5.160455   4.123743   5.205497
    22  H   10.311566   6.975488   5.880055   4.621174   6.197160
    23  H    9.377682   6.402041   5.163384   4.125230   5.208928
    24  H    3.403592   4.575303   5.869954   6.917414   6.290312
    25  H    1.082663   4.663420   5.142368   6.505158   4.636008
    26  N    2.457740   5.705016   6.678245   7.971840   6.596552
    27  O    2.823052   6.506446   7.297977   8.642349   6.999541
    28  O    3.679933   6.473517   7.586887   8.812909   7.660293
                   11         12         13         14         15
    11  C    0.000000
    12  C    1.533035   0.000000
    13  C    2.524492   1.525905   0.000000
    14  H    6.230147   7.098812   8.559187   0.000000
    15  H    4.975175   6.454828   7.426388   4.337636   0.000000
    16  H    2.152159   2.558614   4.064616   4.568717   4.936682
    17  H    1.112488   2.170362   2.761489   6.609873   4.911243
    18  H    1.112499   2.169533   2.759529   6.605712   4.906226
    19  H    2.173034   1.111865   2.159663   7.011794   6.778653
    20  H    2.173363   1.111837   2.160082   7.017482   6.783820
    21  H    2.782274   2.177317   1.110906   8.859882   7.407410
    22  H    3.484956   2.167289   1.110384   9.239250   8.448159
    23  H    2.782892   2.177383   1.110874   8.865042   7.412742
    24  H    8.281396   9.328743  10.727102   2.432624   4.949269
    25  H    7.351298   8.812293   9.812119   4.951626   2.385847
    26  N    9.112920  10.423389  11.637269   4.591400   4.559561
    27  O    9.651362  11.047916  12.155746   5.777605   4.796869
    28  O   10.047405  11.273589  12.563745   4.840097   5.751476
                   16         17         18         19         20
    16  H    0.000000
    17  H    2.874151   0.000000
    18  H    2.874230   1.811398   0.000000
    19  H    2.555557   3.091310   2.505593   0.000000
    20  H    2.556695   2.506579   3.090951   1.807787   0.000000
    21  H    4.508780   3.131076   2.551858   2.504300   3.089889
    22  H    4.673357   3.774375   3.772236   2.485023   2.485728
    23  H    4.509904   2.554700   3.129763   3.089634   2.504839
    24  H    6.869770   8.535732   8.529454   9.296091   9.303706
    25  H    7.083531   7.270143   7.263228   9.083898   9.091098
    26  N    8.253999   9.175640   9.167920  10.544463  10.553018
    27  O    9.053073   9.626383   9.618195  11.235258  11.244068
    28  O    8.965327  10.168261  10.160326  11.328768  11.337768
                   21         22         23         24         25
    21  H    0.000000
    22  H    1.804638   0.000000
    23  H    1.810920   1.804767   0.000000
    24  H   10.944927  11.492806  10.952093   0.000000
    25  H    9.773507  10.830018   9.780839   4.311810   0.000000
    26  N   11.707310  12.558211  11.715712   2.697903   2.695126
    27  O   12.156676  13.133517  12.165500   4.032768   2.508336
    28  O   12.680771  13.432704  12.689524   2.511373   4.030051
                   26         27         28
    26  N    0.000000
    27  O    1.340388   0.000000
    28  O    1.340399   2.308287   0.000000
 Stoichiometry    C10H12N3O3(1-)
 Framework group  C1[X(C10H12N3O3)]
 Deg. of freedom    78
 Full point group                 C1      NOp   1
 Largest Abelian subgroup         C1      NOp   1
 Largest concise Abelian subgroup C1      NOp   1
                         Standard orientation:                         
 ---------------------------------------------------------------------
 Center     Atomic      Atomic             Coordinates (Angstroms)
 Number     Number       Type             X           Y           Z
 ---------------------------------------------------------------------
      1          6           0       -3.365182    0.002046    0.000552
      2          6           0       -2.871284    1.314547    0.000222
      3          6           0       -1.495616    1.555180   -0.002667
      4          6           0       -0.566607    0.497592   -0.005248
      5          6           0       -1.072130   -0.824334   -0.005373
      6          6           0       -2.450683   -1.062256   -0.002502
      7          7           0        0.832428    0.837068   -0.006500
      8          6           0        1.905335   -0.013444   -0.006332
      9          7           0        3.167963    0.500521   -0.004024
     10          8           0        1.754646   -1.224783   -0.007065
     11          6           0        4.343431   -0.353135   -0.001290
     12          6           0        5.629100    0.481853    0.005620
     13          6           0        6.867254   -0.409961    0.010976
     14          1           0       -1.151856    2.582261   -0.002428
     15          1           0       -0.446619   -1.697658   -0.007285
     16          1           0        3.292894    1.525204   -0.002718
     17          1           0        4.330327   -0.997706   -0.907924
     18          1           0        4.323616   -1.000197    0.903459
     19          1           0        5.646401    1.127757    0.910470
     20          1           0        5.655166    1.130117   -0.897295
     21          1           0        6.874866   -1.054528    0.915734
     22          1           0        7.780654    0.221403    0.016699
     23          1           0        6.884411   -1.052352   -0.895159
     24          1           0       -3.547504    2.159761    0.002510
     25          1           0       -2.800505   -2.086846   -0.002394
     26          7           0       -4.768855   -0.245852    0.004192
     27          8           0       -5.239436   -1.500919    0.005129
     28          8           0       -5.640749    0.772213    0.007798
 ---------------------------------------------------------------------
 Rotational constants (GHZ):      2.5611816      0.1520403      0.1439259
 General basis read from cards:  (6D, 7F)
 There are   328 symmetry adapted cartesian basis functions of A   symmetry.
 There are   328 symmetry adapted basis functions of A   symmetry.
   328 basis functions,   560 primitive gaussians,   328 cartesian basis functions
    59 alpha electrons       59 beta electrons
       nuclear repulsion energy       991.4962818084 Hartrees.
 NAtoms=   28 NActive=   28 NUniq=   28 SFac= 1.00D+00 NAtFMM=   60 NAOKFM=F Big=F
 Integral buffers will be    131072 words long.
 Raffenetti 2 integral format.
 Two-electron integral symmetry is turned on.
 ------------------------------------------------------------------------------
 Polarizable Continuum Model (PCM)
 =================================
 Model                : PCM (using non-symmetric T matrix).
 Atomic radii         : SMD-Coulomb.
 Polarization charges : Total charges.
 Charge compensation  : None.
 Solution method      : On-the-fly selection.
 Cavity type          : VdW (van der Waals Surface) (Alpha=1.000).
 Cavity algorithm     : GePol (No added spheres)
                        Default sphere list used, NSphG=   28.
                        Lebedev-Laikov grids with approx.  5.0 points / Ang**2.
                        Smoothing algorithm: York/Karplus (Gamma=1.0000).
                        Polarization charges: spherical gaussians, with
                                              point-specific exponents (IZeta= 3).
                        Self-potential: point-specific (ISelfS= 7).
                        Self-field    : sphere-specific E.n sum rule (ISelfD= 2).
 1st derivatives      : Analytical E(r).r(x)/FMM algorithm (CHGder, D1EAlg=3).
                        Cavity 1st derivative terms included.
 Solvent              : Water, Eps=  78.355300 Eps(inf)=   1.777849
 ------------------------------------------------------------------------------
 ------------------------------------------------------------------------------
 Atomic radii for non-electrostatic terms: SMD-CDS.
 ------------------------------------------------------------------------------
 Nuclear repulsion after PCM non-electrostatic terms =      991.5061248674 Hartrees.
 One-electron integrals computed using PRISM.
 NBasis=   328 RedAO= T EigKep=  1.79D-06  NBF=   328
 NBsUse=   328 1.00D-06 EigRej= -1.00D+00 NBFU=   328
 ExpMin= 4.38D-02 ExpMax= 5.48D+03 ExpMxC= 8.25D+02 IAcc=3 IRadAn=         5 AccDes= 0.00D+00
 Harris functional with IExCor= 1009 and IRadAn=       5 diagonalized for initial guess.
 HarFok:  IExCor= 1009 AccDes= 0.00D+00 IRadAn=         5 IDoV= 1 UseB2=F ITyADJ=14
 ICtDFT=  3500011 ScaDFX=  1.000000  1.000000  1.000000  1.000000
 FoFCou: FMM=F IPFlag=           0 FMFlag=      100000 FMFlg1=           0
         NFxFlg=           0 DoJE=T BraDBF=F KetDBF=T FulRan=T
         wScrn=  0.000000 ICntrl=     500 IOpCl=  0 I1Cent=   200000004 NGrid=           0
         NMat0=    1 NMatS0=      1 NMatT0=    0 NMatD0=    1 NMtDS0=    0 NMtDT0=    0
 Petite list used in FoFCou.
 Requested convergence on RMS density matrix=1.00D-08 within 128 cycles.
 Requested convergence on MAX density matrix=1.00D-06.
 Requested convergence on             energy=1.00D-06.
 No special actions if energy rises.
 Inv3:  Mode=1 IEnd=    14665563.
 Iteration    1 A*A^-1 deviation from unit magnitude is 6.00D-15 for   2210.
 Iteration    1 A*A^-1 deviation from orthogonality  is 5.05D-15 for   2183   1441.
 Iteration    1 A^-1*A deviation from unit magnitude is 5.77D-15 for   2210.
 Iteration    1 A^-1*A deviation from orthogonality  is 2.34D-12 for   2167   1238.
 Error on total polarization charges =  0.07302
 SCF Done:  E(RM062X) =  -777.957353723     A.U. after   17 cycles
            NFock= 17  Conv=0.96D-08     -V/T= 2.0096
 SMD-CDS (non-electrostatic) energy       (kcal/mol) =       6.18
 (included in total energy above)

 **********************************************************************

            Population analysis using the SCF density.

 **********************************************************************

 Orbital symmetries:
       Occupied  (A) (A) (A) (A) (A) (A) (A) (A) (A) (A) (A) (A)
                 (A) (A) (A) (A) (A) (A) (A) (A) (A) (A) (A) (A)
                 (A) (A) (A) (A) (A) (A) (A) (A) (A) (A) (A) (A)
                 (A) (A) (A) (A) (A) (A) (A) (A) (A) (A) (A) (A)
                 (A) (A) (A) (A) (A) (A) (A) (A) (A) (A) (A)
       Virtual   (A) (A) (A) (A) (A) (A) (A) (A) (A) (A) (A) (A)
                 (A) (A) (A) (A) (A) (A) (A) (A) (A) (A) (A) (A)
                 (A) (A) (A) (A) (A) (A) (A) (A) (A) (A) (A) (A)
                 (A) (A) (A) (A) (A) (A) (A) (A) (A) (A) (A) (A)
                 (A) (A) (A) (A) (A) (A) (A) (A) (A) (A) (A) (A)
                 (A) (A) (A) (A) (A) (A) (A) (A) (A) (A) (A) (A)
                 (A) (A) (A) (A) (A) (A) (A) (A) (A) (A) (A) (A)
                 (A) (A) (A) (A) (A) (A) (A) (A) (A) (A) (A) (A)
                 (A) (A) (A) (A) (A) (A) (A) (A) (A) (A) (A) (A)
                 (A) (A) (A) (A) (A) (A) (A) (A) (A) (A) (A) (A)
                 (A) (A) (A) (A) (A) (A) (A) (A) (A) (A) (A) (A)
                 (A) (A) (A) (A) (A) (A) (A) (A) (A) (A) (A) (A)
                 (A) (A) (A) (A) (A) (A) (A) (A) (A) (A) (A) (A)
                 (A) (A) (A) (A) (A) (A) (A) (A) (A) (A) (A) (A)
                 (A) (A) (A) (A) (A) (A) (A) (A) (A) (A) (A) (A)
                 (A) (A) (A) (A) (A) (A) (A) (A) (A) (A) (A) (A)
                 (A) (A) (A) (A) (A) (A) (A) (A) (A) (A) (A) (A)
                 (A) (A) (A) (A) (A) (A) (A) (A) (A) (A) (A) (A)
                 (A) (A) (A) (A) (A) (A) (A) (A) (A) (A) (A) (A)
                 (A) (A) (A) (A) (A) (A) (A) (A) (A) (A) (A) (A)
                 (A) (A) (A) (A) (A) (A) (A) (A) (A) (A) (A) (A)
                 (A) (A) (A) (A) (A) (A) (A) (A) (A) (A) (A) (A)
                 (A) (A) (A) (A) (A)
 The electronic state is 1-A.
 Alpha  occ. eigenvalues --  -19.68349 -19.68343 -19.59548 -15.00626 -14.77045
 Alpha  occ. eigenvalues --  -14.72592 -10.65598 -10.61249 -10.61240 -10.57802
 Alpha  occ. eigenvalues --  -10.57724 -10.57435 -10.55951 -10.55470 -10.54265
 Alpha  occ. eigenvalues --  -10.53288  -1.27633  -1.16433  -1.11124  -1.01463
 Alpha  occ. eigenvalues --   -0.99708  -0.95768  -0.89281  -0.86665  -0.85556
 Alpha  occ. eigenvalues --   -0.79459  -0.75530  -0.70659  -0.68123  -0.66851
 Alpha  occ. eigenvalues --   -0.64379  -0.62822  -0.59406  -0.58135  -0.57510
 Alpha  occ. eigenvalues --   -0.54632  -0.54271  -0.52660  -0.51978  -0.50527
 Alpha  occ. eigenvalues --   -0.50084  -0.49503  -0.46733  -0.45771  -0.45517
 Alpha  occ. eigenvalues --   -0.44002  -0.41819  -0.41407  -0.39910  -0.39117
 Alpha  occ. eigenvalues --   -0.38874  -0.37439  -0.37275  -0.35818  -0.35794
 Alpha  occ. eigenvalues --   -0.32123  -0.31008  -0.29090  -0.24826
 Alpha virt. eigenvalues --   -0.08929   0.01320   0.02166   0.03160   0.03831
 Alpha virt. eigenvalues --    0.03929   0.04301   0.04750   0.04997   0.05444
 Alpha virt. eigenvalues --    0.06332   0.06865   0.07288   0.07854   0.08287
 Alpha virt. eigenvalues --    0.08730   0.09270   0.09968   0.09979   0.10635
 Alpha virt. eigenvalues --    0.11197   0.11253   0.12010   0.12573   0.13820
 Alpha virt. eigenvalues --    0.14267   0.14887   0.15148   0.15410   0.15866
 Alpha virt. eigenvalues --    0.16039   0.16779   0.17310   0.17475   0.18236
 Alpha virt. eigenvalues --    0.18491   0.19202   0.20192   0.20794   0.21159
 Alpha virt. eigenvalues --    0.21243   0.21871   0.22264   0.22408   0.23297
 Alpha virt. eigenvalues --    0.23752   0.23828   0.24160   0.24531   0.24544
 Alpha virt. eigenvalues --    0.25029   0.25382   0.25716   0.26617   0.26757
 Alpha virt. eigenvalues --    0.27352   0.27574   0.27781   0.28121   0.28787
 Alpha virt. eigenvalues --    0.29391   0.29814   0.30250   0.31189   0.31240
 Alpha virt. eigenvalues --    0.31517   0.32428   0.32701   0.33328   0.33564
 Alpha virt. eigenvalues --    0.33590   0.33954   0.34545   0.35413   0.35942
 Alpha virt. eigenvalues --    0.36385   0.36499   0.37251   0.39145   0.39300
 Alpha virt. eigenvalues --    0.39805   0.40679   0.41210   0.41894   0.43397
 Alpha virt. eigenvalues --    0.44051   0.45885   0.46896   0.48331   0.48785
 Alpha virt. eigenvalues --    0.52284   0.53142   0.54421   0.55889   0.61510
 Alpha virt. eigenvalues --    0.64223   0.68345   0.69845   0.70363   0.70779
 Alpha virt. eigenvalues --    0.72651   0.73841   0.75401   0.75504   0.76805
 Alpha virt. eigenvalues --    0.77308   0.77767   0.79072   0.79795   0.80371
 Alpha virt. eigenvalues --    0.80526   0.81773   0.83542   0.86581   0.87007
 Alpha virt. eigenvalues --    0.88428   0.89243   0.89860   0.90324   0.94093
 Alpha virt. eigenvalues --    0.97134   0.97837   0.98947   0.99537   1.00951
 Alpha virt. eigenvalues --    1.01953   1.02659   1.04282   1.05191   1.06105
 Alpha virt. eigenvalues --    1.06641   1.09936   1.10683   1.12214   1.12550
 Alpha virt. eigenvalues --    1.12731   1.13104   1.14356   1.15306   1.17941
 Alpha virt. eigenvalues --    1.18952   1.19541   1.19887   1.22029   1.22745
 Alpha virt. eigenvalues --    1.23508   1.24838   1.24960   1.26637   1.27892
 Alpha virt. eigenvalues --    1.30451   1.30521   1.32881   1.33803   1.34373
 Alpha virt. eigenvalues --    1.35558   1.36969   1.37040   1.39915   1.40463
 Alpha virt. eigenvalues --    1.40908   1.42211   1.42446   1.44627   1.45332
 Alpha virt. eigenvalues --    1.47658   1.48027   1.48651   1.49477   1.49873
 Alpha virt. eigenvalues --    1.52482   1.53350   1.54082   1.55058   1.58282
 Alpha virt. eigenvalues --    1.60535   1.61176   1.61477   1.70370   1.76462
 Alpha virt. eigenvalues --    1.79304   1.79580   1.83162   1.84107   1.85857
 Alpha virt. eigenvalues --    1.85926   1.87344   1.87756   1.88027   1.89829
 Alpha virt. eigenvalues --    1.91160   1.92393   1.92440   1.93058   1.95302
 Alpha virt. eigenvalues --    1.96919   1.98281   2.00338   2.00450   2.03414
 Alpha virt. eigenvalues --    2.04352   2.05217   2.05854   2.07933   2.08205
 Alpha virt. eigenvalues --    2.11770   2.12129   2.12922   2.15296   2.15737
 Alpha virt. eigenvalues --    2.16438   2.20282   2.21310   2.21821   2.23138
 Alpha virt. eigenvalues --    2.25835   2.26577   2.29338   2.30435   2.32626
 Alpha virt. eigenvalues --    2.37670   2.39708   2.40468   2.41417   2.43425
 Alpha virt. eigenvalues --    2.44188   2.49828   2.52542   2.54108   2.54876
 Alpha virt. eigenvalues --    2.60453   2.62881   2.66821   2.68058   2.68159
 Alpha virt. eigenvalues --    2.71498   2.73948   2.76457   2.77482   2.79775
 Alpha virt. eigenvalues --    2.81577   2.86306   2.87874   2.93385   2.97015
 Alpha virt. eigenvalues --    3.01996   3.04220   3.05551   3.14680   3.22771
 Alpha virt. eigenvalues --    3.28713   3.34704   3.43953   4.13317   4.17700
 Alpha virt. eigenvalues --    4.26948   4.28187   4.29187   4.38382   4.40185
 Alpha virt. eigenvalues --    4.42410   4.43410   4.48009   4.50579   4.52602
 Alpha virt. eigenvalues --    4.60017   4.66872   4.69201   4.79207
          Condensed to atoms (all electrons):
               1          2          3          4          5          6
     1  C    9.937560   0.257456   0.105606  -1.425550  -3.609736   2.342022
     2  C    0.257456   9.246109  -1.407843  -0.363344  -2.116061  -0.398090
     3  C    0.105606  -1.407843  13.077795   0.776339  -1.617946  -2.151537
     4  C   -1.425550  -0.363344   0.776339  10.010924   0.714104  -2.725540
     5  C   -3.609736  -2.116061  -1.617946   0.714104  17.647747  -7.302316
     6  C    2.342022  -0.398090  -2.151537  -2.725540  -7.302316  16.432957
     7  N   -0.034278   0.106730  -0.119859   0.537023  -0.316587  -0.056605
     8  C   -0.303383   0.102021  -1.244055  -1.062784   1.063632  -0.480361
     9  N   -0.002879   0.005953  -0.105409  -0.187675   0.063543   0.017245
    10  O   -0.000467   0.007767  -0.137629  -0.269789   0.243845   0.206217
    11  C   -0.016232   0.009042  -0.161679  -0.486132   0.115417  -0.043103
    12  C    0.000563  -0.000702   0.008911   0.009080   0.000055   0.002674
    13  C   -0.000080   0.000013  -0.002485  -0.010612   0.002017  -0.000412
    14  H    0.010388  -0.037090   0.389972  -0.033764   0.017638  -0.027482
    15  H   -0.003094  -0.008799  -0.014683  -0.047911   0.332335   0.025041
    16  H   -0.000019  -0.000257   0.002129   0.017550  -0.002393   0.000497
    17  H   -0.000002  -0.000021  -0.000618  -0.003509   0.002318   0.000537
    18  H   -0.000007  -0.000018  -0.000660  -0.004163   0.002303   0.000530
    19  H   -0.000000   0.000001   0.000108  -0.000380  -0.000174  -0.000014
    20  H   -0.000000   0.000001   0.000104  -0.000463  -0.000178  -0.000014
    21  H   -0.000000   0.000000   0.000004   0.000029  -0.000046  -0.000004
    22  H   -0.000000  -0.000000  -0.000003  -0.000040   0.000007   0.000000
    23  H   -0.000000   0.000000   0.000004   0.000030  -0.000045  -0.000004
    24  H    0.049644   0.300324  -0.111727   0.043487   0.013379   0.023959
    25  H    0.082156   0.049409  -0.016930   0.009738  -0.131903   0.332690
    26  N   -0.446859   0.033060   0.097292  -0.025007   0.000100   0.087869
    27  O   -0.370724   0.094043  -0.018155   0.024283   0.206491  -0.033659
    28  O   -0.306924  -0.009676   0.085163   0.020727   0.035809   0.078068
               7          8          9         10         11         12
     1  C   -0.034278  -0.303383  -0.002879  -0.000467  -0.016232   0.000563
     2  C    0.106730   0.102021   0.005953   0.007767   0.009042  -0.000702
     3  C   -0.119859  -1.244055  -0.105409  -0.137629  -0.161679   0.008911
     4  C    0.537023  -1.062784  -0.187675  -0.269789  -0.486132   0.009080
     5  C   -0.316587   1.063632   0.063543   0.243845   0.115417   0.000055
     6  C   -0.056605  -0.480361   0.017245   0.206217  -0.043103   0.002674
     7  N    7.622423   0.304739  -0.285400  -0.103535  -0.093980   0.008188
     8  C    0.304739   6.477723   0.447595   0.443122  -0.664533   0.173591
     9  N   -0.285400   0.447595   7.672126  -0.251417   0.273065  -0.072909
    10  O   -0.103535   0.443122  -0.251417   8.725582  -0.099969   0.022743
    11  C   -0.093980  -0.664533   0.273065  -0.099969   7.154410  -0.478051
    12  C    0.008188   0.173591  -0.072909   0.022743  -0.478051   6.211436
    13  C   -0.003599  -0.058904  -0.004740  -0.004675   0.054322  -0.077441
    14  H    0.002077  -0.009415  -0.000154   0.000093  -0.000498   0.000028
    15  H   -0.005077   0.025077   0.000678  -0.002861   0.005014   0.000035
    16  H    0.025463   0.029505   0.245207   0.010458  -0.079965   0.003733
    17  H   -0.000823  -0.022992  -0.054957   0.003748   0.422630  -0.040669
    18  H   -0.000806  -0.026740  -0.055351   0.003834   0.427835  -0.042081
    19  H   -0.000069  -0.006283   0.005505  -0.000192  -0.072901   0.425327
    20  H   -0.000077  -0.007834   0.005441  -0.000189  -0.070906   0.423951
    21  H    0.000012  -0.000405   0.000310  -0.000053  -0.007858  -0.064761
    22  H    0.000007  -0.002014   0.000438   0.000006   0.027708  -0.088186
    23  H    0.000012  -0.000186   0.000321  -0.000052  -0.007583  -0.064519
    24  H    0.000904   0.004117   0.000021  -0.000001   0.000032  -0.000000
    25  H   -0.000814  -0.001871  -0.000016   0.000243  -0.000022   0.000001
    26  N    0.000630   0.003655  -0.000034   0.000056   0.000138  -0.000001
    27  O    0.000028   0.002048   0.000002   0.000011   0.000018   0.000000
    28  O   -0.000048   0.000974  -0.000000  -0.000001   0.000005   0.000000
              13         14         15         16         17         18
     1  C   -0.000080   0.010388  -0.003094  -0.000019  -0.000002  -0.000007
     2  C    0.000013  -0.037090  -0.008799  -0.000257  -0.000021  -0.000018
     3  C   -0.002485   0.389972  -0.014683   0.002129  -0.000618  -0.000660
     4  C   -0.010612  -0.033764  -0.047911   0.017550  -0.003509  -0.004163
     5  C    0.002017   0.017638   0.332335  -0.002393   0.002318   0.002303
     6  C   -0.000412  -0.027482   0.025041   0.000497   0.000537   0.000530
     7  N   -0.003599   0.002077  -0.005077   0.025463  -0.000823  -0.000806
     8  C   -0.058904  -0.009415   0.025077   0.029505  -0.022992  -0.026740
     9  N   -0.004740  -0.000154   0.000678   0.245207  -0.054957  -0.055351
    10  O   -0.004675   0.000093  -0.002861   0.010458   0.003748   0.003834
    11  C    0.054322  -0.000498   0.005014  -0.079965   0.422630   0.427835
    12  C   -0.077441   0.000028   0.000035   0.003733  -0.040669  -0.042081
    13  C    5.658789   0.000000   0.000005  -0.004153   0.002020   0.002936
    14  H    0.000000   0.435031  -0.000087   0.000003  -0.000000  -0.000000
    15  H    0.000005  -0.000087   0.425252   0.000001  -0.000000  -0.000000
    16  H   -0.004153   0.000003   0.000001   0.273874   0.002103   0.002105
    17  H    0.002020  -0.000000  -0.000000   0.002103   0.506580  -0.040563
    18  H    0.002936  -0.000000  -0.000000   0.002105  -0.040563   0.506668
    19  H   -0.036119  -0.000000  -0.000000   0.000478   0.003763  -0.005481
    20  H   -0.035007  -0.000000  -0.000000   0.000476  -0.005478   0.003767
    21  H    0.416819  -0.000000   0.000000  -0.000000  -0.000321   0.002665
    22  H    0.412902  -0.000000  -0.000000  -0.000003  -0.000058  -0.000057
    23  H    0.416069  -0.000000   0.000000  -0.000000   0.002650  -0.000323
    24  H    0.000000  -0.003365   0.000009  -0.000000  -0.000000  -0.000000
    25  H   -0.000000   0.000010  -0.004017   0.000000  -0.000000  -0.000000
    26  N    0.000000  -0.000156  -0.000034  -0.000000   0.000000   0.000000
    27  O    0.000000   0.000028  -0.000065  -0.000000  -0.000000  -0.000000
    28  O    0.000000  -0.000040   0.000032   0.000000  -0.000000  -0.000000
              19         20         21         22         23         24
     1  C   -0.000000  -0.000000  -0.000000  -0.000000  -0.000000   0.049644
     2  C    0.000001   0.000001   0.000000  -0.000000   0.000000   0.300324
     3  C    0.000108   0.000104   0.000004  -0.000003   0.000004  -0.111727
     4  C   -0.000380  -0.000463   0.000029  -0.000040   0.000030   0.043487
     5  C   -0.000174  -0.000178  -0.000046   0.000007  -0.000045   0.013379
     6  C   -0.000014  -0.000014  -0.000004   0.000000  -0.000004   0.023959
     7  N   -0.000069  -0.000077   0.000012   0.000007   0.000012   0.000904
     8  C   -0.006283  -0.007834  -0.000405  -0.002014  -0.000186   0.004117
     9  N    0.005505   0.005441   0.000310   0.000438   0.000321   0.000021
    10  O   -0.000192  -0.000189  -0.000053   0.000006  -0.000052  -0.000001
    11  C   -0.072901  -0.070906  -0.007858   0.027708  -0.007583   0.000032
    12  C    0.425327   0.423951  -0.064761  -0.088186  -0.064519  -0.000000
    13  C   -0.036119  -0.035007   0.416819   0.412902   0.416069   0.000000
    14  H   -0.000000  -0.000000  -0.000000  -0.000000  -0.000000  -0.003365
    15  H   -0.000000  -0.000000   0.000000  -0.000000   0.000000   0.000009
    16  H    0.000478   0.000476  -0.000000  -0.000003  -0.000000  -0.000000
    17  H    0.003763  -0.005478  -0.000321  -0.000058   0.002650  -0.000000
    18  H   -0.005481   0.003767   0.002665  -0.000057  -0.000323  -0.000000
    19  H    0.492659  -0.030797  -0.004567  -0.002995   0.003797   0.000000
    20  H   -0.030797   0.492619   0.003794  -0.002984  -0.004565   0.000000
    21  H   -0.004567   0.003794   0.488143  -0.023971  -0.028444   0.000000
    22  H   -0.002995  -0.002984  -0.023971   0.483247  -0.023954  -0.000000
    23  H    0.003797  -0.004565  -0.028444  -0.023954   0.488111   0.000000
    24  H    0.000000   0.000000   0.000000  -0.000000   0.000000   0.421030
    25  H    0.000000   0.000000   0.000000  -0.000000   0.000000  -0.000092
    26  N    0.000000   0.000000   0.000000   0.000000   0.000000  -0.027748
    27  O    0.000000   0.000000  -0.000000   0.000000  -0.000000  -0.000974
    28  O    0.000000   0.000000   0.000000  -0.000000   0.000000   0.011384
              25         26         27         28
     1  C    0.082156  -0.446859  -0.370724  -0.306924
     2  C    0.049409   0.033060   0.094043  -0.009676
     3  C   -0.016930   0.097292  -0.018155   0.085163
     4  C    0.009738  -0.025007   0.024283   0.020727
     5  C   -0.131903   0.000100   0.206491   0.035809
     6  C    0.332690   0.087869  -0.033659   0.078068
     7  N   -0.000814   0.000630   0.000028  -0.000048
     8  C   -0.001871   0.003655   0.002048   0.000974
     9  N   -0.000016  -0.000034   0.000002  -0.000000
    10  O    0.000243   0.000056   0.000011  -0.000001
    11  C   -0.000022   0.000138   0.000018   0.000005
    12  C    0.000001  -0.000001   0.000000   0.000000
    13  C   -0.000000   0.000000   0.000000   0.000000
    14  H    0.000010  -0.000156   0.000028  -0.000040
    15  H   -0.004017  -0.000034  -0.000065   0.000032
    16  H    0.000000  -0.000000  -0.000000   0.000000
    17  H   -0.000000   0.000000  -0.000000  -0.000000
    18  H   -0.000000   0.000000  -0.000000  -0.000000
    19  H    0.000000   0.000000   0.000000   0.000000
    20  H    0.000000   0.000000   0.000000   0.000000
    21  H    0.000000   0.000000  -0.000000   0.000000
    22  H   -0.000000   0.000000   0.000000  -0.000000
    23  H    0.000000   0.000000  -0.000000   0.000000
    24  H   -0.000092  -0.027748  -0.000974   0.011384
    25  H    0.423980  -0.027715   0.012115  -0.001144
    26  N   -0.027715   6.848973   0.410743   0.396521
    27  O    0.012115   0.410743   7.950675  -0.076541
    28  O   -0.001144   0.396521  -0.076541   7.968432
 Mulliken charges:
               1
     1  C   -0.265161
     2  C    0.129972
     3  C   -1.432211
     4  C    0.483348
     5  C    0.636645
     6  C   -0.331165
     7  N   -0.586682
     8  C    0.813961
     9  N   -0.716509
    10  O   -0.796897
    11  C   -0.206221
    12  C   -0.360995
    13  C   -0.727666
    14  H    0.256783
    15  H    0.273150
    16  H    0.473210
    17  H    0.223664
    18  H    0.223609
    19  H    0.228336
    20  H    0.228340
    21  H    0.218656
    22  H    0.219950
    23  H    0.218681
    24  H    0.275615
    25  H    0.274180
    26  N   -0.351483
    27  O   -0.200368
    28  O   -0.202740
 Sum of Mulliken charges =  -1.00000
 Mulliken charges with hydrogens summed into heavy atoms:
               1
     1  C   -0.265161
     2  C    0.405587
     3  C   -1.175428
     4  C    0.483348
     5  C    0.909795
     6  C   -0.056985
     7  N   -0.586682
     8  C    0.813961
     9  N   -0.243299
    10  O   -0.796897
    11  C    0.241052
    12  C    0.095680
    13  C   -0.070380
    26  N   -0.351483
    27  O   -0.200368
    28  O   -0.202740
 Electronic spatial extent (au):  <R**2>=           7139.1447
 Charge=             -1.0000 electrons
 Dipole moment (field-independent basis, Debye):
    X=             12.9808    Y=              3.2869    Z=              0.0087  Tot=             13.3905
 Quadrupole moment (field-independent basis, Debye-Ang):
   XX=           -173.0784   YY=           -102.8459   ZZ=            -99.5411
   XY=              0.0506   XZ=              0.1693   YZ=              0.0051
 Traceless Quadrupole moment (field-independent basis, Debye-Ang):
   XX=            -47.9233   YY=             22.3092   ZZ=             25.6140
   XY=              0.0506   XZ=              0.1693   YZ=              0.0051
 Octapole moment (field-independent basis, Debye-Ang**2):
  XXX=            598.8116  YYY=             13.3996  ZZZ=              0.0912  XYY=              4.7667
  XXY=             60.8701  XXZ=             -0.6072  XZZ=             -0.0164  YZZ=             -4.4173
  YYZ=              0.0374  XYZ=             -0.0480
 Hexadecapole moment (field-independent basis, Debye-Ang**3):
 XXXX=         -11617.8941 YYYY=           -603.5089 ZZZZ=           -130.7228 XXXY=            -53.1486
 XXXZ=              4.2249 YYYX=             -7.2447 YYYZ=              0.0785 ZZZX=             -0.2324
 ZZZY=              0.0345 XXYY=          -1701.9932 XXZZ=          -1488.5098 YYZZ=           -134.3443
 XXYZ=              0.2278 YYXZ=              0.1644 ZZXY=              0.0269
 N-N= 9.915061248674D+02 E-N=-3.811984980783D+03  KE= 7.705429238197D+02
 D1PCM: PCM CHGder 1st derivatives, ID1Alg=3 FixD1E=F DoIter=F DoCFld=F I1PDM=0.
 Calling FoFJK, ICntrl=      2127 FMM=F ISym2X=0 I1Cent= 0 IOpClX= 0 NMat=1 NMatS=1 NMatT=0.
 ***** Axes restored to original set *****
 -------------------------------------------------------------------
 Center     Atomic                   Forces (Hartrees/Bohr)
 Number     Number              X              Y              Z
 -------------------------------------------------------------------
      1        6          -0.020401438    0.013434487   -0.010155136
      2        6           0.011150789   -0.020663737    0.009042706
      3        6          -0.028692848    0.005231420   -0.010707952
      4        6           0.082727078   -0.021973701    0.032571085
      5        6          -0.027749829    0.022884110   -0.015037720
      6        6           0.019279977   -0.001264273    0.006612704
      7        7          -0.052666243   -0.016588949   -0.012764610
      8        6          -0.035571918   -0.011467002   -0.008688218
      9        7          -0.014602595   -0.026103675    0.002166490
     10        8           0.030902133    0.057542216   -0.004949180
     11        6           0.004318453    0.002707108    0.000585888
     12        6          -0.004795709   -0.003489483   -0.000655060
     13        6           0.005083378    0.000338355    0.001533353
     14        1           0.001786096   -0.001110323    0.000877315
     15        1           0.006183051   -0.002880139    0.002776112
     16        1           0.003901395    0.015728523   -0.002836580
     17        1           0.002245591   -0.005274536   -0.008400189
     18        1          -0.003520700   -0.000586663    0.009536444
     19        1          -0.003053951    0.005954505    0.007434589
     20        1           0.002390342    0.001573495   -0.009563638
     21        1          -0.003010630   -0.002486952    0.009488573
     22        1          -0.003294100    0.009690850   -0.003528201
     23        1           0.002343432   -0.006809949   -0.007283017
     24        1          -0.002041557    0.000437671   -0.000776580
     25        1          -0.001419840    0.001462511   -0.000841700
     26        7          -0.051748396    0.029229383   -0.024758180
     27        8          -0.001221641   -0.091851612    0.023739852
     28        8           0.081479679    0.046336364    0.014580851
 -------------------------------------------------------------------
 Cartesian Forces:  Max     0.091851612 RMS     0.023352037

 GradGradGradGradGradGradGradGradGradGradGradGradGradGradGradGradGradGrad
 Berny optimization.
 FormGI is forming the generalized inverse of G from B-inverse, IUseBI=4.
 GSVD:  received Info=                   1 from GESDD.
 Internal  Forces:  Max     0.094851465 RMS     0.016423266
 Search for a local minimum.
 Step number   1 out of a maximum of  144
 All quantities printed in internal units (Hartrees-Bohrs-Radians)
 Mixed Optimization -- RFO/linear search
 Second derivative matrix not updated -- first step.
 ITU=  0
     Eigenvalues ---    0.00329   0.00423   0.00994   0.01168   0.01356
     Eigenvalues ---    0.01356   0.01468   0.01787   0.01842   0.01956
     Eigenvalues ---    0.01989   0.02050   0.02065   0.02071   0.02083
     Eigenvalues ---    0.02100   0.02100   0.02151   0.02178   0.03755
     Eigenvalues ---    0.04435   0.04933   0.05553   0.05673   0.05783
     Eigenvalues ---    0.08033   0.09179   0.11975   0.12669   0.16000
     Eigenvalues ---    0.16000   0.16000   0.16000   0.16000   0.16000
     Eigenvalues ---    0.16000   0.16000   0.21964   0.22000   0.22000
     Eigenvalues ---    0.22004   0.22959   0.24000   0.25000   0.25000
     Eigenvalues ---    0.25000   0.25000   0.25000   0.25000   0.25000
     Eigenvalues ---    0.29145   0.29805   0.32337   0.32338   0.32403
     Eigenvalues ---    0.32406   0.32504   0.32508   0.32559   0.35625
     Eigenvalues ---    0.35674   0.35702   0.36701   0.37888   0.39636
     Eigenvalues ---    0.40687   0.41193   0.41657   0.42436   0.44150
     Eigenvalues ---    0.44727   0.45373   0.46024   0.51145   0.52300
     Eigenvalues ---    0.57116   0.57118   0.95084
 RFO step:  Lambda=-6.74938891D-02 EMin= 3.28959502D-03
 Linear search not attempted -- first point.
 Maximum step size (   0.300) exceeded in Quadratic search.
    -- Step size scaled by   0.801
 Iteration  1 RMS(Cart)=  0.08339845 RMS(Int)=  0.00067933
 Iteration  2 RMS(Cart)=  0.00159497 RMS(Int)=  0.00001140
 Iteration  3 RMS(Cart)=  0.00000040 RMS(Int)=  0.00001140
 Variable       Old X    -DE/DX   Delta X   Delta X   Delta X     New X
                                 (Linear)    (Quad)   (Total)
    R1        2.65006   0.00635   0.00000   0.00954   0.00955   2.65962
    R2        2.65172   0.00480   0.00000   0.00724   0.00725   2.65897
    R3        2.69362  -0.03552   0.00000  -0.05876  -0.05876   2.63486
    R4        2.63911  -0.02404   0.00000  -0.03641  -0.03641   2.60271
    R5        2.04551   0.00157   0.00000   0.00297   0.00297   2.04847
    R6        2.66013   0.01268   0.00000   0.02003   0.02002   2.68015
    R7        2.04673   0.00116   0.00000   0.00219   0.00219   2.04892
    R8        2.67451   0.01141   0.00000   0.01855   0.01854   2.69305
    R9        2.72051  -0.07466   0.00000  -0.12888  -0.12888   2.59163
   R10        2.64361  -0.02125   0.00000  -0.03232  -0.03232   2.61129
   R11        2.02999   0.00367   0.00000   0.00676   0.00676   2.03675
   R12        2.04594   0.00153   0.00000   0.00289   0.00289   2.04883
   R13        2.58727  -0.00589   0.00000  -0.00815  -0.00815   2.57912
   R14        2.57613  -0.00322   0.00000  -0.00437  -0.00437   2.57176
   R15        2.30674   0.06349   0.00000   0.04992   0.04992   2.35666
   R16        2.74529  -0.00093   0.00000  -0.00167  -0.00167   2.74362
   R17        1.95071  -0.01645   0.00000  -0.02677  -0.02677   1.92394
   R18        2.89702  -0.00688   0.00000  -0.01535  -0.01535   2.88166
   R19        2.10230  -0.00966   0.00000  -0.01978  -0.01978   2.08251
   R20        2.10232  -0.00966   0.00000  -0.01978  -0.01978   2.08253
   R21        2.88354   0.00129   0.00000   0.00284   0.00284   2.88638
   R22        2.10112  -0.00954   0.00000  -0.01950  -0.01950   2.08162
   R23        2.10107  -0.00952   0.00000  -0.01948  -0.01948   2.08159
   R24        2.09931  -0.01002   0.00000  -0.02043  -0.02043   2.07887
   R25        2.09832  -0.01048   0.00000  -0.02136  -0.02136   2.07696
   R26        2.09925  -0.01000   0.00000  -0.02039  -0.02039   2.07886
   R27        2.53297  -0.09485   0.00000  -0.11891  -0.11891   2.41405
   R28        2.53299  -0.09484   0.00000  -0.11891  -0.11891   2.41408
    A1        2.07184   0.01070   0.00000   0.02679   0.02681   2.09865
    A2        2.10551  -0.00544   0.00000  -0.01363  -0.01364   2.09187
    A3        2.10583  -0.00525   0.00000  -0.01315  -0.01316   2.09267
    A4        2.10388  -0.00588   0.00000  -0.01636  -0.01635   2.08753
    A5        2.10690   0.00132   0.00000   0.00250   0.00249   2.10939
    A6        2.07241   0.00455   0.00000   0.01386   0.01386   2.08626
    A7        2.11839   0.00002   0.00000   0.00082   0.00081   2.11921
    A8        2.06694   0.00200   0.00000   0.00664   0.00665   2.07359
    A9        2.09785  -0.00201   0.00000  -0.00747  -0.00746   2.09039
   A10        2.05557   0.00157   0.00000   0.00517   0.00515   2.06072
   A11        2.05351  -0.01090   0.00000  -0.02809  -0.02808   2.02543
   A12        2.17410   0.00933   0.00000   0.02292   0.02293   2.19703
   A13        2.10695  -0.00113   0.00000  -0.00204  -0.00205   2.10490
   A14        2.15479  -0.00592   0.00000  -0.02180  -0.02179   2.13300
   A15        2.02144   0.00705   0.00000   0.02384   0.02385   2.04528
   A16        2.10973  -0.00528   0.00000  -0.01437  -0.01437   2.09537
   A17        2.10274   0.00102   0.00000   0.00148   0.00147   2.10421
   A18        2.07072   0.00426   0.00000   0.01290   0.01289   2.08361
   A19        2.23326  -0.03696   0.00000  -0.09322  -0.09322   2.14004
   A20        2.08473  -0.03741   0.00000  -0.09434  -0.09434   1.99039
   A21        2.11732   0.03728   0.00000   0.09401   0.09401   2.21133
   A22        2.08114   0.00013   0.00000   0.00033   0.00033   2.08146
   A23        2.12691  -0.00030   0.00000  -0.00083  -0.00083   2.12608
   A24        2.07870  -0.00018   0.00000  -0.00074  -0.00074   2.07796
   A25        2.07758   0.00048   0.00000   0.00156   0.00156   2.07914
   A26        1.93749  -0.00358   0.00000  -0.00843  -0.00842   1.92907
   A27        1.90646   0.00170   0.00000   0.00624   0.00625   1.91271
   A28        1.90593   0.00170   0.00000   0.00637   0.00637   1.91230
   A29        1.90618   0.00126   0.00000   0.00362   0.00363   1.90981
   A30        1.90505   0.00134   0.00000   0.00403   0.00405   1.90910
   A31        1.90241  -0.00242   0.00000  -0.01200  -0.01201   1.89040
   A32        1.94140  -0.00104   0.00000  -0.00143  -0.00142   1.93998
   A33        1.91041  -0.00035   0.00000  -0.00278  -0.00279   1.90762
   A34        1.91088  -0.00035   0.00000  -0.00284  -0.00284   1.90804
   A35        1.90079   0.00165   0.00000   0.00807   0.00807   1.90886
   A36        1.90138   0.00161   0.00000   0.00784   0.00783   1.90921
   A37        1.89845  -0.00152   0.00000  -0.00899  -0.00903   1.88942
   A38        1.92573   0.00202   0.00000   0.00682   0.00679   1.93252
   A39        1.91259   0.00318   0.00000   0.01175   0.01169   1.92428
   A40        1.92585   0.00202   0.00000   0.00683   0.00680   1.93265
   A41        1.89661  -0.00239   0.00000  -0.00784  -0.00789   1.88871
   A42        1.90572  -0.00257   0.00000  -0.01014  -0.01015   1.89558
   A43        1.89685  -0.00241   0.00000  -0.00793  -0.00798   1.88887
   A44        2.10432  -0.00170   0.00000  -0.00430  -0.00430   2.10003
   A45        2.10421  -0.00167   0.00000  -0.00421  -0.00421   2.09999
   A46        2.07466   0.00337   0.00000   0.00851   0.00851   2.08317
    D1       -0.00035   0.00001   0.00000   0.00005   0.00005  -0.00030
    D2        3.14158  -0.00001   0.00000  -0.00005  -0.00005   3.14153
    D3        3.14103   0.00001   0.00000   0.00012   0.00012   3.14115
    D4       -0.00023   0.00000   0.00000   0.00003   0.00003  -0.00020
    D5        0.00037  -0.00001   0.00000  -0.00006  -0.00006   0.00031
    D6       -3.14153   0.00001   0.00000   0.00006   0.00006  -3.14147
    D7       -3.14100  -0.00001   0.00000  -0.00014  -0.00014  -3.14114
    D8        0.00028  -0.00000   0.00000  -0.00002  -0.00002   0.00026
    D9       -3.14105  -0.00004   0.00000  -0.00044  -0.00043  -3.14149
   D10       -0.00038   0.00004   0.00000   0.00040   0.00040   0.00003
   D11        0.00032  -0.00004   0.00000  -0.00035  -0.00036  -0.00004
   D12        3.14099   0.00005   0.00000   0.00048   0.00048   3.14148
   D13       -0.00006  -0.00000   0.00000  -0.00002  -0.00002  -0.00008
   D14       -3.14117  -0.00002   0.00000  -0.00013  -0.00012  -3.14129
   D15        3.14120   0.00001   0.00000   0.00007   0.00007   3.14127
   D16        0.00009  -0.00000   0.00000  -0.00003  -0.00003   0.00006
   D17        0.00044  -0.00000   0.00000   0.00000   0.00000   0.00044
   D18       -3.14031  -0.00004   0.00000  -0.00032  -0.00032  -3.14063
   D19        3.14154   0.00001   0.00000   0.00011   0.00011  -3.14153
   D20        0.00079  -0.00003   0.00000  -0.00021  -0.00021   0.00058
   D21       -0.00041  -0.00000   0.00000  -0.00002  -0.00002  -0.00043
   D22        3.14154  -0.00001   0.00000  -0.00013  -0.00013   3.14142
   D23        3.14027   0.00003   0.00000   0.00031   0.00031   3.14058
   D24       -0.00096   0.00002   0.00000   0.00020   0.00020  -0.00076
   D25        3.13914   0.00006   0.00000   0.00057   0.00057   3.13972
   D26       -0.00154   0.00002   0.00000   0.00023   0.00024  -0.00130
   D27        0.00001   0.00001   0.00000   0.00005   0.00005   0.00006
   D28       -3.14128  -0.00001   0.00000  -0.00006  -0.00006  -3.14134
   D29        3.14127   0.00001   0.00000   0.00014   0.00015   3.14141
   D30       -0.00002   0.00000   0.00000   0.00003   0.00003   0.00001
   D31       -3.13852  -0.00008   0.00000  -0.00077  -0.00079  -3.13931
   D32        0.00198   0.00002   0.00000   0.00023   0.00025   0.00222
   D33        3.13961   0.00008   0.00000   0.00067   0.00066   3.14028
   D34       -0.00031   0.00007   0.00000   0.00058   0.00057   0.00026
   D35       -0.00090  -0.00004   0.00000  -0.00036  -0.00035  -0.00126
   D36       -3.14083  -0.00005   0.00000  -0.00045  -0.00044  -3.14127
   D37       -3.13831  -0.00004   0.00000  -0.00029  -0.00029  -3.13861
   D38        1.04192  -0.00046   0.00000  -0.00354  -0.00353   1.03839
   D39       -1.03710   0.00047   0.00000   0.00355   0.00354  -1.03356
   D40        0.00162  -0.00003   0.00000  -0.00021  -0.00021   0.00141
   D41       -2.10134  -0.00045   0.00000  -0.00345  -0.00344  -2.10478
   D42        2.10282   0.00048   0.00000   0.00364   0.00363   2.10646
   D43        3.13986   0.00004   0.00000   0.00031   0.00031   3.14017
   D44        1.03855  -0.00112   0.00000  -0.00703  -0.00702   1.03153
   D45       -1.04096   0.00115   0.00000   0.00731   0.00730  -1.03366
   D46       -1.04020   0.00071   0.00000   0.00510   0.00510  -1.03509
   D47       -3.14151  -0.00045   0.00000  -0.00223  -0.00222   3.13945
   D48        1.06216   0.00182   0.00000   0.01211   0.01210   1.07426
   D49        1.03813  -0.00069   0.00000  -0.00492  -0.00492   1.03321
   D50       -1.06318  -0.00185   0.00000  -0.01226  -0.01225  -1.07543
   D51        3.14049   0.00043   0.00000   0.00208   0.00207  -3.14062
   D52       -1.05317   0.00029   0.00000   0.00181   0.00182  -1.05136
   D53       -3.14084  -0.00001   0.00000  -0.00013  -0.00013  -3.14097
   D54        1.05430  -0.00030   0.00000  -0.00196  -0.00198   1.05232
   D55        1.05381   0.00027   0.00000   0.00274   0.00275   1.05655
   D56       -1.03386  -0.00003   0.00000   0.00081   0.00080  -1.03306
   D57       -3.12191  -0.00031   0.00000  -0.00103  -0.00104  -3.12295
   D58        3.12205   0.00032   0.00000   0.00109   0.00111   3.12316
   D59        1.03439   0.00002   0.00000  -0.00084  -0.00084   1.03355
   D60       -1.05366  -0.00026   0.00000  -0.00268  -0.00268  -1.05634
         Item               Value     Threshold  Converged?
 Maximum Force            0.094851     0.000450     NO 
 RMS     Force            0.016423     0.000300     NO 
 Maximum Displacement     0.294123     0.001800     NO 
 RMS     Displacement     0.084577     0.001200     NO 
 Predicted change in Energy=-3.546144D-02
 GradGradGradGradGradGradGradGradGradGradGradGradGradGradGradGradGradGrad

                          Input orientation:                          
 ---------------------------------------------------------------------
 Center     Atomic      Atomic             Coordinates (Angstroms)
 Number     Number       Type             X           Y           Z
 ---------------------------------------------------------------------
      1          6           0       -4.113803    3.531636   -1.161699
      2          6           0       -4.168241    2.166832   -0.822365
      3          6           0       -3.053379    1.551011   -0.298167
      4          6           0       -1.844314    2.262786   -0.090723
      5          6           0       -1.810693    3.643859   -0.440599
      6          6           0       -2.928087    4.263665   -0.966656
      7          7           0       -0.803498    1.541392    0.435703
      8          6           0        0.419816    2.091655    0.687553
      9          7           0        1.324577    1.217688    1.206867
     10          8           0        0.759766    3.275068    0.489542
     11          6           0        2.678876    1.623852    1.536714
     12          6           0        3.469781    0.445313    2.094268
     13          6           0        4.898475    0.856605    2.444471
     14          1           0       -3.109633    0.499070   -0.041584
     15          1           0       -0.927629    4.248049   -0.310947
     16          1           0        1.043873    0.252237    1.367013
     17          1           0        2.650252    2.432679    2.284660
     18          1           0        3.180170    2.005815    0.632680
     19          1           0        3.495223   -0.362665    1.345987
     20          1           0        2.967345    0.063700    2.997207
     21          1           0        5.427431    1.224245    1.552703
     22          1           0        5.454796   -0.003022    2.843885
     23          1           0        4.899600    1.650857    3.205617
     24          1           0       -5.076482    1.593379   -0.968375
     25          1           0       -2.880436    5.315270   -1.226138
     26          7           0       -5.239214    4.160139   -1.693234
     27          8           0       -5.199697    5.398476   -2.004475
     28          8           0       -6.319837    3.503179   -1.873796
 ---------------------------------------------------------------------
                    Distance matrix (angstroms):
                    1          2          3          4          5
     1  C    0.000000
     2  C    1.407409   0.000000
     3  C    2.406878   1.377293   0.000000
     4  C    2.812037   2.438267   1.418272   0.000000
     5  C    2.415966   2.808093   2.438148   1.425098   0.000000
     6  C    1.407065   2.440392   2.796617   2.438307   1.381834
     7  N    4.179819   3.646287   2.366564   1.371434   2.490525
     8  C    5.103624   4.830711   3.650619   2.400267   2.942318
     9  N    6.367137   5.932091   4.641415   3.580201   4.293060
    10  O    5.152097   5.218673   4.258279   2.853534   2.758339
    11  C    7.553911   7.262445   6.019206   4.849334   5.305321
    12  C    8.811212   8.355224   7.035477   6.026359   6.673804
    13  C   10.068834   9.725958   8.440157   7.339602   7.816992
    14  H    3.385184   2.124076   1.084241   2.171207   3.425806
    15  H    3.374720   3.885175   3.434093   2.197744   1.077803
    16  H    6.614413   5.968683   4.609459   3.809058   4.787390
    17  H    7.670563   7.497742   6.322954   5.086495   5.366007
    18  H    7.664853   7.492812   6.319056   5.082793   5.361328
    19  H    8.907937   8.356362   7.017805   6.121093   6.884538
    20  H    8.914355   8.362349   7.022870   6.125630   6.889535
    21  H   10.184654   9.930073   8.686578   7.527131   7.887854
    22  H   10.958859  10.523901   9.201986   8.186746   8.767834
    23  H   10.190791   9.935624   8.691165   7.531314   7.892718
    24  H    2.172778   1.084006   2.131647   3.415449   3.892093
    25  H    2.169493   3.425513   3.880811   3.417657   2.134254
    26  N    1.394308   2.424596   3.678537   4.206345   3.686515
    27  O    2.318303   3.592326   4.724527   4.975298   4.124286
    28  O    2.318292   2.742388   4.118654   4.974759   4.733520
                    6          7          8          9         10
     6  C    0.000000
     7  N    3.727098   0.000000
     8  C    4.320010   1.364812   0.000000
     9  N    5.664568   2.286521   1.360918   0.000000
    10  O    4.086331   2.335021   1.247093   2.250862   0.000000
    11  C    6.683825   3.653211   2.458306   1.451859   2.739721
    12  C    8.054923   4.713082   3.740532   2.446620   4.234010
    13  C    9.192330   6.084125   4.966941   3.799315   5.176835
    14  H    3.880836   2.575364   3.940174   4.662323   4.791712
    15  H    2.105239   2.810496   2.731784   4.069309   2.105891
    16  H    6.108521   2.437629   2.057807   1.018104   3.160408
    17  H    6.711291   4.017639   2.764398   2.096487   2.739709
    18  H    6.705712   4.015483   2.762234   2.096202   2.736758
    19  H    8.246827   4.788846   3.989405   2.688601   4.631341
    20  H    8.252759   4.792090   3.992118   2.689924   4.634077
    21  H    9.241208   6.338198   5.155298   4.117409   5.208002
    22  H   10.148771   6.881191   5.864168   4.607458   6.191293
    23  H    9.247017   6.341115   5.157851   4.118669   5.210888
    24  H    3.427249   4.498059   5.761915   6.770995   6.246231
    25  H    1.084194   4.617093   4.994554   6.355456   4.511880
    26  N    2.424859   5.573669   6.478533   7.755769   6.444814
    27  O    2.743187   6.337044   7.054147   8.387958   6.800307
    28  O    3.592382   6.293837   7.346824   8.552836   7.467140
                   11         12         13         14         15
    11  C    0.000000
    12  C    1.524910   0.000000
    13  C    2.517799   1.527406   0.000000
    14  H    6.104342   6.917619   8.392741   0.000000
    15  H    4.827747   6.291508   7.282699   4.346095   0.000000
    16  H    2.140878   2.539923   4.047732   4.392799   4.761185
    17  H    1.102019   2.158125   2.750284   6.505884   4.778491
    18  H    1.102030   2.157610   2.748789   6.502810   4.774103
    19  H    2.156165   1.101545   2.159260   6.803827   6.600434
    20  H    2.156461   1.101530   2.159509   6.808337   6.604807
    21  H    2.777498   2.175413   1.100093   8.714878   7.280342
    22  H    3.472916   2.168689   1.099082   9.051379   8.292160
    23  H    2.778054   2.175503   1.100083   8.718873   7.284795
    24  H    8.149968   9.150763  10.568355   2.434122   4.969152
    25  H    7.222595   8.664112   9.688371   4.965026   2.406240
    26  N    8.919724  10.197632  11.437075   4.546041   4.528599
    27  O    9.426543  10.793209  11.932929   5.676749   4.737308
    28  O    9.805115  10.996941  12.308627   4.763096   5.663323
                   16         17         18         19         20
    16  H    0.000000
    17  H    2.859520   0.000000
    18  H    2.859728   1.786635   0.000000
    19  H    2.527383   3.067415   2.493545   0.000000
    20  H    2.528403   2.494059   3.067261   1.785208   0.000000
    21  H    4.493870   3.115895   2.550975   2.508873   3.079851
    22  H    4.658599   3.756440   3.754833   2.492582   2.493064
    23  H    4.494801   2.553229   3.114874   3.079736   2.509205
    24  H    6.686662   8.425502   8.420558   9.091562   9.097742
    25  H    6.910784   7.157063   7.151129   8.916491   8.922565
    26  N    8.007121   9.002857   8.996500  10.294805  10.301876
    27  O    8.765436   9.424135   9.417373  10.955271  10.962537
    28  O    8.677309   9.944909   9.938544  11.029377  11.036686
                   21         22         23         24         25
    21  H    0.000000
    22  H    1.781596   0.000000
    23  H    1.786821   1.781687   0.000000
    24  H   10.808529  11.313250  10.814238   0.000000
    25  H    9.668460  10.692306   9.674572   4.329150   0.000000
    26  N   11.529653  12.340146  11.536498   2.672108   2.667647
    27  O   11.958828  12.891896  11.966015   3.945560   2.447795
    28  O   12.447198  13.160240  12.454208   2.452153   3.941143
                   26         27         28
    26  N    0.000000
    27  O    1.277462   0.000000
    28  O    1.277476   2.205434   0.000000
 Stoichiometry    C10H12N3O3(1-)
 Framework group  C1[X(C10H12N3O3)]
 Deg. of freedom    78
 Full point group                 C1      NOp   1
 Largest Abelian subgroup         C1      NOp   1
 Largest concise Abelian subgroup C1      NOp   1
                         Standard orientation:                         
 ---------------------------------------------------------------------
 Center     Atomic      Atomic             Coordinates (Angstroms)
 Number     Number       Type             X           Y           Z
 ---------------------------------------------------------------------
      1          6           0       -3.294610    0.008493    0.000638
      2          6           0       -2.813072    1.330961    0.000067
      3          6           0       -1.455065    1.560630   -0.002338
      4          6           0       -0.524209    0.490583   -0.004170
      5          6           0       -1.032799   -0.840672   -0.004008
      6          6           0       -2.394902   -1.073335   -0.001603
      7          7           0        0.800667    0.844888   -0.005308
      8          6           0        1.808318   -0.075630   -0.004946
      9          7           0        3.055920    0.468046   -0.003394
     10          8           0        1.684183   -1.316529   -0.005818
     11          6           0        4.250445   -0.357182   -0.001170
     12          6           0        5.502098    0.513841    0.004475
     13          6           0        6.768168   -0.340568    0.008899
     14          1           0       -1.098337    2.584507   -0.002467
     15          1           0       -0.385978   -1.702809   -0.005492
     16          1           0        3.153713    1.481442   -0.002400
     17          1           0        4.256225   -1.001298   -0.895332
     18          1           0        4.250732   -1.003695    0.891293
     19          1           0        5.493134    1.158285    0.897791
     20          1           0        5.500300    1.160309   -0.887402
     21          1           0        6.801597   -0.982358    0.901755
     22          1           0        7.660329    0.301312    0.013580
     23          1           0        6.809347   -0.980369   -0.885048
     24          1           0       -3.497213    2.171805    0.001722
     25          1           0       -2.760179   -2.094143   -0.001288
     26          7           0       -4.668370   -0.229975    0.003608
     27          8           0       -5.115224   -1.426734    0.004268
     28          8           0       -5.492387    0.746209    0.005785
 ---------------------------------------------------------------------
 Rotational constants (GHZ):      2.5595484      0.1591155      0.1502329
 Basis read from rwf:  (6D, 7F)
 There are   328 symmetry adapted cartesian basis functions of A   symmetry.
 There are   328 symmetry adapted basis functions of A   symmetry.
   328 basis functions,   560 primitive gaussians,   328 cartesian basis functions
    59 alpha electrons       59 beta electrons
       nuclear repulsion energy      1006.7527663542 Hartrees.
 NAtoms=   28 NActive=   28 NUniq=   28 SFac= 1.00D+00 NAtFMM=   60 NAOKFM=F Big=F
 Integral buffers will be    131072 words long.
 Raffenetti 2 integral format.
 Two-electron integral symmetry is turned on.
 ------------------------------------------------------------------------------
 Polarizable Continuum Model (PCM)
 =================================
[...]
 0000214,-0.00006483,0.00002202,-0.00000376,-0.00004709,-0.00005454,-0.
 00005331,-0.00037682,0.00046299,-0.00018125,-0.00001635,0.00001017,-0.
 00000080,-0.00135765,0.00010911,-0.00070462,-0.00768769,0.00867155,-0.
 00052149,0.13378956,-0.22069756,0.01085634,0.00000008,0.00000019,0.000
 00003,0.00000010,-0.00000051,0.00000003,0.00002059,-0.00000708,0.00001
 148,-0.00007273,-0.00004194,0.00003245,-0.00003461,0.00016543,-0.00010
 467,0.00050876,0.00031715,0.00044248,0.00063074,0.00054109,0.00024121,
 0.01397119,-0.01745808,-0.00011393,-0.14410944,0.23568407,-0.00007281,
 0.00004251,-0.00004115,0.00001830,-0.00004057,0.00002551,-0.00007093,0
 .00000445,-0.00002906,0.00010445,-0.00010187,0.00006367,-0.00002576,0.
 00005783,-0.00003471,0.00004628,-0.00000128,0.00001329,-0.00038028,0.0
 0010881,-0.00012101,0.00021526,-0.00055867,0.00001076,-0.00115288,0.00
 108680,0.00022460,-0.00006955,0.00018254,0.00001657,-0.00185872,-0.001
 99783,-0.00095296,-0.00875141,0.01314854,-0.00183273,-0.00726817,0.009
 99770,-0.04841751,0.00000029,-0.00000084,0.00000148,-0.00000046,-0.000
 00260,0.00000048,0.00003107,0.00003473,-0.00000334,-0.00011905,0.00029
 663,0.00026664,0.00009320,-0.00037807,-0.00002949,0.00070411,0.0004057
 6,0.00036599,0.00054820,-0.00025573,0.00038792,-0.01137091,0.01318270,
 -0.00103175,0.01066461,-0.01072611,0.04793777,-0.00001015,0.00000599,-
 0.00000819,0.00000339,-0.00000418,0.00000544,-0.00001029,-0.00000115,-
 0.00000112,0.00002817,-0.00001673,-0.00000016,-0.00000186,0.00000952,-
 0.00000628,0.00000503,0.00000030,0.00000588,-0.00004290,-0.00000957,-0
 .00003003,0.00012260,-0.00004567,0.00016550,-0.00015558,0.00000153,0.0
 0026481,-0.00001578,0.00007356,-0.00000805,0.00146243,-0.00084731,-0.0
 0072787,0.00483974,-0.00938051,-0.02867104,-0.05560562,0.01525395,0.04
 418901,0.00000014,-0.00000047,-0.00000039,-0.00000033,-0.00000181,-0.0
 0000111,0.00008956,0.00001673,-0.00005955,-0.00011656,0.00015353,0.000
 39266,-0.00001653,0.00014097,0.00001263,-0.00486360,-0.00119277,-0.002
 92715,0.00137934,0.00028444,0.00073991,-0.00319445,0.00586872,0.012803
 18,-0.00351454,0.00484850,0.01867774,0.05961206,-0.00000948,0.00000634
 ,-0.00000343,0.00000181,-0.00000496,0.00000307,-0.00000891,0.00000124,
 -0.00000286,0.00000969,-0.00001227,0.00000300,-0.00000267,0.00000700,-
 0.00000531,0.00000544,-0.00000105,0.00000079,-0.00004966,0.00001718,-0
 .00002272,0.00001548,-0.00002536,0.00003379,0.00003434,0.00003230,0.00
 021839,-0.00005458,0.00002425,-0.00002029,0.00040926,0.00018594,0.0006
 2783,0.00142731,-0.00375458,-0.00823941,0.01492453,-0.07775076,-0.0811
 5743,-0.00000009,-0.00000024,0.00000009,-0.00000031,-0.00000075,0.0000
 0027,0.00003365,-0.00000071,-0.00002174,-0.00003654,0.00032853,0.00011
 355,-0.00005560,-0.00003637,-0.00000280,-0.00186180,0.00050606,-0.0007
 9254,0.00047535,-0.00000402,0.00005895,-0.00360693,0.00928733,0.022708
 98,0.00349948,-0.00771160,-0.02446427,-0.01515400,0.07890903,-0.000016
 60,0.00000959,-0.00000925,0.00000333,-0.00000761,0.00000641,-0.0000153
 9,0.00000159,-0.00000463,0.00002496,-0.00002444,0.00000529,-0.00000614
 ,0.00001413,-0.00000805,0.00000932,0.00000007,0.00000358,-0.00008639,0
 .00002237,-0.00004485,0.00006953,-0.00009629,0.00006529,-0.00013011,0.
 00024599,0.00032975,-0.00006150,0.00007808,-0.00000852,0.00085703,-0.0
 0032685,0.00028675,0.00225101,-0.00432857,-0.01329166,0.04292261,-0.08
 145956,-0.28196485,0.00000019,-0.00000102,-0.00000013,-0.00000017,-0.0
 0000198,-0.00000080,0.00009340,-0.00000170,-0.00000677,-0.00037111,0.0
 0044128,-0.00003188,-0.00007827,0.00000308,-0.00002603,-0.00309521,-0.
 00085384,0.00007150,-0.00006919,0.00006002,0.00087800,0.00256601,-0.00
 555600,-0.01443727,-0.00005705,0.00082466,0.00315838,-0.04481801,0.090
 96198,0.30502614,0.00168158,-0.00137422,0.00016471,-0.29546487,-0.1216
 3529,0.00351375,-0.01522348,-0.01126884,0.00084865,0.00013966,0.001672
 88,-0.00322894,-0.00002205,0.00057554,-0.00005877,0.00131877,-0.000168
 25,-0.00054255,-0.00100355,-0.00055383,-0.00016788,-0.00008885,0.00035
 079,0.00030544,-0.00018567,-0.00003701,-0.00008224,-0.00004106,-0.0001
 1577,-0.00008317,0.00002107,0.00005008,0.00000837,-0.00000995,-0.00001
 541,-0.00000957,-0.00000256,0.00000813,0.00000163,0.00094305,0.0005601
 6,0.00137226,-0.00005794,-0.00000357,0.00015444,0.00000350,-0.00001392
 ,-0.00000582,-0.00000825,-0.00000249,-0.00000706,-0.00000454,-0.000005
 36,-0.00000038,0.00000002,0.00000080,0.00000139,0.00000053,0.00000138,
 -0.00000047,-0.00000026,-0.00000054,0.00000018,-0.00000355,-0.00000022
 ,-0.00000149,0.00000007,-0.00000026,-0.00000046,0.31145223,-0.02418649
 ,-0.00643896,-0.00033647,-0.12077651,-0.11376180,0.01027024,0.01378655
 ,0.01141828,0.00057461,0.00126212,0.00051753,0.00529136,0.00065815,-0.
 00017812,-0.00034191,0.00098790,-0.00343092,0.00431661,0.00037754,0.00
 064097,-0.00013422,0.00038627,-0.00025027,-0.00041072,0.00010382,0.000
 06176,0.00009060,-0.00003574,-0.00001572,0.00005233,-0.00000736,-0.000
 03875,0.00001291,0.00000645,0.00000797,0.00000739,0.00000247,-0.000005
 28,-0.00000116,0.00024503,-0.00059025,-0.00277323,-0.00000677,-0.00003
 260,-0.00033254,0.00000083,0.00000654,-0.00000066,0.00000594,-0.000000
 23,0.00000213,-0.00000131,0.00000378,-0.00000251,-0.00000015,-0.000000
 45,-0.00000073,-0.00000006,-0.00000048,0.00000015,0.00000010,0.0000002
 5,-0.00000002,0.00000201,0.00000037,0.00000073,-0.00000022,0.00000003,
 -0.00000015,0.12886782,0.11170674,0.01287367,0.00511222,0.00436557,0.0
 0308966,0.01011523,-0.04481505,-0.01306731,-0.00542780,0.00609792,-0.0
 0302391,0.00551291,0.00616718,0.00012993,-0.00076916,-0.00072470,-0.00
 143597,0.00400528,0.00148611,-0.00041845,-0.00023569,-0.00027345,-0.00
 004905,-0.00018880,-0.00070275,0.00007594,-0.00002407,0.00005799,-0.00
 004058,-0.00006230,0.00004316,-0.00003770,-0.00001403,0.00006080,-0.00
 000250,0.00000117,0.00000432,0.00000081,-0.00000116,-0.00000131,0.0015
 4976,-0.00262551,-0.00399032,0.00014745,-0.00035713,-0.00042232,0.0000
 0729,0.00000005,-0.00000798,0.00001693,-0.00000188,0.00000507,-0.00000
 612,0.00000200,-0.00000518,0.00000047,-0.00000090,-0.00000089,0.000000
 54,-0.00000011,0.00000015,0.00000034,0.00000034,0.00000003,0.00000078,
 0.00000016,-0.00000020,-0.00000040,-0.00000020,-0.00000047,-0.00001935
 ,-0.01475165,0.03433330,0.00282063,-0.02390900,0.01317164,-0.00532419,
 -0.00134647,-0.00147705,-0.00020324,0.00055021,-0.00001783,-0.00388754
 ,0.00047263,-0.00353805,0.00720399,0.02173645,-0.01252654,-0.06171523,
 -0.03402159,0.01413247,0.00062057,0.00132145,-0.00022249,0.00011247,-0
 .00006151,0.00012616,-0.00004881,-0.00003802,-0.00001372,0.00002170,-0
 .00007437,-0.00002554,-0.00000706,0.00001219,0.00003486,-0.00000438,-0
 .00000381,-0.00000358,-0.00000094,0.00000254,0.00000015,0.00014506,0.0
 0005691,0.00014351,0.00088091,0.00029791,0.00147391,0.00001588,-0.0000
 2238,-0.00000243,0.00000660,-0.00000239,-0.00000037,-0.00000636,-0.000
 00320,-0.00000297,0.00000002,0.00000004,0.00000011,0.00000013,0.000000
 15,0.00000009,-0.00000011,-0.00000003,0.00000002,-0.00000081,-0.000000
 22,-0.00000055,-0.00000004,-0.00000005,-0.00000007,0.00014964,-0.00134
 048,0.00050612,0.05948454,-0.00149713,-0.00697087,0.00602008,-0.002528
 39,0.00142902,0.00092454,0.00037906,0.00007250,-0.00068258,0.00069790,
 0.00291672,0.00419532,-0.00284227,-0.00491651,0.00596741,-0.03460888,-
 0.28145744,0.12883824,-0.00007717,-0.00090814,-0.00051150,-0.00014850,
 0.00008280,0.00005753,0.00004066,0.00003980,0.00002063,-0.00007006,0.0
 0011487,-0.00008109,-0.00000177,-0.00001156,-0.00002094,0.00000360,0.0
 0000360,0.00000329,0.00000019,-0.00000250,0.00000033,0.00008308,-0.000
 17657,-0.00019070,0.00062679,-0.00058480,-0.00282249,-0.00001777,0.000
 01519,-0.00001666,-0.00000499,0.00000541,0.00000314,0.00000297,0.00000
 063,0.00000158,0.00000011,-0.00000006,-0.00000036,-0.00000016,-0.00000
 029,0.00000003,0.00000016,0.00000042,-0.00000018,0.00000087,-0.0000000
 4,0.00000042,-0.00000006,0.00000021,0.00000015,-0.00000666,-0.00013645
 ,0.00058032,0.03549946,0.29273792,-0.00048298,0.00057150,0.00402504,-0
 .00061596,0.00108593,0.00315647,-0.00011441,-0.00074087,-0.00087005,-0
 .00316664,0.00338671,0.00733721,0.00096005,0.01246484,-0.00005622,0.01
 557827,0.12899023,-0.11021832,-0.00022722,-0.00013090,-0.00181517,0.00
 050837,0.00045507,0.00041650,-0.00021810,0.00011724,0.00001483,-0.0002
 5952,-0.00009036,-0.00027240,0.00003556,0.00002198,0.00001075,-0.00000
 390,-0.00001461,-0.00000561,-0.00000189,0.00000685,0.00000122,0.000142
 64,-0.00016002,-0.00040123,0.00158906,-0.00290686,-0.00377207,-0.00001
 491,-0.00002106,-0.00005153,-0.00001942,0.00000419,-0.00000935,-0.0000
 1305,-0.00000594,-0.00000387,0.00000009,0.00000127,0.00000142,0.000000
 37,0.00000142,-0.00000002,-0.00000070,-0.00000047,0.00000022,-0.000003
 45,-0.00000017,-0.00000150,-0.00000035,-0.00000021,-0.00000079,-0.0001
 8686,0.00026146,0.00070933,-0.01199089,-0.14291434,0.10457266,-0.11766
 660,-0.00578831,-0.00887637,-0.01418927,0.05484815,-0.03079886,0.04164
 574,-0.00038710,0.01248735,-0.04529179,0.02629977,-0.01961035,0.011308
 21,-0.03792064,0.02082507,-0.08289106,0.01571832,-0.02744608,0.0587238
 1,-0.01643022,0.01777544,-0.04337576,-0.02037585,-0.00528985,0.0148279
 2,-0.00423811,0.00026119,0.00918924,0.01533466,0.00104281,-0.00326165,
 -0.00158869,0.00074632,0.00031028,0.00099944,0.00044373,0.00014618,-0.
 00048332,-0.00005914,0.00066242,-0.00138133,0.00012621,-0.00029206,0.0
 0088311,-0.00076349,-0.00025777,0.00133676,0.00031026,0.00129019,0.000
 20997,0.00091373,0.00058871,0.00008768,0.00017463,-0.00000524,-0.00007
 894,-0.00008990,-0.00002709,-0.00009664,0.00000621,0.00002704,0.000035
 10,-0.00000554,0.00023293,0.00001272,0.00009410,0.00001320,0.00001157,
 0.00002020,-0.00378790,-0.00204881,0.00057315,0.00043068,0.00125248,0.
 00085223,0.67179801,-0.00725890,-0.11209962,0.02036452,0.04108985,-0.0
 3639500,0.02475169,-0.02522262,-0.00623272,-0.00124631,0.02278131,-0.0
 1928465,0.01231331,-0.01464486,0.01902585,-0.00943208,0.03136954,0.013
 53234,-0.00455674,-0.03270406,0.00982496,-0.01060439,0.02459769,0.0113
 5054,0.00281848,-0.00844088,0.00243804,-0.00007411,-0.00528282,-0.0084
 5965,-0.00066900,0.00186227,0.00091019,-0.00041173,-0.00017579,-0.0005
 6386,-0.00025203,-0.00008195,0.00027274,0.00003430,0.00113887,0.000562
 11,0.00126395,-0.00113180,0.00094380,0.00016812,0.00014806,-0.00075441
 ,-0.00018472,-0.00072317,-0.00012329,-0.00052186,-0.00033683,-0.000053
 72,-0.00009992,0.00000264,0.00004585,0.00005052,0.00001462,0.00005235,
 -0.00000212,-0.00001728,-0.00002091,0.00000408,-0.00013153,-0.00000784
 ,-0.00005349,-0.00000782,-0.00000584,-0.00001205,-0.00075841,-0.000501
 02,-0.00130872,-0.00014120,-0.00425458,0.00013414,0.13980503,0.6700156
 0,-0.00716634,0.02106021,-0.08540163,-0.02349850,0.02768711,-0.0303363
 6,0.02192884,0.00718536,0.01030538,-0.02319059,0.01627741,-0.01327694,
 0.00949518,-0.01612294,0.01725406,-0.03550797,-0.00927972,-0.01364460,
 0.03248038,-0.00937975,0.00934893,-0.02403461,-0.01118431,-0.00338000,
 0.00822012,-0.00236560,0.00029382,0.00557659,0.00828563,0.00108870,-0.
 00182794,-0.00089037,0.00045167,0.00017310,0.00056140,0.00024836,0.000
 08121,-0.00027461,-0.00003247,-0.00099616,0.00052542,0.00149690,-0.000
 19051,0.00085378,0.00177177,-0.00014862,0.00072603,0.00019428,0.000746
 06,0.00010132,0.00049427,0.00032399,0.00006075,0.00008933,-0.00000298,
 -0.00004509,-0.00005078,-0.00001252,-0.00005495,0.00000300,0.00001499,
 0.00002112,-0.00000374,0.00013041,0.00000714,0.00005310,0.00000642,0.0
 0000644,0.00001089,0.00016822,-0.00191593,-0.00233202,0.00102397,0.000
 68494,-0.00310349,0.03342835,-0.19273287,0.35331354,0.01194082,0.03081
 049,-0.01801387,-0.00374588,-0.00359071,-0.00056720,-0.00191485,0.0020
 8278,-0.00157071,0.00296825,-0.00011033,0.00035232,0.00087231,0.001881
 72,-0.00063331,-0.00539795,0.00167879,-0.00210536,-0.00322521,0.000955
 75,-0.00101077,0.00217590,0.00096367,0.00028443,-0.00079946,0.00025350
 ,-0.00003430,-0.00052895,-0.00079132,-0.00016530,0.00016306,0.00009770
 ,0.00000229,-0.00001759,-0.00005148,-0.00002402,-0.00000737,0.00002425
 ,0.00000186,-0.00055160,0.00036957,-0.00006773,-0.00015260,-0.00000333
 ,0.00002711,0.00001239,-0.00007314,-0.00001548,-0.00005664,-0.00001559
 ,-0.00004894,-0.00003133,-0.00000685,-0.00001175,0.00000032,0.00000311
 ,0.00000403,0.00000150,0.00000548,-0.00000049,-0.00000098,-0.00000165,
 0.00000037,-0.00001225,-0.00000036,-0.00000514,-0.00000064,-0.00000070
 ,-0.00000100,0.00061169,0.00032260,0.00000604,-0.00124058,0.00367981,-
 0.00239102,-0.12333849,-0.02463734,0.00200947,0.13907631,0.04579851,-0
 .05787371,0.05179515,-0.00336518,0.02098621,-0.00872870,0.01787164,0.0
 0069961,0.00536366,-0.02103688,0.01142272,-0.00864424,0.00626046,-0.01
 390424,0.00815522,-0.02634900,-0.00256676,-0.00497925,0.02711698,-0.00
 714571,0.00800888,-0.02026007,-0.00950054,-0.00261942,0.00697404,-0.00
 193056,0.00011142,0.00442290,0.00713321,0.00064267,-0.00153810,-0.0007
 4790,0.00036619,0.00014763,0.00047545,0.00021388,0.00006931,-0.0002322
 5,-0.00002873,0.00048865,-0.00072328,-0.00016687,0.00012799,0.00015558
 ,0.00005858,-0.00012179,0.00063382,0.00014734,0.00061694,0.00009438,0.
 00042883,0.00028110,0.00003986,0.00008014,-0.00000196,-0.00003905,-0.0
 0004296,-0.00001178,-0.00004522,0.00000162,0.00001415,0.00001763,-0.00
 000325,0.00011068,0.00000663,0.00004493,0.00000631,0.00000514,0.000010
 10,-0.00016046,0.00018266,-0.00044647,0.00074092,0.00162002,-0.0001638
 7,-0.04571352,-0.36579709,0.14055932,0.07162718,0.47900386,-0.02596015
 ,0.04814209,-0.01375582,-0.00081154,-0.00837561,0.01106513,-0.00968617
 ,-0.00029845,-0.00390818,0.01179487,-0.00598941,0.00508775,-0.00301371
 ,0.00752777,-0.00518720,0.01260374,0.00229830,0.00271659,-0.01531951,0
 .00403079,-0.00442005,0.01139411,0.00529582,0.00147266,-0.00392729,0.0
 0110817,-0.00007595,-0.00251833,-0.00400529,-0.00040871,0.00086898,0.0
 0042169,-0.00020665,-0.00008313,-0.00026819,-0.00012021,-0.00003915,0.
 00013031,0.00001642,-0.00013622,-0.00010408,-0.00099518,-0.00010063,-0
 .00008998,-0.00004920,0.00006909,-0.00035901,-0.00008432,-0.00034785,-
 0.00005204,-0.00023905,-0.00015829,-0.00002347,-0.00004548,0.00000163,
 0.00002141,0.00002447,0.00000607,0.00002620,-0.00000149,-0.00000762,-0
 .00001020,0.00000182,-0.00006236,-0.00000353,-0.00002535,-0.00000335,-
 0.00000302,-0.00000534,0.00032242,-0.00012220,0.00010968,-0.00076855,0
 .00031315,0.00032780,0.01340817,0.14594605,-0.15475429,-0.01058780,-0.
 22103909,0.14452530,-0.10134614,0.00253559,-0.03118703,0.00587668,-0.0
 2086909,0.01263695,-0.01780703,-0.00224559,-0.00476041,0.02012675,-0.0
 1623408,0.01109803,-0.00950106,0.01609968,-0.01014890,0.02528577,0.007
 32529,0.00079195,-0.02911822,0.00867282,-0.00916919,0.02223821,0.01012
 165,0.00283242,-0.00768549,0.00219989,-0.00010751,-0.00496531,-0.00754
 353,-0.00084783,0.00169300,0.00082768,-0.00038513,-0.00016205,-0.00052
 284,-0.00023121,-0.00007710,0.00025453,0.00003179,0.00003659,0.0005236
 1,-0.00014750,-0.00051490,0.00037670,-0.00024429,0.00013386,-0.0006972
 2,-0.00017440,-0.00067462,-0.00010548,-0.00047004,-0.00030519,-0.00004
 724,-0.00009079,0.00000181,0.00004201,0.00004683,0.00001374,0.00005216
 ,-0.00000382,-0.00001363,-0.00001829,0.00000279,-0.00012239,-0.0000065
 1,-0.00004948,-0.00000686,-0.00000630,-0.00001093,-0.00041732,0.001388
 29,-0.00087754,0.00054648,-0.00046333,0.00004462,-0.37680989,-0.141112
 63,0.00076944,-0.01680017,-0.06411663,0.02306258,0.49037448,-0.0113858
 8,0.02596937,-0.00680334,0.00601225,-0.01092743,0.00777669,-0.00509368
 ,0.00039696,-0.00246575,0.00652502,-0.00354226,0.00294521,-0.00063814,
 0.00509770,-0.00316220,0.00718485,0.00034226,0.00530322,-0.00806361,0.
 00222748,-0.00236781,0.00636102,0.00293866,0.00089144,-0.00212680,0.00
 058493,-0.00002742,-0.00137686,-0.00216866,-0.00020144,0.00047850,0.00
 021257,-0.00014277,-0.00004402,-0.00014878,-0.00006469,-0.00002180,0.0
 0007338,0.00000957,0.00006641,-0.00000234,0.00003581,0.00031152,-0.000
 42700,-0.00033768,0.00003653,-0.00019699,-0.00004993,-0.00020274,-0.00
 002335,-0.00012913,-0.00008571,-0.00000978,-0.00002376,0.00000032,0.00
 001256,0.00001400,0.00000410,0.00001536,-0.00000128,-0.00000371,-0.000
 00525,0.00000051,-0.00003456,-0.00000187,-0.00001375,-0.00000178,-0.00
 000205,-0.00000304,0.00403292,0.00083445,0.00088591,0.00027387,0.00038
 070,-0.00035314,-0.12030329,-0.17442018,0.01964276,-0.08547361,-0.0619
 7048,0.02548183,0.20356887,0.21476004,-0.02423584,-0.00348161,0.014125
 12,-0.00170598,0.00087155,-0.00035877,-0.00155879,-0.00122755,-0.00062
 978,0.00161549,-0.00200922,0.00175556,-0.00201246,0.00097039,-0.001679
 11,0.00106249,0.00541454,0.00400353,-0.00306727,0.00086371,-0.00104697
 ,0.00215077,0.00097238,0.00040228,-0.00078625,0.00024343,-0.00006218,-
 0.00067601,-0.00067496,-0.00027911,0.00017419,0.00009426,-0.00002624,-
 0.00001777,-0.00005494,-0.00002416,-0.00000703,0.00002707,0.00000180,-
 0.00000742,0.00011070,-0.00009423,0.00005903,-0.00026370,-0.00092428,0
 .00001242,-0.00006591,-0.00003105,-0.00007149,-0.00000746,-0.00004291,
 -0.00003126,-0.00001010,-0.00000887,-0.00000033,0.00000403,0.00000478,
 0.00000097,0.00000574,-0.00000020,-0.00000111,-0.00000231,0.00000044,-
 0.00001272,-0.00000050,-0.00000543,-0.00000012,-0.00000090,-0.00000069
 ,-0.00246646,0.00024357,-0.00016396,-0.00002237,-0.00037026,0.00000817
 ,-0.01054959,0.01431296,-0.09010168,0.03456627,0.03087490,0.01893486,0
 .00758860,-0.04683980,0.05624308\\0.00000033,-0.00000054,-0.00000245,-
 0.00000070,0.00000046,-0.00000673,0.00000642,-0.00000369,-0.00000333,-
 0.00000839,0.00000298,-0.00000031,0.00000352,0.00000207,0.00000040,0.0
 0000010,0.00000160,-0.00000010,0.00000360,-0.00000174,-0.00000398,-0.0
 0000801,0.00001881,0.00000381,0.00000600,-0.00000487,-0.00000249,-0.00
 000498,-0.00001227,0.00000059,0.00000246,-0.00000079,0.00000626,-0.000
 00179,-0.00000031,0.00000132,-0.00000072,0.00000031,0.00000347,0.00000
 105,-0.00000197,-0.00000706,-0.00000087,-0.00000023,0.00000337,0.00000
 034,-0.00000214,-0.00000234,-0.00000330,-0.00000255,0.00000222,0.00000
 056,0.00000022,0.00000341,0.00000233,0.00000300,0.00000001,-0.00000002
 ,-0.00000071,-0.00000061,-0.00000121,0.00000153,0.00000524,-0.00000014
 ,0.00000038,0.00000269,-0.00000295,-0.00000221,0.00000440,0.00000162,-
 0.00000142,-0.00000679,-0.00000027,0.00000261,0.00000331,-0.00000028,0
 .00000209,0.00000115,0.00000332,0.00000200,-0.00000051,0.00000200,-0.0
 0000259,-0.00000496\\\@


 O WAD SOME POWER THE GIFTIE GIE US       
 TO SEE OURSELS AS OTHERS SEE US.....     
 IT WOULD FRAE MONIE A BLUNDER FREE US,   
                     AND FOOLISH NOTION...
 WHAT AIRS IN DRESS AND GAIT WAD LEA'E US,
                     AND EV'N DEVOTION....
                                          
              (ROBERT BURNS 'TO A LOUSE') 
 Job cpu time:       0 days  2 hours  5 minutes 59.8 seconds.
 File lengths (MBytes):  RWF=    407 Int=      0 D2E=      0 Chk=     17 Scr=      1
 Normal termination of Gaussian 09 at Tue Jul 10 16:42:04 2018.
WARNING: pbs_rusage is deprecated and values produced may not be accurate


=============================================================================
                                     Resource usage:
                                       CPU time:              14:58:23
   JobId:    8296020.r-man2            Elapsed time:          03:46:01
   Project:             q95            Requested time:        96:00:00
   Service Units:     15.07 
                                       Max physical memory:      547MB
                                       Max virtual memory:      1225MB
                                       Requested memory:           0MB

                                       Number of cpus:               4

                                       Max jobfs disk use:       0.4GB
                                       Requested jobfs:         16.0GB
=============================================================================

