 Entering Gaussian System, Link 0=/apps/gaussian/g09e01/g09/g09
 AtFile(1): /home/507/hio507/Basis/6-31pGd.gbs
 Initial command:
 /apps/gaussian/g09e01/g09/l1.exe "/jobfs/local/8353078.r-man2/Gau-2035.inp" -scrdir="/jobfs/local/8353078.r-man2/"
 Entering Link 1 = /apps/gaussian/g09e01/g09/l1.exe PID=      2036.
  
 Copyright (c) 1988,1990,1992,1993,1995,1998,2003,2009,2015,
            Gaussian, Inc.  All Rights Reserved.
  
 This is part of the Gaussian(R) 09 program.  It is based on
 the Gaussian(R) 03 system (copyright 2003, Gaussian, Inc.),
 the Gaussian(R) 98 system (copyright 1998, Gaussian, Inc.),
 the Gaussian(R) 94 system (copyright 1995, Gaussian, Inc.),
 the Gaussian 92(TM) system (copyright 1992, Gaussian, Inc.),
 the Gaussian 90(TM) system (copyright 1990, Gaussian, Inc.),
 the Gaussian 88(TM) system (copyright 1988, Gaussian, Inc.),
 the Gaussian 86(TM) system (copyright 1986, Carnegie Mellon
 University), and the Gaussian 82(TM) system (copyright 1983,
 Carnegie Mellon University). Gaussian is a federally registered
 trademark of Gaussian, Inc.
  
 This software contains proprietary and confidential information,
 including trade secrets, belonging to Gaussian, Inc.
  
 This software is provided under written license and may be
 used, copied, transmitted, or stored only in accord with that
 written license.
  
 The following legend is applicable only to US Government
 contracts under FAR:
  
                    RESTRICTED RIGHTS LEGEND
  
 Use, reproduction and disclosure by the US Government is
 subject to restrictions as set forth in subparagraphs (a)
 and (c) of the Commercial Computer Software - Restricted
 Rights clause in FAR 52.227-19.
  
 Gaussian, Inc.
 340 Quinnipiac St., Bldg. 40, Wallingford CT 06492
  
  
 ---------------------------------------------------------------
 Warning -- This program may not be used in any manner that
 competes with the business of Gaussian, Inc. or will provide
 assistance to any competitor of Gaussian, Inc.  The licensee
 of this program is prohibited from giving any competitor of
 Gaussian, Inc. access to this program.  By using this program,
 the user acknowledges that Gaussian, Inc. is engaged in the
 business of creating and licensing software in the field of
 computational chemistry and represents and warrants to the
 licensee that it is not a competitor of Gaussian, Inc. and that
 it will not use this program in any manner prohibited above.
 ---------------------------------------------------------------
  

 Cite this work as:
 Gaussian 09, Revision E.01,
 M. J. Frisch, G. W. Trucks, H. B. Schlegel, G. E. Scuseria, 
 M. A. Robb, J. R. Cheeseman, G. Scalmani, V. Barone, B. Mennucci, 
 G. A. Petersson, H. Nakatsuji, M. Caricato, X. Li, H. P. Hratchian, 
 A. F. Izmaylov, J. Bloino, G. Zheng, J. L. Sonnenberg, M. Hada, 
 M. Ehara, K. Toyota, R. Fukuda, J. Hasegawa, M. Ishida, T. Nakajima, 
 Y. Honda, O. Kitao, H. Nakai, T. Vreven, J. A. Montgomery, Jr., 
 J. E. Peralta, F. Ogliaro, M. Bearpark, J. J. Heyd, E. Brothers, 
 K. N. Kudin, V. N. Staroverov, T. Keith, R. Kobayashi, J. Normand, 
 K. Raghavachari, A. Rendell, J. C. Burant, S. S. Iyengar, J. Tomasi, 
 M. Cossi, N. Rega, J. M. Millam, M. Klene, J. E. Knox, J. B. Cross, 
 V. Bakken, C. Adamo, J. Jaramillo, R. Gomperts, R. E. Stratmann, 
 O. Yazyev, A. J. Austin, R. Cammi, C. Pomelli, J. W. Ochterski, 
 R. L. Martin, K. Morokuma, V. G. Zakrzewski, G. A. Voth, 
 P. Salvador, J. J. Dannenberg, S. Dapprich, A. D. Daniels, 
 O. Farkas, J. B. Foresman, J. V. Ortiz, J. Cioslowski, 
 and D. J. Fox, Gaussian, Inc., Wallingford CT, 2013.
 
 ******************************************
 Gaussian 09:  ES64L-G09RevE.01 30-Nov-2015
                12-Jul-2018 
 ******************************************
 %chk=aryl_urea_OCF3_a1.M062X.chk
 %mem=196608000
 %nproc=4
 Will use up to    4 processors via shared memory.
 ----------------------------------------------------------------------
 # M062X/Gen 6D NoSymm SCF=Tight INT(grid=ultrafine) OPT IOP(2/17=4) ma
 xdisk=2147483648
 ----------------------------------------------------------------------
 1/14=-1,18=20,19=15,26=4,38=1/1,3;
 2/9=110,12=2,15=1,17=4,18=5,40=1/2;
 3/5=7,8=2,11=2,16=1,25=1,30=1,71=1,74=-55,75=-5/1,2,3;
 4//1;
 5/5=2,32=2,38=5/2;
 6/7=2,8=2,9=2,10=2,28=1/1;
 7/30=1/1,2,3,16;
 1/14=-1,18=20,19=15,26=4/3(2);
 2/9=110,15=1,17=4/2;
 99//99;
 2/9=110,15=1,17=4/2;
 3/5=7,6=1,8=2,11=2,16=1,25=1,30=1,71=1,74=-55,75=-5,82=7/1,2,3;
 4/5=5,16=3,69=1/1;
 5/5=2,32=2,38=5/2;
 7/30=1/1,2,3,16;
 1/14=-1,18=20,19=15,26=4/3(-5);
 2/9=110,15=1,17=4/2;
 6/7=2,8=2,9=2,10=2,19=2,28=1/1;
 99/9=1/99;
 -----------------------
 aryl_urea_OCF3_a1.M062X
 -----------------------
 Symbolic Z-matrix:
 Charge = -1 Multiplicity = 1
 C                    -4.0827    3.46418  -1.13238 
 C                    -4.19668   2.27203  -0.4289 
 C                    -3.03173   1.63259  -0.00512 
 C                    -1.74738   2.15017  -0.25691 
 C                    -1.68493   3.35859  -0.98728 
 C                    -2.83568   4.0077   -1.41763 
 N                    -0.63855   1.40721   0.13177 
 C                     0.44338   2.04213   0.58249 
 N                     1.57478   1.23272   0.71528 
 O                     0.55729   3.26608   0.90599 
 C                     2.59366   1.59744   1.69333 
 C                     3.67555   0.52924   1.76486 
 C                     4.74276   0.87984   2.79729 
 H                    -3.11793   0.69699   0.54085 
 H                    -0.71805   3.78486  -1.23291 
 H                     1.34029   0.24493   0.72455 
 H                     2.15258   1.74041   2.69239 
 H                     3.04162   2.5521    1.40117 
 H                     4.13444   0.4142    0.77516 
 H                     3.21552  -0.43494   2.01854 
 H                     5.22465   1.8334    2.55335 
 H                     5.52079   0.11139   2.83911 
 H                     4.30575   0.97079   3.79805 
 O                    -5.17243   4.21705  -1.61896 
 C                    -6.42746   3.79283  -1.42288 
 F                    -7.25112   4.67433  -1.98798 
 F                    -6.67149   2.59236  -1.97417 
 F                    -6.75595   3.69968  -0.12363 
 H                    -5.15801   1.82544  -0.20001 
 H                    -2.77553   4.93391  -1.98222 
 

 GradGradGradGradGradGradGradGradGradGradGradGradGradGradGradGradGradGrad
 Berny optimization.
 Initialization pass.
                           ----------------------------
                           !    Initial Parameters    !
                           ! (Angstroms and Degrees)  !
 --------------------------                            --------------------------
 ! Name  Definition              Value          Derivative Info.                !
 --------------------------------------------------------------------------------
 ! R1    R(1,2)                  1.3889         estimate D2E/DX2                !
 ! R2    R(1,6)                  1.3899         estimate D2E/DX2                !
 ! R3    R(1,24)                 1.4111         estimate D2E/DX2                !
 ! R4    R(2,3)                  1.3948         estimate D2E/DX2                !
 ! R5    R(2,29)                 1.0844         estimate D2E/DX2                !
 ! R6    R(3,4)                  1.4074         estimate D2E/DX2                !
 ! R7    R(3,14)                 1.0867         estimate D2E/DX2                !
 ! R8    R(4,5)                  1.4134         estimate D2E/DX2                !
 ! R9    R(4,7)                  1.3902         estimate D2E/DX2                !
 ! R10   R(5,6)                  1.3895         estimate D2E/DX2                !
 ! R11   R(5,15)                 1.0848         estimate D2E/DX2                !
 ! R12   R(6,30)                 1.0864         estimate D2E/DX2                !
 ! R13   R(7,8)                  1.333          estimate D2E/DX2                !
 ! R14   R(8,9)                  1.3974         estimate D2E/DX2                !
 ! R15   R(8,10)                 1.2711         estimate D2E/DX2                !
 ! R16   R(9,11)                 1.4587         estimate D2E/DX2                !
 ! R17   R(9,16)                 1.0153         estimate D2E/DX2                !
 ! R18   R(11,12)                1.5221         estimate D2E/DX2                !
 ! R19   R(11,17)                1.1014         estimate D2E/DX2                !
 ! R20   R(11,18)                1.0943         estimate D2E/DX2                !
 ! R21   R(12,13)                1.5257         estimate D2E/DX2                !
 ! R22   R(12,19)                1.097          estimate D2E/DX2                !
 ! R23   R(12,20)                1.098          estimate D2E/DX2                !
 ! R24   R(13,21)                1.0959         estimate D2E/DX2                !
 ! R25   R(13,22)                1.0944         estimate D2E/DX2                !
 ! R26   R(13,23)                1.0958         estimate D2E/DX2                !
 ! R27   R(24,25)                1.3392         estimate D2E/DX2                !
 ! R28   R(25,26)                1.3322         estimate D2E/DX2                !
 ! R29   R(25,27)                1.3434         estimate D2E/DX2                !
 ! R30   R(25,28)                1.3434         estimate D2E/DX2                !
 ! A1    A(2,1,6)              120.8784         estimate D2E/DX2                !
 ! A2    A(2,1,24)             124.6972         estimate D2E/DX2                !
 ! A3    A(6,1,24)             114.4236         estimate D2E/DX2                !
 ! A4    A(1,2,3)              118.6091         estimate D2E/DX2                !
 ! A5    A(1,2,29)             122.2173         estimate D2E/DX2                !
 ! A6    A(3,2,29)             119.1736         estimate D2E/DX2                !
 ! A7    A(2,3,4)              122.6298         estimate D2E/DX2                !
 ! A8    A(2,3,14)             118.7574         estimate D2E/DX2                !
 ! A9    A(4,3,14)             118.6128         estimate D2E/DX2                !
 ! A10   A(3,4,5)              116.5638         estimate D2E/DX2                !
 ! A11   A(3,4,7)              118.7716         estimate D2E/DX2                !
 ! A12   A(5,4,7)              124.4838         estimate D2E/DX2                !
 ! A13   A(4,5,6)              121.524          estimate D2E/DX2                !
 ! A14   A(4,5,15)             119.4944         estimate D2E/DX2                !
 ! A15   A(6,5,15)             118.9749         estimate D2E/DX2                !
 ! A16   A(1,6,5)              119.788          estimate D2E/DX2                !
 ! A17   A(1,6,30)             119.3221         estimate D2E/DX2                !
 ! A18   A(5,6,30)             120.8885         estimate D2E/DX2                !
 ! A19   A(4,7,8)              119.1678         estimate D2E/DX2                !
 ! A20   A(7,8,9)              114.4171         estimate D2E/DX2                !
 ! A21   A(7,8,10)             128.1296         estimate D2E/DX2                !
 ! A22   A(9,8,10)             117.4511         estimate D2E/DX2                !
 ! A23   A(8,9,11)             118.9737         estimate D2E/DX2                !
 ! A24   A(8,9,16)             112.1727         estimate D2E/DX2                !
 ! A25   A(11,9,16)            113.4825         estimate D2E/DX2                !
 ! A26   A(9,11,12)            110.6417         estimate D2E/DX2                !
 ! A27   A(9,11,17)            111.1575         estimate D2E/DX2                !
 ! A28   A(9,11,18)            108.9693         estimate D2E/DX2                !
 ! A29   A(12,11,17)           109.4586         estimate D2E/DX2                !
 ! A30   A(12,11,18)           109.5024         estimate D2E/DX2                !
 ! A31   A(17,11,18)           107.0306         estimate D2E/DX2                !
 ! A32   A(11,12,13)           111.5751         estimate D2E/DX2                !
 ! A33   A(11,12,19)           109.1813         estimate D2E/DX2                !
 ! A34   A(11,12,20)           109.2282         estimate D2E/DX2                !
 ! A35   A(13,12,19)           109.999          estimate D2E/DX2                !
 ! A36   A(13,12,20)           109.7863         estimate D2E/DX2                !
 ! A37   A(19,12,20)           106.9551         estimate D2E/DX2                !
 ! A38   A(12,13,21)           110.9099         estimate D2E/DX2                !
 ! A39   A(12,13,22)           111.2104         estimate D2E/DX2                !
 ! A40   A(12,13,23)           110.9846         estimate D2E/DX2                !
 ! A41   A(21,13,22)           107.8711         estimate D2E/DX2                !
 ! A42   A(21,13,23)           107.8445         estimate D2E/DX2                !
 ! A43   A(22,13,23)           107.8738         estimate D2E/DX2                !
 ! A44   A(1,24,25)            120.2806         estimate D2E/DX2                !
 ! A45   A(24,25,26)           107.9202         estimate D2E/DX2                !
 ! A46   A(24,25,27)           113.1551         estimate D2E/DX2                !
 ! A47   A(24,25,28)           113.1239         estimate D2E/DX2                !
 ! A48   A(26,25,27)           107.7532         estimate D2E/DX2                !
 ! A49   A(26,25,28)           107.7555         estimate D2E/DX2                !
 ! A50   A(27,25,28)           106.889          estimate D2E/DX2                !
 ! D1    D(6,1,2,3)              0.4048         estimate D2E/DX2                !
 ! D2    D(6,1,2,29)          -179.6038         estimate D2E/DX2                !
 ! D3    D(24,1,2,3)          -179.9286         estimate D2E/DX2                !
 ! D4    D(24,1,2,29)            0.0628         estimate D2E/DX2                !
 ! D5    D(2,1,6,5)             -0.4625         estimate D2E/DX2                !
 ! D6    D(2,1,6,30)           179.1051         estimate D2E/DX2                !
 ! D7    D(24,1,6,5)           179.8385         estimate D2E/DX2                !
 ! D8    D(24,1,6,30)           -0.5938         estimate D2E/DX2                !
 ! D9    D(2,1,24,25)           -0.4257         estimate D2E/DX2                !
 ! D10   D(6,1,24,25)          179.2601         estimate D2E/DX2                !
 ! D11   D(1,2,3,4)              0.2847         estimate D2E/DX2                !
 ! D12   D(1,2,3,14)          -179.6776         estimate D2E/DX2                !
 ! D13   D(29,2,3,4)          -179.7069         estimate D2E/DX2                !
 ! D14   D(29,2,3,14)            0.3308         estimate D2E/DX2                !
 ! D15   D(2,3,4,5)             -0.8691         estimate D2E/DX2                !
 ! D16   D(2,3,4,7)           -176.2024         estimate D2E/DX2                !
 ! D17   D(14,3,4,5)           179.0933         estimate D2E/DX2                !
 ! D18   D(14,3,4,7)             3.7601         estimate D2E/DX2                !
 ! D19   D(3,4,5,6)              0.8045         estimate D2E/DX2                !
 ! D20   D(3,4,5,15)          -178.2456         estimate D2E/DX2                !
 ! D21   D(7,4,5,6)            175.8411         estimate D2E/DX2                !
 ! D22   D(7,4,5,15)            -3.209          estimate D2E/DX2                !
 ! D23   D(3,4,7,8)           -144.1993         estimate D2E/DX2                !
 ! D24   D(5,4,7,8)             40.8657         estimate D2E/DX2                !
 ! D25   D(4,5,6,1)             -0.1672         estimate D2E/DX2                !
 ! D26   D(4,5,6,30)          -179.728          estimate D2E/DX2                !
 ! D27   D(15,5,6,1)           178.8877         estimate D2E/DX2                !
 ! D28   D(15,5,6,30)           -0.6731         estimate D2E/DX2                !
 ! D29   D(4,7,8,9)           -168.9767         estimate D2E/DX2                !
 ! D30   D(4,7,8,10)            11.5718         estimate D2E/DX2                !
 ! D31   D(7,8,9,11)          -153.4374         estimate D2E/DX2                !
 ! D32   D(7,8,9,16)           -17.5885         estimate D2E/DX2                !
 ! D33   D(10,8,9,11)           26.0764         estimate D2E/DX2                !
 ! D34   D(10,8,9,16)          161.9252         estimate D2E/DX2                !
 ! D35   D(8,9,11,12)          175.0957         estimate D2E/DX2                !
 ! D36   D(8,9,11,17)           53.259          estimate D2E/DX2                !
 ! D37   D(8,9,11,18)          -64.4588         estimate D2E/DX2                !
 ! D38   D(16,9,11,12)          39.7872         estimate D2E/DX2                !
 ! D39   D(16,9,11,17)         -82.0495         estimate D2E/DX2                !
 ! D40   D(16,9,11,18)         160.2327         estimate D2E/DX2                !
 ! D41   D(9,11,12,13)        -179.1682         estimate D2E/DX2                !
 ! D42   D(9,11,12,19)          59.0325         estimate D2E/DX2                !
 ! D43   D(9,11,12,20)         -57.6047         estimate D2E/DX2                !
 ! D44   D(17,11,12,13)        -56.3381         estimate D2E/DX2                !
 ! D45   D(17,11,12,19)       -178.1375         estimate D2E/DX2                !
 ! D46   D(17,11,12,20)         65.2254         estimate D2E/DX2                !
 ! D47   D(18,11,12,13)         60.7048         estimate D2E/DX2                !
 ! D48   D(18,11,12,19)        -61.0945         estimate D2E/DX2                !
 ! D49   D(18,11,12,20)       -177.7316         estimate D2E/DX2                !
 ! D50   D(11,12,13,21)        -59.5834         estimate D2E/DX2                !
 ! D51   D(11,12,13,22)       -179.6267         estimate D2E/DX2                !
 ! D52   D(11,12,13,23)         60.2766         estimate D2E/DX2                !
 ! D53   D(19,12,13,21)         61.7421         estimate D2E/DX2                !
 ! D54   D(19,12,13,22)        -58.3011         estimate D2E/DX2                !
 ! D55   D(19,12,13,23)       -178.3979         estimate D2E/DX2                !
 ! D56   D(20,12,13,21)        179.1769         estimate D2E/DX2                !
 ! D57   D(20,12,13,22)         59.1337         estimate D2E/DX2                !
 ! D58   D(20,12,13,23)        -60.9631         estimate D2E/DX2                !
 ! D59   D(1,24,25,26)        -179.4437         estimate D2E/DX2                !
 ! D60   D(1,24,25,27)         -60.3104         estimate D2E/DX2                !
 ! D61   D(1,24,25,28)          61.439          estimate D2E/DX2                !
 --------------------------------------------------------------------------------
 Trust Radius=3.00D-01 FncErr=1.00D-07 GrdErr=1.00D-06
 Number of steps in this run=    151 maximum allowed number of steps=    180.
 GradGradGradGradGradGradGradGradGradGradGradGradGradGradGradGradGradGrad

                          Input orientation:                          
 ---------------------------------------------------------------------
 Center     Atomic      Atomic             Coordinates (Angstroms)
 Number     Number       Type             X           Y           Z
 ---------------------------------------------------------------------
      1          6           0       -4.082702    3.464185   -1.132376
      2          6           0       -4.196681    2.272032   -0.428900
      3          6           0       -3.031733    1.632590   -0.005122
      4          6           0       -1.747384    2.150171   -0.256906
      5          6           0       -1.684930    3.358590   -0.987285
      6          6           0       -2.835676    4.007697   -1.417630
      7          7           0       -0.638545    1.407206    0.131767
      8          6           0        0.443384    2.042135    0.582486
      9          7           0        1.574783    1.232722    0.715277
     10          8           0        0.557286    3.266077    0.905989
     11          6           0        2.593663    1.597445    1.693334
     12          6           0        3.675546    0.529238    1.764859
     13          6           0        4.742757    0.879842    2.797293
     14          1           0       -3.117925    0.696985    0.540855
     15          1           0       -0.718052    3.784865   -1.232908
     16          1           0        1.340288    0.244926    0.724549
     17          1           0        2.152585    1.740410    2.692393
     18          1           0        3.041620    2.552097    1.401174
     19          1           0        4.134444    0.414199    0.775159
     20          1           0        3.215516   -0.434942    2.018535
     21          1           0        5.224646    1.833396    2.553350
     22          1           0        5.520792    0.111387    2.839106
     23          1           0        4.305747    0.970792    3.798052
     24          8           0       -5.172429    4.217045   -1.618958
     25          6           0       -6.427464    3.792829   -1.422878
     26          9           0       -7.251118    4.674330   -1.987976
     27          9           0       -6.671492    2.592358   -1.974166
     28          9           0       -6.755945    3.699675   -0.123630
     29          1           0       -5.158008    1.825441   -0.200011
     30          1           0       -2.775525    4.933907   -1.982223
 ---------------------------------------------------------------------
                    Distance matrix (angstroms):
                    1          2          3          4          5
     1  C    0.000000
     2  C    1.388920   0.000000
     3  C    2.393737   1.394839   0.000000
     4  C    2.819005   2.458350   1.407422   0.000000
     5  C    2.404477   2.793080   2.399500   1.413376   0.000000
     6  C    1.389909   2.417117   2.770334   2.445826   1.389516
     7  N    4.206119   3.704403   2.407672   1.390175   2.480947
     8  C    5.044644   4.754572   3.548161   2.348556   2.954142
     9  N    6.356130   5.974873   4.679622   3.581012   4.247795
    10  O    5.071851   5.036889   4.047155   2.812308   2.936082
    11  C    7.486201   7.146167   5.876314   4.790994   5.347308
    12  C    8.786256   8.355948   7.024088   6.010252   6.656894
    13  C   10.000493   9.605210   8.298365   7.284490   7.860177
    14  H    3.374595   2.141241   1.086682   2.150943   3.387156
    15  H    3.381392   3.877622   3.390113   2.164331   1.084848
    16  H    6.574239   6.008130   4.644632   3.758581   4.666608
    17  H    7.515255   7.094947   5.845115   4.906733   5.557433
    18  H    7.616216   7.471319   6.301491   5.083831   5.356813
    19  H    8.970094   8.620263   7.310774   6.218895   6.755795
    20  H    8.854119   8.261859   6.884621   6.040763   6.887686
    21  H   10.142523   9.891796   8.646034   7.523768   7.912304
    22  H   10.919754  10.477477   9.140535   8.158941   8.781118
    23  H   10.044511   9.583925   8.291003   7.380651   8.030519
    24  O    1.411051   2.480201   3.723768   4.225883   3.646725
    25  C    2.385436   2.877014   4.267042   5.095190   4.782252
    26  F    3.497908   4.187044   5.566605   6.297545   5.806462
    27  F    2.858413   2.935157   4.248074   5.233675   5.140705
    28  F    2.866924   2.946386   4.261061   5.244465   5.155331
    29  H    2.170500   1.084428   2.143879   3.426520   3.877192
    30  H    2.142670   3.393829   3.856587   3.432635   2.158917
                    6          7          8          9         10
     6  C    0.000000
     7  N    3.740397   0.000000
     8  C    4.314642   1.332987   0.000000
     9  N    5.630447   2.295594   1.397443   0.000000
    10  O    4.178684   2.341973   1.271087   2.281710   0.000000
    11  C    6.705605   3.594698   2.460779   1.458675   2.747922
    12  C    8.038901   4.695658   3.759486   2.451472   4.236920
    13  C    9.218553   6.028396   4.974023   3.807279   5.175840
    14  H    3.856961   2.611339   3.807109   4.726410   4.498971
    15  H    2.137314   2.742612   2.771587   3.945370   2.543719
    16  H    6.015485   2.370247   2.013599   1.015291   3.126239
    17  H    6.849499   3.802400   2.732053   2.121459   2.839697
    18  H    6.678851   4.057806   2.771488   2.088735   2.631899
    19  H    8.142735   4.917463   4.038715   2.688016   4.576722
    20  H    8.255980   4.669817   3.985331   2.677983   4.690574
    21  H    9.244732   6.357887   5.175746   4.130475   5.152730
    22  H   10.155373   6.851735   5.882193   4.619419   6.190751
    23  H    9.350190   6.170748   5.138627   4.126775   5.261494
    24  O    2.354734   5.613941   6.412016   7.738198   6.333193
    25  C    3.598213   6.451333   7.368512   8.669591   7.381587
    26  F    4.501757   7.674212   8.528838   9.851334   8.445673
    27  F    4.126306   6.498921   7.580282   8.779679   7.810533
    28  F    4.139786   6.537830   7.421346   8.728726   7.398073
    29  H    3.411461   4.550883   5.659933   6.820524   5.996937
    30  H    1.086392   4.633925   5.030055   6.316681   4.714982
                   11         12         13         14         15
    11  C    0.000000
    12  C    1.522055   0.000000
    13  C    2.520374   1.525707   0.000000
    14  H    5.895869   6.904895   8.180176   0.000000
    15  H    4.931039   6.236137   7.382555   4.294255   0.000000
    16  H    2.082979   2.572257   4.034375   4.484838   4.538675
    17  H    1.101411   2.155613   2.731405   5.787584   5.275257
    18  H    1.094251   2.150833   2.763956   6.490115   4.753234
    19  H    2.148750   1.096963   2.162382   7.261661   6.240227
    20  H    2.150129   1.098009   2.160460   6.601309   6.622055
    21  H    2.778017   2.173076   1.095897   8.656793   7.311610
    22  H    3.476960   2.175670   1.094354   8.958366   8.306558
    23  H    2.784558   2.173936   1.095795   8.111425   7.646444
    24  O    8.840009  10.165471  11.355664   4.612656   4.491914
    25  C    9.793427  11.085283  12.291020   4.938982   5.712577
    26  F   10.951665  12.274263  13.459197   6.268775   6.636432
    27  F   10.014165  11.193657  12.489380   4.748221   6.116779
    28  F    9.753763  11.064993  12.194401   4.763704   6.139537
    29  H    7.982802   9.141801  10.387644   2.446269   4.961797
    30  H    7.312310   8.663605   9.787941   4.943144   2.472846
                   16         17         18         19         20
    16  H    0.000000
    17  H    2.601675   0.000000
    18  H    2.945401   1.765352   0.000000
    19  H    2.799736   3.059802   2.481283   0.000000
    20  H    2.377625   2.513178   3.055123   1.763932   0.000000
    21  H    4.577771   3.076612   2.570923   2.522821   3.077010
    22  H    4.686769   3.744337   3.764440   2.504703   2.507212
    23  H    4.332118   2.539862   3.137445   3.078477   2.516222
    24  O    7.980303   8.853095   8.908639  10.334956  10.258165
    25  C    8.805511   9.734738   9.958827  11.304884  11.077203
    26  F   10.039406  10.906116  11.042222  12.466541  12.316948
    27  F    8.773946  10.018329  10.282951  11.360960  11.084184
    28  F    8.843286   9.546236   9.981696  11.410642  11.005179
    29  H    6.751347   7.862442   8.386043   9.449456   8.952496
    30  H    6.800962   7.505780   7.138598   8.705090   8.984608
                   21         22         23         24         25
    21  H    0.000000
    22  H    1.770501   0.000000
    23  H    1.771367   1.770449   0.000000
    24  O   11.453781  12.291287  11.389380   0.000000
    25  C   12.466813  13.209025  12.264739   1.339224   0.000000
    26  F   13.577159  14.395932  13.444532   2.160146   1.332211
    27  F   12.751178  13.340712  12.507907   2.238966   1.343353
    28  F   12.417077  13.129048  12.049375   2.238571   1.343363
    29  H   10.741535  11.234366  10.309102   2.780897   2.641503
    30  H    9.705016  10.739218   9.963045   2.528043   3.866728
                   26         27         28         29         30
    26  F    0.000000
    27  F    2.161195   0.000000
    28  F    2.161235   2.158186   0.000000
    29  H    3.961578   2.454877   2.464141   0.000000
    30  H    4.483118   4.545489   4.563052   4.302914   0.000000
 Symmetry turned off by external request.
 Stoichiometry    C11H12F3N2O2(1-)
 Framework group  C1[X(C11H12F3N2O2)]
 Deg. of freedom    84
 Full point group                 C1      NOp   1
 Rotational constants (GHZ):      1.9894382      0.1129023      0.1107938
 General basis read from cards:  (6D, 7F)
   366 basis functions,   624 primitive gaussians,   366 cartesian basis functions
    68 alpha electrons       68 beta electrons
       nuclear repulsion energy      1277.5622675395 Hartrees.
 NAtoms=   30 NActive=   30 NUniq=   30 SFac= 1.00D+00 NAtFMM=   60 NAOKFM=F Big=F
 Integral buffers will be    131072 words long.
 Raffenetti 2 integral format.
 Two-electron integral symmetry is turned off.
 One-electron integrals computed using PRISM.
 NBasis=   366 RedAO= T EigKep=  2.19D-06  NBF=   366
 NBsUse=   366 1.00D-06 EigRej= -1.00D+00 NBFU=   366
 ExpMin= 4.38D-02 ExpMax= 7.00D+03 ExpMxC= 1.05D+03 IAcc=3 IRadAn=         5 AccDes= 0.00D+00
 Harris functional with IExCor= 1009 and IRadAn=       5 diagonalized for initial guess.
 HarFok:  IExCor= 1009 AccDes= 0.00D+00 IRadAn=         5 IDoV= 1 UseB2=F ITyADJ=14
 ICtDFT=  3500011 ScaDFX=  1.000000  1.000000  1.000000  1.000000
 FoFCou: FMM=F IPFlag=           0 FMFlag=      100000 FMFlg1=           0
         NFxFlg=           0 DoJE=T BraDBF=F KetDBF=T FulRan=T
         wScrn=  0.000000 ICntrl=     500 IOpCl=  0 I1Cent=   200000004 NGrid=           0
         NMat0=    1 NMatS0=      1 NMatT0=    0 NMatD0=    1 NMtDS0=    0 NMtDT0=    0
 Symmetry not used in FoFCou.
 Requested convergence on RMS density matrix=1.00D-08 within 128 cycles.
 Requested convergence on MAX density matrix=1.00D-06.
 Requested convergence on             energy=1.00D-06.
 No special actions if energy rises.
 SCF Done:  E(RM062X) =  -985.609473370     A.U. after   16 cycles
            NFock= 16  Conv=0.50D-08     -V/T= 2.0081

 **********************************************************************

            Population analysis using the SCF density.

 **********************************************************************

 Alpha  occ. eigenvalues --  -25.22072 -25.21479 -25.21433 -19.60599 -19.42436
 Alpha  occ. eigenvalues --  -14.62009 -14.55537 -10.76776 -10.49367 -10.48921
 Alpha  occ. eigenvalues --  -10.45376 -10.45241 -10.44851 -10.44157 -10.43541
 Alpha  occ. eigenvalues --  -10.43064 -10.41528 -10.41318  -1.39460  -1.29695
 Alpha  occ. eigenvalues --   -1.29038  -1.12803  -0.97165  -0.86588  -0.85020
 Alpha  occ. eigenvalues --   -0.81027  -0.77651  -0.74132  -0.71820  -0.68881
 Alpha  occ. eigenvalues --   -0.65799  -0.62282  -0.61930  -0.61915  -0.57337
 Alpha  occ. eigenvalues --   -0.56029  -0.53413  -0.49965  -0.49373  -0.49254
 Alpha  occ. eigenvalues --   -0.47254  -0.45312  -0.45045  -0.44965  -0.43708
 Alpha  occ. eigenvalues --   -0.42779  -0.42231  -0.40825  -0.38487  -0.38241
 Alpha  occ. eigenvalues --   -0.37460  -0.36766  -0.36488  -0.36219  -0.33514
 Alpha  occ. eigenvalues --   -0.33044  -0.32054  -0.30923  -0.29754  -0.29042
 Alpha  occ. eigenvalues --   -0.28216  -0.27190  -0.21418  -0.18184  -0.16890
 Alpha  occ. eigenvalues --   -0.15976  -0.13643  -0.09035
 Alpha virt. eigenvalues --    0.10095   0.10723   0.11774   0.12661   0.12893
 Alpha virt. eigenvalues --    0.13461   0.13601   0.14347   0.14820   0.15195
 Alpha virt. eigenvalues --    0.15630   0.16192   0.16615   0.16750   0.16936
 Alpha virt. eigenvalues --    0.17636   0.18245   0.19152   0.19339   0.19513
 Alpha virt. eigenvalues --    0.20458   0.20863   0.21734   0.22094   0.23328
 Alpha virt. eigenvalues --    0.24003   0.24488   0.25188   0.25588   0.25921
 Alpha virt. eigenvalues --    0.26272   0.27255   0.27941   0.28064   0.28486
 Alpha virt. eigenvalues --    0.29334   0.29904   0.30584   0.30932   0.31042
 Alpha virt. eigenvalues --    0.32258   0.32553   0.32933   0.33376   0.33534
 Alpha virt. eigenvalues --    0.34062   0.34542   0.34967   0.35320   0.35646
 Alpha virt. eigenvalues --    0.35732   0.35935   0.36714   0.37205   0.37701
 Alpha virt. eigenvalues --    0.37937   0.38626   0.38770   0.38978   0.39989
 Alpha virt. eigenvalues --    0.40338   0.40987   0.41254   0.41408   0.42214
 Alpha virt. eigenvalues --    0.42740   0.42901   0.43458   0.43622   0.43935
 Alpha virt. eigenvalues --    0.44006   0.44254   0.45051   0.45366   0.45987
 Alpha virt. eigenvalues --    0.46241   0.46774   0.47391   0.47684   0.48718
 Alpha virt. eigenvalues --    0.48824   0.49031   0.49424   0.50368   0.50644
 Alpha virt. eigenvalues --    0.51308   0.52188   0.52526   0.52665   0.53383
 Alpha virt. eigenvalues --    0.54140   0.54987   0.55626   0.56733   0.57270
 Alpha virt. eigenvalues --    0.58615   0.59184   0.60291   0.62062   0.64339
 Alpha virt. eigenvalues --    0.65956   0.67515   0.69006   0.73602   0.77352
 Alpha virt. eigenvalues --    0.78123   0.79216   0.81069   0.82594   0.82952
 Alpha virt. eigenvalues --    0.85864   0.86398   0.87640   0.88899   0.89895
 Alpha virt. eigenvalues --    0.91330   0.91818   0.92996   0.93677   0.94505
 Alpha virt. eigenvalues --    0.94998   0.96210   0.97218   0.97624   0.98997
 Alpha virt. eigenvalues --    1.01312   1.01762   1.03627   1.04193   1.06445
 Alpha virt. eigenvalues --    1.07989   1.09627   1.11250   1.12350   1.12925
 Alpha virt. eigenvalues --    1.13517   1.14043   1.15390   1.16819   1.17597
 Alpha virt. eigenvalues --    1.19108   1.20766   1.21459   1.22735   1.24094
 Alpha virt. eigenvalues --    1.25567   1.26021   1.27146   1.27815   1.28023
 Alpha virt. eigenvalues --    1.28335   1.28702   1.29991   1.30318   1.33545
 Alpha virt. eigenvalues --    1.34686   1.37269   1.37580   1.39070   1.39937
 Alpha virt. eigenvalues --    1.42510   1.43882   1.45508   1.46322   1.48034
 Alpha virt. eigenvalues --    1.49754   1.51234   1.53940   1.56011   1.56308
 Alpha virt. eigenvalues --    1.57867   1.59659   1.61064   1.61941   1.62554
 Alpha virt. eigenvalues --    1.63793   1.64781   1.65748   1.67100   1.68676
 Alpha virt. eigenvalues --    1.69832   1.71451   1.72300   1.74704   1.77005
 Alpha virt. eigenvalues --    1.77666   1.78509   1.79976   1.80773   1.81255
 Alpha virt. eigenvalues --    1.81616   1.82807   1.84563   1.87595   1.89221
 Alpha virt. eigenvalues --    1.89284   1.92870   1.95860   1.96869   1.97560
 Alpha virt. eigenvalues --    1.99234   1.99463   2.00709   2.01869   2.03093
 Alpha virt. eigenvalues --    2.04119   2.04531   2.05537   2.05909   2.08113
 Alpha virt. eigenvalues --    2.08258   2.09401   2.10155   2.11251   2.12020
 Alpha virt. eigenvalues --    2.14180   2.14388   2.15648   2.17150   2.19068
 Alpha virt. eigenvalues --    2.19229   2.19438   2.20495   2.21125   2.21875
 Alpha virt. eigenvalues --    2.22485   2.23285   2.24420   2.24617   2.26647
 Alpha virt. eigenvalues --    2.28169   2.29917   2.32985   2.34337   2.35441
 Alpha virt. eigenvalues --    2.38329   2.39073   2.40859   2.42461   2.44130
 Alpha virt. eigenvalues --    2.46200   2.47265   2.49061   2.50658   2.52677
 Alpha virt. eigenvalues --    2.54950   2.56105   2.60538   2.62626   2.67514
 Alpha virt. eigenvalues --    2.70350   2.72690   2.74142   2.75172   2.77228
 Alpha virt. eigenvalues --    2.78839   2.80445   2.81732   2.83203   2.86497
 Alpha virt. eigenvalues --    2.87958   2.91049   2.92386   2.93703   2.95441
 Alpha virt. eigenvalues --    2.98193   3.00228   3.02109   3.08596   3.11378
 Alpha virt. eigenvalues --    3.14666   3.23179   3.25650   3.28770   3.33161
 Alpha virt. eigenvalues --    3.37342   3.40111   3.47031   3.52541   3.59930
 Alpha virt. eigenvalues --    4.30907   4.37159   4.42257   4.48048   4.51291
 Alpha virt. eigenvalues --    4.52787   4.55223   4.56516   4.60952   4.65577
 Alpha virt. eigenvalues --    4.69270   4.71964   4.78299   4.81669   4.99647
 Alpha virt. eigenvalues --    5.68209   6.32318   7.11838
          Condensed to atoms (all electrons):
               1          2          3          4          5          6
     1  C   12.808824  -0.500047   2.214199  -3.873579  -1.028665  -3.464641
     2  C   -0.500047  13.836266  -7.119601   1.290363  -0.483205  -1.554583
     3  C    2.214199  -7.119601  22.561520  -6.461778  -1.909581  -2.583476
     4  C   -3.873579   1.290363  -6.461778  12.783767   0.651086   2.365813
     5  C   -1.028665  -0.483205  -1.909581   0.651086  10.472198  -2.415891
     6  C   -3.464641  -1.554583  -2.583476   2.365813  -2.415891  14.970661
     7  N    0.028607   0.002244  -0.278139   0.774388  -0.017742  -0.118496
     8  C   -0.492138  -0.318266   0.018586  -0.898242   0.182869  -0.155345
     9  N    0.008224   0.031897  -0.126988  -0.127591   0.048418   0.091263
    10  O   -0.031727   0.034995  -0.043663  -0.044102  -0.021219   0.074184
    11  C   -0.011686  -0.025140   0.088229  -0.251448  -0.051482  -0.049161
    12  C    0.001311   0.000502  -0.013375   0.001616   0.010340   0.001962
    13  C   -0.000167   0.000230  -0.004381  -0.001651   0.001267  -0.000658
    14  H   -0.007658  -0.064137   0.214787   0.132771   0.062181  -0.026750
    15  H    0.081205   0.005742   0.016856  -0.008372   0.332911  -0.100097
    16  H    0.000384  -0.000345  -0.007564   0.012263   0.000477  -0.002629
    17  H   -0.000177  -0.000323  -0.001613   0.006556  -0.001408  -0.000671
    18  H    0.000139   0.000104  -0.000204  -0.005785   0.002575   0.000620
    19  H   -0.000002  -0.000001  -0.000372   0.000105   0.000548   0.000043
    20  H    0.000002   0.000024   0.000525  -0.001942  -0.000477  -0.000026
    21  H   -0.000000   0.000000   0.000017  -0.000016  -0.000045  -0.000003
    22  H   -0.000000   0.000000   0.000004  -0.000029  -0.000009  -0.000000
    23  H    0.000000   0.000000  -0.000022   0.000046   0.000026   0.000002
    24  O    0.153419   0.054102  -0.014557   0.005305   0.066841  -0.376239
    25  C    0.266708  -0.007443  -0.172853  -0.170166  -0.076406  -0.243918
    26  F   -0.023343   0.026014   0.017280   0.000573  -0.002135  -0.001849
    27  F    0.043350  -0.051609   0.051380  -0.012508  -0.001337  -0.010986
    28  F    0.009740  -0.014692   0.030517   0.012102   0.000580  -0.002299
    29  H    0.093649   0.272214  -0.029208  -0.039144  -0.007168  -0.002403
    30  H    0.043567   0.046173  -0.030439   0.004384  -0.034740   0.279065
               7          8          9         10         11         12
     1  C    0.028607  -0.492138   0.008224  -0.031727  -0.011686   0.001311
     2  C    0.002244  -0.318266   0.031897   0.034995  -0.025140   0.000502
     3  C   -0.278139   0.018586  -0.126988  -0.043663   0.088229  -0.013375
     4  C    0.774388  -0.898242  -0.127591  -0.044102  -0.251448   0.001616
     5  C   -0.017742   0.182869   0.048418  -0.021219  -0.051482   0.010340
     6  C   -0.118496  -0.155345   0.091263   0.074184  -0.049161   0.001962
     7  N    7.610745   0.191997  -0.509768  -0.164661   0.016395  -0.046391
     8  C    0.191997   6.735176   0.089701   0.509499  -0.397889   0.030869
     9  N   -0.509768   0.089701   8.006039  -0.233506   0.171221  -0.032938
    10  O   -0.164661   0.509499  -0.233506   8.587468  -0.007604   0.010481
    11  C    0.016395  -0.397889   0.171221  -0.007604   6.820888  -0.558819
    12  C   -0.046391   0.030869  -0.032938   0.010481  -0.558819   6.473969
    13  C    0.008806  -0.014137   0.002155   0.005265  -0.070091  -0.087664
    14  H   -0.006205  -0.002291  -0.000582  -0.000027  -0.000251   0.000011
    15  H   -0.003004  -0.017211  -0.000381  -0.003960  -0.001983  -0.000167
    16  H    0.005742   0.041444   0.257169   0.010289  -0.098761   0.015967
    17  H    0.021679   0.016297  -0.138633   0.009416   0.510837  -0.151643
    18  H   -0.012649  -0.009157  -0.011739  -0.006980   0.369726   0.008220
    19  H    0.001441  -0.001255   0.000357   0.000127  -0.060074   0.414439
    20  H   -0.002897  -0.007366   0.005120  -0.000456  -0.091144   0.453234
    21  H   -0.000044  -0.001153   0.000177  -0.000100  -0.015760  -0.052993
    22  H    0.000009  -0.001077   0.000705   0.000005   0.035362  -0.098741
    23  H    0.000050  -0.001276  -0.000285  -0.000002  -0.011847  -0.059014
    24  O   -0.000099   0.004183  -0.000032   0.000026   0.000034  -0.000000
    25  C    0.001499  -0.017491   0.000487  -0.000213  -0.000207   0.000018
    26  F    0.000002   0.000045  -0.000000  -0.000000   0.000000  -0.000000
    27  F   -0.000020  -0.000325   0.000001  -0.000001  -0.000001   0.000000
    28  F    0.000017   0.000134   0.000000  -0.000002  -0.000001   0.000000
    29  H    0.000363   0.001392   0.000002  -0.000004   0.000012  -0.000000
    30  H   -0.000768  -0.003023  -0.000045   0.000136  -0.000065   0.000001
              13         14         15         16         17         18
     1  C   -0.000167  -0.007658   0.081205   0.000384  -0.000177   0.000139
     2  C    0.000230  -0.064137   0.005742  -0.000345  -0.000323   0.000104
     3  C   -0.004381   0.214787   0.016856  -0.007564  -0.001613  -0.000204
     4  C   -0.001651   0.132771  -0.008372   0.012263   0.006556  -0.005785
     5  C    0.001267   0.062181   0.332911   0.000477  -0.001408   0.002575
     6  C   -0.000658  -0.026750  -0.100097  -0.002629  -0.000671   0.000620
     7  N    0.008806  -0.006205  -0.003004   0.005742   0.021679  -0.012649
     8  C   -0.014137  -0.002291  -0.017211   0.041444   0.016297  -0.009157
     9  N    0.002155  -0.000582  -0.000381   0.257169  -0.138633  -0.011739
    10  O    0.005265  -0.000027  -0.003960   0.010289   0.009416  -0.006980
    11  C   -0.070091  -0.000251  -0.001983  -0.098761   0.510837   0.369726
    12  C   -0.087664   0.000011  -0.000167   0.015967  -0.151643   0.008220
    13  C    5.700438   0.000002   0.000013   0.006481   0.015066  -0.015520
    14  H    0.000002   0.514646  -0.000139   0.000006   0.000000  -0.000000
    15  H    0.000013  -0.000139   0.485257   0.000010  -0.000000   0.000000
    16  H    0.006481   0.000006   0.000010   0.381386   0.000979   0.003289
    17  H    0.015066   0.000000  -0.000000   0.000979   0.571858  -0.043977
    18  H   -0.015520  -0.000000   0.000000   0.003289  -0.043977   0.504367
    19  H   -0.037318   0.000000   0.000000  -0.000154   0.004734  -0.006246
    20  H   -0.044864  -0.000000  -0.000000   0.002506  -0.006919   0.004460
    21  H    0.417937  -0.000000  -0.000000  -0.000000  -0.000554   0.002773
    22  H    0.414612  -0.000000  -0.000000  -0.000001  -0.000055  -0.000092
    23  H    0.420301   0.000000   0.000000   0.000004   0.002606  -0.000201
    24  O    0.000000  -0.000541  -0.000470   0.000000   0.000000  -0.000000
    25  C   -0.000000   0.000654   0.001116   0.000002  -0.000001   0.000000
    26  F   -0.000000  -0.000000  -0.000000  -0.000000   0.000000  -0.000000
    27  F   -0.000000   0.000020   0.000003   0.000000  -0.000000   0.000000
    28  F    0.000000   0.000033   0.000003  -0.000000  -0.000000   0.000000
    29  H   -0.000000  -0.004696   0.000015  -0.000000  -0.000000   0.000000
    30  H   -0.000000   0.000014  -0.003923   0.000000   0.000000  -0.000000
              19         20         21         22         23         24
     1  C   -0.000002   0.000002  -0.000000  -0.000000   0.000000   0.153419
     2  C   -0.000001   0.000024   0.000000   0.000000   0.000000   0.054102
     3  C   -0.000372   0.000525   0.000017   0.000004  -0.000022  -0.014557
     4  C    0.000105  -0.001942  -0.000016  -0.000029   0.000046   0.005305
     5  C    0.000548  -0.000477  -0.000045  -0.000009   0.000026   0.066841
     6  C    0.000043  -0.000026  -0.000003  -0.000000   0.000002  -0.376239
     7  N    0.001441  -0.002897  -0.000044   0.000009   0.000050  -0.000099
     8  C   -0.001255  -0.007366  -0.001153  -0.001077  -0.001276   0.004183
     9  N    0.000357   0.005120   0.000177   0.000705  -0.000285  -0.000032
    10  O    0.000127  -0.000456  -0.000100   0.000005  -0.000002   0.000026
    11  C   -0.060074  -0.091144  -0.015760   0.035362  -0.011847   0.000034
    12  C    0.414439   0.453234  -0.052993  -0.098741  -0.059014  -0.000000
    13  C   -0.037318  -0.044864   0.417937   0.414612   0.420301   0.000000
    14  H    0.000000  -0.000000  -0.000000  -0.000000   0.000000  -0.000541
    15  H    0.000000  -0.000000  -0.000000  -0.000000   0.000000  -0.000470
    16  H   -0.000154   0.002506  -0.000000  -0.000001   0.000004   0.000000
    17  H    0.004734  -0.006919  -0.000554  -0.000055   0.002606   0.000000
    18  H   -0.006246   0.004460   0.002773  -0.000092  -0.000201  -0.000000
    19  H    0.511229  -0.037468  -0.004790  -0.002879   0.004013   0.000000
    20  H   -0.037468   0.540787   0.004294  -0.003042  -0.004766  -0.000000
    21  H   -0.004790   0.004294   0.505389  -0.028187  -0.031017  -0.000000
    22  H   -0.002879  -0.003042  -0.028187   0.523262  -0.028405   0.000000
    23  H    0.004013  -0.004766  -0.031017  -0.028405   0.506021   0.000000
    24  O    0.000000  -0.000000  -0.000000   0.000000   0.000000   8.508100
    25  C   -0.000000   0.000000   0.000000  -0.000000   0.000000   0.238240
    26  F    0.000000  -0.000000  -0.000000   0.000000   0.000000  -0.030632
    27  F   -0.000000   0.000000   0.000000  -0.000000   0.000000  -0.077298
    28  F    0.000000  -0.000000   0.000000  -0.000000   0.000000  -0.074068
    29  H   -0.000000   0.000000   0.000000  -0.000000   0.000000  -0.011744
    30  H    0.000000  -0.000000  -0.000000  -0.000000   0.000000  -0.005179
              25         26         27         28         29         30
     1  C    0.266708  -0.023343   0.043350   0.009740   0.093649   0.043567
     2  C   -0.007443   0.026014  -0.051609  -0.014692   0.272214   0.046173
     3  C   -0.172853   0.017280   0.051380   0.030517  -0.029208  -0.030439
     4  C   -0.170166   0.000573  -0.012508   0.012102  -0.039144   0.004384
     5  C   -0.076406  -0.002135  -0.001337   0.000580  -0.007168  -0.034740
     6  C   -0.243918  -0.001849  -0.010986  -0.002299  -0.002403   0.279065
     7  N    0.001499   0.000002  -0.000020   0.000017   0.000363  -0.000768
     8  C   -0.017491   0.000045  -0.000325   0.000134   0.001392  -0.003023
     9  N    0.000487  -0.000000   0.000001   0.000000   0.000002  -0.000045
    10  O   -0.000213  -0.000000  -0.000001  -0.000002  -0.000004   0.000136
    11  C   -0.000207   0.000000  -0.000001  -0.000001   0.000012  -0.000065
    12  C    0.000018  -0.000000   0.000000   0.000000  -0.000000   0.000001
    13  C   -0.000000  -0.000000  -0.000000   0.000000  -0.000000  -0.000000
    14  H    0.000654  -0.000000   0.000020   0.000033  -0.004696   0.000014
    15  H    0.001116  -0.000000   0.000003   0.000003   0.000015  -0.003923
    16  H    0.000002  -0.000000   0.000000  -0.000000  -0.000000   0.000000
    17  H   -0.000001   0.000000  -0.000000  -0.000000  -0.000000   0.000000
    18  H    0.000000  -0.000000   0.000000   0.000000   0.000000  -0.000000
    19  H   -0.000000   0.000000  -0.000000   0.000000  -0.000000   0.000000
    20  H    0.000000  -0.000000   0.000000  -0.000000   0.000000  -0.000000
    21  H    0.000000  -0.000000   0.000000   0.000000   0.000000  -0.000000
    22  H   -0.000000   0.000000  -0.000000  -0.000000  -0.000000  -0.000000
    23  H    0.000000   0.000000   0.000000   0.000000   0.000000   0.000000
    24  O    0.238240  -0.030632  -0.077298  -0.074068  -0.011744  -0.005179
    25  C    4.302455   0.195499   0.222254   0.204897   0.016419  -0.001897
    26  F    0.195499   9.258727  -0.048170  -0.048700   0.000759   0.000014
    27  F    0.222254  -0.048170   9.295188  -0.070525  -0.000614   0.000022
    28  F    0.204897  -0.048700  -0.070525   9.289536  -0.001156   0.000022
    29  H    0.016419   0.000759  -0.000614  -0.001156   0.518382  -0.000145
    30  H   -0.001897   0.000014   0.000022   0.000022  -0.000145   0.515633
 Mulliken charges:
               1
     1  C   -0.319496
     2  C    0.538521
     3  C   -0.416088
     4  C   -0.144784
     5  C    0.219195
     6  C   -0.673491
     7  N   -0.503102
     8  C    0.515450
     9  N   -0.530450
    10  O   -0.683665
    11  C   -0.309288
    12  C   -0.321197
    13  C   -0.716121
    14  H    0.188151
    15  H    0.216577
    16  H    0.371056
    17  H    0.185945
    18  H    0.216276
    19  H    0.213522
    20  H    0.190416
    21  H    0.204077
    22  H    0.188559
    23  H    0.203764
    24  O   -0.439393
    25  C    1.240344
    26  F   -0.344085
    27  F   -0.338825
    28  F   -0.336137
    29  H    0.193076
    30  H    0.191191
 Sum of Mulliken charges =  -1.00000
 Mulliken charges with hydrogens summed into heavy atoms:
               1
     1  C   -0.319496
     2  C    0.731598
     3  C   -0.227937
     4  C   -0.144784
     5  C    0.435772
     6  C   -0.482300
     7  N   -0.503102
     8  C    0.515450
     9  N   -0.159393
    10  O   -0.683665
    11  C    0.092933
    12  C    0.082741
    13  C   -0.119721
    24  O   -0.439393
    25  C    1.240344
    26  F   -0.344085
    27  F   -0.338825
    28  F   -0.336137
 Electronic spatial extent (au):  <R**2>=          14399.0300
 Charge=             -1.0000 electrons
 Dipole moment (field-independent basis, Debye):
    X=              7.0250    Y=            -13.4753    Z=              0.1267  Tot=             15.1971
 Quadrupole moment (field-independent basis, Debye-Ang):
   XX=           -157.7543   YY=           -152.6641   ZZ=           -115.7770
   XY=             26.3626   XZ=            -13.0349   YZ=             -2.5729
 Traceless Quadrupole moment (field-independent basis, Debye-Ang):
   XX=            -15.6892   YY=            -10.5989   ZZ=             26.2881
   XY=             26.3626   XZ=            -13.0349   YZ=             -2.5729
 Octapole moment (field-independent basis, Debye-Ang**2):
  XXX=            819.2636  YYY=           -973.8614  ZZZ=             13.8869  XYY=            292.3294
  XXY=           -456.0557  XXZ=             64.0428  XZZ=            204.5135  YZZ=           -293.1563
  YYZ=             -7.0278  XYZ=            -43.1219
 Hexadecapole moment (field-independent basis, Debye-Ang**3):
 XXXX=         -12909.3196 YYYY=          -5827.1407 ZZZZ=          -1428.8766 XXXY=           3692.9913
 XXXZ=          -2048.3893 YYYX=           2988.9122 YYYZ=            442.3312 ZZZX=          -1602.1232
 ZZZY=            492.0020 XXYY=          -3450.7304 XXZZ=          -2262.6165 YYZZ=          -1179.1132
 XXYZ=            414.1976 YYXZ=           -683.6245 ZZXY=            928.8024
 N-N= 1.277562267540D+03 E-N=-4.882769193268D+03  KE= 9.776931816578D+02
 Calling FoFJK, ICntrl=      2127 FMM=F ISym2X=0 I1Cent= 0 IOpClX= 0 NMat=1 NMatS=1 NMatT=0.
 -------------------------------------------------------------------
 Center     Atomic                   Forces (Hartrees/Bohr)
 Number     Number              X              Y              Z
 -------------------------------------------------------------------
      1        6           0.001785905   -0.001947267    0.001325097
      2        6           0.002146405   -0.000153212   -0.000139165
      3        6          -0.003937226   -0.000133386   -0.000777942
      4        6           0.016026614   -0.009665483    0.005369120
      5        6          -0.001404706    0.004699303   -0.002623786
      6        6           0.001966647   -0.003001219    0.001419047
      7        7          -0.011409977   -0.002055698   -0.003089340
      8        6          -0.007124221    0.038095877    0.003957131
      9        7           0.013136110   -0.009897243    0.004576425
     10        8           0.002026597   -0.021209168   -0.005796506
     11        6          -0.006386749   -0.000645668   -0.005306467
     12        6          -0.000145424    0.001213772   -0.000497655
     13        6           0.000837138   -0.001551122    0.000278900
     14        1           0.002073456    0.000192991    0.000106174
     15        1           0.000675871   -0.000791877    0.003007212
     16        1          -0.002259148    0.001259815   -0.001139720
     17        1           0.000098683    0.001306604    0.001497102
     18        1          -0.001960887    0.001200089   -0.000151761
     19        1          -0.000526645   -0.000346593   -0.000428468
     20        1           0.000522960   -0.001171935    0.000319815
     21        1          -0.000329749    0.000180241    0.000150286
     22        1           0.001104008   -0.000307412    0.000577119
     23        1           0.000035897    0.000447276    0.000055924
     24        8          -0.013615181    0.000509469   -0.000941319
     25        6           0.018542431    0.003496091   -0.000861610
     26        9          -0.004386342    0.002059976   -0.001419832
     27        9          -0.003166178   -0.002284987   -0.000864973
     28        9          -0.003154325   -0.000667046    0.001964294
     29        1          -0.000576529    0.000894288   -0.000439227
     30        1          -0.000595436    0.000273526   -0.000125875
 -------------------------------------------------------------------
 Cartesian Forces:  Max     0.038095877 RMS     0.006330081

 GradGradGradGradGradGradGradGradGradGradGradGradGradGradGradGradGradGrad
 Berny optimization.
 FormGI is forming the generalized inverse of G from B-inverse, IUseBI=4.
 Internal  Forces:  Max     0.021716195 RMS     0.003121590
 Search for a local minimum.
 Step number   1 out of a maximum of  151
 All quantities printed in internal units (Hartrees-Bohrs-Radians)
 Mixed Optimization -- RFO/linear search
 Second derivative matrix not updated -- first step.
 ITU=  0
     Eigenvalues ---    0.00426   0.00474   0.00916   0.01546   0.01726
     Eigenvalues ---    0.01822   0.01943   0.01995   0.02058   0.02063
     Eigenvalues ---    0.02078   0.02110   0.02152   0.02196   0.02224
     Eigenvalues ---    0.02225   0.02343   0.02496   0.02578   0.03709
     Eigenvalues ---    0.04427   0.04925   0.05541   0.05573   0.05593
     Eigenvalues ---    0.08193   0.09153   0.12087   0.12678   0.13533
     Eigenvalues ---    0.15331   0.15998   0.16000   0.16000   0.16000
     Eigenvalues ---    0.16000   0.16000   0.16000   0.16210   0.21897
     Eigenvalues ---    0.21913   0.22000   0.22795   0.22960   0.23991
     Eigenvalues ---    0.24897   0.24999   0.25000   0.25000   0.25000
     Eigenvalues ---    0.25000   0.25000   0.25000   0.25000   0.29823
     Eigenvalues ---    0.30169   0.33527   0.33903   0.34020   0.34140
     Eigenvalues ---    0.34151   0.34314   0.34326   0.35199   0.35233
     Eigenvalues ---    0.35415   0.35465   0.37131   0.41223   0.41756
     Eigenvalues ---    0.43837   0.44884   0.45098   0.46047   0.46243
     Eigenvalues ---    0.46920   0.47288   0.47418   0.56458   0.56460
     Eigenvalues ---    0.57379   0.58806   0.58986   0.75908
 RFO step:  Lambda=-5.96553990D-03 EMin= 4.25886786D-03
 Linear search not attempted -- first point.
 Iteration  1 RMS(Cart)=  0.13473929 RMS(Int)=  0.00788970
 Iteration  2 RMS(Cart)=  0.01943791 RMS(Int)=  0.00011007
 Iteration  3 RMS(Cart)=  0.00019167 RMS(Int)=  0.00005508
 Iteration  4 RMS(Cart)=  0.00000002 RMS(Int)=  0.00005508
 Variable       Old X    -DE/DX   Delta X   Delta X   Delta X     New X
                                 (Linear)    (Quad)   (Total)
    R1        2.62468  -0.00018   0.00000  -0.00046  -0.00047   2.62421
    R2        2.62655   0.00117   0.00000   0.00231   0.00232   2.62887
    R3        2.66650   0.00686   0.00000   0.01543   0.01543   2.68193
    R4        2.63586   0.00086   0.00000   0.00188   0.00186   2.63772
    R5        2.04927   0.00005   0.00000   0.00014   0.00014   2.04941
    R6        2.65964   0.00158   0.00000   0.00365   0.00364   2.66328
    R7        2.05353  -0.00028   0.00000  -0.00077  -0.00077   2.05276
    R8        2.67089   0.00150   0.00000   0.00349   0.00350   2.67440
    R9        2.62705  -0.01476   0.00000  -0.03082  -0.03082   2.59623
   R10        2.62580  -0.00035   0.00000  -0.00079  -0.00077   2.62504
   R11        2.05006  -0.00039   0.00000  -0.00108  -0.00108   2.04898
   R12        2.05298   0.00027   0.00000   0.00074   0.00074   2.05372
   R13        2.51898   0.00266   0.00000   0.00447   0.00447   2.52345
   R14        2.64078   0.00815   0.00000   0.01747   0.01747   2.65825
   R15        2.40201  -0.02172   0.00000  -0.02839  -0.02839   2.37362
   R16        2.75650  -0.00698   0.00000  -0.01851  -0.01851   2.73799
   R17        1.91862  -0.00071   0.00000  -0.00156  -0.00156   1.91706
   R18        2.87627   0.00216   0.00000   0.00703   0.00703   2.88330
   R19        2.08137   0.00149   0.00000   0.00436   0.00436   2.08573
   R20        2.06783   0.00029   0.00000   0.00082   0.00082   2.06865
   R21        2.88317   0.00159   0.00000   0.00522   0.00522   2.88839
   R22        2.07296   0.00020   0.00000   0.00059   0.00059   2.07354
   R23        2.07494   0.00088   0.00000   0.00256   0.00256   2.07750
   R24        2.07095  -0.00002   0.00000  -0.00006  -0.00006   2.07089
   R25        2.06803   0.00102   0.00000   0.00293   0.00293   2.07096
   R26        2.07075   0.00007   0.00000   0.00021   0.00021   2.07096
   R27        2.53077  -0.00834   0.00000  -0.01438  -0.01438   2.51638
   R28        2.51751   0.00468   0.00000   0.00785   0.00785   2.52536
   R29        2.53857   0.00297   0.00000   0.00521   0.00521   2.54378
   R30        2.53859   0.00272   0.00000   0.00476   0.00476   2.54335
    A1        2.10973  -0.00174   0.00000  -0.00745  -0.00746   2.10227
    A2        2.17638   0.00101   0.00000   0.00429   0.00427   2.18065
    A3        1.99707   0.00073   0.00000   0.00321   0.00319   2.00026
    A4        2.07012   0.00085   0.00000   0.00341   0.00338   2.07350
    A5        2.13309  -0.00160   0.00000  -0.00878  -0.00877   2.12433
    A6        2.07997   0.00075   0.00000   0.00537   0.00538   2.08535
    A7        2.14029   0.00056   0.00000   0.00256   0.00253   2.14282
    A8        2.07271   0.00184   0.00000   0.01148   0.01148   2.08419
    A9        2.07018  -0.00240   0.00000  -0.01405  -0.01404   2.05614
   A10        2.03442  -0.00133   0.00000  -0.00480  -0.00482   2.02960
   A11        2.07295   0.00097   0.00000   0.00396   0.00393   2.07689
   A12        2.17265   0.00039   0.00000   0.00172   0.00171   2.17436
   A13        2.12099  -0.00004   0.00000  -0.00035  -0.00045   2.12055
   A14        2.08557  -0.00235   0.00000  -0.01396  -0.01411   2.07146
   A15        2.07650   0.00241   0.00000   0.01475   0.01459   2.09109
   A16        2.09069   0.00171   0.00000   0.00691   0.00693   2.09763
   A17        2.08256  -0.00148   0.00000  -0.00718  -0.00721   2.07535
   A18        2.10990  -0.00023   0.00000   0.00034   0.00030   2.11020
   A19        2.07987  -0.00464   0.00000  -0.01812  -0.01812   2.06175
   A20        1.99696  -0.00800   0.00000  -0.03126  -0.03127   1.96568
   A21        2.23628   0.00857   0.00000   0.03345   0.03344   2.26972
   A22        2.04991  -0.00057   0.00000  -0.00225  -0.00225   2.04765
   A23        2.07648  -0.00478   0.00000  -0.02050  -0.02047   2.05601
   A24        1.95778  -0.00017   0.00000  -0.00680  -0.00671   1.95108
   A25        1.98064   0.00411   0.00000   0.02384   0.02381   2.00445
   A26        1.93106  -0.00045   0.00000  -0.00014  -0.00018   1.93088
   A27        1.94006   0.00098   0.00000   0.01068   0.01064   1.95071
   A28        1.90187  -0.00151   0.00000  -0.01739  -0.01736   1.88451
   A29        1.91041   0.00021   0.00000   0.00683   0.00676   1.91718
   A30        1.91118   0.00161   0.00000   0.00972   0.00970   1.92087
   A31        1.86804  -0.00082   0.00000  -0.01002  -0.01002   1.85802
   A32        1.94735   0.00151   0.00000   0.00823   0.00822   1.95557
   A33        1.90557  -0.00089   0.00000  -0.00462  -0.00463   1.90095
   A34        1.90639   0.00031   0.00000   0.00536   0.00537   1.91177
   A35        1.91985   0.00007   0.00000   0.00199   0.00199   1.92183
   A36        1.91613  -0.00108   0.00000  -0.00658  -0.00661   1.90952
   A37        1.86672   0.00001   0.00000  -0.00491  -0.00491   1.86181
   A38        1.93574  -0.00044   0.00000  -0.00381  -0.00382   1.93192
   A39        1.94099   0.00126   0.00000   0.00954   0.00953   1.95052
   A40        1.93705  -0.00001   0.00000  -0.00079  -0.00080   1.93624
   A41        1.88271  -0.00026   0.00000  -0.00019  -0.00018   1.88252
   A42        1.88224  -0.00022   0.00000  -0.00501  -0.00503   1.87721
   A43        1.88275  -0.00038   0.00000  -0.00004  -0.00006   1.88269
   A44        2.09929   0.00233   0.00000   0.00910   0.00910   2.10839
   A45        1.88356   0.00147   0.00000   0.00452   0.00449   1.88806
   A46        1.97493   0.00344   0.00000   0.01399   0.01391   1.98884
   A47        1.97438   0.00348   0.00000   0.01429   0.01420   1.98859
   A48        1.88065  -0.00317   0.00000  -0.01362  -0.01365   1.86700
   A49        1.88069  -0.00303   0.00000  -0.01282  -0.01285   1.86784
   A50        1.86557  -0.00283   0.00000  -0.00903  -0.00915   1.85642
    D1        0.00707  -0.00009   0.00000  -0.00350  -0.00351   0.00355
    D2       -3.13468  -0.00022   0.00000  -0.00861  -0.00859   3.13991
    D3       -3.14035   0.00018   0.00000   0.00679   0.00679  -3.13355
    D4        0.00110   0.00004   0.00000   0.00168   0.00172   0.00281
    D5       -0.00807   0.00014   0.00000   0.00573   0.00576  -0.00231
    D6        3.12597   0.00042   0.00000   0.01618   0.01624  -3.14097
    D7        3.13877  -0.00010   0.00000  -0.00357  -0.00354   3.13523
    D8       -0.01036   0.00018   0.00000   0.00689   0.00694  -0.00342
    D9       -0.00743  -0.00031   0.00000  -0.01364  -0.01368  -0.02111
   D10        3.12868  -0.00007   0.00000  -0.00397  -0.00394   3.12474
   D11        0.00497  -0.00024   0.00000  -0.00953  -0.00957  -0.00460
   D12       -3.13597  -0.00004   0.00000  -0.00130  -0.00124  -3.13721
   D13       -3.13648  -0.00011   0.00000  -0.00458  -0.00461  -3.14109
   D14        0.00577   0.00010   0.00000   0.00365   0.00372   0.00950
   D15       -0.01517   0.00050   0.00000   0.01928   0.01931   0.00415
   D16       -3.07531   0.00018   0.00000   0.00783   0.00790  -3.06741
   D17        3.12577   0.00029   0.00000   0.01107   0.01112   3.13688
   D18        0.06563  -0.00002   0.00000  -0.00038  -0.00029   0.06533
   D19        0.01404  -0.00044   0.00000  -0.01681  -0.01681  -0.00277
   D20       -3.11097  -0.00129   0.00000  -0.04804  -0.04779   3.12442
   D21        3.06901  -0.00008   0.00000  -0.00455  -0.00460   3.06441
   D22       -0.05601  -0.00094   0.00000  -0.03577  -0.03558  -0.09158
   D23       -2.51675  -0.00492   0.00000  -0.20255  -0.20255  -2.71930
   D24        0.71324  -0.00517   0.00000  -0.21466  -0.21467   0.49857
   D25       -0.00292   0.00013   0.00000   0.00488   0.00487   0.00196
   D26       -3.13684  -0.00015   0.00000  -0.00571  -0.00578   3.14056
   D27        3.12218   0.00094   0.00000   0.03568   0.03593  -3.12508
   D28       -0.01175   0.00065   0.00000   0.02509   0.02527   0.01352
   D29       -2.94920  -0.00280   0.00000  -0.08826  -0.08833  -3.03753
   D30        0.20197  -0.00255   0.00000  -0.08021  -0.08014   0.12182
   D31       -2.67799  -0.00045   0.00000  -0.00230  -0.00241  -2.68039
   D32       -0.30698   0.00050   0.00000   0.00451   0.00454  -0.30244
   D33        0.45512  -0.00061   0.00000  -0.00919  -0.00922   0.44590
   D34        2.82613   0.00034   0.00000  -0.00238  -0.00227   2.82386
   D35        3.05600  -0.00012   0.00000   0.02583   0.02578   3.08178
   D36        0.92954  -0.00074   0.00000   0.00994   0.00987   0.93941
   D37       -1.12502   0.00063   0.00000   0.02663   0.02660  -1.09842
   D38        0.69442   0.00075   0.00000   0.03188   0.03193   0.72635
   D39       -1.43203   0.00013   0.00000   0.01599   0.01602  -1.41602
   D40        2.79659   0.00150   0.00000   0.03268   0.03275   2.82934
   D41       -3.12707  -0.00061   0.00000  -0.01805  -0.01808   3.13803
   D42        1.03031  -0.00108   0.00000  -0.02279  -0.02281   1.00751
   D43       -1.00539  -0.00077   0.00000  -0.01732  -0.01732  -1.02271
   D44       -0.98329   0.00046   0.00000  -0.00009  -0.00011  -0.98339
   D45       -3.10909  -0.00001   0.00000  -0.00483  -0.00483  -3.11392
   D46        1.13840   0.00030   0.00000   0.00064   0.00065   1.13905
   D47        1.05950   0.00051   0.00000  -0.00263  -0.00264   1.05686
   D48       -1.06630   0.00005   0.00000  -0.00738  -0.00736  -1.07366
   D49       -3.10200   0.00036   0.00000  -0.00191  -0.00188  -3.10388
   D50       -1.03993   0.00051   0.00000   0.00636   0.00634  -1.03358
   D51       -3.13508   0.00029   0.00000   0.00280   0.00279  -3.13228
   D52        1.05202  -0.00007   0.00000  -0.00299  -0.00300   1.04902
   D53        1.07760   0.00044   0.00000   0.00737   0.00736   1.08497
   D54       -1.01755   0.00022   0.00000   0.00381   0.00381  -1.01373
   D55       -3.11363  -0.00014   0.00000  -0.00198  -0.00198  -3.11561
   D56        3.12723  -0.00015   0.00000  -0.00136  -0.00135   3.12587
   D57        1.03208  -0.00037   0.00000  -0.00492  -0.00490   1.02717
   D58       -1.06401  -0.00073   0.00000  -0.01071  -0.01070  -1.07470
   D59       -3.13188  -0.00014   0.00000  -0.00621  -0.00620  -3.13809
   D60       -1.05261  -0.00101   0.00000  -0.01164  -0.01170  -1.06432
   D61        1.07231   0.00053   0.00000  -0.00196  -0.00189   1.07042
         Item               Value     Threshold  Converged?
 Maximum Force            0.021716     0.000450     NO 
 RMS     Force            0.003122     0.000300     NO 
 Maximum Displacement     0.570305     0.001800     NO 
 RMS     Displacement     0.149950     0.001200     NO 
 Predicted change in Energy=-3.352548D-03
 GradGradGradGradGradGradGradGradGradGradGradGradGradGradGradGradGradGrad

                          Input orientation:                          
 ---------------------------------------------------------------------
 Center     Atomic      Atomic             Coordinates (Angstroms)
 Number     Number       Type             X           Y           Z
 ---------------------------------------------------------------------
      1          6           0       -4.076258    3.471111   -1.076760
      2          6           0       -4.196212    2.223619   -0.478613
      3          6           0       -3.040468    1.571137   -0.046361
      4          6           0       -1.752012    2.122355   -0.195694
      5          6           0       -1.682131    3.394763   -0.811299
      6          6           0       -2.824862    4.055195   -1.244456
      7          7           0       -0.660814    1.375571    0.177276
      8          6           0        0.462339    2.020703    0.502081
      9          7           0        1.540171    1.147247    0.734708
     10          8           0        0.676743    3.250584    0.640375
     11          6           0        2.594573    1.596181    1.621248
     12          6           0        3.631945    0.495726    1.823346
     13          6           0        4.763598    0.937415    2.750978
     14          1           0       -3.122400    0.593088    0.419145
     15          1           0       -0.711224    3.862348   -0.931115
     16          1           0        1.226264    0.195690    0.893260
     17          1           0        2.197197    1.920588    2.598513
     18          1           0        3.063780    2.476114    1.169702
     19          1           0        4.037026    0.204883    0.845939
     20          1           0        3.144513   -0.396771    2.241031
     21          1           0        5.275060    1.817851    2.345808
     22          1           0        5.510638    0.146921    2.885343
     23          1           0        4.376613    1.206113    3.740451
     24          8           0       -5.161355    4.251407   -1.554123
     25          6           0       -6.412164    3.801871   -1.472974
     26          9           0       -7.222521    4.727496   -1.994904
     27          9           0       -6.628220    2.661239   -2.154363
     28          9           0       -6.830854    3.576541   -0.213877
     29          1           0       -5.161411    1.750044   -0.336269
     30          1           0       -2.760103    5.032598   -1.715186
 ---------------------------------------------------------------------
                    Distance matrix (angstroms):
                    1          2          3          4          5
     1  C    0.000000
     2  C    1.388671   0.000000
     3  C    2.396766   1.395822   0.000000
     4  C    2.827992   2.462603   1.409348   0.000000
     5  C    2.410008   2.793360   2.399130   1.415230   0.000000
     6  C    1.391138   2.412837   2.766308   2.446789   1.389111
     7  N    4.198708   3.694376   2.398127   1.373865   2.469313
     8  C    5.019491   4.764980   3.573872   2.323913   2.865617
     9  N    6.342400   5.961277   4.666049   3.557380   4.221931
    10  O    5.058478   5.104164   4.136401   2.805488   2.773524
    11  C    7.436033   7.135675   5.876669   4.740351   5.238547
    12  C    8.756708   8.340544   7.012376   5.975737   6.601907
    13  C    9.960634   9.610555   8.314454   7.248456   7.763749
    14  H    3.380916   2.148877   1.086272   2.143513   3.381974
    15  H    3.390830   3.877542   3.384940   2.156770   1.084275
    16  H    6.536520   5.949603   4.580365   3.710523   4.647403
    17  H    7.434244   7.101846   5.877977   4.841957   5.371145
    18  H    7.550944   7.449039   6.289645   5.018097   5.224170
    19  H    8.954909   8.579974   7.263179   6.186651   6.755038
    20  H    8.837861   8.255250   6.881775   6.021593   6.854848
    21  H   10.094275   9.891764   8.656290   7.478749   7.801057
    22  H   10.892983  10.481022   9.151213   8.132724   8.714905
    23  H    9.989332   9.608806   8.335843   7.341170   7.887775
    24  O    1.419216   2.490010   3.735687   4.242855   3.659321
    25  C    2.392247   2.896563   4.287159   5.115588   4.793408
    26  F    3.510052   4.210354   5.590079   6.320632   5.820053
    27  F    2.886110   2.985684   4.301622   5.282441   5.177419
    28  F    2.888509   2.973519   4.291472   5.282956   5.186454
    29  H    2.165169   1.084502   2.148128   3.432548   3.877647
    30  H    2.139647   3.388493   3.852959   3.434330   2.159060
                    6          7          8          9         10
     6  C    0.000000
     7  N    3.726232   0.000000
     8  C    4.242080   1.335352   0.000000
     9  N    5.605958   2.281929   1.406685   0.000000
    10  O    4.057244   2.349296   1.256066   2.275618   0.000000
    11  C    6.605246   3.568090   2.445235   1.448881   2.716106
    12  C    7.985711   4.680967   3.757353   2.446453   4.209737
    13  C    9.125172   6.019980   4.973115   3.807867   5.148570
    14  H    3.852568   2.594260   3.859445   4.705979   4.641629
    15  H    2.145422   2.723074   2.612080   3.900708   2.184100
    16  H    5.989760   2.337908   2.016749   1.014464   3.114210
    17  H    6.674281   3.785189   2.723010   2.122147   2.813356
    18  H    6.557268   4.008579   2.724080   2.067968   2.564748
    19  H    8.141263   4.887466   4.024155   2.671087   4.539830
    20  H    8.222047   4.677692   4.007766   2.688292   4.685637
    21  H    9.138076   6.335041   5.157786   4.122468   5.109378
    22  H   10.090114   6.850549   5.888660   4.624985   6.167588
    23  H    9.210201   6.172568   5.145108   4.133201   5.242077
    24  O    2.365078   5.614539   6.389832   7.732077   6.316713
    25  C    3.603488   6.456646   7.371038   8.669517   7.417733
    26  F    4.511603   7.681781   8.521663   9.851586   8.457206
    27  F    4.151695   6.534479   7.598882   8.795539   7.843492
    28  F    4.164033   6.562519   7.491588   8.767859   7.563069
    29  H    3.405581   4.545254   5.692333   6.813337   6.106513
    30  H    1.086784   4.621934   4.936793   6.292082   4.531684
                   11         12         13         14         15
    11  C    0.000000
    12  C    1.525774   0.000000
    13  C    2.532772   1.528472   0.000000
    14  H    5.927480   6.899452   8.230733   0.000000
    15  H    4.751670   6.146896   7.217113   4.280774   0.000000
    16  H    2.088926   2.596611   4.063743   4.392446   4.530628
    17  H    1.103719   2.165552   2.752506   5.900001   4.968664
    18  H    1.094683   2.161481   2.785212   6.509834   4.537151
    19  H    2.148834   1.097272   2.166491   7.182634   6.251468
    20  H    2.158338   1.099364   2.159058   6.601007   6.562722
    21  H    2.785523   2.172741   1.095866   8.702264   7.124170
    22  H    3.493097   2.186090   1.095903   8.989468   8.190319
    23  H    2.796219   2.175883   1.095907   8.224479   7.400352
    24  O    8.791338  10.140739  11.314642   4.629733   4.510341
    25  C    9.775509  11.076121  12.285948   4.969804   5.726952
    26  F   10.920486  12.259949  13.437081   6.303329   6.654105
    27  F   10.022449  11.215284  12.522278   4.815700   6.160343
    28  F    9.804498  11.095578  12.255066   4.801493   6.168142
    29  H    8.000677   9.141136  10.425798   2.463080   4.961838
    30  H    7.184240   8.600157   9.660394   4.939218   2.486394
                   16         17         18         19         20
    16  H    0.000000
    17  H    2.612637   0.000000
    18  H    2.941636   1.760987   0.000000
    19  H    2.811176   3.065964   2.492092   0.000000
    20  H    2.418094   2.528904   3.067203   1.762058   0.000000
    21  H    4.597179   3.089928   2.589652   2.526658   3.074859
    22  H    4.725107   3.769225   3.788889   2.516756   2.511829
    23  H    4.364877   2.562099   3.153598   3.081555   2.517055
    24  O    7.952371   8.765010   8.844419  10.331741  10.246766
    25  C    8.772068   9.707591   9.926474  11.291645  11.079373
    26  F   10.013028  10.849391  10.995064  12.462015  12.315708
    27  F    8.778374  10.051188  10.247855  11.348258  11.143483
    28  F    8.807556   9.599865  10.051319  11.428128  11.014614
    29  H    6.688060   7.924086   8.393384   9.401935   8.957660
    30  H    6.789020   7.270999   6.983968   8.721649   8.943948
                   21         22         23         24         25
    21  H    0.000000
    22  H    1.771609   0.000000
    23  H    1.768180   1.771753   0.000000
    24  O   11.403965  12.265688  11.326040   0.000000
    25  C   12.454342  13.210102  12.260321   1.331612   0.000000
    26  F   13.546119  14.385125  13.410232   2.160868   1.336365
    27  F   12.753466  13.381790  12.568713   2.245131   1.346110
    28  F   12.497925  13.178766  12.118702   2.244756   1.345883
    29  H   10.775809  11.262390  10.386982   2.782083   2.658284
    30  H    9.559818  10.650815   9.764153   2.530259   3.861464
                   26         27         28         29         30
    26  F    0.000000
    27  F    2.155932   0.000000
    28  F    2.156423   2.155070   0.000000
    29  H    3.983022   2.507443   2.477521   0.000000
    30  H    4.481573   4.558349   4.576575   4.294515   0.000000
 Symmetry turned off by external request.
 Stoichiometry    C11H12F3N2O2(1-)
 Framework group  C1[X(C11H12F3N2O2)]
 Deg. of freedom    84
 Full point group                 C1      NOp   1
 Rotational constants (GHZ):      2.0173139      0.1131233      0.1104569
 Basis read from rwf:  (6D, 7F)
   366 basis functions,   624 primitive gaussians,   366 cartesian basis functions
    68 alpha electrons       68 beta electrons
       nuclear repulsion energy      1278.5508007962 Hartrees.
 NAtoms=   30 NActive=   30 NUniq=   30 SFac= 1.00D+00 NAtFMM=   60 NAOKFM=F Big=F
 Integral buffers will be    131072 words long.
 Raffenetti 2 integral format.
 Two-electron integral symmetry is turned off.
 One-electron integrals computed using PRISM.
 NBasis=   366 RedAO= T EigKep=  1.98D-06  NBF=   366
 NBsUse=   366 1.00D-06 EigRej= -1.00D+00 NBFU=   366
 Initial guess from the checkpoint file:  "aryl_urea_OCF3_a1.M062X.chk"
 B after Tr=     0.030904    0.003950   -0.102214
         Rot=    0.999944   -0.009742    0.003305   -0.002357 Ang=  -1.21 deg.
 ExpMin= 4.38D-02 ExpMax= 7.00D+03 ExpMxC= 1.05D+03 IAcc=2 IRadAn=         4 AccDes= 0.00D+00
 Harris functional with IExCor= 1009 and IRadAn=       4 diagonalized for initial guess.
 HarFok:  IExCor= 1009 AccDes= 0.00D+00 IRadAn=         4 IDoV= 1 UseB2=F ITyADJ=14
 ICtDFT=  3500011 ScaDFX=  1.000000  1.000000  1.000000  1.000000
 FoFCou: FMM=F IPFlag=           0 FMFlag=      100000 FMFlg1=           0
         NFxFlg=           0 DoJE=T BraDBF=F KetDBF=T FulRan=T
         wScrn=  0.000000 ICntrl=     500 IOpCl=  0 I1Cent=   200000004 NGrid=           0
         NMat0=    1 NMatS0=      1 NMatT0=    0 NMatD0=    1 NMtDS0=    0 NMtDT0=    0
 Symmetry not used in FoFCou.
 Requested convergence on RMS density matrix=1.00D-08 within 128 cycles.
 Requested convergence on MAX density matrix=1.00D-06.
 Requested convergence on             energy=1.00D-06.
 No special actions if energy rises.
 SCF Done:  E(RM062X) =  -985.612989775     A.U. after   15 cycles
            NFock= 15  Conv=0.57D-08     -V/T= 2.0080
 Calling FoFJK, ICntrl=      2127 FMM=F ISym2X=0 I1Cent= 0 IOpClX= 0 NMat=1 NMatS=1 NMatT=0.
 -------------------------------------------------------------------
 Center     Atomic                   Forces (Hartrees/Bohr)
 Number     Number              X              Y              Z
 -------------------------------------------------------------------
      1        6           0.002193982   -0.000679666    0.000568125
      2        6           0.000863109   -0.000499653    0.000904211
      3        6          -0.003668462   -0.000618574   -0.001538094
      4        6           0.006210807   -0.003199844   -0.001853328
      5        6          -0.002694050    0.007700748   -0.003228458
      6        6          -0.000673460   -0.001571838    0.000847990
      7        7          -0.008052397   -0.001704152    0.002466473
      8        6           0.003023511    0.012518982    0.001407313
      9        7           0.006144822   -0.005370273    0.001724879
     10        8           0.001533233   -0.007728815    0.000084723
     11        6          -0.000695231   -0.001220512   -0.002348848
     12        6           0.000574137    0.000992085    0.000371123
     13        6           0.000052456   -0.000470375   -0.000209809
     14        1           0.000394076   -0.000326942   -0.000010262
     15        1          -0.001939028   -0.000631485    0.000063523
     16        1          -0.001455523    0.000988273    0.000094116
     17        1           0.000321015    0.000043400    0.000804576
     18        1           0.000056013    0.000634898    0.000621970
     19        1          -0.000316367    0.000010192   -0.000110377
     20        1          -0.000101113   -0.000038397    0.000017019
     21        1           0.000031027    0.000173074    0.000017164
     22        1          -0.000142573    0.000073539   -0.000026508
     23        1          -0.000056792    0.000116919    0.000069464
     24        8          -0.007291471   -0.001620372   -0.000016649
     25        6           0.007711827    0.002384189   -0.000435019
     26        9          -0.001918343    0.002732204   -0.001409214
     27        9           0.000534117   -0.002210197   -0.000612673
     28        9          -0.000035650   -0.000752961    0.002194640
     29        1          -0.000600619    0.000106593   -0.000145469
     30        1          -0.000003055    0.000168958   -0.000312603
 -------------------------------------------------------------------
 Cartesian Forces:  Max     0.012518982 RMS     0.002776965

 GradGradGradGradGradGradGradGradGradGradGradGradGradGradGradGradGradGrad
 Berny optimization.
 Using GEDIIS/GDIIS optimizer.
 FormGI is forming the generalized inverse of G from B-inverse, IUseBI=4.
 GSVD:  received Info=                   1 from GESDD.
[...]
 ,-0.00003636,0.00001076,-0.00010260,0.00004443,-0.00001491,0.00000746,
 -0.00002280,-0.00001459,0.17496258,0.05418362,0.44218232,-0.03259552,-
 0.00161217,-0.03225949,0.00243480,0.00094828,-0.00162586,0.00226200,-0
 .00079423,0.00120913,-0.00441805,0.00195938,-0.00209224,-0.00076744,-0
 .00079650,0.00270146,-0.00105888,0.00098669,-0.00189023,0.00638135,-0.
 00158016,0.00161950,-0.00574006,-0.00061432,0.00003309,0.00245664,-0.0
 0139889,0.00035791,0.00188621,0.00093211,-0.00033211,-0.00093189,-0.00
 029562,-0.00010965,0.00005582,0.00015064,0.00006308,0.00003956,-0.0001
 0367,-0.00000793,0.00030217,-0.00029168,0.00044751,-0.00012495,0.00009
 888,0.00017866,-0.00010345,0.00023677,0.00005842,0.00024064,0.00012972
 ,0.00028911,-0.00009338,0.00008221,-0.00006600,-0.00002455,0.00001649,
 -0.00002036,-0.00000111,-0.00005577,0.00003263,-0.00001672,0.00003383,
 -0.00001094,0.00013013,-0.00006016,0.00001448,-0.00000944,0.00003528,0
 .00003341,-0.11255936,-0.00259229,-0.05603965,0.59487558,-0.01242550,0
 .00639976,0.01039257,0.00801974,-0.00109907,0.00084409,0.00061691,-0.0
 0413681,0.00050090,-0.00083562,0.00019358,0.00034495,-0.00037723,0.000
 44652,-0.00023864,0.00390665,-0.00073106,0.00028155,0.00059625,-0.0006
 6693,0.00021081,-0.00037093,0.00037928,-0.00006857,0.00021468,-0.00031
 535,-0.00001234,0.00014350,-0.00032091,0.00007153,-0.00002492,0.000020
 76,0.00004139,0.00000381,0.00003068,0.00001133,0.00001000,-0.00000348,
 -0.00000126,0.00060148,-0.00035838,0.00031713,0.00014797,-0.00014773,0
 .00015717,0.00001002,0.00006702,0.00005926,0.00000812,-0.00000205,-0.0
 0001681,-0.00001960,0.00000745,0.00000448,0.00000765,-0.00000246,-0.00
 002015,-0.00000324,-0.00001815,0.00001804,-0.00000922,-0.00000519,0.00
 000942,0.00001084,-0.00000581,0.00000165,-0.00000318,0.00000020,-0.000
 01201,-0.00310586,-0.10694440,-0.06256992,-0.01591044,0.56233244,-0.04
 987559,0.02401918,-0.03287082,0.00709319,-0.00353660,0.00054080,0.0019
 8251,-0.00078600,0.00124295,-0.00653262,0.00404880,-0.00293176,0.00493
 534,-0.00075320,0.00025640,0.00623823,-0.00842334,0.00351360,0.0104561
 1,-0.00201026,0.00214627,-0.00895146,-0.00191524,0.00071606,0.00356404
 ,-0.00197832,0.00027546,0.00303372,0.00202598,-0.00122611,-0.00128315,
 -0.00040004,-0.00002929,0.00007660,0.00021654,0.00014728,0.00005591,-0
 .00015763,0.00000585,0.00089786,-0.00059046,0.00085192,0.00066840,-0.0
 0038850,0.00069875,-0.00018297,0.00036966,0.00011723,0.00032866,0.0001
 5917,0.00034792,-0.00009954,0.00012305,-0.00007296,-0.00002263,-0.0000
 0565,-0.00005603,0.00000312,-0.00004916,0.00002047,-0.00001070,0.00006
 541,-0.00001755,0.00017280,-0.00007532,0.00002600,-0.00001412,0.000035
 68,0.00001552,-0.05705937,-0.06181026,-0.24708214,0.03887992,0.0132755
 5,0.61686935,0.00964866,-0.00450893,-0.00096918,-0.00220478,-0.0006300
 7,-0.00010747,-0.00080554,0.00052865,-0.00026190,0.00226004,-0.0012479
 9,0.00103552,-0.00064416,0.00060768,-0.00040424,-0.00004877,0.00085968
 ,-0.00094887,-0.00331454,0.00065499,-0.00086087,0.00294765,0.00044085,
 -0.00010089,-0.00123039,0.00067738,-0.00014631,-0.00097067,-0.00058465
 ,0.00022041,0.00047039,0.00015249,0.00005518,-0.00002936,-0.00007341,-
 0.00003422,-0.00001897,0.00005289,0.00000277,-0.00024601,0.00022832,-0
 .00009676,-0.00004896,0.00013562,-0.00000219,0.00005743,-0.00011229,-0
 .00001871,-0.00012000,-0.00006449,-0.00014836,0.00004115,-0.00003947,0
 .00003208,0.00001313,-0.00000689,0.00000882,-0.00000004,0.00002317,-0.
 00001170,0.00000610,-0.00001902,0.00000717,-0.00006344,0.00002868,-0.0
 0000746,0.00000430,-0.00001697,-0.00001706,-0.04865885,0.02008785,-0.0
 4063325,-0.21277020,0.08256709,-0.03226928,0.31917581,-0.00023571,0.00
 409703,-0.00140133,-0.00063809,0.00029038,0.00001613,0.00033765,0.0003
 9259,-0.00006261,-0.00081366,0.00043561,-0.00043715,0.00038107,-0.0001
 0013,0.00010602,0.00002504,-0.00074080,0.00063933,0.00125424,-0.000167
 90,0.00031217,-0.00115067,-0.00022863,0.00004926,0.00047305,-0.0002287
 9,0.00006558,0.00039630,0.00028338,-0.00009684,-0.00019156,-0.00006689
 ,-0.00003016,0.00001098,0.00002498,0.00001340,0.00000609,-0.00002170,-
 0.00000082,-0.00001276,-0.00003589,-0.00001646,0.00002272,-0.00005570,
 0.00000616,-0.00002592,0.00003464,-0.00000272,0.00004830,0.00002684,0.
 00006459,-0.00001398,0.00001507,-0.00001422,-0.00000684,0.00000328,-0.
 00000038,0.00000088,-0.00000618,0.00000139,-0.00000075,0.00000909,-0.0
 0000481,0.00002441,-0.00001081,0.00000290,-0.00000124,0.00000684,0.000
 00898,0.00684066,0.00938790,0.00802710,0.08436450,-0.12980101,0.020015
 98,-0.14819666,0.17460911,0.00574639,-0.00667536,0.00112594,-0.0014179
 5,-0.00014827,-0.00015914,-0.00059146,0.00038545,-0.00008416,0.0015344
 6,-0.00089778,0.00062956,-0.00100029,0.00020919,0.00006690,-0.00086062
 ,0.00185027,-0.00133722,-0.00226533,0.00042629,-0.00052513,0.00195613,
 0.00039481,-0.00015085,-0.00077748,0.00043191,-0.00006118,-0.00064944,
 -0.00043771,0.00023185,0.00028600,0.00008963,0.00001383,-0.00001755,-0
 .00004691,-0.00002886,-0.00001181,0.00003402,-0.00000047,-0.00019030,0
 .00015812,-0.00007660,-0.00013373,0.00015506,-0.00007090,0.00003808,-0
 .00007700,-0.00001975,-0.00007327,-0.00003658,-0.00008231,0.00002249,-
 0.00002598,0.00001759,0.00000641,-0.00000057,0.00001002,-0.00000044,0.
 00001154,-0.00000503,0.00000256,-0.00001369,0.00000420,-0.00003809,0.0
 0001669,-0.00000548,0.00000268,-0.00000858,-0.00000576,-0.06232026,0.0
 2463235,-0.02809836,-0.02956686,0.01794394,-0.08505106,0.05391405,-0.0
 3053001,0.09755872,-0.00350239,0.00124354,-0.00315055,0.00103481,-0.00
 121648,0.00099388,-0.00073708,0.00030634,-0.00022149,0.00043979,0.0005
 1431,-0.00014604,0.00134752,-0.00041331,-0.00016168,-0.00049819,-0.001
 25917,-0.00066644,-0.00001584,0.00008433,-0.00007267,0.00010471,-0.000
 23258,0.00015801,-0.00011632,0.00008264,-0.00006009,-0.00007342,0.0001
 2373,-0.00015882,0.00005667,0.00002035,0.00003235,-0.00000304,-0.00000
 787,0.00000589,-0.00000259,0.00000404,0.00000329,0.00006620,-0.0000202
 4,0.00000116,0.00012465,-0.00004240,0.00009406,0.00000219,-0.00000745,
 0.00000260,-0.00001444,-0.00000936,-0.00002553,0.00001230,-0.00000338,
 0.00000772,0.00000302,-0.00000585,-0.00000252,0.00000045,0.00000893,-0
 .00000692,0.00000359,0.00000117,0.00000001,-0.00001012,0.00000569,-0.0
 0000003,0.00000058,-0.00000434,-0.00000672,0.01566225,0.00189324,0.012
 20766,-0.15058137,-0.02255296,0.08353434,-0.06775602,0.01379850,0.0385
 5039,0.22008988,0.00072206,0.00068107,0.00032748,-0.00071059,0.0002664
 3,-0.00016909,0.00013778,0.00041770,-0.00004650,-0.00026365,-0.0000069
 8,-0.00005265,0.00025098,0.00017366,-0.00012412,-0.00066270,-0.0007655
 2,0.00051265,0.00027447,0.00007809,0.00001518,-0.00023430,-0.00017138,
 0.00006253,0.00006347,0.00000506,0.00000523,0.00007621,0.00015286,-0.0
 0007582,-0.00003216,-0.00001411,-0.00000534,0.00000164,0.00000020,0.00
 000268,-0.00000041,-0.00000412,0.00000104,-0.00003781,0.00003078,-0.00
 003244,0.00002944,-0.00002439,-0.00001177,-0.00000724,-0.00000174,-0.0
 0000782,0.00000829,0.00000466,0.00001239,0.00000178,0.00000208,-0.0000
 0265,-0.00000210,-0.00000009,0.00000185,0.00000075,0.00000270,-0.00000
 326,0.00000179,0.00000309,-0.00000240,0.00000242,-0.00000062,0.0000004
 7,0.00000034,0.00000067,0.00000215,0.00334683,0.01410305,-0.00844345,-
 0.01913949,-0.08156937,0.02326277,0.02208181,0.01108313,-0.01245050,0.
 04061304,0.09262772,0.01305330,-0.00674742,0.00468942,-0.00193460,0.00
 059451,-0.00033070,-0.00070196,0.00018201,0.00013401,0.00189438,-0.001
 25583,0.00093016,-0.00142088,0.00066578,-0.00039576,-0.00041817,0.0017
 2713,-0.00072557,-0.00317026,0.00055335,-0.00060962,0.00268970,0.00073
 277,-0.00035376,-0.00100673,0.00053309,-0.00004857,-0.00086677,-0.0007
 1864,0.00049104,0.00035647,0.00011096,-0.00000618,-0.00002139,-0.00005
 897,-0.00004626,-0.00001482,0.00004529,-0.00000364,-0.00021239,0.00015
 814,-0.00016206,-0.00017088,0.00004662,-0.00019919,0.00005503,-0.00010
 406,-0.00003166,-0.00009303,-0.00004244,-0.00009242,0.00002202,-0.0000
 3487,0.00001843,0.00000570,0.00000468,0.00001732,-0.00000157,0.0000095
 0,-0.00000179,0.00000088,-0.00002045,0.00000562,-0.00004621,0.00001938
 ,-0.00000786,0.00000352,-0.00000830,-0.00000146,0.01824513,0.00106536,
 -0.08183210,0.08370075,0.02645632,-0.17922489,0.02427563,-0.00622121,0
 .00378595,-0.15616638,-0.04265271,0.25737195,0.00441543,-0.00279473,0.
 00038441,-0.00120854,-0.00074956,-0.00018568,-0.00015710,0.00011882,-0
 .00019788,0.00086370,-0.00080256,0.00067721,-0.00028766,0.00061435,-0.
 00042520,0.00060375,0.00020258,0.00000459,-0.00146187,0.00039587,-0.00
 041640,0.00131647,0.00013162,-0.00001321,-0.00056458,0.00033692,-0.000
 06798,-0.00041081,-0.00019716,0.00007640,0.00021033,0.00006320,0.00001
 994,-0.00001265,-0.00003622,-0.00001527,-0.00000909,0.00002327,0.00000
 105,-0.00007722,0.00009095,-0.00008962,0.00001396,0.00001538,-0.000027
 48,0.00002105,-0.00005770,-0.00001653,-0.00005474,-0.00002849,-0.00006
 285,0.00002127,-0.00001849,0.00001426,0.00000490,-0.00000324,0.0000062
 6,0.00000046,0.00001333,-0.00000845,0.00000408,-0.00000712,0.00000172,
 -0.00002919,0.00001339,-0.00000336,0.00000207,-0.00000761,-0.00000610,
 0.00002961,-0.02598433,-0.01715483,-0.08760587,-0.03866945,-0.00465410
 ,0.00392447,0.04317433,-0.00236320,-0.01574635,-0.04679230,0.02214512,
 0.09600987,0.01107346,-0.00513024,0.00535184,-0.00149278,-0.00020360,0
 .00137927,-0.00146773,0.00146358,-0.00047023,0.00141265,-0.00018273,0.
 00009069,0.00021411,-0.00004174,0.00018508,-0.00228627,0.00097882,-0.0
 0074252,-0.00154393,0.00052904,-0.00042257,0.00121893,0.00007298,-0.00
 004704,-0.00050008,0.00037818,-0.00002305,-0.00036571,-0.00010384,0.00
 007816,0.00015703,0.00003515,-0.00001158,-0.00001120,-0.00003925,-0.00
 001614,-0.00001094,0.00001793,0.00000097,-0.00023176,0.00013206,-0.000
 23310,-0.00010196,0.00009916,-0.00007670,0.00000899,-0.00007440,-0.000
 03911,-0.00004215,-0.00001859,-0.00003596,0.00002112,-0.00001561,0.000
 00712,-0.00000015,-0.00000050,0.00001357,0.00000169,0.00001627,-0.0000
 1305,0.00000651,-0.00000298,-0.00000270,-0.00002421,0.00001106,-0.0000
 0325,0.00000270,-0.00000477,0.00000182,-0.02762527,-0.03649045,-0.0389
 9893,-0.04231226,-0.24308160,-0.00793695,0.02629106,-0.06926973,0.0050
 9820,-0.03432111,-0.03742947,0.02612103,0.07067473,0.38809902,0.006031
 34,-0.00436475,0.00231370,-0.00072239,0.00049461,-0.00095271,-0.000419
 64,-0.00028784,-0.00003605,0.00108598,-0.00076310,0.00062653,-0.000791
 13,0.00050627,-0.00006151,-0.00032845,0.00105269,-0.00046979,-0.001887
 29,0.00037298,-0.00040208,0.00162040,0.00031764,-0.00012511,-0.0006580
 5,0.00037011,-0.00004640,-0.00053399,-0.00034711,0.00021062,0.00023524
 ,0.00007225,0.00000667,-0.00001414,-0.00004114,-0.00002688,-0.00001038
 ,0.00002865,-0.00000107,-0.00008102,0.00007435,-0.00014526,-0.00006734
 ,0.00004027,-0.00007737,0.00003341,-0.00006946,-0.00002214,-0.00006045
 ,-0.00002856,-0.00006321,0.00001891,-0.00002240,0.00001329,0.00000385,
 0.00000076,0.00001084,-0.00000042,0.00000986,-0.00000480,0.00000240,-0
 .00001147,0.00000280,-0.00003201,0.00001403,-0.00000477,0.00000273,-0.
 00000658,-0.00000265,-0.02338358,-0.04828413,-0.01553647,-0.00507599,-
 0.01108295,-0.07916452,-0.00261580,0.00991975,0.01250402,0.02549536,0.
 04044248,-0.00289454,0.00252157,0.01217805,0.08452633,-0.00215927,0.00
 151036,-0.00159281,-0.28479596,-0.10463338,0.04911725,-0.01812244,-0.0
 1282925,0.00653970,-0.00018313,0.00287101,-0.00262813,-0.00005098,0.00
 080826,-0.00045257,0.00202878,-0.00046018,0.00011548,-0.00192341,-0.00
 038696,0.00007057,0.00057257,0.00036681,-0.00011264,-0.00046701,0.0001
 1784,-0.00005227,-0.00026429,-0.00023921,0.00010304,0.00012221,0.00008
 627,0.00001866,-0.00002048,-0.00003429,-0.00001612,-0.00000903,0.00002
 056,0.00000207,0.00099860,0.00064253,0.00011386,-0.00001285,-0.0000548
 5,0.00010176,0.00002556,-0.00004511,-0.00000061,-0.00003450,-0.0000183
 0,-0.00004186,0.00001191,-0.00001445,0.00001004,0.00000325,-0.00000169
 ,0.00000419,0.00000112,0.00000878,-0.00000547,0.00000229,-0.00000427,0
 .00000101,-0.00001928,0.00000656,-0.00000274,0.00000124,-0.00000454,-0
 .00000371,0.00196387,0.00000260,0.00121046,-0.00040427,-0.00128212,-0.
 00055392,0.00016088,0.00011148,0.00016448,0.00011967,0.00012589,0.0000
 4287,-0.00002127,0.00066894,-0.00048025,0.30248659,-0.02554189,-0.0050
 7698,0.00382566,-0.10251853,-0.09845535,0.03392207,0.01234261,0.010046
 88,-0.00338055,0.00218157,0.00133653,0.00468788,0.00087940,-0.00039915
 ,-0.00024316,0.00091825,-0.00300921,0.00509351,-0.00003603,0.00034871,
 -0.00027609,0.00054233,-0.00010366,-0.00018767,-0.00005827,0.00010136,
 0.00000034,-0.00012356,-0.00005985,0.00007640,0.00004563,-0.00000077,0
 .00001177,0.00000096,-0.00000303,-0.00000165,-0.00000033,0.00000280,0.
 00000026,-0.00023933,-0.00098011,-0.00260376,-0.00001458,-0.00014978,-
 0.00039312,-0.00000021,-0.00000268,0.00000080,-0.00001116,-0.00000715,
 -0.00001665,0.00000360,-0.00000213,0.00000230,0.00000185,-0.00000115,-
 0.00000071,-0.00000029,0.00000151,0.00000032,0.00000010,-0.00000158,0.
 00000074,-0.00000387,0.00000203,-0.00000052,-0.00000018,-0.00000150,-0
 .00000235,0.00026510,0.00102015,-0.00342354,-0.00040371,-0.00005332,0.
 00135381,-0.00003584,0.00003390,-0.00014250,0.00029783,0.00001269,-0.0
 0053838,0.00010368,-0.00006920,-0.00032627,0.11272721,0.09576434,0.017
 11474,0.00571648,0.00153918,0.04733957,0.03328944,-0.05260135,-0.00995
 611,-0.00534470,0.00599658,-0.00206731,0.00476840,0.00487079,-0.000422
 64,-0.00036712,-0.00073053,-0.00124248,0.00488695,0.00127311,-0.000146
 69,-0.00028506,0.00012510,-0.00025539,-0.00014941,-0.00032465,0.000009
 87,-0.00005934,-0.00000341,0.00004741,0.00005431,0.00004451,-0.0000231
 5,0.00002075,0.00002059,-0.00000671,-0.00000305,0.00000149,-0.00000046
 ,0.00000082,0.00000080,0.00063888,-0.00250113,-0.00315144,0.00008452,-
 0.00039419,-0.00047205,0.00000158,0.00000540,0.00001301,0.00000578,-0.
 00000001,-0.00000133,-0.00000259,0.00000177,0.00000011,0.00000154,-0.0
 0000115,-0.00000264,0.00000062,-0.00000007,0.00000037,-0.00000032,0.00
 000115,-0.00000006,0.00000157,-0.00000173,0.00000012,-0.00000073,-0.00
 000017,-0.00000150,-0.00021811,-0.00325179,-0.00207718,0.00038873,0.00
 287512,-0.00072471,0.00000832,-0.00036246,-0.00007541,-0.00031352,-0.0
 0035105,0.00018538,-0.00018341,-0.00126765,0.00001635,-0.05161339,-0.0
 3798391,0.04573350,0.00337962,-0.02381830,0.01534908,-0.00522158,-0.00
 191386,0.00037813,-0.00092097,0.00051161,-0.00032371,-0.00457876,0.001
 22524,-0.00194313,0.00648804,0.02236055,-0.01438087,-0.05928297,-0.012
 48196,0.00595860,0.00042890,0.00118950,-0.00067326,0.00046023,0.000219
 98,-0.00006647,-0.00011019,-0.00009788,0.00000218,-0.00013774,-0.00032
 657,0.00016777,0.00000979,0.00002677,0.00002178,-0.00000958,-0.0000080
 6,-0.00000875,-0.00000190,0.00000705,-0.00000021,0.00011821,0.00003020
 ,0.00004713,0.00088611,-0.00020758,0.00069664,0.00004328,-0.00002578,0
 .00003837,-0.00000246,-0.00000087,-0.00000783,-0.00000934,-0.00000295,
 0.00000052,0.00000034,0.00000133,0.00000053,0.00000091,-0.00000271,0.0
 0000256,-0.00000188,-0.00000235,0.00000142,-0.00000297,-0.00000062,-0.
 00000079,0.00000006,0.,-0.00000015,0.00303652,0.00104193,0.00027946,-0
 .00125839,-0.00127443,-0.00041129,0.00022067,0.00001764,0.00005397,-0.
 00001112,0.00014375,-0.00024447,0.00020550,0.00058557,0.00011113,-0.00
 001036,-0.00132235,0.00080988,0.05628203,0.00418085,-0.00915953,0.0092
 5168,-0.00335260,0.00191702,0.00148132,0.00045445,0.00027324,-0.000800
 59,0.00161041,0.00356439,0.00315670,-0.00176584,-0.00672104,0.00685937
 ,-0.01507732,-0.25117274,0.13845015,0.00059765,-0.00104106,0.00020821,
 -0.00102344,-0.00022343,0.00012093,0.00037286,-0.00011719,0.00002729,0
 .00033051,0.00033470,-0.00012851,-0.00011986,-0.00004570,-0.00000975,0
 .00001096,0.00002304,0.00001802,0.00000601,-0.00001757,-0.00000041,0.0
 0002729,-0.00025564,-0.00021339,0.00030317,-0.00078888,-0.00269226,-0.
 00004197,0.00003048,-0.00002361,0.00003179,0.00001519,0.00003713,-0.00
 000391,0.00001230,-0.00000543,-0.00000243,-0.00000141,-0.00000478,0.00
 000004,-0.00000321,0.,0.00000017,0.00000677,-0.00000212,0.00001621,-0.
 00000585,0.00000265,-0.00000118,0.00000319,0.00000179,0.00000708,0.000
 10089,-0.00341130,-0.00201341,-0.00061460,0.00184534,0.00011847,0.0000
 0041,-0.00034601,0.00109886,0.00034214,-0.00062264,0.00017656,0.000325
 46,-0.00025897,-0.00006649,-0.00029431,0.00070341,0.01412514,0.2635129
 4,-0.00199577,0.00639332,0.00001197,0.00129653,0.00192486,0.00352102,-
 0.00021102,-0.00081117,-0.00044949,-0.00218038,0.00300565,0.00595351,0
 .00118579,0.00883202,-0.00185077,0.00796948,0.13907045,-0.12479761,-0.
 00029078,0.00026377,-0.00100050,0.00069989,0.00025109,0.00002084,-0.00
 024248,0.00007942,-0.00004311,-0.00026415,-0.00021107,0.00013491,0.000
 08124,0.00005577,0.00004168,-0.00001158,-0.00001472,-0.00001119,-0.000
 00351,0.00001236,0.00000068,0.00004145,-0.00021577,-0.00043719,0.00039
 084,-0.00268008,-0.00309394,0.00001614,-0.00004773,0.00000156,-0.00002
 012,-0.00001225,-0.00003423,0.00000150,-0.00000868,0.00000966,0.000003
 23,-0.00000287,-0.00000033,0.00000026,0.00000164,-0.00000033,-0.000000
 63,-0.00000348,0.00000302,-0.00001027,0.00000245,-0.00000173,0.0000001
 6,-0.00000214,-0.00000483,0.00016561,-0.00253887,-0.00240047,-0.000910
 47,0.00020546,0.00066000,0.00009454,-0.00006755,-0.00011093,0.00007267
 ,-0.00021734,-0.00066126,0.00003900,-0.00016527,-0.00019381,-0.0000589
 3,0.00054497,0.00034526,-0.00585822,-0.15364422,0.12438761\\0.00001091
 ,0.00002384,0.00001363,0.00003385,-0.00000095,0.00002276,-0.00002341,0
 .00000067,-0.00003109,-0.00000390,-0.00000081,0.00001935,-0.00000952,0
 .00001236,-0.00002621,0.00001478,-0.00001479,0.00003183,-0.00000278,-0
 .00000579,-0.00002050,0.00000707,0.00000677,0.00000092,0.00003191,-0.0
 0001124,0.00000772,0.00002742,0.00000163,0.00000308,-0.00001786,-0.000
 00155,0.00000800,0.00000010,-0.00000858,-0.00001096,0.00000241,0.00000
 034,0.00000621,-0.00000027,0.00000787,0.00001230,-0.00004167,-0.000012
 52,0.00001045,-0.00001652,0.00000952,-0.00000633,0.00000913,0.00000630
 ,0.00000388,-0.00000878,-0.00000046,-0.00000968,0.00000077,0.00000358,
 0.00000498,0.00000031,-0.00000050,0.00000114,0.00000392,0.00000214,0.0
 0000420,-0.00000612,0.00000033,-0.00000173,-0.00000670,0.00000055,-0.0
 0000402,0.00001941,-0.00002432,-0.00003646,-0.00006420,-0.00000531,0.0
 0001369,0.00000817,-0.00000506,0.00006024,0.00000070,-0.00000644,-0.00
 004690,0.00004399,0.00003441,-0.00001286,-0.00001079,-0.00000243,-0.00
 000546,-0.00000230,-0.00000959,-0.00001218\\\@


 GARLIC THEN HAVE POWER TO SAVE FROM DEATH
 BEAR WITH IT THOUGH IT MAKETH UNSAVORY BREATH,
 AND SCORN NOT GARLIC LIKE SOME THAT THINK
 IT ONLY MAKETH MEN WINK AND DRINK AND STINK.
   --  SIR JOHN HARRINGTON,
       "THE ENGLISHMAN'S DOCTOR", 1609
 Job cpu time:       0 days  2 hours 46 minutes 12.0 seconds.
 File lengths (MBytes):  RWF=    434 Int=      0 D2E=      0 Chk=     11 Scr=      1
 Normal termination of Gaussian 09 at Thu Jul 12 20:25:14 2018.
WARNING: pbs_rusage is deprecated and values produced may not be accurate


=============================================================================
                                     Resource usage:
                                       CPU time:              13:04:22
   JobId:    8353078.r-man2            Elapsed time:          03:17:49
   Project:             q95            Requested time:        36:00:00
   Service Units:     13.19 
                                       Max physical memory:      661MB
                                       Max virtual memory:      1363MB
                                       Requested memory:           0MB

                                       Number of cpus:               4

                                       Max jobfs disk use:       0.4GB
                                       Requested jobfs:         16.0GB
=============================================================================

