 Entering Gaussian System, Link 0=/apps/gaussian/g09e01/g09/g09
 AtFile(1): /home/507/hio507/Basis/6-31pGd.gbs
 Initial command:
 /apps/gaussian/g09e01/g09/l1.exe "/jobfs/local/1921643.r-man2/Gau-53838.inp" -scrdir="/jobfs/local/1921643.r-man2/"
 Entering Link 1 = /apps/gaussian/g09e01/g09/l1.exe PID=     53839.
  
 Copyright (c) 1988,1990,1992,1993,1995,1998,2003,2009,2015,
            Gaussian, Inc.  All Rights Reserved.
  
 This is part of the Gaussian(R) 09 program.  It is based on
 the Gaussian(R) 03 system (copyright 2003, Gaussian, Inc.),
 the Gaussian(R) 98 system (copyright 1998, Gaussian, Inc.),
 the Gaussian(R) 94 system (copyright 1995, Gaussian, Inc.),
 the Gaussian 92(TM) system (copyright 1992, Gaussian, Inc.),
 the Gaussian 90(TM) system (copyright 1990, Gaussian, Inc.),
 the Gaussian 88(TM) system (copyright 1988, Gaussian, Inc.),
 the Gaussian 86(TM) system (copyright 1986, Carnegie Mellon
 University), and the Gaussian 82(TM) system (copyright 1983,
 Carnegie Mellon University). Gaussian is a federally registered
 trademark of Gaussian, Inc.
  
 This software contains proprietary and confidential information,
 including trade secrets, belonging to Gaussian, Inc.
  
 This software is provided under written license and may be
 used, copied, transmitted, or stored only in accord with that
 written license.
  
 The following legend is applicable only to US Government
 contracts under FAR:
  
                    RESTRICTED RIGHTS LEGEND
  
 Use, reproduction and disclosure by the US Government is
 subject to restrictions as set forth in subparagraphs (a)
 and (c) of the Commercial Computer Software - Restricted
 Rights clause in FAR 52.227-19.
  
 Gaussian, Inc.
 340 Quinnipiac St., Bldg. 40, Wallingford CT 06492
  
  
 ---------------------------------------------------------------
 Warning -- This program may not be used in any manner that
 competes with the business of Gaussian, Inc. or will provide
 assistance to any competitor of Gaussian, Inc.  The licensee
 of this program is prohibited from giving any competitor of
 Gaussian, Inc. access to this program.  By using this program,
 the user acknowledges that Gaussian, Inc. is engaged in the
 business of creating and licensing software in the field of
 computational chemistry and represents and warrants to the
 licensee that it is not a competitor of Gaussian, Inc. and that
 it will not use this program in any manner prohibited above.
 ---------------------------------------------------------------
  

 Cite this work as:
 Gaussian 09, Revision E.01,
 M. J. Frisch, G. W. Trucks, H. B. Schlegel, G. E. Scuseria, 
 M. A. Robb, J. R. Cheeseman, G. Scalmani, V. Barone, B. Mennucci, 
 G. A. Petersson, H. Nakatsuji, M. Caricato, X. Li, H. P. Hratchian, 
 A. F. Izmaylov, J. Bloino, G. Zheng, J. L. Sonnenberg, M. Hada, 
 M. Ehara, K. Toyota, R. Fukuda, J. Hasegawa, M. Ishida, T. Nakajima, 
 Y. Honda, O. Kitao, H. Nakai, T. Vreven, J. A. Montgomery, Jr., 
 J. E. Peralta, F. Ogliaro, M. Bearpark, J. J. Heyd, E. Brothers, 
 K. N. Kudin, V. N. Staroverov, T. Keith, R. Kobayashi, J. Normand, 
 K. Raghavachari, A. Rendell, J. C. Burant, S. S. Iyengar, J. Tomasi, 
 M. Cossi, N. Rega, J. M. Millam, M. Klene, J. E. Knox, J. B. Cross, 
 V. Bakken, C. Adamo, J. Jaramillo, R. Gomperts, R. E. Stratmann, 
 O. Yazyev, A. J. Austin, R. Cammi, C. Pomelli, J. W. Ochterski, 
 R. L. Martin, K. Morokuma, V. G. Zakrzewski, G. A. Voth, 
 P. Salvador, J. J. Dannenberg, S. Dapprich, A. D. Daniels, 
 O. Farkas, J. B. Foresman, J. V. Ortiz, J. Cioslowski, 
 and D. J. Fox, Gaussian, Inc., Wallingford CT, 2013.
 
 ******************************************
 Gaussian 09:  ES64L-G09RevE.01 30-Nov-2015
                 1-Nov-2018 
 ******************************************
 %chk=3Chloro4TFM.M062X_6-31pGd_opt.chk
 %mem=196608000
 %nproc=4
 Will use up to    4 processors via shared memory.
 ----------------------------------------------------------------------
 # M062X/Gen 6D SCF=Tight INT(grid=ultrafine) OPT IOP(2/17=4) maxdisk=2
 147483648
 ----------------------------------------------------------------------
 1/14=-1,18=20,19=15,26=4,38=1/1,3;
 2/9=110,12=2,17=4,18=5,40=1/2;
 3/5=7,8=2,11=2,16=1,25=1,30=1,71=1,74=-55,75=-5/1,2,3;
 4//1;
 5/5=2,32=2,38=5/2;
 6/7=2,8=2,9=2,10=2,28=1/1;
 7//1,2,3,16;
 1/14=-1,18=20,19=15,26=4/3(2);
 2/9=110,17=4/2;
 99//99;
 2/9=110,17=4/2;
 3/5=7,6=1,8=2,11=2,16=1,25=1,30=1,71=1,74=-55,75=-5,82=7/1,2,3;
 4/5=5,16=3,69=1/1;
 5/5=2,32=2,38=5/2;
 7//1,2,3,16;
 1/14=-1,18=20,19=15,26=4/3(-5);
 2/9=110,17=4/2;
 6/7=2,8=2,9=2,10=2,19=2,28=1/1;
 99/9=1/99;
 -----------------------------
 3Chloro4TFM.M062X_6-31pGd_opt
 -----------------------------
 Symbolic Z-matrix:
 Charge =  0 Multiplicity = 1
 C                    -2.0044    1.86671  -0.13769 
 C                    -0.65659   1.16315  -0.00812 
 C                     0.50216   2.16352  -0.09068 
 N                     1.78266   1.48865   0.03331 
 C                     2.96264   2.16987  -0.01323 
 O                     2.94594   3.38106  -0.16321 
 N                     4.14116   1.48342   0.10925 
 C                     5.48171   2.00896   0.08438 
 C                     5.80506   3.38441   0.03649 
 C                     6.5418    1.08878   0.10815 
 C                     7.86945   1.51187   0.08586 
 C                     8.19611   2.87545   0.03828 
 C                     7.13914   3.82004   0.01343 
 H                    -2.82237   1.1184   -0.07521 
 H                    -2.07467   2.38964  -1.1153 
 H                    -2.13468   2.60539   0.68173 
 H                    -0.55982   0.41603  -0.82585 
 H                    -0.61932   0.63213   0.96798 
 H                     0.40066   2.9096    0.72829 
 H                     0.45966   2.6915   -1.06898 
 H                     1.79889   0.46428   0.1595 
 H                     4.06062   0.46219   0.2353 
 H                     5.05655   4.15418   0.01473 
 H                     6.34019   0.02523   0.1447 
 H                     8.6529    0.76343   0.10582 
 Cl                    7.39301   5.56388  -0.04695 
 C                     9.67232   3.22687   0.01687 
 F                     9.92152   4.58415   0.02198 
 F                     10.24951   2.69138  -1.12064 
 F                     10.28578   2.67619   1.12783 
 

 GradGradGradGradGradGradGradGradGradGradGradGradGradGradGradGradGradGrad
 Berny optimization.
 Initialization pass.
                           ----------------------------
                           !    Initial Parameters    !
                           ! (Angstroms and Degrees)  !
 --------------------------                            --------------------------
 ! Name  Definition              Value          Derivative Info.                !
 --------------------------------------------------------------------------------
 ! R1    R(1,2)                  1.5259         estimate D2E/DX2                !
 ! R2    R(1,14)                 1.1104         estimate D2E/DX2                !
 ! R3    R(1,15)                 1.1109         estimate D2E/DX2                !
 ! R4    R(1,16)                 1.1109         estimate D2E/DX2                !
 ! R5    R(2,3)                  1.5331         estimate D2E/DX2                !
 ! R6    R(2,17)                 1.1119         estimate D2E/DX2                !
 ! R7    R(2,18)                 1.1118         estimate D2E/DX2                !
 ! R8    R(3,4)                  1.4528         estimate D2E/DX2                !
 ! R9    R(3,19)                 1.1125         estimate D2E/DX2                !
 ! R10   R(3,20)                 1.1125         estimate D2E/DX2                !
 ! R11   R(4,5)                  1.3633         estimate D2E/DX2                !
 ! R12   R(4,21)                 1.0322         estimate D2E/DX2                !
 ! R13   R(5,6)                  1.2206         estimate D2E/DX2                !
 ! R14   R(5,7)                  1.3694         estimate D2E/DX2                !
 ! R15   R(7,8)                  1.4401         estimate D2E/DX2                !
 ! R16   R(7,22)                 1.0321         estimate D2E/DX2                !
 ! R17   R(8,9)                  1.4138         estimate D2E/DX2                !
 ! R18   R(8,10)                 1.404          estimate D2E/DX2                !
 ! R19   R(9,13)                 1.4036         estimate D2E/DX2                !
 ! R20   R(9,23)                 1.0739         estimate D2E/DX2                !
 ! R21   R(10,11)                1.3936         estimate D2E/DX2                !
 ! R22   R(10,24)                1.0831         estimate D2E/DX2                !
 ! R23   R(11,12)                1.403          estimate D2E/DX2                !
 ! R24   R(11,25)                1.0837         estimate D2E/DX2                !
 ! R25   R(12,13)                1.4178         estimate D2E/DX2                !
 ! R26   R(12,27)                1.5176         estimate D2E/DX2                !
 ! R27   R(13,26)                1.7633         estimate D2E/DX2                !
 ! R28   R(27,28)                1.38           estimate D2E/DX2                !
 ! R29   R(27,29)                1.3834         estimate D2E/DX2                !
 ! R30   R(27,30)                1.3834         estimate D2E/DX2                !
 ! A1    A(2,1,14)             109.5829         estimate D2E/DX2                !
 ! A2    A(2,1,15)             110.3429         estimate D2E/DX2                !
 ! A3    A(2,1,16)             110.3373         estimate D2E/DX2                !
 ! A4    A(14,1,15)            108.6721         estimate D2E/DX2                !
 ! A5    A(14,1,16)            108.6765         estimate D2E/DX2                !
 ! A6    A(15,1,16)            109.1896         estimate D2E/DX2                !
 ! A7    A(1,2,3)              111.2345         estimate D2E/DX2                !
 ! A8    A(1,2,17)             108.9201         estimate D2E/DX2                !
 ! A9    A(1,2,18)             108.9277         estimate D2E/DX2                !
 ! A10   A(3,2,17)             109.4559         estimate D2E/DX2                !
 ! A11   A(3,2,18)             109.4875         estimate D2E/DX2                !
 ! A12   A(17,2,18)            108.7737         estimate D2E/DX2                !
 ! A13   A(2,3,4)              111.0078         estimate D2E/DX2                !
 ! A14   A(2,3,19)             109.2086         estimate D2E/DX2                !
 ! A15   A(2,3,20)             109.1577         estimate D2E/DX2                !
 ! A16   A(4,3,19)             109.2159         estimate D2E/DX2                !
 ! A17   A(4,3,20)             109.2199         estimate D2E/DX2                !
 ! A18   A(19,3,20)            109.0015         estimate D2E/DX2                !
 ! A19   A(3,4,5)              121.8614         estimate D2E/DX2                !
 ! A20   A(3,4,21)             119.0318         estimate D2E/DX2                !
 ! A21   A(5,4,21)             119.1069         estimate D2E/DX2                !
 ! A22   A(4,5,6)              119.2226         estimate D2E/DX2                !
 ! A23   A(4,5,7)              119.4307         estimate D2E/DX2                !
 ! A24   A(6,5,7)              121.3467         estimate D2E/DX2                !
 ! A25   A(5,7,8)              128.0729         estimate D2E/DX2                !
 ! A26   A(5,7,22)             116.0891         estimate D2E/DX2                !
 ! A27   A(8,7,22)             115.838          estimate D2E/DX2                !
 ! A28   A(7,8,9)              124.6482         estimate D2E/DX2                !
 ! A29   A(7,8,10)             117.6068         estimate D2E/DX2                !
 ! A30   A(9,8,10)             117.7449         estimate D2E/DX2                !
 ! A31   A(8,9,13)             121.3258         estimate D2E/DX2                !
 ! A32   A(8,9,23)             122.5911         estimate D2E/DX2                !
 ! A33   A(13,9,23)            116.0831         estimate D2E/DX2                !
 ! A34   A(8,10,11)            121.3379         estimate D2E/DX2                !
 ! A35   A(8,10,24)            120.2389         estimate D2E/DX2                !
 ! A36   A(11,10,24)           118.4232         estimate D2E/DX2                !
 ! A37   A(10,11,12)           121.1597         estimate D2E/DX2                !
 ! A38   A(10,11,25)           118.6049         estimate D2E/DX2                !
 ! A39   A(12,11,25)           120.2354         estimate D2E/DX2                !
 ! A40   A(11,12,13)           118.3307         estimate D2E/DX2                !
 ! A41   A(11,12,27)           116.8734         estimate D2E/DX2                !
 ! A42   A(13,12,27)           124.7959         estimate D2E/DX2                !
 ! A43   A(9,13,12)            120.101          estimate D2E/DX2                !
 ! A44   A(9,13,26)            116.3824         estimate D2E/DX2                !
 ! A45   A(12,13,26)           123.5166         estimate D2E/DX2                !
 ! A46   A(12,27,28)           113.7882         estimate D2E/DX2                !
 ! A47   A(12,27,29)           109.1357         estimate D2E/DX2                !
 ! A48   A(12,27,30)           109.1377         estimate D2E/DX2                !
 ! A49   A(28,27,29)           107.9637         estimate D2E/DX2                !
 ! A50   A(28,27,30)           107.9666         estimate D2E/DX2                !
 ! A51   A(29,27,30)           108.7369         estimate D2E/DX2                !
 ! D1    D(14,1,2,3)           179.9516         estimate D2E/DX2                !
 ! D2    D(14,1,2,17)           59.225          estimate D2E/DX2                !
 ! D3    D(14,1,2,18)          -59.2777         estimate D2E/DX2                !
 ! D4    D(15,1,2,3)            60.3274         estimate D2E/DX2                !
 ! D5    D(15,1,2,17)          -60.3991         estimate D2E/DX2                !
 ! D6    D(15,1,2,18)         -178.9018         estimate D2E/DX2                !
 ! D7    D(16,1,2,3)           -60.4223         estimate D2E/DX2                !
 ! D8    D(16,1,2,17)          178.8512         estimate D2E/DX2                !
 ! D9    D(16,1,2,18)           60.3485         estimate D2E/DX2                !
 ! D10   D(1,2,3,4)            179.9953         estimate D2E/DX2                !
 ! D11   D(1,2,3,19)            59.5217         estimate D2E/DX2                !
 ! D12   D(1,2,3,20)           -59.5591         estimate D2E/DX2                !
 ! D13   D(17,2,3,4)           -59.5939         estimate D2E/DX2                !
 ! D14   D(17,2,3,19)          179.9325         estimate D2E/DX2                !
 ! D15   D(17,2,3,20)           60.8517         estimate D2E/DX2                !
 ! D16   D(18,2,3,4)            59.5542         estimate D2E/DX2                !
 ! D17   D(18,2,3,19)          -60.9194         estimate D2E/DX2                !
 ! D18   D(18,2,3,20)          179.9998         estimate D2E/DX2                !
 ! D19   D(2,3,4,5)            179.8397         estimate D2E/DX2                !
 ! D20   D(2,3,4,21)            -0.1145         estimate D2E/DX2                !
 ! D21   D(19,3,4,5)           -59.691          estimate D2E/DX2                !
 ! D22   D(19,3,4,21)          120.3548         estimate D2E/DX2                !
 ! D23   D(20,3,4,5)            59.431          estimate D2E/DX2                !
 ! D24   D(20,3,4,21)         -120.5232         estimate D2E/DX2                !
 ! D25   D(3,4,5,6)              0.0003         estimate D2E/DX2                !
 ! D26   D(3,4,5,7)            179.9855         estimate D2E/DX2                !
 ! D27   D(21,4,5,6)           179.9544         estimate D2E/DX2                !
 ! D28   D(21,4,5,7)            -0.0603         estimate D2E/DX2                !
 ! D29   D(4,5,7,8)            179.8646         estimate D2E/DX2                !
 ! D30   D(4,5,7,22)            -0.1459         estimate D2E/DX2                !
 ! D31   D(6,5,7,8)             -0.1505         estimate D2E/DX2                !
 ! D32   D(6,5,7,22)           179.839          estimate D2E/DX2                !
 ! D33   D(5,7,8,9)              5.6299         estimate D2E/DX2                !
 ! D34   D(5,7,8,10)          -174.3067         estimate D2E/DX2                !
 ! D35   D(22,7,8,9)          -174.3595         estimate D2E/DX2                !
 ! D36   D(22,7,8,10)            5.7038         estimate D2E/DX2                !
 ! D37   D(7,8,9,13)          -179.9407         estimate D2E/DX2                !
 ! D38   D(7,8,9,23)             0.0014         estimate D2E/DX2                !
 ! D39   D(10,8,9,13)           -0.0041         estimate D2E/DX2                !
 ! D40   D(10,8,9,23)          179.938          estimate D2E/DX2                !
 ! D41   D(7,8,10,11)          179.9602         estimate D2E/DX2                !
 ! D42   D(7,8,10,24)           -0.0487         estimate D2E/DX2                !
 ! D43   D(9,8,10,11)            0.0191         estimate D2E/DX2                !
 ! D44   D(9,8,10,24)         -179.9898         estimate D2E/DX2                !
 ! D45   D(8,9,13,12)           -0.0073         estimate D2E/DX2                !
 ! D46   D(8,9,13,26)          179.9759         estimate D2E/DX2                !
 ! D47   D(23,9,13,12)        -179.9531         estimate D2E/DX2                !
 ! D48   D(23,9,13,26)           0.0302         estimate D2E/DX2                !
 ! D49   D(8,10,11,12)          -0.0228         estimate D2E/DX2                !
 ! D50   D(8,10,11,25)         179.992          estimate D2E/DX2                !
 ! D51   D(24,10,11,12)        179.9859         estimate D2E/DX2                !
 ! D52   D(24,10,11,25)          0.0007         estimate D2E/DX2                !
 ! D53   D(10,11,12,13)          0.0107         estimate D2E/DX2                !
 ! D54   D(10,11,12,27)       -179.9745         estimate D2E/DX2                !
 ! D55   D(25,11,12,13)        179.9956         estimate D2E/DX2                !
 ! D56   D(25,11,12,27)          0.0105         estimate D2E/DX2                !
 ! D57   D(11,12,13,9)           0.0041         estimate D2E/DX2                !
 ! D58   D(11,12,13,26)       -179.9779         estimate D2E/DX2                !
 ! D59   D(27,12,13,9)         179.988          estimate D2E/DX2                !
 ! D60   D(27,12,13,26)          0.006          estimate D2E/DX2                !
 ! D61   D(11,12,27,28)       -177.6425         estimate D2E/DX2                !
 ! D62   D(11,12,27,29)         61.7127         estimate D2E/DX2                !
 ! D63   D(11,12,27,30)        -56.9928         estimate D2E/DX2                !
 ! D64   D(13,12,27,28)          2.3733         estimate D2E/DX2                !
 ! D65   D(13,12,27,29)       -118.2714         estimate D2E/DX2                !
 ! D66   D(13,12,27,30)        123.0231         estimate D2E/DX2                !
 --------------------------------------------------------------------------------
 Trust Radius=3.00D-01 FncErr=1.00D-07 GrdErr=1.00D-06
 Number of steps in this run=    157 maximum allowed number of steps=    180.
 GradGradGradGradGradGradGradGradGradGradGradGradGradGradGradGradGradGrad

                          Input orientation:                          
 ---------------------------------------------------------------------
 Center     Atomic      Atomic             Coordinates (Angstroms)
 Number     Number       Type             X           Y           Z
 ---------------------------------------------------------------------
      1          6           0       -2.004400    1.866710   -0.137690
      2          6           0       -0.656590    1.163150   -0.008120
      3          6           0        0.502160    2.163520   -0.090680
      4          7           0        1.782660    1.488650    0.033310
      5          6           0        2.962640    2.169870   -0.013230
      6          8           0        2.945940    3.381060   -0.163210
      7          7           0        4.141160    1.483420    0.109250
      8          6           0        5.481710    2.008960    0.084380
      9          6           0        5.805060    3.384410    0.036490
     10          6           0        6.541800    1.088780    0.108150
     11          6           0        7.869450    1.511870    0.085860
     12          6           0        8.196110    2.875450    0.038280
     13          6           0        7.139140    3.820040    0.013430
     14          1           0       -2.822370    1.118400   -0.075210
     15          1           0       -2.074670    2.389640   -1.115300
     16          1           0       -2.134680    2.605390    0.681730
     17          1           0       -0.559820    0.416030   -0.825850
     18          1           0       -0.619320    0.632130    0.967980
     19          1           0        0.400660    2.909600    0.728290
     20          1           0        0.459660    2.691500   -1.068980
     21          1           0        1.798890    0.464280    0.159500
     22          1           0        4.060620    0.462190    0.235300
     23          1           0        5.056550    4.154180    0.014730
     24          1           0        6.340190    0.025230    0.144700
     25          1           0        8.652900    0.763430    0.105820
     26         17           0        7.393010    5.563880   -0.046950
     27          6           0        9.672320    3.226870    0.016870
     28          9           0        9.921520    4.584150    0.021980
     29          9           0       10.249510    2.691380   -1.120640
     30          9           0       10.285780    2.676190    1.127830
 ---------------------------------------------------------------------
                    Distance matrix (angstroms):
                    1          2          3          4          5
     1  C    0.000000
     2  C    1.525902   0.000000
     3  C    2.524510   1.533055   0.000000
     4  N    3.809724   2.461221   1.452757   0.000000
     5  C    4.977839   3.756639   2.461707   1.363297   0.000000
     6  O    5.176850   4.233367   2.731250   2.230035   1.220555
     7  N    6.162451   4.809860   3.707402   2.359728   1.369352
     8  C    7.490754   6.196989   4.985023   3.735813   2.526091
     9  C    7.957476   6.832928   5.443114   4.446754   3.091429
    10  C    8.585054   7.199713   6.137740   4.776496   3.740839
    11  C    9.882753   8.533686   7.398160   6.087061   4.951724
    12  C   10.251777   9.016896   7.727894   6.561675   5.281070
    13  C    9.351078   8.236075   6.841374   5.841888   4.490760
    14  H    1.110381   2.167281   3.484970   4.621165   5.880117
    15  H    1.110907   2.177401   2.782271   4.124328   5.161138
    16  H    1.110887   2.177315   2.782947   4.124695   5.162879
    17  H    2.159826   1.111861   2.173016   2.715858   4.017963
    18  H    2.159894   1.111819   2.173392   2.716016   4.019683
    19  H    2.760771   2.170291   1.112497   2.100481   2.767814
    20  H    2.760285   2.169629   1.112493   2.100529   2.766155
    21  H    4.064498   2.558495   2.152096   1.032241   2.072001
    22  H    6.236687   4.775214   3.957704   2.506695   2.045360
    23  H    7.423797   6.448779   4.971550   4.221818   2.884914
    24  H    8.550028   7.090356   6.221759   4.788015   4.004031
    25  H   10.717022   9.318764   8.272450   6.908791   5.862705
    26  Cl  10.098941   9.174094   7.684281   6.934693   5.581095
    27  C   11.756688  10.533088   9.232232   8.078887   6.792493
    28  F   12.232642  11.117579   9.726072   8.707657   7.365867
    29  F   12.320900  11.068704   9.815818   8.629352   7.388965
    30  F   12.381653  11.104735   9.872528   8.655130   7.428779
                    6          7          8          9         10
     6  O    0.000000
     7  N    2.259164   0.000000
     8  C    2.893802   1.440099   0.000000
     9  C    2.866088   2.527374   1.413758   0.000000
    10  C    4.272984   2.432861   1.403954   2.412020   0.000000
    11  C    5.272273   3.728472   2.438935   2.787571   1.393613
    12  C    5.278307   4.287820   2.849719   2.444619   2.435942
    13  C    4.219814   3.802218   2.456037   1.403593   2.797422
    14  H    6.196836   6.975530   8.353222   8.920753   9.366012
    15  H    5.205374   6.399789   7.660485   8.025356   8.799581
    16  H    5.208482   6.400993   7.663025   8.003916   8.826687
    17  H    4.639057   4.910493   6.313955   7.075776   7.194300
    18  H    4.641905   4.911648   6.316564   7.050913   7.226996
    19  H    2.737791   4.050746   5.200273   5.469147   6.435337
    20  H    2.734502   4.049830   5.197796   5.502317   6.398967
    21  H    3.150789   2.554878   3.994351   4.959001   4.784123
    22  H    3.149782   1.032127   2.105890   3.409100   2.562233
    23  H    2.254784   2.824860   2.188054   1.073912   3.407546
    24  H    4.783026   2.638808   2.162362   3.403258   1.083107
    25  H    6.284406   4.568829   3.407088   3.870986   2.136025
    26  Cl   4.955265   5.220065   4.038288   2.697895   4.557975
    27  C    6.730557   5.800162   4.364525   3.870517   3.792086
    28  F    7.080991   6.560084   5.132973   4.287753   4.862874
    29  F    7.398274   6.346947   4.964845   4.644607   4.222010
    30  F    7.485778   6.341653   4.961156   4.665774   4.192494
                   11         12         13         14         15
    11  C    0.000000
    12  C    1.402969   0.000000
    13  C    2.422034   1.417764   0.000000
    14  H   10.700270  11.158271  10.321744   0.000000
    15  H   10.054789  10.346771   9.392251   1.804687   0.000000
    16  H   10.081342  10.354332   9.376872   1.804720   1.810930
    17  H    8.548957   9.135742   8.459649   2.485139   2.504733
    18  H    8.579702   9.143776   8.442016   2.485585   3.089812
    19  H    7.625562   7.826003   6.837181   3.773848   3.129927
    20  H    7.591454   7.817450   6.860078   3.772790   2.552664
    21  H    6.160728   6.837606   6.308782   4.673222   4.509611
    22  H    3.953650   4.792173   4.560885   6.921169   6.571223
    23  H    3.859957   3.390065   2.109226   8.444017   7.432689
    24  H    2.133588   3.402869   3.880224   9.230162   8.831076
    25  H    1.083676   2.161908   3.412165  11.482186  10.918629
    26  Cl   4.082085   2.807114   1.763257  11.140785  10.042616
    27  C    2.489242   1.517613   2.601704  12.671677  11.831084
    28  F    3.695129   2.428366   2.885407  13.207104  12.248178
    29  F    2.917460   2.365043   3.497769  13.207620  12.327874
    30  F    2.877498   2.365068   3.528686  13.255098  12.565607
                   16         17         18         19         20
    16  H    0.000000
    17  H    3.089705   0.000000
    18  H    2.504398   1.807779   0.000000
    19  H    2.553950   3.091240   2.506926   0.000000
    20  H    3.130974   2.505238   3.091021   1.811416   0.000000
    21  H    4.508886   2.556708   2.555299   2.873701   2.874580
    22  H    6.570719   4.740953   4.739993   4.430368   4.431465
    23  H    7.386300   6.798820   6.747520   4.871905   4.944215
    24  H    8.875193   6.978885   7.034266   6.628588   6.569829
    25  H   10.958849   9.266224   9.313143   8.549443   8.498635
    26  Cl  10.003025   9.505501   9.463069   7.519252   7.574065
    27  C   11.842024  10.644608  10.656225   9.304325   9.291867
    28  F   12.235306  11.311522  11.297021   9.692769   9.710773
    29  F   12.514955  11.050146  11.257633  10.023273   9.789986
    30  F   12.428670  11.249543  11.096168   9.895944  10.068706
                   21         22         23         24         25
    21  H    0.000000
    22  H    2.263001   0.000000
    23  H    4.924294   3.830316   0.000000
    24  H    4.562498   2.322839   4.325835   0.000000
    25  H    6.860745   4.603971   4.943604   2.427978   0.000000
    26  Cl   7.572498   6.100142   2.729488   5.641082   4.965378
    27  C    8.345247   6.259580   4.707998   4.622762   2.667521
    28  F    9.108752   7.168417   4.883939   5.798684   4.026702
    29  F    8.832424   6.716414   5.513228   4.898186   2.787536
    30  F    8.823690   6.667160   5.546917   4.854051   2.714674
                   26         27         28         29         30
    26  Cl   0.000000
    27  C    3.265110   0.000000
    28  F    2.712561   1.379977   0.000000
    29  F    4.190902   1.383411   2.235114   0.000000
    30  F    4.252879   1.383407   2.235151   2.248814   0.000000
 Stoichiometry    C11H12ClF3N2O
 Framework group  C1[X(C11H12ClF3N2O)]
 Deg. of freedom    84
 Full point group                 C1      NOp   1
 Largest Abelian subgroup         C1      NOp   1
 Largest concise Abelian subgroup C1      NOp   1
                         Standard orientation:                         
 ---------------------------------------------------------------------
 Center     Atomic      Atomic             Coordinates (Angstroms)
 Number     Number       Type             X           Y           Z
 ---------------------------------------------------------------------
      1          6           0        7.549081    0.498803    0.054881
      2          6           0        6.355960   -0.449372   -0.021285
      3          6           0        5.031004    0.319706    0.035880
      4          7           0        3.898668   -0.587484   -0.037087
      5          6           0        2.612364   -0.137229   -0.001419
      6          8           0        2.403046    1.061413    0.094479
      7          7           0        1.582381   -1.036665   -0.074037
      8          6           0        0.167349   -0.770179   -0.050488
      9          6           0       -0.407558    0.521384   -0.058264
     10          6           0       -0.701748   -1.872256   -0.016096
     11          6           0       -2.084937   -1.704015    0.009202
     12          6           0       -2.660874   -0.424733    0.001696
     13          6           0       -1.799406    0.700766   -0.032646
     14          1           0        8.492239   -0.085644    0.012198
     15          1           0        7.527788    1.070609    1.007089
     16          1           0        7.532266    1.209838   -0.798475
     17          1           0        6.407259   -1.162510    0.830207
     18          1           0        6.411196   -1.022883   -0.972168
     19          1           0        4.984536    1.032649   -0.816883
     20          1           0        4.981492    0.891313    0.989009
     21          1           0        4.073636   -1.601605   -0.117504
     22          1           0        1.851816   -2.029624   -0.156040
     23          1           0        0.183646    1.417575   -0.082892
     24          1           0       -0.304763   -2.879962   -0.008810
     25          1           0       -2.714442   -2.585717    0.035257
     26         17           0       -2.374978    2.367387   -0.045401
     27          6           0       -4.176569   -0.354609    0.031725
     28          9           0       -4.675651    0.930504   -0.029403
     29          9           0       -4.634314   -0.934912    1.201146
     30          9           0       -4.684676   -1.061312   -1.043548
 ---------------------------------------------------------------------
 Rotational constants (GHZ):      1.0611549      0.1229161      0.1127919
 General basis read from cards:  (6D, 7F)
 There are   370 symmetry adapted cartesian basis functions of A   symmetry.
 There are   370 symmetry adapted basis functions of A   symmetry.
   370 basis functions,   648 primitive gaussians,   370 cartesian basis functions
    72 alpha electrons       72 beta electrons
       nuclear repulsion energy      1413.4263362217 Hartrees.
 NAtoms=   30 NActive=   30 NUniq=   30 SFac= 1.00D+00 NAtFMM=   60 NAOKFM=F Big=F
 Integral buffers will be    131072 words long.
 Raffenetti 2 integral format.
 Two-electron integral symmetry is turned on.
 One-electron integrals computed using PRISM.
 NBasis=   370 RedAO= T EigKep=  1.19D-06  NBF=   370
 NBsUse=   369 1.00D-06 EigRej=  6.78D-07 NBFU=   369
 ExpMin= 4.38D-02 ExpMax= 2.52D+04 ExpMxC= 3.78D+03 IAcc=3 IRadAn=         5 AccDes= 0.00D+00
 Harris functional with IExCor= 1009 and IRadAn=       5 diagonalized for initial guess.
 HarFok:  IExCor= 1009 AccDes= 0.00D+00 IRadAn=         5 IDoV= 1 UseB2=F ITyADJ=14
 ICtDFT=  3500011 ScaDFX=  1.000000  1.000000  1.000000  1.000000
 FoFCou: FMM=F IPFlag=           0 FMFlag=      100000 FMFlg1=           0
         NFxFlg=           0 DoJE=T BraDBF=F KetDBF=T FulRan=T
         wScrn=  0.000000 ICntrl=     500 IOpCl=  0 I1Cent=   200000004 NGrid=           0
         NMat0=    1 NMatS0=      1 NMatT0=    0 NMatD0=    1 NMtDS0=    0 NMtDT0=    0
 Petite list used in FoFCou.
 Requested convergence on RMS density matrix=1.00D-08 within 128 cycles.
 Requested convergence on MAX density matrix=1.00D-06.
 Requested convergence on             energy=1.00D-06.
 No special actions if energy rises.
 SCF Done:  E(RM062X) =  -1370.51526383     A.U. after   16 cycles
            NFock= 16  Conv=0.53D-08     -V/T= 2.0068

 **********************************************************************

            Population analysis using the SCF density.

 **********************************************************************

 Orbital symmetries:
       Occupied  (A) (A) (A) (A) (A) (A) (A) (A) (A) (A) (A) (A)
                 (A) (A) (A) (A) (A) (A) (A) (A) (A) (A) (A) (A)
                 (A) (A) (A) (A) (A) (A) (A) (A) (A) (A) (A) (A)
                 (A) (A) (A) (A) (A) (A) (A) (A) (A) (A) (A) (A)
                 (A) (A) (A) (A) (A) (A) (A) (A) (A) (A) (A) (A)
                 (A) (A) (A) (A) (A) (A) (A) (A) (A) (A) (A) (A)
       Virtual   (A) (A) (A) (A) (A) (A) (A) (A) (A) (A) (A) (A)
                 (A) (A) (A) (A) (A) (A) (A) (A) (A) (A) (A) (A)
                 (A) (A) (A) (A) (A) (A) (A) (A) (A) (A) (A) (A)
                 (A) (A) (A) (A) (A) (A) (A) (A) (A) (A) (A) (A)
                 (A) (A) (A) (A) (A) (A) (A) (A) (A) (A) (A) (A)
                 (A) (A) (A) (A) (A) (A) (A) (A) (A) (A) (A) (A)
                 (A) (A) (A) (A) (A) (A) (A) (A) (A) (A) (A) (A)
                 (A) (A) (A) (A) (A) (A) (A) (A) (A) (A) (A) (A)
                 (A) (A) (A) (A) (A) (A) (A) (A) (A) (A) (A) (A)
                 (A) (A) (A) (A) (A) (A) (A) (A) (A) (A) (A) (A)
                 (A) (A) (A) (A) (A) (A) (A) (A) (A) (A) (A) (A)
                 (A) (A) (A) (A) (A) (A) (A) (A) (A) (A) (A) (A)
                 (A) (A) (A) (A) (A) (A) (A) (A) (A) (A) (A) (A)
                 (A) (A) (A) (A) (A) (A) (A) (A) (A) (A) (A) (A)
                 (A) (A) (A) (A) (A) (A) (A) (A) (A) (A) (A) (A)
                 (A) (A) (A) (A) (A) (A) (A) (A) (A) (A) (A) (A)
                 (A) (A) (A) (A) (A) (A) (A) (A) (A) (A) (A) (A)
                 (A) (A) (A) (A) (A) (A) (A) (A) (A) (A) (A) (A)
                 (A) (A) (A) (A) (A) (A) (A) (A) (A) (A) (A) (A)
                 (A) (A) (A) (A) (A) (A) (A) (A) (A) (A) (A) (A)
                 (A) (A) (A) (A) (A) (A) (A) (A) (A) (A) (A) (A)
                 (A) (A) (A) (A) (A) (A) (A) (A) (A) (A) (A) (A)
                 (A) (A) (A) (A) (A) (A) (A) (A) (A) (A) (A) (A)
                 (A) (A) (A) (A) (A) (A) (A) (A) (A) (A) (A) (A)
                 (A) (A) (A) (A) (A) (A) (A) (A) (A)
 The electronic state is 1-A.
 Alpha  occ. eigenvalues -- -102.67726 -25.30163 -25.30105 -25.30052 -19.61389
 Alpha  occ. eigenvalues --  -14.82911 -14.80499 -10.82456 -10.69598 -10.64605
 Alpha  occ. eigenvalues --  -10.64274 -10.60256 -10.59957 -10.59352 -10.58600
 Alpha  occ. eigenvalues --  -10.57861 -10.57159 -10.55846  -9.82325  -7.54752
 Alpha  occ. eigenvalues --   -7.54061  -7.54016  -1.44271  -1.36383  -1.36317
 Alpha  occ. eigenvalues --   -1.19100  -1.06824  -1.04305  -1.00658  -0.94965
 Alpha  occ. eigenvalues --   -0.90593  -0.89019  -0.85332  -0.81586  -0.78681
 Alpha  occ. eigenvalues --   -0.73944  -0.72273  -0.69836  -0.68838  -0.67832
 Alpha  occ. eigenvalues --   -0.67268  -0.66056  -0.64581  -0.61981  -0.57403
 Alpha  occ. eigenvalues --   -0.56959  -0.56489  -0.56042  -0.55226  -0.54446
 Alpha  occ. eigenvalues --   -0.53669  -0.53021  -0.52574  -0.51559  -0.51307
 Alpha  occ. eigenvalues --   -0.51103  -0.50062  -0.48961  -0.48016  -0.46932
 Alpha  occ. eigenvalues --   -0.45513  -0.44305  -0.44024  -0.42515  -0.41716
 Alpha  occ. eigenvalues --   -0.41383  -0.38224  -0.37714  -0.35152  -0.33242
 Alpha  occ. eigenvalues --   -0.31814  -0.29813
 Alpha virt. eigenvalues --   -0.01502  -0.01382  -0.00604   0.01356   0.02173
 Alpha virt. eigenvalues --    0.02503   0.03307   0.03368   0.03853   0.05066
 Alpha virt. eigenvalues --    0.05282   0.05551   0.05992   0.06453   0.06710
 Alpha virt. eigenvalues --    0.07127   0.07489   0.07925   0.08644   0.08915
 Alpha virt. eigenvalues --    0.09546   0.09629   0.09878   0.10144   0.11394
 Alpha virt. eigenvalues --    0.11903   0.11987   0.12274   0.12344   0.13152
 Alpha virt. eigenvalues --    0.14041   0.14554   0.14581   0.15225   0.15498
 Alpha virt. eigenvalues --    0.15923   0.17112   0.17353   0.17693   0.18300
 Alpha virt. eigenvalues --    0.18775   0.18991   0.19716   0.19929   0.20380
 Alpha virt. eigenvalues --    0.21120   0.21550   0.21659   0.21909   0.22194
 Alpha virt. eigenvalues --    0.22770   0.23119   0.23399   0.23714   0.24226
 Alpha virt. eigenvalues --    0.24401   0.24557   0.24777   0.25420   0.25941
 Alpha virt. eigenvalues --    0.26561   0.27223   0.27710   0.28397   0.28628
 Alpha virt. eigenvalues --    0.28969   0.29173   0.29798   0.30455   0.30729
 Alpha virt. eigenvalues --    0.30886   0.31130   0.31752   0.32259   0.33426
 Alpha virt. eigenvalues --    0.33631   0.34072   0.34313   0.35110   0.35898
 Alpha virt. eigenvalues --    0.37000   0.37205   0.37836   0.39044   0.39302
 Alpha virt. eigenvalues --    0.39638   0.39892   0.41193   0.41589   0.41768
 Alpha virt. eigenvalues --    0.42525   0.42936   0.44238   0.45309   0.45813
 Alpha virt. eigenvalues --    0.46378   0.48853   0.50395   0.51339   0.52391
 Alpha virt. eigenvalues --    0.52631   0.53950   0.57626   0.59724   0.60565
 Alpha virt. eigenvalues --    0.66268   0.66930   0.67726   0.67885   0.69647
 Alpha virt. eigenvalues --    0.70408   0.71667   0.72385   0.72564   0.73238
 Alpha virt. eigenvalues --    0.74466   0.75097   0.75887   0.77332   0.78388
 Alpha virt. eigenvalues --    0.78988   0.79254   0.80565   0.81743   0.82751
 Alpha virt. eigenvalues --    0.83095   0.85150   0.85243   0.85818   0.86285
 Alpha virt. eigenvalues --    0.87414   0.87863   0.90298   0.91846   0.94733
 Alpha virt. eigenvalues --    0.94834   0.95111   0.96260   0.98306   0.98598
 Alpha virt. eigenvalues --    1.00579   1.01632   1.01997   1.02957   1.03343
 Alpha virt. eigenvalues --    1.03542   1.04031   1.05842   1.07932   1.09174
 Alpha virt. eigenvalues --    1.09734   1.09840   1.11406   1.12673   1.13713
 Alpha virt. eigenvalues --    1.14589   1.15769   1.16610   1.18945   1.19491
 Alpha virt. eigenvalues --    1.20800   1.22901   1.23231   1.27027   1.27331
 Alpha virt. eigenvalues --    1.30030   1.30502   1.31290   1.34596   1.35236
 Alpha virt. eigenvalues --    1.38389   1.38442   1.40423   1.41099   1.43637
 Alpha virt. eigenvalues --    1.43785   1.45668   1.46356   1.47745   1.48609
 Alpha virt. eigenvalues --    1.50668   1.51094   1.54837   1.56113   1.56823
 Alpha virt. eigenvalues --    1.57445   1.58202   1.59091   1.65075   1.66774
 Alpha virt. eigenvalues --    1.67297   1.68741   1.69299   1.73711   1.73927
 Alpha virt. eigenvalues --    1.74900   1.75237   1.77124   1.78689   1.79279
 Alpha virt. eigenvalues --    1.80835   1.82546   1.83939   1.85788   1.86155
 Alpha virt. eigenvalues --    1.86640   1.86867   1.87749   1.88415   1.89047
 Alpha virt. eigenvalues --    1.90421   1.91218   1.91885   1.92342   1.93855
 Alpha virt. eigenvalues --    1.95807   1.97405   1.98903   2.00903   2.02192
 Alpha virt. eigenvalues --    2.03065   2.03742   2.03867   2.04277   2.06457
 Alpha virt. eigenvalues --    2.07276   2.08499   2.08890   2.09450   2.11546
 Alpha virt. eigenvalues --    2.12609   2.14150   2.15513   2.16249   2.18640
 Alpha virt. eigenvalues --    2.18726   2.22406   2.23257   2.24498   2.25533
 Alpha virt. eigenvalues --    2.27968   2.28481   2.30329   2.34354   2.36041
 Alpha virt. eigenvalues --    2.36825   2.38062   2.38320   2.40070   2.40284
 Alpha virt. eigenvalues --    2.47458   2.47593   2.48562   2.55450   2.58909
 Alpha virt. eigenvalues --    2.63003   2.63359   2.64311   2.66281   2.69388
 Alpha virt. eigenvalues --    2.72933   2.73279   2.76828   2.77334   2.78440
 Alpha virt. eigenvalues --    2.78856   2.83034   2.84977   2.91114   2.94125
 Alpha virt. eigenvalues --    2.98279   3.09769   3.11542   3.14125   3.26251
 Alpha virt. eigenvalues --    3.26998   3.27720   3.32827   3.38584   4.13401
 Alpha virt. eigenvalues --    4.23867   4.25395   4.28922   4.33079   4.39165
 Alpha virt. eigenvalues --    4.39921   4.40729   4.45188   4.47017   4.49693
 Alpha virt. eigenvalues --    4.57078   4.61472   4.67217   4.77345   5.45387
 Alpha virt. eigenvalues --    6.10188   6.86918
          Condensed to atoms (all electrons):
               1          2          3          4          5          6
     1  C    5.544776   0.007998  -0.007401  -0.004010  -0.029001  -0.002171
     2  C    0.007998   6.141409  -0.401036  -0.085093   0.129564   0.020103
     3  C   -0.007401  -0.401036   6.815820   0.378009  -0.519582  -0.087076
     4  N   -0.004010  -0.085093   0.378009   7.752524   0.337362  -0.205496
     5  C   -0.029001   0.129564  -0.519582   0.337362   6.616118   0.652173
     6  O   -0.002171   0.020103  -0.087076  -0.205496   0.652173   8.290752
     7  N   -0.002132   0.019356  -0.154621  -0.439294   0.085516  -0.075136
     8  C   -0.005239   0.020672  -0.334696  -0.222322  -0.679017  -0.464753
     9  C   -0.001970  -0.008580  -0.054705   0.097629   0.517078   0.475178
    10  C   -0.001166   0.006359  -0.080406  -0.123361  -1.444541  -0.118059
    11  C    0.000150  -0.000496   0.021314   0.015104   0.286241  -0.002397
    12  C   -0.000234   0.001474  -0.042780  -0.012075  -0.507321  -0.005622
    13  C   -0.000254  -0.000364  -0.022868   0.009532  -0.098784   0.101972
    14  H    0.410570  -0.084716   0.027335   0.000548  -0.002520   0.000009
    15  H    0.415713  -0.065145  -0.007767   0.000626   0.001237  -0.000062
    16  H    0.416570  -0.064852  -0.007979   0.000620   0.000248  -0.000060
    17  H   -0.025435   0.410081  -0.068785   0.007469  -0.010300  -0.000244
    18  H   -0.032720   0.417752  -0.085158   0.007373   0.004050  -0.000225
    19  H    0.003665  -0.054843   0.415618  -0.058271   0.000694   0.000817
    20  H    0.006779  -0.056182   0.435068  -0.057584  -0.015275   0.000971
    21  H   -0.001786   0.000521  -0.087975   0.229681   0.039101   0.008596
    22  H   -0.000131  -0.000101   0.001659   0.027188  -0.027984   0.007262
    23  H    0.000001   0.000018   0.001421   0.000209   0.005871  -0.000614
    24  H   -0.000001   0.000015  -0.000355   0.000944  -0.005942   0.000012
    25  H    0.000000   0.000000   0.000026   0.000006   0.003313   0.000000
    26  Cl   0.000007  -0.000044   0.001701   0.001138   0.015300  -0.001167
    27  C   -0.000013   0.000068  -0.003402   0.000421  -0.148521   0.001310
    28  F   -0.000000   0.000000   0.000000  -0.000000   0.000369   0.000001
    29  F   -0.000000  -0.000000  -0.000001  -0.000000   0.000119  -0.000001
    30  F   -0.000000   0.000000  -0.000002  -0.000000  -0.000157  -0.000000
               7          8          9         10         11         12
     1  C   -0.002132  -0.005239  -0.001970  -0.001166   0.000150  -0.000234
     2  C    0.019356   0.020672  -0.008580   0.006359  -0.000496   0.001474
     3  C   -0.154621  -0.334696  -0.054705  -0.080406   0.021314  -0.042780
     4  N   -0.439294  -0.222322   0.097629  -0.123361   0.015104  -0.012075
     5  C    0.085516  -0.679017   0.517078  -1.444541   0.286241  -0.507321
     6  O   -0.075136  -0.464753   0.475178  -0.118059  -0.002397  -0.005622
     7  N    7.854852   0.150919  -0.448976   0.339294   0.103535  -0.043357
     8  C    0.150919  14.323397  -2.136146   0.534541  -0.457177  -2.436315
     9  C   -0.448976  -2.136146  13.077003  -6.274297   1.203421  -0.786016
    10  C    0.339294   0.534541  -6.274297  15.963635  -1.327857  -0.318910
    11  C    0.103535  -0.457177   1.203421  -1.327857  13.987029   2.680132
    12  C   -0.043357  -2.436315  -0.786016  -0.318910   2.680132  22.066512
    13  C    0.007549  -1.372314  -0.014377  -0.638940  -9.649439 -10.642882
    14  H    0.000010  -0.000044   0.000002  -0.000001   0.000000  -0.000000
    15  H    0.000018   0.000012  -0.000017  -0.000003   0.000000   0.000000
    16  H    0.000017  -0.000012  -0.000038   0.000000   0.000000  -0.000000
    17  H   -0.000119  -0.000991  -0.000259  -0.000040   0.000013  -0.000008
    18  H    0.000354  -0.000192   0.000002   0.000088   0.000000   0.000000
    19  H    0.000477  -0.001458   0.002434  -0.000346  -0.000028   0.000058
    20  H    0.000339  -0.006420   0.003207  -0.001429   0.000026  -0.000067
    21  H    0.034012   0.021644  -0.001007   0.001633  -0.000048   0.000036
    22  H    0.222296  -0.029944   0.076626  -0.080177   0.025395   0.009522
    23  H   -0.015277   0.045181   0.240080   0.058882  -0.033472   0.044985
    24  H   -0.012400   0.098107   0.062065   0.101893   0.028738   0.018613
    25  H    0.000296  -0.006016  -0.028562  -0.083727   0.196946   0.144681
    26  Cl   0.000807  -0.021372  -0.003130   0.064513   0.031971  -0.273299
    27  C   -0.011571  -1.049872  -0.665336   0.263629  -1.424877  -2.632759
    28  F   -0.000010   0.020644   0.027809  -0.011230   0.070991   0.188471
    29  F   -0.000041   0.008947  -0.009417   0.011954  -0.101100   0.291036
    30  F   -0.000004   0.005260  -0.010992   0.029461  -0.064626   0.276178
              13         14         15         16         17         18
     1  C   -0.000254   0.410570   0.415713   0.416570  -0.025435  -0.032720
     2  C   -0.000364  -0.084716  -0.065145  -0.064852   0.410081   0.417752
     3  C   -0.022868   0.027335  -0.007767  -0.007979  -0.068785  -0.085158
     4  N    0.009532   0.000548   0.000626   0.000620   0.007469   0.007373
     5  C   -0.098784  -0.002520   0.001237   0.000248  -0.010300   0.004050
     6  O    0.101972   0.000009  -0.000062  -0.000060  -0.000244  -0.000225
     7  N    0.007549   0.000010   0.000018   0.000017  -0.000119   0.000354
     8  C   -1.372314  -0.000044   0.000012  -0.000012  -0.000991  -0.000192
     9  C   -0.014377   0.000002  -0.000017  -0.000038  -0.000259   0.000002
    10  C   -0.638940  -0.000001  -0.000003   0.000000  -0.000040   0.000088
    11  C   -9.649439   0.000000   0.000000   0.000000   0.000013   0.000000
    12  C  -10.642882  -0.000000   0.000000  -0.000000  -0.000008   0.000000
    13  C   26.768250  -0.000000   0.000001  -0.000001  -0.000009   0.000004
    14  H   -0.000000   0.490301  -0.024017  -0.024009  -0.003079  -0.003071
    15  H    0.000001  -0.024017   0.492169  -0.027771  -0.004854   0.003955
    16  H   -0.000001  -0.024009  -0.027771   0.492350   0.003958  -0.004865
    17  H   -0.000009  -0.003079  -0.004854   0.003958   0.511664  -0.034048
    18  H    0.000004  -0.003071   0.003955  -0.004865  -0.034048   0.511685
    19  H    0.000287  -0.000060  -0.000337   0.002700   0.003900  -0.005394
    20  H    0.000096  -0.000061   0.002722  -0.000329  -0.005403   0.003900
    21  H   -0.000141  -0.000003   0.000001   0.000001   0.000974   0.001075
    22  H    0.002814  -0.000000  -0.000000  -0.000000   0.000002   0.000002
    23  H   -0.045764  -0.000000  -0.000000   0.000000  -0.000000  -0.000000
    24  H   -0.011806  -0.000000  -0.000000   0.000000   0.000000   0.000000
    25  H    0.091877  -0.000000   0.000000   0.000000  -0.000000   0.000000
    26  Cl  -0.101394   0.000000  -0.000000  -0.000000  -0.000000   0.000000
    27  C    2.024277  -0.000000  -0.000000  -0.000000  -0.000000  -0.000000
    28  F   -0.204641  -0.000000  -0.000000  -0.000000  -0.000000  -0.000000
    29  F   -0.142315  -0.000000  -0.000000   0.000000  -0.000000  -0.000000
    30  F   -0.176747  -0.000000   0.000000  -0.000000  -0.000000   0.000000
              19         20         21         22         23         24
     1  C    0.003665   0.006779  -0.001786  -0.000131   0.000001  -0.000001
     2  C   -0.054843  -0.056182   0.000521  -0.000101   0.000018   0.000015
     3  C    0.415618   0.435068  -0.087975   0.001659   0.001421  -0.000355
     4  N   -0.058271  -0.057584   0.229681   0.027188   0.000209   0.000944
     5  C    0.000694  -0.015275   0.039101  -0.027984   0.005871  -0.005942
     6  O    0.000817   0.000971   0.008596   0.007262  -0.000614   0.000012
     7  N    0.000477   0.000339   0.034012   0.222296  -0.015277  -0.012400
     8  C   -0.001458  -0.006420   0.021644  -0.029944   0.045181   0.098107
     9  C    0.002434   0.003207  -0.001007   0.076626   0.240080   0.062065
    10  C   -0.000346  -0.001429   0.001633  -0.080177   0.058882   0.101893
    11  C   -0.000028   0.000026  -0.000048   0.025395  -0.033472   0.028738
    12  C    0.000058  -0.000067   0.000036   0.009522   0.044985   0.018613
    13  C    0.000287   0.000096  -0.000141   0.002814  -0.045764  -0.011806
    14  H   -0.000060  -0.000061  -0.000003  -0.000000  -0.000000  -0.000000
    15  H   -0.000337   0.002722   0.000001  -0.000000  -0.000000  -0.000000
    16  H    0.002700  -0.000329   0.000001  -0.000000   0.000000   0.000000
    17  H    0.003900  -0.005403   0.000974   0.000002  -0.000000   0.000000
    18  H   -0.005394   0.003900   0.001075   0.000002  -0.000000   0.000000
    19  H    0.493617  -0.034886   0.002799   0.000003  -0.000001   0.000000
    20  H   -0.034886   0.492613   0.002795   0.000006  -0.000000   0.000000
    21  H    0.002799   0.002795   0.346418   0.002515  -0.000000   0.000005
    22  H    0.000003   0.000006   0.002515   0.346747  -0.000116   0.006533
    23  H   -0.000001  -0.000000  -0.000000  -0.000116   0.402636  -0.000102
    24  H    0.000000   0.000000   0.000005   0.006533  -0.000102   0.501677
    25  H   -0.000000  -0.000000  -0.000000  -0.000009   0.000010  -0.003985
    26  Cl   0.000000   0.000003   0.000003   0.000052   0.000398  -0.000141
    27  C    0.000000  -0.000002  -0.000004   0.001409   0.004114   0.013186
    28  F   -0.000000  -0.000000  -0.000000  -0.000000   0.000076   0.000012
    29  F    0.000000  -0.000000   0.000000   0.000000   0.000007   0.000016
    30  F   -0.000000   0.000000   0.000000   0.000000   0.000007   0.000024
              25         26         27         28         29         30
     1  C    0.000000   0.000007  -0.000013  -0.000000  -0.000000  -0.000000
     2  C    0.000000  -0.000044   0.000068   0.000000  -0.000000   0.000000
     3  C    0.000026   0.001701  -0.003402   0.000000  -0.000001  -0.000002
     4  N    0.000006   0.001138   0.000421  -0.000000  -0.000000  -0.000000
     5  C    0.003313   0.015300  -0.148521   0.000369   0.000119  -0.000157
     6  O    0.000000  -0.001167   0.001310   0.000001  -0.000001  -0.000000
     7  N    0.000296   0.000807  -0.011571  -0.000010  -0.000041  -0.000004
     8  C   -0.006016  -0.021372  -1.049872   0.020644   0.008947   0.005260
     9  C   -0.028562  -0.003130  -0.665336   0.027809  -0.009417  -0.010992
    10  C   -0.083727   0.064513   0.263629  -0.011230   0.011954   0.029461
    11  C    0.196946   0.031971  -1.424877   0.070991  -0.101100  -0.064626
    12  C    0.144681  -0.273299  -2.632759   0.188471   0.291036   0.276178
    13  C    0.091877  -0.101394   2.024277  -0.204641  -0.142315  -0.176747
    14  H   -0.000000   0.000000  -0.000000  -0.000000  -0.000000  -0.000000
    15  H    0.000000  -0.000000  -0.000000  -0.000000  -0.000000   0.000000
    16  H    0.000000  -0.000000  -0.000000  -0.000000   0.000000  -0.000000
    17  H   -0.000000  -0.000000  -0.000000  -0.000000  -0.000000  -0.000000
    18  H    0.000000   0.000000  -0.000000  -0.000000  -0.000000   0.000000
    19  H   -0.000000   0.000000   0.000000  -0.000000   0.000000  -0.000000
    20  H   -0.000000   0.000003  -0.000002  -0.000000  -0.000000   0.000000
    21  H   -0.000000   0.000003  -0.000004  -0.000000   0.000000   0.000000
    22  H   -0.000009   0.000052   0.001409  -0.000000   0.000000   0.000000
    23  H    0.000010   0.000398   0.004114   0.000076   0.000007   0.000007
    24  H   -0.003985  -0.000141   0.013186   0.000012   0.000016   0.000024
    25  H    0.456426   0.000387  -0.017195   0.000421   0.000081   0.000325
    26  Cl   0.000387  16.944748   0.058055  -0.022087   0.005078   0.005228
    27  C   -0.017195   0.058055   7.993970   0.026815   0.069445   0.067980
    28  F    0.000421  -0.022087   0.026815   9.286624  -0.039494  -0.038865
    29  F    0.000081   0.005078   0.069445  -0.039494   9.218901  -0.051575
    30  F    0.000325   0.005228   0.067980  -0.038865  -0.051575   9.224849
 Mulliken charges:
               1
     1  C   -0.692568
     2  C   -0.353939
     3  C   -0.131375
     4  N   -0.658874
     5  C    0.794588
     6  O   -0.596073
     7  N   -0.616710
     8  C   -0.005026
     9  C    0.661294
    10  C   -0.871392
    11  C    0.410512
    12  C   -2.020053
    13  C    0.116379
    14  H    0.212808
    15  H    0.213518
    16  H    0.213451
    17  H    0.215512
    18  H    0.215433
    19  H    0.228552
    20  H    0.229112
    21  H    0.399154
    22  H    0.408429
    23  H    0.291449
    24  H    0.202893
    25  H    0.244698
    26  Cl   0.293245
    27  C    1.428873
    28  F   -0.305908
    29  F   -0.261640
    30  F   -0.266343
 Sum of Mulliken charges =  -0.00000
 Mulliken charges with hydrogens summed into heavy atoms:
               1
     1  C   -0.052791
     2  C    0.077007
     3  C    0.326289
     4  N   -0.259721
     5  C    0.794588
     6  O   -0.596073
     7  N   -0.208281
     8  C   -0.005026
     9  C    0.952744
    10  C   -0.668499
    11  C    0.655210
    12  C   -2.020053
    13  C    0.116379
    26  Cl   0.293245
    27  C    1.428873
    28  F   -0.305908
    29  F   -0.261640
    30  F   -0.266343
 Electronic spatial extent (au):  <R**2>=           8894.3936
 Charge=             -0.0000 electrons
 Dipole moment (field-independent basis, Debye):
    X=              6.2565    Y=             -5.2302    Z=             -0.3668  Tot=              8.1629
 Quadrupole moment (field-independent basis, Debye-Ang):
   XX=           -105.4063   YY=           -105.0369   ZZ=           -115.7431
   XY=             -8.3070   XZ=             -0.7816   YZ=              0.1312
 Traceless Quadrupole moment (field-independent basis, Debye-Ang):
   XX=              3.3225   YY=              3.6919   ZZ=             -7.0143
   XY=             -8.3070   XZ=             -0.7816   YZ=              0.1312
 Octapole moment (field-independent basis, Debye-Ang**2):
  XXX=            138.9748  YYY=            -25.6638  ZZZ=              1.1358  XYY=            -18.5396
  XXY=            -26.2531  XXZ=             -1.9685  XZZ=            -17.0057  YZZ=              7.1072
  YYZ=             -1.2506  XYZ=              0.7609
 Hexadecapole moment (field-independent basis, Debye-Ang**3):
 XXXX=          -9534.9054 YYYY=          -1013.2700 ZZZZ=           -217.7665 XXXY=           -109.0899
 XXXZ=             -6.9999 YYYX=            -31.6366 YYYZ=              0.5183 ZZZX=              0.2806
 ZZZY=              0.2646 XXYY=          -1815.3872 XXZZ=          -1720.9822 YYZZ=           -230.8185
 XXYZ=              0.8641 YYXZ=             -7.6308 ZZXY=             -0.0425
 N-N= 1.413426336222D+03 E-N=-6.051352441844D+03  KE= 1.361202106417D+03
 Calling FoFJK, ICntrl=      2127 FMM=F ISym2X=0 I1Cent= 0 IOpClX= 0 NMat=1 NMatS=1 NMatT=0.
 ***** Axes restored to original set *****
 -------------------------------------------------------------------
 Center     Atomic                   Forces (Hartrees/Bohr)
 Number     Number              X              Y              Z
 -------------------------------------------------------------------
      1        6          -0.006113071    0.001271502   -0.000342081
      2        6           0.005319953   -0.005365050    0.000795361
      3        6          -0.005575839    0.006680541   -0.001061754
      4        7           0.010939162   -0.037699261    0.004976141
      5        6          -0.012660077    0.030464429   -0.003755969
      6        8           0.002536671    0.011068456   -0.001291296
      7        7           0.025393018   -0.025951583    0.004800610
      8        6          -0.012645520    0.003347235   -0.000925882
      9        6           0.004027240   -0.002595179    0.000093784
     10        6           0.003280073    0.002299974    0.000178137
     11        6          -0.010376527    0.006925318    0.000207384
     12        6          -0.003128025    0.013891653    0.000098672
     13        6           0.004729407   -0.013416175    0.000314525
     14        1           0.006116415    0.009481286   -0.000919330
     15        1          -0.001251403   -0.003737271    0.010046637
     16        1          -0.000637749   -0.006016863   -0.008947159
     17        1           0.000633748    0.004229918    0.008311218
     18        1           0.001190679    0.002138137   -0.008986444
     19        1           0.002004978   -0.004487308   -0.009875816
     20        1           0.001413514   -0.001961036    0.010797084
     21        1          -0.004184393    0.016894758   -0.002252830
     22        1           0.006893605    0.015922734   -0.002235250
     23        1          -0.008915052   -0.000743510   -0.000187145
     24        1          -0.001498949   -0.002508501   -0.000132451
     25        1           0.002597325    0.000821151   -0.000010321
     26       17          -0.006518987   -0.012321224    0.000337551
     27        6           0.002935525    0.008496151   -0.000343096
     28        9           0.003357039   -0.044747512    0.000014947
     29        9          -0.004331612    0.013653641    0.031462948
     30        9          -0.005531149    0.013963588   -0.031168174
 -------------------------------------------------------------------
 Cartesian Forces:  Max     0.044747512 RMS     0.011183503

 GradGradGradGradGradGradGradGradGradGradGradGradGradGradGradGradGradGrad
 Berny optimization.
 FormGI is forming the generalized inverse of G from B-inverse, IUseBI=4.
 GSVD:  received Info=                   1 from GESDD.
 Internal  Forces:  Max     0.043404985 RMS     0.008730912
 Search for a local minimum.
 Step number   1 out of a maximum of  157
 All quantities printed in internal units (Hartrees-Bohrs-Radians)
 Mixed Optimization -- RFO/linear search
 Second derivative matrix not updated -- first step.
 ITU=  0
     Eigenvalues ---    0.00329   0.00423   0.00533   0.00994   0.01161
     Eigenvalues ---    0.01368   0.01468   0.01630   0.01719   0.01915
     Eigenvalues ---    0.01950   0.01975   0.01994   0.02090   0.02095
     Eigenvalues ---    0.02097   0.02122   0.02136   0.02177   0.03755
     Eigenvalues ---    0.04436   0.04933   0.05553   0.05673   0.05783
     Eigenvalues ---    0.08033   0.09179   0.10584   0.11426   0.11975
     Eigenvalues ---    0.12668   0.16000   0.16000   0.16000   0.16000
     Eigenvalues ---    0.16000   0.16000   0.16000   0.16000   0.21964
     Eigenvalues ---    0.22000   0.22000   0.22004   0.22365   0.23480
     Eigenvalues ---    0.24600   0.25000   0.25000   0.25000   0.25000
     Eigenvalues ---    0.25000   0.25000   0.25000   0.25000   0.29143
     Eigenvalues ---    0.29239   0.29805   0.30598   0.32337   0.32338
     Eigenvalues ---    0.32404   0.32408   0.32504   0.32506   0.32560
     Eigenvalues ---    0.35554   0.35622   0.36740   0.37886   0.39572
     Eigenvalues ---    0.40464   0.40874   0.42441   0.42458   0.43705
     Eigenvalues ---    0.44335   0.45049   0.46213   0.48484   0.48485
     Eigenvalues ---    0.49107   0.51101   0.52287   0.95138
 RFO step:  Lambda=-2.97053841D-02 EMin= 3.28692208D-03
 Linear search not attempted -- first point.
 Iteration  1 RMS(Cart)=  0.07502816 RMS(Int)=  0.00183461
 Iteration  2 RMS(Cart)=  0.00317868 RMS(Int)=  0.00025632
 Iteration  3 RMS(Cart)=  0.00000768 RMS(Int)=  0.00025628
 Iteration  4 RMS(Cart)=  0.00000001 RMS(Int)=  0.00025628
 Variable       Old X    -DE/DX   Delta X   Delta X   Delta X     New X
                                 (Linear)    (Quad)   (Total)
    R1        2.88354   0.00214   0.00000   0.00653   0.00653   2.89006
    R2        2.09832  -0.01095   0.00000  -0.03081  -0.03081   2.06751
    R3        2.09931  -0.01052   0.00000  -0.02966  -0.02966   2.06965
    R4        2.09927  -0.01053   0.00000  -0.02967  -0.02967   2.06960
    R5        2.89705  -0.00528   0.00000  -0.01645  -0.01645   2.88061
    R6        2.10111  -0.00890   0.00000  -0.02516  -0.02516   2.07595
    R7        2.10103  -0.00887   0.00000  -0.02507  -0.02507   2.07596
    R8        2.74531  -0.00168   0.00000  -0.00412  -0.00412   2.74120
    R9        2.10231  -0.01046   0.00000  -0.02963  -0.02963   2.07268
   R10        2.10231  -0.01048   0.00000  -0.02968  -0.02968   2.07263
   R11        2.57626   0.00084   0.00000   0.00151   0.00151   2.57777
   R12        1.95065  -0.01711   0.00000  -0.03767  -0.03767   1.91298
   R13        2.30651   0.01111   0.00000   0.01132   0.01132   2.31784
   R14        2.58770   0.01196   0.00000   0.02212   0.02212   2.60982
   R15        2.72139  -0.03452   0.00000  -0.08115  -0.08115   2.64024
   R16        1.95044  -0.01657   0.00000  -0.03646  -0.03646   1.91397
   R17        2.67162  -0.01848   0.00000  -0.03997  -0.03995   2.63167
   R18        2.65309  -0.00735   0.00000  -0.01532  -0.01528   2.63781
   R19        2.65241  -0.00894   0.00000  -0.01877  -0.01878   2.63363
   R20        2.02940   0.00568   0.00000   0.01432   0.01432   2.04371
   R21        2.63355  -0.01051   0.00000  -0.02103  -0.02102   2.61252
   R22        2.04678   0.00274   0.00000   0.00709   0.00709   2.05387
   R23        2.65123  -0.00778   0.00000  -0.01604  -0.01607   2.63516
   R24        2.04785   0.00131   0.00000   0.00340   0.00340   2.05125
   R25        2.67918  -0.01072   0.00000  -0.02344  -0.02347   2.65571
   R26        2.86787  -0.00547   0.00000  -0.01630  -0.01630   2.85157
   R27        3.33207  -0.01314   0.00000  -0.04078  -0.04078   3.29129
   R28        2.60778  -0.04340   0.00000  -0.08335  -0.08335   2.52443
   R29        2.61427  -0.03296   0.00000  -0.06406  -0.06406   2.55021
   R30        2.61426  -0.03304   0.00000  -0.06421  -0.06421   2.55005
    A1        1.91258   0.00343   0.00000   0.01942   0.01928   1.93186
    A2        1.92585   0.00215   0.00000   0.01067   0.01059   1.93644
    A3        1.92575   0.00219   0.00000   0.01084   0.01076   1.93651
    A4        1.89669  -0.00256   0.00000  -0.01216  -0.01229   1.88439
    A5        1.89676  -0.00258   0.00000  -0.01229  -0.01243   1.88434
    A6        1.90572  -0.00279   0.00000  -0.01730  -0.01732   1.88840
    A7        1.94141  -0.00088   0.00000  -0.00029  -0.00029   1.94112
    A8        1.90101   0.00133   0.00000   0.01091   0.01091   1.91192
    A9        1.90115   0.00132   0.00000   0.01071   0.01071   1.91186
   A10        1.91037  -0.00012   0.00000  -0.00239  -0.00242   1.90795
   A11        1.91092  -0.00012   0.00000  -0.00244  -0.00247   1.90844
   A12        1.89846  -0.00154   0.00000  -0.01683  -0.01689   1.88157
   A13        1.93745  -0.00413   0.00000  -0.01360  -0.01354   1.92391
   A14        1.90605   0.00263   0.00000   0.01582   0.01580   1.92184
   A15        1.90516   0.00272   0.00000   0.01647   0.01644   1.92161
   A16        1.90618   0.00079   0.00000   0.00138   0.00143   1.90761
   A17        1.90625   0.00072   0.00000   0.00095   0.00101   1.90725
   A18        1.90244  -0.00273   0.00000  -0.02132  -0.02142   1.88102
   A19        2.12688  -0.00654   0.00000  -0.02619  -0.02619   2.10069
   A20        2.07750  -0.00055   0.00000  -0.00706  -0.00706   2.07044
   A21        2.07881   0.00709   0.00000   0.03324   0.03324   2.11205
   A22        2.08083   0.01570   0.00000   0.05613   0.05613   2.13695
   A23        2.08446  -0.02519   0.00000  -0.09007  -0.09007   1.99439
   A24        2.11790   0.00949   0.00000   0.03394   0.03394   2.15184
   A25        2.23529  -0.00731   0.00000  -0.02926  -0.02926   2.20603
   A26        2.02614   0.00912   0.00000   0.04346   0.04346   2.06959
   A27        2.02175  -0.00182   0.00000  -0.01420  -0.01420   2.00756
   A28        2.17552  -0.00701   0.00000  -0.02527  -0.02530   2.15022
   A29        2.05263  -0.00064   0.00000  -0.00250  -0.00254   2.05009
   A30        2.05504   0.00766   0.00000   0.02777   0.02783   2.08287
   A31        2.11753  -0.00535   0.00000  -0.02128  -0.02126   2.09627
   A32        2.13962  -0.00433   0.00000  -0.02629  -0.02630   2.11331
   A33        2.02603   0.00968   0.00000   0.04758   0.04757   2.07360
   A34        2.11775  -0.00562   0.00000  -0.02154  -0.02150   2.09624
   A35        2.09857   0.00178   0.00000   0.00535   0.00533   2.10389
   A36        2.06687   0.00384   0.00000   0.01620   0.01618   2.08305
   A37        2.11464   0.00225   0.00000   0.01017   0.01015   2.12478
   A38        2.07005   0.00132   0.00000   0.00781   0.00782   2.07786
   A39        2.09850  -0.00357   0.00000  -0.01797  -0.01796   2.08054
   A40        2.06526  -0.00332   0.00000  -0.01110  -0.01116   2.05410
   A41        2.03983  -0.01356   0.00000  -0.04886  -0.04883   1.99100
   A42        2.17810   0.01688   0.00000   0.05996   0.05999   2.23809
   A43        2.09616   0.00439   0.00000   0.01599   0.01595   2.11211
   A44        2.03126  -0.00998   0.00000  -0.03585  -0.03583   1.99543
   A45        2.15577   0.00560   0.00000   0.01986   0.01988   2.17565
   A46        1.98598   0.01658   0.00000   0.06541   0.06379   2.04976
   A47        1.90478   0.01131   0.00000   0.03790   0.03688   1.94166
   A48        1.90481   0.01072   0.00000   0.03502   0.03412   1.93893
   A49        1.88432  -0.01252   0.00000  -0.03819  -0.03971   1.84461
   A50        1.88437  -0.01267   0.00000  -0.04008  -0.04142   1.84295
   A51        1.89782  -0.01533   0.00000  -0.06768  -0.06781   1.83001
    D1        3.14075   0.00001   0.00000   0.00016   0.00016   3.14090
    D2        1.03367  -0.00016   0.00000  -0.00384  -0.00384   1.02983
    D3       -1.03459   0.00017   0.00000   0.00397   0.00397  -1.03062
    D4        1.05291  -0.00032   0.00000  -0.00367  -0.00370   1.04921
    D5       -1.05416  -0.00049   0.00000  -0.00767  -0.00770  -1.06187
    D6       -3.12243  -0.00016   0.00000   0.00014   0.00011  -3.12232
    D7       -1.05457   0.00033   0.00000   0.00393   0.00396  -1.05061
    D8        3.12154   0.00016   0.00000  -0.00007  -0.00004   3.12150
    D9        1.05328   0.00049   0.00000   0.00774   0.00777   1.06105
   D10        3.14151   0.00000   0.00000  -0.00002  -0.00002   3.14150
   D11        1.03885  -0.00009   0.00000  -0.00345  -0.00341   1.03544
   D12       -1.03950   0.00007   0.00000   0.00331   0.00327  -1.03623
   D13       -1.04011   0.00103   0.00000   0.01184   0.01182  -1.02829
   D14        3.14041   0.00094   0.00000   0.00841   0.00843  -3.13434
   D15        1.06206   0.00109   0.00000   0.01517   0.01511   1.07717
   D16        1.03942  -0.00100   0.00000  -0.01160  -0.01158   1.02784
   D17       -1.06324  -0.00109   0.00000  -0.01503  -0.01497  -1.07822
   D18        3.14159  -0.00094   0.00000  -0.00827  -0.00830   3.13329
   D19        3.13879   0.00001   0.00000  -0.00021  -0.00020   3.13859
   D20       -0.00200   0.00004   0.00000   0.00047   0.00047  -0.00153
   D21       -1.04180   0.00118   0.00000   0.01178   0.01178  -1.03002
   D22        2.10059   0.00121   0.00000   0.01246   0.01245   2.11304
   D23        1.03727  -0.00124   0.00000  -0.01272  -0.01272   1.02455
   D24       -2.10353  -0.00121   0.00000  -0.01204  -0.01204  -2.11557
   D25        0.00000  -0.00001   0.00000  -0.00026  -0.00026  -0.00026
   D26        3.14134   0.00004   0.00000   0.00078   0.00079  -3.14105
   D27        3.14080  -0.00005   0.00000  -0.00096  -0.00097   3.13983
   D28       -0.00105   0.00001   0.00000   0.00009   0.00008  -0.00097
   D29        3.13923  -0.00011   0.00000  -0.00214  -0.00215   3.13708
   D30       -0.00255  -0.00005   0.00000  -0.00101  -0.00100  -0.00355
   D31       -0.00263  -0.00005   0.00000  -0.00107  -0.00108  -0.00371
   D32        3.13878   0.00000   0.00000   0.00006   0.00006   3.13885
   D33        0.09826  -0.00027   0.00000  -0.00696  -0.00699   0.09127
   D34       -3.04223  -0.00045   0.00000  -0.01059  -0.01057  -3.05280
   D35       -3.04315  -0.00032   0.00000  -0.00809  -0.00811  -3.05126
   D36        0.09955  -0.00050   0.00000  -0.01172  -0.01169   0.08786
   D37       -3.14056  -0.00021   0.00000  -0.00426  -0.00426   3.13837
   D38        0.00002  -0.00030   0.00000  -0.00632  -0.00629  -0.00626
   D39       -0.00007  -0.00003   0.00000  -0.00064  -0.00064  -0.00071
   D40        3.14051  -0.00013   0.00000  -0.00270  -0.00266   3.13785
   D41        3.14090   0.00026   0.00000   0.00534   0.00539  -3.13690
   D42       -0.00085   0.00023   0.00000   0.00488   0.00492   0.00407
   D43        0.00033   0.00010   0.00000   0.00199   0.00199   0.00232
   D44       -3.14141   0.00008   0.00000   0.00153   0.00152  -3.13990
   D45       -0.00013  -0.00004   0.00000  -0.00090  -0.00093  -0.00106
   D46        3.14117  -0.00013   0.00000  -0.00275  -0.00276   3.13841
   D47       -3.14077   0.00006   0.00000   0.00107   0.00109  -3.13968
   D48        0.00053  -0.00003   0.00000  -0.00078  -0.00074  -0.00021
   D49       -0.00040  -0.00010   0.00000  -0.00182  -0.00182  -0.00222
   D50        3.14145  -0.00003   0.00000  -0.00059  -0.00060   3.14086
   D51        3.14135  -0.00007   0.00000  -0.00137  -0.00136   3.13999
   D52        0.00001  -0.00001   0.00000  -0.00014  -0.00013  -0.00012
   D53        0.00019   0.00002   0.00000   0.00024   0.00027   0.00046
   D54       -3.14115   0.00013   0.00000   0.00269   0.00262  -3.13852
   D55        3.14152  -0.00004   0.00000  -0.00101  -0.00095   3.14056
   D56        0.00018   0.00006   0.00000   0.00145   0.00140   0.00158
   D57        0.00007   0.00005   0.00000   0.00110   0.00111   0.00118
   D58       -3.14121   0.00015   0.00000   0.00310   0.00315  -3.13806
   D59        3.14138  -0.00007   0.00000  -0.00158  -0.00164   3.13974
   D60        0.00010   0.00003   0.00000   0.00041   0.00040   0.00050
   D61       -3.10045   0.00033   0.00000   0.00533   0.00539  -3.09506
   D62        1.07709  -0.00280   0.00000  -0.01649  -0.01700   1.06009
   D63       -0.99471   0.00284   0.00000   0.02268   0.02311  -0.97160
   D64        0.04142   0.00044   0.00000   0.00798   0.00806   0.04948
   D65       -2.06422  -0.00268   0.00000  -0.01384  -0.01433  -2.07856
   D66        2.14716   0.00296   0.00000   0.02533   0.02577   2.17293
         Item               Value     Threshold  Converged?
 Maximum Force            0.043405     0.000450     NO 
 RMS     Force            0.008731     0.000300     NO 
 Maximum Displacement     0.273170     0.001800     NO 
 RMS     Displacement     0.076053     0.001200     NO 
 Predicted change in Energy=-1.619024D-02
 GradGradGradGradGradGradGradGradGradGradGradGradGradGradGradGradGradGrad

                          Input orientation:                          
 ---------------------------------------------------------------------
 Center     Atomic      Atomic             Coordinates (Angstroms)
 Number     Number       Type             X           Y           Z
 ---------------------------------------------------------------------
      1          6           0       -1.949641    1.808199   -0.125513
      2          6           0       -0.573653    1.151495   -0.005836
      3          6           0        0.541286    2.187650   -0.089157
      4          7           0        1.835336    1.542520    0.026692
      5          6           0        2.981034    2.281082   -0.024960
      6          8           0        2.972673    3.499123   -0.168910
      7          7           0        4.140072    1.540134    0.097326
      8          6           0        5.446545    2.034736    0.074083
      9          6           0        5.746625    3.393750    0.024906
     10          6           0        6.487400    1.105169    0.105220
     11          6           0        7.801395    1.534653    0.090012
     12          6           0        8.130011    2.888965    0.041167
     13          6           0        7.074574    3.816293    0.007992
     14          1           0       -2.742917    1.057134   -0.065349
     15          1           0       -2.051850    2.331674   -1.082078
     16          1           0       -2.109027    2.533106    0.679807
     17          1           0       -0.446491    0.415284   -0.811212
     18          1           0       -0.503378    0.617491    0.951618
     19          1           0        0.431015    2.925821    0.714553
     20          1           0        0.487783    2.722868   -1.044991
     21          1           0        1.867475    0.537628    0.144691
     22          1           0        4.063709    0.537161    0.215814
     23          1           0        4.962502    4.138031   -0.003595
     24          1           0        6.275565    0.039791    0.142137
     25          1           0        8.597371    0.797066    0.115433
     26         17           0        7.276740    5.544884   -0.059372
     27          6           0        9.613986    3.162226    0.027413
     28          9           0       10.004883    4.439595    0.036307
     29          9           0       10.203415    2.607746   -1.052544
     30          9           0       10.223151    2.589087    1.086366
 ---------------------------------------------------------------------
                    Distance matrix (angstroms):
                    1          2          3          4          5
     1  C    0.000000
     2  C    1.529356   0.000000
     3  C    2.519926   1.524352   0.000000
     4  N    3.797342   2.440734   1.450579   0.000000
     5  C    4.954320   3.729897   2.442380   1.364099   0.000000
     6  O    5.204832   4.256098   2.763686   2.271583   1.226546
     7  N    6.099682   4.730844   3.661326   2.305819   1.381059
     8  C    7.402347   6.085169   4.910356   3.644908   2.479766
     9  C    7.859333   6.706308   5.344459   4.327267   2.981445
    10  C    8.469425   7.062078   6.046968   4.673237   3.700584
    11  C    9.757253   8.384356   7.291617   5.966400   4.879165
    12  C   10.138798   8.875515   7.622176   6.437084   5.185157
    13  C    9.245903   8.099179   6.733926   5.711393   4.372073
    14  H    1.094077   2.172131   3.473417   4.604831   5.853486
    15  H    1.095212   2.176279   2.780466   4.118538   5.142955
    16  H    1.095187   2.176311   2.781151   4.118958   5.144797
    17  H    2.160984   1.098547   2.153683   2.679455   3.980870
    18  H    2.160943   1.098552   2.154051   2.679692   3.982759
    19  H    2.760854   2.162534   1.096816   2.087772   2.732245
    20  H    2.760996   2.162338   1.096786   2.087492   2.729824
    21  H    4.032088   2.521625   2.129796   1.012306   2.075675
    22  H    6.155682   4.683125   3.901869   2.451971   2.066740
    23  H    7.295253   6.290343   4.833059   4.064082   2.715683
    24  H    8.417418   6.940430   6.127704   4.689047   3.988138
    25  H   10.598109   9.178671   8.177780   6.803579   5.810787
    26  Cl   9.954562   8.996299   7.525839   6.755383   5.395061
    27  C   11.643636  10.384225   9.125638   7.945492   6.691428
    28  F   12.241776  11.077851   9.728651   8.668023   7.348291
    29  F   12.214559  10.925267   9.719122   8.504364   7.302426
    30  F   12.257867  10.946714   9.761225   8.519017   7.333360
                    6          7          8          9         10
     6  O    0.000000
     7  N    2.295939   0.000000
     8  C    2.885051   1.397155   0.000000
     9  C    2.782711   2.454007   1.392619   0.000000
    10  C    4.261393   2.387301   1.395866   2.406824   0.000000
    11  C    5.219458   3.661334   2.407416   2.771743   1.382487
    12  C    5.197553   4.212138   2.816341   2.436308   2.425737
    13  C    4.117946   3.714859   2.414289   1.393655   2.775684
    14  H    6.216269   6.901832   8.248784   8.805694   9.232018
    15  H    5.238573   6.352750   7.592814   7.947933   8.708202
    16  H    5.241868   6.354251   7.596179   7.929746   8.733138
    17  H    4.649010   4.809084   6.175294   6.922792   7.028132
    18  H    4.652130   4.810687   6.179016   6.901373   7.058696
    19  H    2.751219   4.007268   5.134177   5.380547   6.353413
    20  H    2.746773   4.005366   5.129831   5.408344   6.319441
    21  H    3.176516   2.484343   3.880214   4.818671   4.654822
    22  H    3.179872   1.012831   2.043295   3.320957   2.491815
    23  H    2.096415   2.726838   2.159672   1.081487   3.396381
    24  H    4.792998   2.610244   2.161414   3.397435   1.086861
    25  H    6.246534   4.518848   3.385445   3.857164   2.132371
    26  Cl   4.766774   5.089328   3.960879   2.641161   4.512341
    27  C    6.652750   5.709624   4.317520   3.874286   3.743405
    28  F    7.097787   6.542676   5.153952   4.384824   4.847250
    29  F    7.338869   6.263076   4.921934   4.652061   4.172161
    30  F    7.414399   6.251588   4.914060   4.670488   4.137692
                   11         12         13         14         15
    11  C    0.000000
    12  C    1.394466   0.000000
    13  C    2.396013   1.405342   0.000000
    14  H   10.556262  11.026672  10.198111   0.000000
    15  H    9.954671  10.258779   9.310422   1.770809   0.000000
    16  H    9.978037  10.265105   9.297119   1.770753   1.774284
    17  H    8.372146   8.966718   8.294840   2.498370   2.514577
    18  H    8.399571   8.973512   8.279379   2.498608   3.077680
    19  H    7.526480   7.728476   6.740107   3.764849   3.121781
    20  H    7.495932   7.720814   6.759449   3.764545   2.569854
    21  H    6.017347   6.690206   6.154853   4.644320   4.481592
    22  H    3.870544   4.700669   4.456591   6.832246   6.504220
    23  H    3.853005   3.405184   2.136468   8.298749   7.323059
    24  H    2.136700   3.401023   3.862432   9.078054   8.723376
    25  H    1.085476   2.144757   3.383222  11.344710  10.825662
    26  Cl   4.047163   2.791430   1.741676  10.978774   9.919337
    27  C    2.436883   1.508988   2.622365  12.535273  11.747874
    28  F    3.646496   2.433028   2.996001  13.189306  12.290604
    29  F    2.868216   2.360994   3.517808  13.076179  12.258410
    30  F    2.823022   2.358729   3.547177  13.106954  12.467721
                   16         17         18         19         20
    16  H    0.000000
    17  H    3.077715   0.000000
    18  H    2.514273   1.775300   0.000000
    19  H    2.570456   3.066068   2.501535   0.000000
    20  H    3.123197   2.500493   3.066180   1.772120   0.000000
    21  H    4.481165   2.506623   2.505684   2.844578   2.845024
    22  H    6.503980   4.627261   4.626677   4.376174   4.376550
    23  H    7.283498   6.615762   6.571338   4.745478   4.807317
    24  H    8.763965   6.799700   6.851501   6.543363   6.488960
    25  H   10.860907   9.099224   9.140847   8.460491   8.415504
    26  Cl   9.884828   9.301955   9.264531   7.370373   7.417894
    27  C   11.757995  10.462418  10.473342   9.211678   9.199493
    28  F   12.279886  11.231411  11.219172   9.716505   9.730958
    29  F   12.433939  10.875920  11.073084   9.935975   9.716316
[...]
 ,-0.00000450,-0.00000573,-0.00000787,0.00000039,0.00000492,-0.00000481
 ,-0.00000548,-0.00000833,-0.00001222,0.00000961,0.00000734,-0.00000451
 ,0.00001327,-0.00001544,0.00005559,-0.00037928,0.00005527,0.00092421,0
 .00017188,0.00012887,-0.00006278,-0.00953240,-0.05057317,0.03147592,-0
 .00000513,-0.00001261,0.00000032,-0.00001172,0.00002798,-0.00000183,0.
 00002809,-0.00006301,0.00001410,-0.00025006,0.00006778,-0.00005091,0.0
 0011856,-0.00055407,0.00018810,0.00001078,0.00017277,-0.00004217,-0.00
 105349,0.00127484,-0.00031162,-0.00371818,-0.00268068,0.00021409,-0.00
 033790,-0.00095003,0.00015139,-0.01564345,0.02060788,-0.00378433,-0.21
 133708,0.14584093,-0.02760051,0.00974375,-0.00478436,0.00090095,0.0002
 8287,-0.00173819,0.00015555,-0.00000644,0.00000077,-0.00000054,0.00000
 100,0.00000088,0.00000021,0.00000088,0.00000098,-0.00000012,0.00000093
 ,-0.00000120,-0.00000189,0.00000005,-0.00000224,0.00000286,-0.00001153
 ,0.00000703,0.00000189,-0.00000120,0.00000356,0.00000004,0.00000885,0.
 00002347,-0.00000232,-0.00000940,0.00006950,-0.00001020,-0.00000793,0.
 00007771,-0.00000301,0.00094994,-0.00006212,0.00013292,0.22453064,-0.0
 0000174,-0.00000279,0.00000024,-0.00000493,0.00000682,0.00000017,-0.00
 000251,-0.00001980,0.00000164,-0.00005940,0.00004636,-0.00002021,-0.00
 011651,-0.00016575,0.00003397,0.00003135,0.00003589,0.00000243,-0.0002
 4081,0.00058539,-0.00012408,-0.00288170,0.00034390,0.00107580,-0.00075
 549,-0.00028916,-0.00014006,-0.00840048,0.01083658,-0.00128051,0.14421
 516,-0.19590589,0.02879576,0.02162521,-0.01512995,0.00368852,-0.002666
 98,-0.00335247,0.00144276,-0.00000120,0.00000056,-0.00000010,0.0000001
 1,-0.00000002,-0.00000015,0.00000030,-0.00000032,-0.00000008,0.0000002
 8,-0.00000015,-0.00000097,0.00000038,0.00000021,0.00000078,-0.00000098
 ,0.00000028,0.00000063,-0.00000009,0.00000006,-0.00000109,0.00000266,0
 .00000454,0.00000022,0.00001835,-0.00000428,0.00000753,0.00005790,0.00
 002355,-0.00008287,0.00023686,0.00057534,-0.00081041,-0.15362293,0.203
 73834,-0.00000005,0.00000024,0.00000044,0.00000045,-0.00000152,0.00000
 540,0.00000301,0.00000980,0.00000925,-0.00000161,-0.00002243,-0.000023
 97,0.00005892,-0.00006818,-0.00015460,0.00000088,0.00002756,0.00002489
 ,-0.00002271,-0.00003502,0.00007466,0.00019856,0.00110163,0.00717198,0
 .00014900,-0.00012617,-0.00100069,0.00092949,-0.00059160,0.00422725,-0
 .02732946,0.02880667,-0.04424187,-0.00339209,0.00308016,0.00389830,0.0
 0029011,0.00146271,0.00571819,-0.00000013,-0.00000022,0.00000049,-0.00
 000022,0.00000109,-0.00000062,0.00000073,-0.00000105,-0.00000086,-0.00
 000022,-0.00000137,-0.00000153,0.00000006,0.00000137,-0.00000168,-0.00
 000146,-0.00000233,-0.00000221,0.00000052,0.00000126,-0.00000041,-0.00
 000218,0.00000161,0.00001289,-0.00000183,0.00000109,0.00004544,0.00001
 183,-0.00008110,-0.00045349,0.00007829,-0.00082615,-0.00430981,0.02943
 621,-0.03222951,0.03286025,-0.00000324,-0.00002505,0.00000144,-0.00001
 080,0.00003932,0.00000353,0.00013942,-0.00009000,0.00003186,-0.0004307
 3,-0.00007319,-0.00003403,0.00088944,-0.00025136,0.00007707,-0.0002060
 0,0.00014746,-0.00003404,-0.00002692,-0.00147230,0.00016471,-0.0042594
 0,0.00324534,-0.00064760,-0.00706364,-0.03570109,0.00545094,0.00207156
 ,-0.00111799,0.00024359,-0.00414755,-0.00041197,-0.00013759,0.00908545
 ,0.01572337,-0.00247070,-0.04626415,-0.02620203,0.00377437,-0.00001703
 ,-0.00000163,-0.00000104,0.00000171,0.00000513,-0.00000326,0.00000096,
 0.00000504,0.00000285,0.00000380,-0.00000145,0.00000152,0.00000009,-0.
 00000366,-0.00000158,-0.00003173,0.00002301,0.00000751,-0.00000370,0.0
 0000916,-0.00000025,0.00003261,0.00003869,-0.00001317,-0.00038458,-0.0
 0009268,0.00003589,0.00087637,-0.00141844,0.00034709,0.00017521,-0.000
 09275,0.00003247,0.00027335,0.00067709,-0.00010523,0.05466631,-0.00000
 646,-0.00007490,0.00000580,-0.00004108,0.00011663,0.00000752,0.0004341
 1,-0.00029624,0.00009564,-0.00130582,-0.00012754,-0.00013582,0.0029786
 7,-0.00161077,0.00048005,-0.00080342,0.00104193,-0.00025924,-0.0018731
 0,-0.00086654,-0.00002502,-0.00156374,0.00646322,-0.00011540,-0.012804
 46,-0.03168575,0.00571092,0.00072698,-0.00268414,0.00031952,0.00510347
 ,-0.00018791,0.00080205,-0.00681757,-0.03539481,0.00632450,-0.02579295
 ,-0.17293615,0.02322182,-0.00004774,-0.00000196,-0.00000303,0.00000240
 ,0.00001566,-0.00001509,-0.00000053,0.00001519,0.00001287,0.00001472,-
 0.00000057,0.00001160,0.00000247,-0.00000495,-0.00001343,-0.00011157,0
 .00006649,0.00003679,-0.00002320,0.00002115,-0.00000856,0.00010936,0.0
 0010675,-0.00002624,-0.00018266,-0.00003987,0.00000285,0.00105817,0.00
 062321,-0.00059310,-0.00012369,-0.00011988,-0.00006045,-0.00090267,-0.
 00144416,0.00024973,0.04242767,0.24057650,0.00000121,0.00001081,-0.000
 00228,0.00000588,-0.00001754,-0.00000040,-0.00006245,0.00004617,-0.000
 00729,0.00018903,0.00000899,0.00000368,-0.00047988,0.00028117,-0.00004
 507,0.00009060,-0.00017307,0.00012497,0.00031265,0.00005734,-0.0000638
 8,0.00002174,-0.00001405,0.00578820,0.00175595,0.00515354,0.00420932,-
 0.00008605,0.00027879,-0.00094748,-0.00098954,0.00072383,0.00411708,0.
 00119816,0.00680411,0.00315440,0.00371495,0.02333078,-0.02902243,0.000
 00708,0.00000040,0.00000030,-0.00000025,-0.00000252,0.00000266,-0.0000
 0024,-0.00000186,-0.00000163,-0.00000198,0.00000103,-0.00000144,-0.000
 00025,-0.00000026,0.00000273,0.00001425,-0.00000760,-0.00000405,0.0000
 0582,-0.00000427,0.00000312,-0.00001780,-0.00002488,-0.00000294,0.0000
 2167,-0.00003391,-0.00021393,0.00000392,-0.00069253,-0.00302318,0.0000
 3531,-0.00007384,-0.00054688,0.00014927,0.00028420,0.00016456,-0.00596
 453,-0.03582231,0.01926551,0.00003936,0.00022345,-0.00001694,0.0000595
 6,-0.00038840,-0.00000032,-0.00128093,0.00068985,-0.00033719,0.0042664
 6,0.00131360,0.00050586,-0.00954227,0.00434339,-0.00107682,0.00203250,
 -0.00229265,0.00055318,0.01360084,0.00043147,-0.00004669,-0.01031381,-
 0.00181516,0.00036466,0.00367773,0.00453272,-0.00083410,0.00886885,0.0
 0061797,0.00002851,-0.00788911,-0.01904424,0.00288939,-0.20971985,-0.0
 3491164,0.00231323,-0.02510540,0.01081267,-0.00232889,0.00016918,0.000
 03079,0.00001005,-0.00002675,-0.00004997,0.00001432,-0.00001895,-0.000
 05157,-0.00001399,-0.00003619,0.00001950,0.00000092,0.00000226,0.00004
 409,-0.00000767,0.00033575,-0.00018820,-0.00005398,0.00004404,-0.00007
 565,-0.00001156,-0.00018835,-0.00052486,-0.00009857,0.00011967,-0.0005
 4730,0.00011054,0.00010239,-0.00003608,-0.00004320,0.00129527,0.000789
 15,-0.00013071,0.00057455,0.00347244,-0.00049291,-0.00216243,-0.006321
 54,0.00110698,0.61999869,0.00000646,0.00007137,-0.00000574,0.00003360,
 -0.00011070,-0.00000441,-0.00042357,0.00027026,-0.00007837,0.00132338,
 0.00023464,0.00013955,-0.00302468,0.00190977,-0.00046994,0.00075444,-0
 .00107326,0.00022964,0.00442424,-0.00014108,-0.00006795,-0.00205283,-0
 .00371883,0.00052239,0.00674438,-0.00301154,0.00151061,0.00069125,-0.0
 0751415,0.00226620,-0.02970668,-0.00122818,-0.00025982,-0.02599302,-0.
 10320446,0.00521981,0.01973297,0.02495206,-0.00391919,0.00004554,0.000
 00290,0.00000324,-0.00000335,-0.00001413,0.00001394,0.00000042,-0.0000
 1637,-0.00001400,-0.00001402,-0.00000170,-0.00001454,-0.00000200,0.000
 00734,0.00001370,0.00011797,-0.00006651,-0.00003715,0.00002443,-0.0000
 1723,0.00000487,-0.00007816,-0.00012073,0.00000834,0.00001281,-0.00014
 122,0.00006926,0.00125423,0.00085985,0.00003194,-0.00119190,-0.0000564
 9,0.00006846,-0.00127710,-0.00328403,0.00003337,-0.00170780,-0.0065834
 0,0.00049142,0.01416941,0.55846264,0.00000058,-0.00001081,0.00000752,-
 0.00000111,0.00001400,0.00002089,0.00001765,0.00000041,0.00010396,-0.0
 0007929,-0.00003570,-0.00003560,0.00029656,-0.00037082,0.00011230,0.00
 002284,0.00017847,-0.00030053,-0.00040768,-0.00008251,-0.00092511,0.00
 006279,0.00048772,-0.00053326,-0.00108514,0.00148001,0.00494091,-0.000
 01997,0.00223404,0.00591653,0.00460499,-0.00003410,0.00135322,0.000948
 87,0.00498949,-0.06820050,-0.00386115,-0.00408056,-0.00106881,-0.00000
 435,-0.00000102,0.00000417,-0.00000114,0.00001244,-0.00000861,0.000003
 00,-0.00000588,-0.00000630,-0.00000419,-0.00001791,-0.00000972,0.00000
 130,0.00001215,-0.00001146,0.00000059,-0.00001369,-0.00001972,-0.00000
 550,0.00001590,-0.00001263,-0.00000326,0.00005138,0.00007456,-0.000009
 51,0.00002106,0.00022089,-0.00026554,0.00005206,0.00101078,0.00020236,
 0.00011385,0.00054179,0.00028704,0.00014747,-0.00289587,0.00033138,0.0
 0040467,-0.00323295,-0.00066678,-0.00401378,0.53246775,-0.00001003,-0.
 00006197,0.00000406,-0.00001676,0.00010497,-0.00000157,0.00035549,-0.0
 0019648,0.00008737,-0.00117342,-0.00033575,-0.00010717,0.00261111,-0.0
 0123624,0.00024427,-0.00056359,0.00066735,-0.00014425,-0.00372245,0.00
 000369,-0.00010150,0.00293748,-0.00015839,-0.00025570,-0.00032011,-0.0
 0052028,0.00090981,-0.00249454,-0.00025776,0.00168498,-0.00284010,0.00
 359921,-0.00268064,-0.01069313,-0.03140823,-0.02647621,0.00215430,-0.0
 0311103,0.00094319,-0.00004624,-0.00000835,-0.00000308,0.00000721,0.00
 001327,-0.00000425,0.00000459,0.00001517,0.00000532,0.00001064,-0.0000
 0340,0.00000190,-0.00000103,-0.00001273,0.00000192,-0.00009514,0.00005
 312,0.00001645,-0.00000973,0.00002169,0.00000254,0.00005176,0.00013493
 ,0.00002084,0.00000947,0.00013615,0.00000116,0.00001402,0.00000041,0.0
 0004094,-0.00052206,-0.00018162,0.00028102,0.00006547,-0.00041142,-0.0
 0072660,-0.00184114,0.00248003,-0.00199182,-0.10180384,-0.04659642,-0.
 04615966,0.08915874,-0.00000523,-0.00004499,0.00000221,-0.00001757,0.0
 0007353,-0.00000312,0.00026302,-0.00015992,0.00005428,-0.00085484,-0.0
 0016732,-0.00006607,0.00200517,-0.00126286,0.00024237,-0.00037641,0.00
 072002,-0.00013073,-0.00306262,0.00010278,-0.00011843,0.00215761,0.000
 33298,-0.00023467,-0.00115410,0.00017372,0.00089477,-0.00168991,0.0008
 1535,0.00099274,-0.00107380,0.00172063,-0.00107813,-0.01499231,-0.0110
 5071,-0.01973175,0.00016421,-0.00737540,0.00065111,-0.00003048,-0.0000
 0350,-0.00000251,0.00000371,0.00000806,-0.00000543,0.00000058,0.000011
 66,0.00000764,0.00000904,0.00000144,0.00000669,0.00000041,-0.00000827,
 -0.00000194,-0.00007718,0.00004150,0.00001949,-0.00001136,0.00001307,-
 0.00000180,0.00004351,0.00008792,-0.00000161,0.00002987,0.00009976,-0.
 00003124,-0.00024308,-0.00009204,0.00004999,-0.00027504,-0.00013089,0.
 00010407,0.00052683,0.00045168,-0.00078359,0.00295512,0.00239994,0.000
 65970,-0.04686289,-0.16578810,-0.09841874,0.04537662,0.23096688,-0.000
 00280,-0.00002639,-0.00000140,-0.00000893,0.00004314,-0.00000633,0.000
 15785,-0.00009840,0.00001521,-0.00050352,-0.00011688,-0.00001471,0.001
 08228,-0.00051427,0.00004716,-0.00026542,0.00029009,0.00000565,-0.0015
 1092,0.00009118,0.00004074,0.00113178,0.00013626,-0.00023769,-0.000611
 29,-0.00000471,0.00023210,-0.00067861,-0.00044969,0.00049658,-0.002806
 24,0.00091708,-0.00105919,-0.00666950,-0.01453037,-0.00259038,0.001257
 98,-0.00221013,0.00090410,-0.00001849,-0.00000264,-0.00000227,0.000003
 20,0.00000273,-0.00000077,-0.00000036,0.00000938,0.00000600,0.00000562
 ,0.00000427,0.00000581,-0.00000052,-0.00000938,0.00000323,-0.00004615,
 0.00002880,0.00001447,-0.00000169,0.00000705,0.00000194,0.00002140,0.0
 0004190,-0.00001698,0.00003746,0.00003600,-0.00004692,-0.00003476,-0.0
 0002859,-0.00006841,-0.00033002,-0.00011942,0.00008809,0.00021916,0.00
 017993,-0.00038327,-0.00093877,0.00192970,-0.00052840,-0.04812146,-0.0
 9587956,-0.17037371,0.05165894,0.16183702,0.25179551,-0.00001091,-0.00
 006368,0.00000564,-0.00001874,0.00010924,0.00000259,0.00036190,-0.0001
 9660,0.00009626,-0.00119806,-0.00035492,-0.00017158,0.00266248,-0.0012
 5707,0.00039688,-0.00058694,0.00067686,-0.00019281,-0.00381009,0.00004
 169,0.00007700,0.00299949,-0.00006421,0.00025510,-0.00033640,-0.000793
 73,-0.00068982,-0.00245935,-0.00081015,-0.00168221,-0.00306311,0.00430
 645,0.00129425,-0.01244839,-0.02210850,0.03496104,0.00221430,-0.003374
 01,0.00021410,-0.00004764,-0.00000857,-0.00000240,0.00000722,0.0000153
 1,-0.00000549,0.00000533,0.00001398,0.00000388,0.00000983,-0.00000688,
 -0.00000018,0.00000003,-0.00001050,-0.00000078,-0.00009238,0.00005268,
 0.00001567,-0.00001524,0.00002135,0.00000314,0.00006095,0.00014430,0.0
 0002885,0.00000566,0.00014638,-0.00005139,0.00002072,-0.00001454,-0.00
 001172,-0.00052265,-0.00027027,-0.00022478,0.00004267,-0.00014316,0.00
 084296,-0.00191085,0.00299024,0.00101785,-0.10735228,-0.03291223,0.063
 72948,0.01543033,0.00368447,-0.00294303,0.09529057,-0.00000445,-0.0000
 3500,0.00000405,-0.00001460,0.00005745,0.00000237,0.00019979,-0.000117
 28,0.00005311,-0.00065308,-0.00013398,-0.00010794,0.00156324,-0.001027
 37,0.00030812,-0.00029274,0.00059030,-0.00015293,-0.00245223,0.0001047
 5,0.00006691,0.00171446,0.00030392,0.00004660,-0.00087936,-0.00010506,
 -0.00082614,-0.00136719,0.00060540,-0.00113251,-0.00016361,0.00152845,
 0.00022607,-0.01303470,-0.00016468,0.01852123,-0.00023571,-0.00611405,
 0.00169421,-0.00002374,-0.00000264,-0.00000111,0.00000232,0.00000844,-
 0.00000587,0.00000147,0.00000687,0.00000389,0.00000618,-0.00000273,0.0
 0000276,0.00000109,-0.00000261,-0.00000485,-0.00005473,0.00002845,0.00
 001297,-0.00001422,0.00000964,-0.00000134,0.00004093,0.00007526,0.0000
 0935,0.00001531,0.00009164,-0.00001804,-0.00020644,-0.00010399,-0.0000
 4216,-0.00015585,-0.00010665,-0.00004459,0.00040478,0.00055069,0.00050
 049,0.00306523,0.00139667,-0.00111304,-0.03262395,-0.10864539,0.076689
 48,0.00549471,0.01585181,-0.02411453,0.03189226,0.13651464,0.00000613,
 0.00003701,-0.00000676,0.00001324,-0.00006123,-0.00001061,-0.00020264,
 0.00011298,-0.00007383,0.00067378,0.00017068,0.00012592,-0.00153927,0.
 00087779,-0.00031811,0.00033892,-0.00048693,0.00020912,0.00224015,-0.0
 0012739,0.00007901,-0.00160844,-0.00032345,-0.00020541,0.00091611,0.00
 008525,0.00049230,0.00103071,0.00037932,0.00069670,0.00289542,-0.00157
 567,-0.00063500,0.01100497,0.01273087,-0.01160772,-0.00115635,0.004405
 56,-0.00047589,0.00002641,0.00000372,0.00000010,-0.00000225,-0.0000120
 1,0.00000688,-0.00000368,-0.00000456,-0.00000031,-0.00000501,0.0000090
 2,0.00000180,-0.00000097,-0.00000019,0.00000826,0.00004948,-0.00002542
 ,-0.00000542,0.00001460,-0.00001457,0.00000104,-0.00004384,-0.00008488
 ,-0.00003212,-0.00003574,-0.00008185,-0.00003274,0.00010621,0.00004151
 ,-0.00007094,0.00036909,0.00017253,0.00006321,-0.00034827,-0.00049982,
 -0.00046043,-0.00011126,-0.00239052,0.00053656,0.06570614,0.07415522,-
 0.22318013,0.00613569,-0.00843922,-0.08232821,-0.07409886,-0.12240676,
 0.34115464,-0.00001183,-0.00006392,0.00000413,-0.00001314,0.00011144,0
 .00000064,0.00036569,-0.00019575,0.00009801,-0.00120111,-0.00045794,-0
 .00011525,0.00241165,-0.00052597,0.00010954,-0.00080001,0.00020957,-0.
 00008653,-0.00293049,-0.00016091,0.00002354,0.00215227,0.00115186,-0.0
 0017597,-0.00212693,0.00188252,-0.00032358,-0.00103665,0.00061074,-0.0
 0015241,-0.00163110,0.00188459,-0.00033616,-0.03418667,0.04055175,-0.0
 0760207,-0.00538130,-0.00844433,0.00122254,-0.00005075,-0.00001059,-0.
 00000300,0.00000904,0.00001458,-0.00000194,0.00000679,0.00001536,0.000
 00245,0.00000929,-0.00000678,-0.00000281,-0.00000238,-0.00001541,0.000
 00572,-0.00008689,0.00005455,0.00001159,-0.00000370,0.00002315,0.00000
 680,0.00004145,0.00014326,0.00003467,-0.00004298,0.00011637,-0.0000242
 7,-0.00040896,-0.00042321,0.00009606,-0.00017707,-0.00018057,0.0000300
 5,-0.00423888,-0.00102778,0.00007565,0.00054760,0.00039391,-0.00005754
 ,-0.17974695,0.09564822,-0.01793515,0.01334269,0.01350662,0.00991679,0
 .01476156,0.00777484,-0.01237047,0.20042972,0.00000520,0.00001330,-0.0
 0000110,-0.00000369,-0.00002969,0.00000198,-0.00007560,0.00002114,-0.0
 0002702,0.00028707,0.00020825,0.00002788,-0.00060443,-0.00013655,0.000
 04337,0.00020070,0.00012675,-0.00001317,0.00077474,0.00046700,-0.00010
 411,-0.00123174,-0.00030965,0.00005190,0.00008096,-0.00001013,-0.00008
 530,0.00046623,0.00202820,-0.00027846,-0.00366667,-0.00614874,0.000913
 16,0.00876758,-0.00405445,0.00228695,0.00038871,0.00060862,0.00021088,
 0.00001341,0.00000408,0.00000083,-0.00000379,-0.00000285,-0.00000334,-
 0.00000365,-0.00000304,0.00000287,-0.00000102,0.00000371,0.00000604,0.
 00000198,0.00000652,-0.00000799,0.00001704,-0.00001015,0.00000425,-0.0
 0000249,-0.00000576,-0.00000557,0.00000522,-0.00005318,-0.00002349,0.0
 0011291,-0.00006080,0.00001685,0.00007035,0.00010641,-0.00007543,0.000
 19970,0.00005487,-0.00000513,-0.00245648,0.00239856,-0.00050854,0.0003
 0175,0.00121621,-0.00015061,0.10424361,-0.18203332,0.02018089,0.026398
 75,-0.06778871,-0.02744955,0.01829379,-0.04116295,0.04335303,-0.152580
 17,0.29454634,-0.00000081,-0.00000358,-0.00000133,-0.00000047,0.000007
 73,-0.00000386,0.00002437,-0.00001123,-0.00000123,-0.00007610,-0.00004
 143,-0.00000642,0.00014485,0.00002828,-0.00007734,-0.00006849,-0.00002
 456,0.00005448,-0.00018592,-0.00007080,0.00009421,0.00025592,0.0000829
 7,-0.00000070,-0.00005906,-0.00003369,-0.00046108,-0.00010342,-0.00028
 858,0.00021213,0.00055816,0.00105205,-0.00009260,-0.00242849,0.0030198
 8,0.00814890,-0.00022046,-0.00000090,0.00180683,-0.00000308,-0.0000008
 5,-0.00000079,0.00000134,-0.00000067,0.00000149,0.00000006,0.00000255,
 0.00000113,0.00000040,0.00000174,0.00000090,0.,-0.00000359,0.00000344,
 -0.00000650,0.00000604,0.00000337,0.00000031,-0.00000089,0.00000229,0.
 00000122,0.00000605,-0.00000901,-0.00001932,0.00000734,-0.00002341,-0.
 00000668,-0.00007915,-0.00026501,-0.00003766,-0.00001221,0.00000648,0.
 00030362,-0.00047218,-0.00028267,-0.00004315,-0.00014784,0.00027112,-0
 .01932200,0.01998249,-0.07596037,0.01661204,-0.03647311,0.00400205,-0.
 02286963,0.05183021,-0.02393191,0.02754895,-0.03836205,0.08650895\\0.0
 0000088,0.00000270,-0.00000064,0.00000039,0.00000263,0.00000021,-0.000
 00501,0.00000057,-0.00000085,0.00000923,0.00000734,-0.00000079,-0.0000
 1222,-0.00000927,0.00000316,-0.00000369,0.00000641,-0.00000196,0.00000
 371,0.00000324,0.00000225,-0.00000023,-0.00000646,0.00000495,0.0000098
 4,0.00000382,-0.00000178,-0.00000626,-0.00000077,-0.00000098,0.0000043
 5,0.00000104,-0.00000136,-0.00000200,-0.00000256,0.00000213,-0.0000058
 5,-0.00000040,0.00000190,-0.00000053,0.00000208,-0.00000054,0.00000024
 ,0.00000321,-0.00000067,0.00000007,0.00000261,0.00000055,-0.00000023,0
 .00000234,-0.00000255,-0.00000029,0.00000072,-0.00000120,0.00000136,0.
 00000012,0.00000116,0.00000025,0.00000326,-0.00000076,0.00000044,-0.00
 000268,-0.00000002,-0.00000281,-0.00000316,-0.00000434,0.00000185,-0.0
 0000140,0.00000093,-0.00000010,-0.00000118,-0.00000178,-0.00000192,-0.
 00000249,-0.00000140,0.00000113,-0.00000112,0.00000142,-0.00000230,-0.
 00000399,-0.00001177,0.00000307,0.00000053,0.00000413,0.00000083,-0.00
 000129,0.00000821,0.00000579,-0.00000585,0.00000240\\\@


 If fifty million people say a stupid thing,
 it is still a stupid thing.
                   -- Anatole France
 Job cpu time:       0 days  2 hours 50 minutes  3.4 seconds.
 File lengths (MBytes):  RWF=    454 Int=      0 D2E=      0 Chk=     12 Scr=      1
 Normal termination of Gaussian 09 at Thu Nov  1 16:47:49 2018.
WARNING: pbs_rusage is deprecated and values produced may not be accurate


=============================================================================
                                     Resource usage:
                                       CPU time:              14:21:36
   JobId:    1921643.r-man2            Elapsed time:          03:36:19
   Project:             q95            Requested time:        36:00:00
   Service Units:     14.42 
                                       Max physical memory:      670MB
                                       Max virtual memory:      1445MB
                                       Requested memory:           0MB

                                       Number of cpus:               4

                                       Max jobfs disk use:       0.4GB
                                       Requested jobfs:         16.0GB
=============================================================================

